Membrane in water
40155
    1TCq1    O1    1   3.487   2.403  11.098 -0.1537 -0.5386  0.4085
    1TCq1    C1    2   3.601   2.478  11.112  1.0624 -0.3454  0.2731
    1TCq1    O2    3   3.694   2.487  11.033  0.1164  0.0493  0.6608
    1TCq1    C2    4   3.589   2.571  11.219 -0.2194  0.1354 -0.5673
    1TCq1    C3    5   3.631   2.696  11.197 -0.7966  0.2734  0.7423
    1TCq1    C4    6   3.612   2.776  11.306 -0.2572 -0.3403  0.3516
    1TCq1    C5    7   3.553   2.735  11.424  0.3505 -0.5760  0.4329
    1TCq1    C6    8   3.528   2.601  11.433  0.0982 -0.6625 -0.0869
    1TCq1    C7    9   3.546   2.517  11.329  0.3658 -0.4502 -0.5306
    1TCq1    C8   10   3.465   2.554  11.556  0.2760 -0.5355  0.0492
    1TCq1    O4   11   3.478   2.620  11.659  0.8445 -0.5511 -0.2412
    1TCq1    C9   12   3.659   2.912  11.304  0.0716  1.0236 -0.0815
    1TCq1    O5   13   3.685   2.964  11.191  0.2803  0.2994  0.7787
    1TCq1    O6   14   3.637   2.972  11.413 -0.6083 -0.3396  0.4374
    1TCq1    H1   15   3.426   2.407  11.175 -0.5130  1.1362  0.0346
    1TCq1    H2   16   3.672   2.731  11.103 -4.5942  0.0382 -0.9764
    1TCq1    H3   17   3.548   2.805  11.507  0.9613 -2.0257  1.6895
    1TCq1    H4   18   3.536   2.410  11.339 -0.0114 -0.1808  1.9261
    2MPD2     C   19   3.273   2.159  11.813 -1.4087  0.4288  0.0292
    2MPD2    C1   20   3.338   2.272  11.860  0.8124  0.8027 -0.1584
    2MPD2    C2   21   3.377   2.368  11.773 -0.2580  0.2410  0.0718
    2MPD2    C3   22   3.351   2.344  11.635  0.5056 -0.5586  0.5731
    2MPD2    C4   23   3.292   2.230  11.593  0.0046 -0.1267  0.1486
    2MPD2    C5   24   3.258   2.133  11.679  0.0719  0.2341  0.3176
    2MPD2     H   25   3.418   2.457  11.820  3.2812  0.1801 -2.8112
    2MPD2    H1   26   3.267   2.202  11.491  1.0105 -1.5831  0.2973
    2MPD2    H2   27   3.245   2.077  11.877 -1.6238  0.0599 -0.5339
    2MPD2    H3   28   3.205   2.047  11.640 -0.3328  1.2478 -1.4042
    2MPD2     N   29   3.393   2.436  11.534 -0.0560  0.0211 -0.3007
    2MPD2    H5   30   3.383   2.407  11.437  1.0828 -1.5766  0.0411
    2MPD2    N1   31   3.379   2.283  11.991  0.2154  0.3749 -0.2362
    2MPD2    H7   32   3.419   2.372  12.019 -0.0648  0.4279  0.0010
    3TCq1    O1   33   3.365   0.040  10.779  0.0376 -0.4659  0.4499
    3TCq1    C1   34   3.321   0.059  10.906 -0.8967 -0.0517  0.6955
    3TCq1    O2   35   3.361   4.719  11.004 -0.7265  0.1744 -0.2172
    3TCq1    C2   36   3.197   0.146  10.911  0.5415 -0.7648 -0.6581
    3TCq1    C3   37   3.159   0.224  10.806 -0.8018 -0.1335 -0.5372
    3TCq1    C4   38   3.053   0.311  10.821  0.6587  0.5638 -0.4025
    3TCq1    C5   39   2.990   0.317  10.938 -0.3713 -0.2951  0.3069
    3TCq1    C6   40   3.032   0.244  11.039  0.0080 -0.1291 -0.4992
    3TCq1    C7   41   3.146   0.167  11.036  0.1376 -0.6339  0.1793
    3TCq1    C8   42   2.971   0.240  11.168 -0.7074 -0.4989 -1.0459
    3TCq1    O4   43   3.028   0.205  11.273 -0.1939 -0.1706 -0.7315
    3TCq1    C9   44   3.017   0.391  10.705 -0.1135 -0.5557  0.1246
    3TCq1    O5   45   3.094   0.389  10.605 -0.1965 -0.1599  0.9013
    3TCq1    O6   46   2.937   0.489  10.735  0.0332 -0.4482  0.1658
    3TCq1    H1   47   3.311   0.090  10.714  0.5503 -0.0624  0.3321
    3TCq1    H2   48   3.206   0.218  10.708 -0.2055  3.6224 -0.4675
    3TCq1    H3   49   2.910   0.389  10.946 -1.4285 -1.3824 -0.6305
    3TCq1    H4   50   3.191   0.115  11.119 -0.5748 -2.7469 -0.7416
    4MPD2     C   51   2.539   0.320  11.447  0.8637 -0.6752  0.0190
    4MPD2    C1   52   2.516   0.345  11.315  0.1507 -0.0813  0.1036
    4MPD2    C2   53   2.618   0.330  11.221  0.8235 -0.7201  0.2356
    4MPD2    C3   54   2.746   0.289  11.260  0.9786 -0.2641 -0.0324
    4MPD2    C4   55   2.768   0.263  11.398 -0.5908 -0.0328 -0.6586
    4MPD2    C5   56   2.662   0.274  11.485  0.5805  0.4721  0.5144
    4MPD2     H   57   2.598   0.350  11.116 -1.9317  0.7259  1.0304
    4MPD2    H1   58   2.865   0.244  11.441 -0.2298 -0.5169 -1.6790
    4MPD2    H2   59   2.460   0.333  11.521 -1.7246  0.3849 -2.9558
    4MPD2    H3   60   2.688   0.264  11.590 -1.4716 -0.0327  0.9752
    4MPD2     N   61   2.843   0.284  11.155 -0.2361 -0.4331  0.0643
    4MPD2    H5   62   2.799   0.309  11.067 -0.2027  2.9289  1.0033
    4MPD2    N1   63   2.384   0.373  11.266  0.5593 -0.0797 -0.4218
    4MPD2    H7   64   2.372   0.381  11.166 -1.4037  1.5053 -0.0504
    5TCq1    O1   65   2.998   4.107  10.137 -0.2400 -0.3627 -0.4597
    5TCq1    C1   66   2.910   4.197  10.089 -0.7049 -0.7810 -0.1849
    5TCq1    O2   67   2.811   4.167  10.021  0.5039 -0.2426 -0.3155
    5TCq1    C2   68   2.934   4.328  10.138  0.0484 -0.5645  0.0696
    5TCq1    C3   69   2.822   4.387  10.189 -0.7884  0.6151  0.6704
    5TCq1    C4   70   2.843   4.490  10.273  0.1620  0.2460 -0.0825
    5TCq1    C5   71   2.971   4.533  10.308  0.3236  0.5456 -0.1887
    5TCq1    C6   72   3.074   4.466  10.261 -0.1441  0.4196 -0.1629
    5TCq1    C7   73   3.062   4.361  10.171 -0.5596 -0.0191 -0.2176
    5TCq1    C8   74   3.199   4.511  10.310  0.4166 -0.4426 -0.8496
    5TCq1    O4   75   3.200   4.538  10.429  0.2899 -0.2553  0.0420
    5TCq1    C9   76   2.730   4.553  10.335 -0.1512 -0.0963  1.0064
    5TCq1    O5   77   2.757   4.616  10.443  0.1788  0.1089 -0.2185
    5TCq1    O6   78   2.621   4.497  10.307  0.2529 -0.3703  0.1766
    5TCq1    H1   79   3.065   4.146  10.198 -0.5315 -0.1501 -0.2723
    5TCq1    H2   80   2.723   4.348  10.165 -1.6094  3.4470 -0.5990
    5TCq1    H3   81   2.989   4.621  10.369 -2.6057  1.1379 -0.2097
    5TCq1    H4   82   3.145   4.302  10.133  0.7618  1.8317 -0.1810
    6MPD2     C   83   3.533   4.438  10.204 -0.2232  0.6649  0.3455
    6MPD2    C1   84   3.438   4.504  10.275  0.2998 -0.1852 -0.5525
    6MPD2    C2   85   3.479   4.601  10.361  0.3668 -0.7381 -0.3821
    6MPD2    C3   86   3.610   4.616  10.398 -0.0794  0.0080 -0.2398
    6MPD2    C4   87   3.710   4.534  10.342 -0.2939 -0.2551 -0.4393
    6MPD2    C5   88   3.666   4.458  10.238 -0.3955 -0.3039 -0.6713
    6MPD2     H   89   3.402   4.658  10.412  0.9901 -0.2520  0.0151
    6MPD2    H1   90   3.815   4.542  10.365 -0.1733  0.2081 -1.1467
    6MPD2    H2   91   3.500   4.383  10.117  0.4680  2.8164 -1.2824
    6MPD2    H3   92   3.730   4.404  10.170  2.1268  1.4221  0.3252
    6MPD2     N   93   3.632   4.701  10.506 -1.1008  0.4016 -0.1087
    6MPD2    H5   94   3.543   0.014  10.538 -0.2579  0.7448  1.8079
    6MPD2    N1   95   3.304   4.488  10.234  0.1885  0.6881 -0.2215
    6MPD2    H7   96   3.297   4.459  10.137  1.8323 -0.8051  0.0987
    7TCq1    O1   97   1.290   4.683  12.972 -0.7842 -0.2174 -0.2247
    7TCq1    C1   98   1.218   4.599  12.902 -0.1235  0.6283  0.3883
    7TCq1    O2   99   1.202   4.606  12.779 -0.0975  0.0579  0.1844
    7TCq1    C2  100   1.111   4.552  12.988 -0.2383  0.2774 -0.3454
    7TCq1    C3  101   1.049   4.648  13.066  0.2544 -0.6665  0.5828
    7TCq1    C4  102   0.929   4.619  13.122 -0.0664 -0.0027  0.1838
    7TCq1    C5  103   0.855   4.515  13.071 -0.8333 -0.4457  0.4628
    7TCq1    C6  104   0.908   4.424  12.981  0.1926  0.0141 -1.2082
    7TCq1    C7  105   1.040   4.446  12.936  0.1123  0.4512  0.6061
    7TCq1    C8  106   0.845   4.294  12.973  0.2896 -0.2550  0.9572
    7TCq1    O4  107   0.741   4.276  13.033 -0.5590 -0.5966  0.4430
    7TCq1    C9  108   0.870   4.709  13.219 -0.4707  0.6385 -0.1138
    7TCq1    O5  109   0.941   0.088  13.257  0.2305 -0.2788  0.6495
    7TCq1    O6  110   0.761   4.670  13.272 -0.1925  0.1030  0.2763
    7TCq1    H1  111   1.274   4.656  13.065  0.2233 -2.6529 -0.7682
    7TCq1    H2  112   1.095   0.013  13.105  1.0450 -1.2429  0.9778
    7TCq1    H3  113   0.756   4.501  13.112 -1.0060  0.0045  0.1951
    7TCq1    H4  114   1.092   4.371  12.879 -2.1943  0.2216 -1.1880
    8MPD2     C  115   0.821   3.790  12.877  0.4960  0.3169 -0.4273
    8MPD2    C1  116   0.750   3.862  12.973  0.0217 -0.3269  0.5233
    8MPD2    C2  117   0.785   3.997  12.986  0.0395  0.3791 -0.9472
    8MPD2    C3  118   0.887   4.055  12.912  0.0719  0.0493 -0.0919
    8MPD2    C4  119   0.969   3.975  12.833 -0.3867  0.4645 -0.0374
    8MPD2    C5  120   0.925   3.849  12.813  0.3644 -0.6496  0.3082
    8MPD2     H  121   0.741   4.060  13.062  0.8391  0.0453 -0.2107
    8MPD2    H1  122   1.050   4.019  12.777 -0.9124 -1.1474 -2.0704
    8MPD2    H2  123   0.791   3.690  12.847 -1.9749  1.5083 -1.9619
    8MPD2    H3  124   0.982   3.785  12.747 -0.3749 -0.3602 -0.5978
    8MPD2     N  125   0.919   4.197  12.918  0.3885  0.2059 -0.0379
    8MPD2    H5  126   1.012   4.217  12.883  0.7727  0.1860  0.9885
    8MPD2    N1  127   0.643   3.804  13.050  0.0121  0.0255 -0.1690
    8MPD2    H7  128   0.629   3.709  13.017 -0.8088  0.0366  0.1543
    9TCq1    O1  129   3.238   2.959  10.105  0.1746 -0.0862  0.2799
    9TCq1    C1  130   3.339   2.970  10.188  0.4435 -0.0257 -0.3013
    9TCq1    O2  131   3.427   2.881  10.207 -0.1277 -0.5278 -0.2066
    9TCq1    C2  132   3.296   3.061  10.291 -0.9272  0.2185  0.2549
    9TCq1    C3  133   3.380   3.157  10.344 -0.1272 -0.9963 -0.2582
    9TCq1    C4  134   3.361   3.186  10.475 -0.2892  0.2252 -0.2906
    9TCq1    C5  135   3.261   3.130  10.552  0.5740  0.3084  0.4429
    9TCq1    C6  136   3.188   3.036  10.492  0.1844  0.1987  0.0777
    9TCq1    C7  137   3.202   2.999  10.362  0.3477 -0.5110  0.6938
    9TCq1    C8  138   3.098   2.957  10.575  0.0865 -0.0844  0.3292
    9TCq1    O4  139   3.006   2.901  10.514  0.0721  0.1857  0.0941
    9TCq1    C9  140   3.462   3.268  10.545 -0.3639 -0.0801 -0.6592
    9TCq1    O5  141   3.432   3.318  10.656 -0.1255  0.1314 -0.3427
    9TCq1    O6  142   3.576   3.274  10.491  0.2570 -0.5381 -0.2755
    9TCq1    H1  143   3.189   3.044  10.111  1.4560  0.8892 -3.0343
    9TCq1    H2  144   3.466   3.195  10.289 -0.2494  0.5328  0.5978
    9TCq1    H3  145   3.246   3.157  10.656  1.4782 -1.6800  1.0787
    9TCq1    H4  146   3.151   2.910  10.328  0.0758 -0.5313  1.1554
   10MPD2     C  147   2.916   2.849  10.785  0.0263  0.0897 -0.2173
   10MPD2    C1  148   3.034   2.910  10.812 -0.0153  0.8864 -0.2049
   10MPD2    C2  149   3.086   2.902  10.947  0.2965  0.0797 -0.6973
   10MPD2    C3  150   3.013   2.843  11.048  0.0181  0.8381  0.3944
   10MPD2    C4  151   2.892   2.793  11.015  0.1120  0.5165 -0.3592
   10MPD2    C5  152   2.842   2.796  10.883 -0.2379  0.2004 -0.2218
   10MPD2     H  153   3.181   2.953  10.962  0.4818 -1.1454  2.4253
   10MPD2    H1  154   2.837   2.735  11.089  0.2183  0.6554 -0.1721
   10MPD2    H2  155   2.870   2.847  10.686 -1.2477 -2.2072  0.4255
   10MPD2    H3  156   2.754   2.736  10.860 -0.9211  1.6334 -1.3168
   10MPD2     N  157   3.060   2.828  11.181 -0.5380  0.0051 -0.1921
   10MPD2    H5  158   2.996   2.775  11.239  1.0495 -1.9132 -0.1801
   10MPD2    N1  159   3.119   2.963  10.713  0.5077 -0.4460 -0.3330
   10MPD2    H7  160   3.202   3.015  10.738 -0.4620  0.6129  0.6811
   11TCq1    O1  161   4.106   3.667  13.912 -0.0452 -0.2662  0.6687
   11TCq1    C1  162   3.985   3.598  13.901  1.0261  0.3189 -0.6097
   11TCq1    O2  163   3.940   3.545  13.803 -0.3576 -0.0797 -0.3031
   11TCq1    C2  164   3.920   3.582  14.035  0.6353 -0.2003 -1.1268
   11TCq1    C3  165   3.973   3.645  14.146  0.1306 -0.3661  0.4912
   11TCq1    C4  166   3.919   3.605  14.267  0.2074 -0.0248 -0.2637
   11TCq1    C5  167   3.822   3.513  14.283 -0.1628  0.0546 -0.6366
   11TCq1    C6  168   3.777   3.458  14.172 -0.5394  0.8159  0.7820
   11TCq1    C7  169   3.819   3.488  14.047  0.0528 -0.0969 -0.0001
   11TCq1    C8  170   3.658   3.386  14.189 -0.7518  0.1425 -0.4340
   11TCq1    O4  171   3.576   3.425  14.275  0.2589  0.1943  0.2062
   11TCq1    C9  172   3.977   3.673  14.379  0.4377 -0.3653  0.1842
   11TCq1    O5  173   4.077   3.740  14.362  0.1156 -0.4323  0.4487
   11TCq1    O6  174   3.927   3.652  14.496 -0.1573  0.2791 -0.3389
   11TCq1    H1  175   4.136   3.686  14.004  0.4801 -0.3332  0.5131
   11TCq1    H2  176   4.048   3.723  14.141 -2.0557  1.8593  2.1841
   11TCq1    H3  177   3.780   3.489  14.380  0.8460  1.7405  0.2019
   11TCq1    H4  178   3.775   3.451  13.955  0.5494  2.1816 -1.1498
   12MPD2     C  179   3.406   3.256  14.113  0.4313 -0.1955 -0.2525
   12MPD2    C1  180   3.527   3.198  14.098 -0.1904  0.0181  0.3089
   12MPD2    C2  181   3.536   3.071  14.051  0.2637 -0.2283 -0.4244
   12MPD2    C3  182   3.419   3.002  14.019  0.7341  0.3525  0.0010
   12MPD2    C4  183   3.295   3.054  14.036 -0.1997 -0.0337  0.1769
   12MPD2    C5  184   3.290   3.188  14.093  0.0736 -0.1076 -0.9510
   12MPD2     H  185   3.635   3.034  14.029  0.4707  1.0731 -1.7026
   12MPD2    H1  186   3.208   2.997  14.008  0.2997  0.0802 -1.5788
   12MPD2    H2  187   3.392   3.359  14.145 -0.5936 -0.5200  0.3365
   12MPD2    H3  188   3.192   3.233  14.103  0.8747  0.7580  2.9242
   12MPD2     N  189   3.417   2.872  13.954  0.5558  0.3178  0.3493
   12MPD2    H5  190   3.322   2.839  13.937  0.9101 -0.0407 -0.9003
   12MPD2    N1  191   3.648   3.271  14.113 -0.8242 -0.7151  0.0653
   12MPD2    H7  192   3.734   3.233  14.075 -0.9984 -1.9611  0.9033
   13TCq1    O1  193   3.376   3.669  10.283 -0.5183  0.2108 -0.1327
   13TCq1    C1  194   3.268   3.666  10.359 -0.2445 -0.1373 -0.0032
   13TCq1    O2  195   3.212   3.767  10.400 -0.2367 -0.2458 -0.0933
   13TCq1    C2  196   3.208   3.534  10.356  0.6227 -0.3806  0.0378
   13TCq1    C3  197   3.233   3.452  10.243 -0.5828 -1.1058  0.4899
   13TCq1    C4  198   3.140   3.357  10.216  0.3937  0.4842  0.0993
   13TCq1    C5  199   3.020   3.350  10.282  0.1500  0.3566  0.4869
   13TCq1    C6  200   3.012   3.422  10.399  0.4737  0.2968 -0.3711
   13TCq1    C7  201   3.103   3.517  10.437  0.4683 -0.0532  0.4414
   13TCq1    C8  202   2.931   3.376  10.515  0.1032 -0.0135  0.4215
   13TCq1    O4  203   2.952   3.432  10.620  0.5479 -0.4956 -0.5624
   13TCq1    C9  204   3.153   3.281  10.092  0.1330  0.0619  0.1033
   13TCq1    O5  205   3.236   3.318  10.006  0.1826 -0.2767 -0.8866
   13TCq1    O6  206   3.104   3.164  10.096 -0.0558  0.1702  0.1124
   13TCq1    H1  207   3.425   3.584  10.283 -0.7231  0.0928 -0.4385
   13TCq1    H2  208   3.316   3.460  10.173 -0.7863 -0.6425  0.3009
   13TCq1    H3  209   2.955   3.265  10.264  1.4260 -0.8021  1.3477
   13TCq1    H4  210   3.100   3.578  10.526  1.6261 -0.1032  0.5098
   14MPD2     C  211   2.689   3.109  10.515  0.5178  0.2881 -0.7208
   14MPD2    C1  212   2.772   3.202  10.567  0.0688  0.1001  0.1471
   14MPD2    C2  213   2.780   3.211  10.703 -0.0802 -0.0574  0.4397
   14MPD2    C3  214   2.708   3.125  10.784  0.3614  0.0388 -0.7342
   14MPD2    C4  215   2.628   3.030  10.730 -0.0631 -0.5743  0.4108
   14MPD2    C5  216   2.615   3.031  10.595 -0.0170  0.8228 -0.0481
   14MPD2     H  217   2.844   3.278  10.759 -0.7599 -3.2051  4.9475
   14MPD2    H1  218   2.565   2.969  10.794 -3.0587  0.4380 -1.6164
   14MPD2    H2  219   2.684   3.087  10.409 -0.6830  1.5220 -0.9210
   14MPD2    H3  220   2.548   2.954  10.558 -0.7395  1.8798 -0.9480
   14MPD2     N  221   2.723   3.150  10.926  0.0592 -0.1932  0.0511
   14MPD2    H5  222   2.790   3.218  10.960 -1.2131  1.0602  0.0341
   14MPD2    N1  223   2.849   3.276  10.479 -0.9251 -0.2051 -0.2138
   14MPD2    H7  224   2.827   3.259  10.381 -0.8751 -0.9721 -0.0978
   15TCq1    O1  225   4.507   1.888   1.808 -0.4314 -0.1680 -0.4475
   15TCq1    C1  226   4.485   1.796   1.715  0.2461 -0.1476 -0.1165
   15TCq1    O2  227   4.441   1.817   1.605 -0.1803 -0.3567  0.3535
   15TCq1    C2  228   4.565   1.675   1.744 -0.1883  0.7714  0.3062
   15TCq1    C3  229   4.581   1.642   1.869  0.4120  0.5899 -0.6796
   15TCq1    C4  230   4.672   1.544   1.907 -0.3839  0.1500 -0.8733
   15TCq1    C5  231   0.027   1.493   1.806  0.5967  0.7033  0.0997
   15TCq1    C6  232   0.004   1.528   1.678  0.8758  0.3494  0.0891
   15TCq1    C7  233   4.637   1.620   1.636 -0.5692 -0.5298  0.0362
   15TCq1    C8  234   0.064   1.436   1.577  1.0061 -0.6466  0.5566
   15TCq1    O4  235   0.159   1.370   1.613 -0.1351 -0.2720 -0.1485
   15TCq1    C9  236   4.696   1.502   2.046 -1.0176 -0.3133 -0.1405
   15TCq1    O5  237   4.620   1.552   2.127  0.3097 -0.0001  0.2504
   15TCq1    O6  238   0.064   1.421   2.077  0.0074 -0.3952 -0.2011
   15TCq1    H1  239   4.554   1.850   1.886 -1.0889 -2.2100 -1.0417
   15TCq1    H2  240   4.511   1.681   1.943  1.0249 -2.2626  1.4044
   15TCq1    H3  241   0.103   1.419   1.830 -0.3084 -0.6785 -1.3464
   15TCq1    H4  242   4.619   1.657   1.535  0.4751  1.6361  0.6276
   16MPD2     C  243   4.653   1.363   1.244  0.0437  0.5655  0.4590
   16MPD2    C1  244   0.022   1.358   1.343 -0.5895  0.8637  0.2558
   16MPD2    C2  245   0.135   1.285   1.334  0.2252  0.7743  0.8597
   16MPD2    C3  246   0.149   1.209   1.222  0.3459 -0.1586  0.4163
   16MPD2    C4  247   0.057   1.212   1.119 -0.2998  0.3209  0.0972
   16MPD2    C5  248   4.671   1.288   1.135  0.0982  0.7572  0.1732
   16MPD2     H  249   0.216   1.297   1.404  1.9179  0.6735 -1.0824
   16MPD2    H1  250   0.075   1.147   1.034 -1.2214 -0.1328  0.2603
   16MPD2    H2  251   4.567   1.428   1.247 -1.2624 -1.2977  3.2054
   16MPD2    H3  252   4.594   1.287   1.058  0.1103  0.4475  0.1627
   16MPD2     N  253   0.277   1.143   1.216 -0.0560 -0.3978 -0.1066
   16MPD2    H5  254   0.332   1.149   1.301  0.4031  0.0503 -0.4382
   16MPD2    N1  255   4.719   1.437   1.458  0.4189 -0.0331  0.0109
   16MPD2    H7  256   4.635   1.493   1.468 -1.1528 -2.5835  0.9682
   17TCq1    O1  257   2.793   2.220  10.609  0.2541  0.2622  0.2805
   17TCq1    C1  258   2.895   2.223  10.694  0.9045  0.5100  0.7372
   17TCq1    O2  259   2.921   2.154  10.788  0.6111  0.4213  0.3689
   17TCq1    C2  260   2.985   2.323  10.643  0.1773 -0.1089  0.5104
   17TCq1    C3  261   2.978   2.374  10.514 -0.2668 -0.0183  0.3205
   17TCq1    C4  262   3.029   2.493  10.484  0.7229 -0.1651 -0.5693
   17TCq1    C5  263   3.094   2.568  10.583  0.7880 -0.9374 -0.2951
   17TCq1    C6  264   3.109   2.510  10.703 -0.2858  0.5165 -0.6147
   17TCq1    C7  265   3.057   2.386  10.737 -0.5777 -0.0030 -0.1571
   17TCq1    C8  266   3.217   2.573  10.781 -0.2017 -0.2026 -0.6689
   17TCq1    O4  267   3.220   2.531  10.898 -0.0936 -0.4065 -0.3705
   17TCq1    C9  268   3.011   2.539  10.350 -0.0659 -0.0015  0.8402
   17TCq1    O5  269   3.043   2.659  10.324  0.1610 -0.0177 -0.4026
   17TCq1    O6  270   2.962   2.463  10.263  0.4783  0.0591  0.5202
   17TCq1    H1  271   2.783   2.313  10.580  0.5780  0.1067 -0.3400
   17TCq1    H2  272   2.930   2.321  10.433  1.3815  1.1177 -1.4004
   17TCq1    H3  273   3.136   2.665  10.558 -0.5587  0.0762  1.4255
   17TCq1    H4  274   3.084   2.345  10.834 -0.1530  2.2390  0.6737
   18MPD2     C  275   3.409   2.765  10.866  0.3506 -0.0510 -0.1356
   18MPD2    C1  276   3.428   2.696  10.751  0.4149  0.3024 -0.7139
   18MPD2    C2  277   3.538   2.715  10.670  0.2322  0.3542  0.2339
   18MPD2    C3  278   3.634   2.794  10.710  0.2866  0.6054 -0.1677
   18MPD2    C4  279   3.623   2.868  10.833  0.0868  0.1768  0.3081
   18MPD2    C5  280   3.515   2.842  10.917  0.2256 -0.0448  0.4982
   18MPD2     H  281   3.550   2.676  10.570 -2.0809 -0.2173  0.1713
   18MPD2    H1  282   3.701   2.928  10.878 -0.3169  0.1927  0.9925
   18MPD2    H2  283   3.315   2.755  10.918 -0.3570 -1.7100 -1.7451
   18MPD2    H3  284   3.520   2.898  11.009 -2.1902 -0.1385  0.6876
   18MPD2     N  285   3.755   2.818  10.641  0.4836  0.3462  0.5453
   18MPD2    H5  286   3.808   2.900  10.667 -1.0714  1.0815  1.4167
   18MPD2    N1  287   3.320   2.622  10.703 -0.3273  0.0903 -0.0129
   18MPD2    H7  288   3.324   2.593  10.606 -2.4524  0.8006 -0.3213
   19TMC2    C1  289   4.497   3.116  13.840 -0.3562 -0.3536 -0.8428
   19TMC2    C2  290   4.409   3.160  13.744  0.0195  0.6618 -0.2638
   19TMC2    C3  291   4.356   3.063  13.663  0.0733 -0.1749  0.5090
   19TMC2    C4  292   4.528   2.986  13.854  0.1213  1.2633 -0.1183
   19TMC2    C5  293   4.484   2.897  13.760 -0.2040  0.7098 -0.3672
   19TMC2    C6  294   4.391   2.929  13.665  0.1873 -0.8698  0.3622
   19TMC2     C  295   4.526   3.217  13.934  0.3506  0.1231  0.7474
   19TMC2     O  296   4.501   3.328  13.897 -0.5216 -0.3401 -0.9744
   19TMC2     H  297   4.362   3.258  13.747 -1.8199 -0.2790  2.1496
   19TMC2    H1  298   4.588   2.941  13.932 -0.8918  1.4246  0.7607
   19TMC2    H2  299   4.357   2.853  13.596  1.0897 -0.6890 -0.2772
   19TMC2    C7  300   4.503   2.755  13.770 -0.3294  0.7113 -0.0508
   19TMC2    C8  301   4.291   3.113  13.544  0.0828 -0.1178 -0.1036
   19TMC2    O1  302   4.407   2.684  13.739 -0.2187 -0.2890 -0.3894
   19TMC2    O2  303   4.318   3.223  13.499 -0.1937 -0.0059 -0.3189
   19TMC2    O5  304   4.176   3.050  13.521 -0.1549 -0.1196  0.2590
   19TMC2    H5  305   4.164   2.965  13.568  1.0256 -0.4299 -0.0217
   20MPD2     C  306   4.593   3.372  14.176  0.2060  1.0437 -0.2787
   20MPD2    C1  307   4.619   3.244  14.161  1.0754  0.3523 -0.5145
   20MPD2    C2  308   4.692   3.178  14.257  0.6014 -0.5465 -0.2980
   20MPD2    C3  309   0.005   3.241  14.375  1.0780 -0.2242  0.6839
   20MPD2    C4  310   4.699   3.378  14.388 -0.4573  0.5476 -0.0322
   20MPD2    C5  311   4.635   3.439  14.284  0.1135 -0.5321 -0.5776
   20MPD2     H  312   0.007   3.077  14.244  1.2117 -0.9081  4.2822
   20MPD2    H1  313   4.713   3.436  14.478  2.3024  1.0909 -0.8121
   20MPD2    H2  314   4.536   3.424  14.100  0.9651  0.8076 -1.0040
   20MPD2    H3  315   4.587   3.532  14.313  1.0766  0.1168 -1.0980
   20MPD2     N  316   0.082   3.175  14.476 -0.1656 -0.2599  0.2929
   20MPD2    H5  317   0.105   3.237  14.552 -0.8771  0.6727 -0.2545
   20MPD2    N1  318   4.587   3.171  14.045 -0.1651  0.1393  0.1304
   20MPD2    H7  319   4.603   3.071  14.049  1.0005  0.3418  0.6755
   21MPD2     C  320   2.129   3.095  13.853  0.5027  0.0034 -0.1970
   21MPD2    C1  321   2.171   2.990  13.936 -0.8283  0.0321  0.0135
   21MPD2    C2  322   2.097   2.969  14.050  0.3396  0.1224  0.0628
   21MPD2    C3  323   1.981   3.044  14.078 -0.0818  0.0013  0.0433
   21MPD2    C4  324   1.939   3.137  13.988  0.4022 -0.0346 -0.7437
   21MPD2    C5  325   2.013   3.163  13.875  0.1494  0.0269  0.6090
   21MPD2     H  326   2.118   2.882  14.111 -1.0278 -0.1598  0.1407
   21MPD2    H1  327   1.848   3.194  14.005  1.6701  2.0233 -0.9490
   21MPD2    H2  328   2.186   3.126  13.766 -1.3876  2.4228 -0.6012
   21MPD2    H3  329   1.978   3.241  13.809 -0.3525 -1.9495 -1.4790
   21MPD2     N  330   1.914   3.045  14.204 -0.5234  0.3806  0.4674
   21MPD2    H5  331   1.835   3.109  14.212  0.1018  1.4872 -2.0884
   21MPD2    N1  332   2.298   2.922  13.921  0.6913  0.0415  0.0405
   21MPD2    H7  333   2.315   2.844  13.983  2.1431 -0.5388 -1.1039
   22TCq2    C1  334   1.940   2.964  14.305  1.3206  0.0826  0.1181
   22TCq2    O2  335   2.020   2.869  14.316  0.1762 -0.3628 -0.3368
   22TCq2    C2  336   1.875   3.008  14.429  0.2574 -0.1563 -0.3881
   22TCq2    C3  337   1.898   2.929  14.535 -0.0682  0.1757  0.1721
   22TCq2    C4  338   1.897   2.989  14.657 -0.0272  0.2069  0.8900
   22TCq2    C5  339   1.860   3.114  14.671  0.2451 -0.1068 -0.2476
   22TCq2    C6  340   1.814   3.195  14.565  0.8099  0.0786  0.4603
   22TCq2    C7  341   1.827   3.139  14.437  0.5683 -0.6927  0.0433
   22TCq2    C8  342   1.806   3.338  14.596 -0.4086 -0.6174  0.0100
   22TCq2    O4  343   1.862   3.388  14.690  0.5476  0.6949  0.4551
   22TCq2    C9  344   1.954   2.921  14.765  0.5270 -0.9940 -0.2236
   22TCq2    O5  345   2.030   2.830  14.731 -0.5886  0.2030 -1.0516
   22TCq2    O6  346   1.960   2.976  14.878 -0.7288 -0.0834 -0.0203
   22TCq2    H2  347   1.928   2.825  14.529 -0.1940  0.0520  1.8622
   22TCq2    H3  348   1.871   3.169  14.763 -0.9118  0.2583 -0.3325
   22TCq2    H4  349   1.809   3.211  14.358 -1.2065 -1.6354 -0.3974
   23MPD2     C  350   3.043   4.050  15.347  0.9843  0.4322  0.4261
   23MPD2    C1  351   3.167   4.092  15.298  0.4377 -0.2944  0.7758
   23MPD2    C2  352   3.173   4.109  15.166 -0.4072 -0.4506  0.8391
   23MPD2    C3  353   3.066   4.088  15.078  0.2015  0.3512  0.0954
   23MPD2    C4  354   2.943   4.073  15.136 -0.5866  0.0678  0.0662
   23MPD2    C5  355   2.931   4.049  15.269 -0.0777 -0.2373  0.8210
   23MPD2     H  356   3.274   4.122  15.130 -0.6941 -1.0216 -0.1942
   23MPD2    H1  357   2.850   4.067  15.081  1.1249  1.8770 -3.0641
   23MPD2    H2  358   3.032   4.025  15.452 -1.6398  2.4431  0.6304
   23MPD2    H3  359   2.833   4.021  15.308 -0.5274  0.2034 -0.0132
   23MPD2     N  360   3.075   4.116  14.935  0.4149 -0.0195 -0.1231
   23MPD2    H5  361   2.991   4.104  14.880  0.9449 -0.5707 -0.8135
   23MPD2    N1  362   3.285   4.108  15.372  0.1462  0.2413 -1.1477
   23MPD2    H7  363   3.371   4.132  15.324  0.5324 -1.2066 -1.1794
   24TCq2    C1  364   3.179   4.192  14.877 -0.3254  0.1610 -0.4263
   24TCq2    O2  365   3.271   4.258  14.935  0.0348 -0.0872  0.3902
   24TCq2    C2  366   3.165   4.211  14.729  0.3800 -1.0382  0.0838
   24TCq2    C3  367   3.219   4.329  14.680  0.0546 -0.3066  0.7427
   24TCq2    C4  368   3.173   4.357  14.551  0.6288  0.1252 -0.3298
   24TCq2    C5  369   3.079   4.277  14.486 -0.1195 -0.1737  0.0629
   24TCq2    C6  370   3.034   4.163  14.537 -0.2101 -0.3969  0.1064
   24TCq2    C7  371   3.082   4.129  14.657 -0.1062 -0.7445 -0.1699
   24TCq2    C8  372   2.949   4.062  14.476  0.4183  0.1035  0.3289
   24TCq2    O4  373   2.983   3.948  14.505 -0.6604  0.5827  0.1219
   24TCq2    C9  374   3.216   4.476  14.489 -0.0852 -0.0320  0.5381
   24TCq2    O5  375   3.330   4.517  14.537  0.2186 -0.2448  0.0915
   24TCq2    O6  376   3.135   4.539  14.410  0.0444  0.1671 -0.5859
   24TCq2    H2  377   3.287   4.401  14.726 -1.5616  0.9797  1.1317
   24TCq2    H3  378   3.040   4.318  14.393 -0.1650 -2.8389 -1.1169
   24TCq2    H4  379   3.037   4.044  14.708 -1.0588 -0.0690  0.1022
   25TMC2    C1  380   2.625   1.834  11.419  1.0916 -0.3728 -0.0435
   25TMC2    C2  381   2.722   1.928  11.425  0.2679 -0.0111  0.3677
   25TMC2    C3  382   2.734   1.997  11.539 -0.0486  0.3528 -1.1636
   25TMC2    C4  383   2.529   1.818  11.514 -0.0100  0.0583 -0.0833
   25TMC2    C5  384   2.536   1.901  11.619 -0.4060  0.5507  0.3614
   25TMC2    C6  385   2.637   1.984  11.639 -0.1954 -0.0893 -0.0632
   25TMC2     C  386   2.648   1.728  11.317 -0.0513  0.4059 -0.4157
   25TMC2     O  387   2.764   1.709  11.288 -0.2451  0.5199 -0.2569
   25TMC2     H  388   2.778   1.947  11.334  1.5095  2.2989  1.6265
   25TMC2    H1  389   2.451   1.743  11.511 -1.7586  1.8958 -1.2603
   25TMC2    H2  390   2.642   2.045  11.728  2.4249 -0.6989  0.2222
   25TMC2    C7  391   2.440   1.894  11.729 -0.3171 -0.0494 -0.3679
   25TMC2    C8  392   2.808   2.119  11.526 -0.6053 -0.1545 -0.2448
   25TMC2    O1  393   2.483   1.887  11.842 -0.6888  0.0994 -0.4834
   25TMC2    O2  394   2.769   2.227  11.571  0.1722  0.2407 -0.0651
   25TMC2    O5  395   2.935   2.074  11.502  0.3699 -0.1914 -0.4022
   25TMC2    H5  396   2.944   1.977  11.491  1.1970 -0.2362  0.7130
   26MPD2     C  397   2.490   1.296  11.074  0.6694  0.4443 -0.5899
   26MPD2    C1  398   2.385   1.360  11.123  0.3378 -0.2341 -0.3418
   26MPD2    C2  399   2.407   1.471  11.201 -0.4324 -0.0287 -0.0776
   26MPD2    C3  400   2.531   1.526  11.228 -0.8306  0.1413 -0.3740
   26MPD2    C4  401   2.638   1.453  11.186  0.1398  0.2625 -1.5115
   26MPD2    C5  402   2.619   1.336  11.110  0.2187  0.3876  0.6461
   26MPD2     H  403   2.318   1.524  11.233  0.7338  1.3792  0.8264
   26MPD2    H1  404   2.739   1.484  11.207 -0.3409  0.1579  0.8778
   26MPD2    H2  405   2.482   1.210  11.007  0.2024 -0.2956  0.4192
   26MPD2    H3  406   2.706   1.288  11.065  0.0822 -0.3294  1.1407
   26MPD2     N  407   2.535   1.652  11.292  0.7119 -0.2166  0.2073
   26MPD2    H5  408   2.446   1.696  11.313 -0.4970 -2.9294  0.8001
   26MPD2    N1  409   2.257   1.320  11.099  0.4759  0.7226 -0.0027
   26MPD2    H7  410   2.229   1.259  11.022 -0.2951  0.0128  0.8324
   27TMC2    C1  411   1.703   4.068  12.120 -0.2955 -0.1619  0.0008
   27TMC2    C2  412   1.634   4.159  12.050  0.0783 -0.4957 -0.0111
   27TMC2    C3  413   1.686   4.287  12.047 -0.2781 -0.2790 -0.4948
   27TMC2    C4  414   1.811   4.091  12.202  0.6801 -0.0591 -0.0909
   27TMC2    C5  415   1.842   4.229  12.213 -1.0056 -0.0769 -0.0330
   27TMC2    C6  416   1.788   4.324  12.129  0.3025  0.1008  0.6479
   27TMC2     C  417   1.621   3.956  12.163  0.2016  1.0900  0.6102
   27TMC2     O  418   1.676   3.850  12.192  0.4577 -0.7896  0.5601
   27TMC2     H  419   1.547   4.133  11.991 -0.0755  2.2157 -0.9900
   27TMC2    H1  420   1.826   4.020  12.282 -0.5125 -2.0625 -1.6499
   27TMC2    H2  421   1.832   4.422  12.140 -0.6532  0.3760  1.9960
   27TMC2    C7  422   1.850   4.272  12.354  1.1132  0.4671  0.7442
   27TMC2    C8  423   1.648   4.358  11.931  0.2856  0.5384 -0.6554
   27TMC2    O1  424   1.894   4.182  12.422  0.3496 -0.1204  0.5763
   27TMC2    O2  425   1.584   4.317  11.833  0.3056  0.2987 -0.2341
   27TMC2    O5  426   1.689   4.481  11.960 -0.3540 -0.0010  0.3455
   27TMC2    H5  427   1.711   4.495  12.055  0.0341  2.7479 -0.1781
   28MPD2     C  428   1.178   3.761  12.371  0.9703 -0.2822 -0.0156
   28MPD2    C1  429   1.162   3.897  12.348  0.1116  0.6171  0.5049
   28MPD2    C2  430   1.272   3.974  12.295  0.1381  0.0200 -0.0736
   28MPD2    C3  431   1.391   3.913  12.259 -0.2927  1.5450  0.0008
   28MPD2    C4  432   1.395   3.771  12.271 -0.2223  0.1936  0.3700
   28MPD2    C5  433   1.294   3.702  12.331 -0.3659 -1.3397 -0.2730
   28MPD2     H  434   1.255   4.080  12.282  0.2655  0.2575  1.6431
   28MPD2    H1  435   1.484   3.716  12.241 -0.0833  0.5145  0.1942
   28MPD2    H2  436   1.101   3.703  12.421  0.9536  0.6480  1.0547
   28MPD2    H3  437   1.306   3.594  12.322  0.5311 -1.1360 -1.6959
   28MPD2     N  438   1.494   3.991  12.201 -0.0239  1.0751  0.2794
   28MPD2    H5  439   1.481   4.088  12.174 -2.5108  0.5579 -0.3749
   28MPD2    N1  440   1.049   3.956  12.394  0.0190  0.4968 -0.6155
   28MPD2    H7  441   0.986   3.893  12.443  1.4641  2.3154  3.6119
   29MPD2     C  442   0.629   1.334  14.147  0.3507 -0.3809  0.5466
   29MPD2    C1  443   0.766   1.349  14.117 -0.7120 -0.1050  0.0785
   29MPD2    C2  444   0.815   1.473  14.125  0.4996  0.4112  0.3032
   29MPD2    C3  445   0.740   1.583  14.165  0.1427 -0.6485  0.0159
   29MPD2    C4  446   0.605   1.557  14.200  0.3143  0.3536 -0.0861
   29MPD2    C5  447   0.556   1.435  14.199  0.5234 -0.0926 -0.4266
   29MPD2     H  448   0.919   1.488  14.097 -0.2704  3.4006 -0.9195
   29MPD2    H1  449   0.547   1.637  14.243 -1.1099 -1.0114  0.5363
   29MPD2    H2  450   0.583   1.236  14.153  0.6947 -0.6557 -1.3505
   29MPD2    H3  451   0.455   1.408  14.226  0.0383  1.0221 -1.1465
   29MPD2     N  452   0.796   1.709  14.185  0.0900  0.4139 -0.2935
   29MPD2    H5  453   0.896   1.722  14.168  0.1174 -1.7453 -1.6813
   29MPD2    N1  454   0.845   1.243  14.063  0.1871  0.6082 -0.5177
   29MPD2    H7  455   0.945   1.254  14.054  0.3289  0.0774  0.4936
   30TCq2    C1  456   0.737   1.833  14.218 -0.3888 -1.0262 -0.0402
   30TCq2    O2  457   0.619   1.869  14.219 -0.2016  0.6889  0.1146
   30TCq2    C2  458   0.825   1.950  14.238  0.3452 -0.8474 -0.7514
   30TCq2    C3  459   0.779   2.079  14.221  0.0443 -0.8518  0.1422
   30TCq2    C4  460   0.864   2.183  14.219  0.0866 -0.6470  0.3127
   30TCq2    C5  461   0.995   2.151  14.242  0.5502  0.2767  0.8024
   30TCq2    C6  462   1.043   2.028  14.257  0.3008  0.3540  1.1580
   30TCq2    C7  463   0.953   1.921  14.251 -0.4664 -0.3325  0.1306
   30TCq2    C8  464   1.186   1.996  14.288 -0.2687  0.5146  0.3671
   30TCq2    O4  465   1.229   1.883  14.267  0.3502  0.2109  0.7364
   30TCq2    C9  466   0.822   2.321  14.197 -0.5301 -0.4725 -0.1512
   30TCq2    O5  467   0.704   2.340  14.232 -0.1161 -0.4676  0.3779
   30TCq2    O6  468   0.920   2.407  14.202  0.1057  0.0096 -0.2710
   30TCq2    H2  469   0.672   2.088  14.207  0.0909 -0.4485  0.0349
   30TCq2    H3  470   1.061   2.236  14.226  0.1868  0.2309 -0.9527
   30TCq2    H4  471   0.988   1.823  14.281 -1.9864 -0.9264 -0.0608
   31MPD2     C  472   3.782   0.406  15.210  0.2709 -0.4824 -0.7027
   31MPD2    C1  473   3.658   0.413  15.142 -0.1033 -0.6686  0.1777
   31MPD2    C2  474   3.546   0.362  15.205  0.4844 -0.1022 -0.5528
   31MPD2    C3  475   3.560   0.290  15.318 -1.1709 -0.3981  0.0339
   31MPD2    C4  476   3.681   0.275  15.382  1.0186 -0.1285  0.7430
   31MPD2    C5  477   3.790   0.334  15.327  0.0308 -0.1827 -0.6245
   31MPD2     H  478   3.447   0.384  15.168  0.5423 -0.7282 -1.0833
   31MPD2    H1  479   3.682   0.234  15.482  0.4952  0.1973  0.8830
   31MPD2    H2  480   3.872   0.457  15.178  0.7639 -1.9915 -1.7312
   31MPD2    H3  481   3.875   0.349  15.393 -1.3536  0.3037  1.0518
   31MPD2     N  482   3.449   0.230  15.389  0.3324 -0.3467  0.0487
   31MPD2    H5  483   3.471   0.207  15.485  2.0900 -1.2936 -0.5894
   31MPD2    N1  484   3.651   0.493  15.025 -1.1032  0.4013  0.1114
   31MPD2    H7  485   3.733   0.551  15.010 -0.4220 -0.6438 -0.2478
   32TCq2    C1  486   3.321   0.218  15.338 -0.6636  0.4356 -0.1460
   32TCq2    O2  487   3.283   0.235  15.223  0.2707 -0.1568  0.0526
   32TCq2    C2  488   3.237   0.132  15.417 -0.9631  0.4369  0.0176
   32TCq2    C3  489   3.108   0.133  15.379 -0.3260 -0.7309 -0.1902
   32TCq2    C4  490   3.024   0.037  15.438  0.5244 -1.0603  0.9358
   32TCq2    C5  491   3.069   4.684  15.548 -0.1865 -0.0461 -0.1115
   32TCq2    C6  492   3.203   4.703  15.594  0.0365 -0.0947  0.7323
   32TCq2    C7  493   3.292   0.068  15.526 -0.8962  0.4816 -0.0340
   32TCq2    C8  494   3.261   4.614  15.699 -0.9749 -0.1962 -0.3855
   32TCq2    O4  495   3.383   4.613  15.711 -0.2352 -0.1941  0.6401
   32TCq2    C9  496   2.885   0.023  15.395  0.8267  0.5311  0.5114
   32TCq2    O5  497   2.824   4.648  15.445  0.1290  0.1000 -0.1632
   32TCq2    O6  498   2.859   0.083  15.285  0.1578  0.2645  0.3851
   32TCq2    H2  499   3.078   0.205  15.303 -0.1023 -1.1240 -0.6528
   32TCq2    H3  500   3.003   4.606  15.584 -0.5121  0.1649 -0.2517
   32TCq2    H4  501   3.389   0.084  15.572 -0.8357  0.6948 -0.2380
   33MPD2     C  502   4.360   3.205  10.207 -0.2862  0.0116  0.1964
   33MPD2    C1  503   4.224   3.192  10.232  0.4949  0.2815 -0.3215
   33MPD2    C2  504   4.127   3.285  10.180  0.3118  0.5534 -0.4854
   33MPD2    C3  505   4.185   3.379  10.090  0.4447 -0.1541  0.4771
   33MPD2    C4  506   4.322   3.390  10.070  0.1393  0.3675  0.4352
   33MPD2    C5  507   4.412   3.307  10.131  0.5104 -0.7788  0.0453
   33MPD2     H  508   4.020   3.286  10.197  0.2378 -2.1177 -0.8024
   33MPD2    H1  509   4.365   3.465  10.004 -2.5006  1.3923 -0.1280
   33MPD2    H2  510   4.438   3.152  10.260  0.2349  0.8862  0.3096
   33MPD2    H3  511   4.519   3.317  10.115  0.4120 -0.9415 -0.7340
   33MPD2     N  512   4.103   3.468  10.021 -0.0403  0.2733  0.2074
   33MPD2    H5  513   4.148   3.523   9.949  1.5867 -0.3917  0.7273
   33MPD2    N1  514   4.196   3.074  10.309  0.0778 -0.4241 -0.2025
   33MPD2    H7  515   4.278   3.020  10.334 -0.3981 -0.3142  1.6157
   34TCq2    C1  516   3.970   3.454   9.999  0.8557 -0.1965 -0.1428
   34TCq2    O2  517   3.884   3.414  10.077 -0.6439  0.5045 -0.2490
   34TCq2    C2  518   3.920   3.517   9.875  0.4574  0.1436  0.4095
   34TCq2    C3  519   3.788   3.485   9.844  0.2252  0.7517 -0.8095
   34TCq2    C4  520   3.738   3.510   9.723  0.4843 -0.4012 -0.5227
   34TCq2    C5  521   3.812   3.570   9.626 -0.6593  0.1434  0.3371
   34TCq2    C6  522   3.940   3.594   9.656 -0.0871 -0.5644  0.4167
   34TCq2    C7  523   3.996   3.564   9.779  0.0503 -0.1996 -0.0458
   34TCq2    C8  524   4.025   3.665   9.556 -0.1062 -0.2787  0.3408
   34TCq2    O4  525   4.147   3.646   9.566 -0.0159 -0.5018 -0.6417
   34TCq2    C9  526   3.598   3.479   9.698 -1.3723 -0.3844  0.0929
   34TCq2    O5  527   3.525   3.422   9.789 -0.1122 -0.3249 -0.2103
   34TCq2    O6  528   3.566   3.478   9.576  0.2527  0.0287  0.1004
   34TCq2    H2  529   3.737   3.411   9.905 -1.1313  0.7539 -1.9532
   34TCq2    H3  530   3.782   3.584   9.523 -0.6331  0.7328  0.4100
   34TCq2    H4  531   4.097   3.600   9.794 -0.7238  2.3413 -0.9031
   35MPD2     C  532   0.463   4.515  11.445  0.2492 -0.5315  0.2245
   35MPD2    C1  533   0.357   4.458  11.514 -0.0729 -0.2139 -0.3695
   35MPD2    C2  534   0.246   4.425  11.445 -0.1083  0.7903 -0.6942
   35MPD2    C3  535   0.233   4.440  11.306 -0.2804 -0.5700  0.0164
   35MPD2    C4  536   0.346   4.498  11.242 -0.0553  0.3430  0.0132
   35MPD2    C5  537   0.458   4.540  11.309  0.0703  0.6073  0.1368
   35MPD2     H  538   0.155   4.390  11.492 -0.9091  1.0418 -2.0520
   35MPD2    H1  539   0.361   4.501  11.135 -2.2025 -0.5629 -0.3269
   35MPD2    H2  540   0.554   4.534  11.501 -0.8908  2.5047  1.0619
   35MPD2    H3  541   0.547   4.566  11.252 -0.3032 -1.3103 -1.3318
   35MPD2     N  542   0.113   4.409  11.241  0.2080  0.1230 -0.1930
   35MPD2    H5  543   0.032   4.375  11.292  0.6678 -1.3833 -0.4903
   35MPD2    N1  544   0.359   4.428  11.656 -0.5937  0.7712  0.0887
   35MPD2    H7  545   0.274   4.386  11.692 -0.3819  0.4885  0.2537
   36TCq2    C1  546   0.092   4.417  11.107 -0.5826  0.0563 -0.1232
   36TCq2    O2  547   0.161   4.462  11.013 -0.0545  0.2396 -0.1615
   36TCq2    C2  548   4.684   4.363  11.083 -0.4865  0.4305  0.1512
   36TCq2    C3  549   4.607   4.438  10.998  0.0719 -0.3645  0.6698
   36TCq2    C4  550   4.477   4.424  11.010  0.3447  0.2456 -0.4134
   36TCq2    C5  551   4.413   4.338  11.093 -0.5016  0.1725 -0.4181
   36TCq2    C6  552   4.492   4.267  11.185  0.1785 -0.0970 -0.6780
   36TCq2    C7  553   4.629   4.269  11.171  0.8308 -0.9243  0.7429
   36TCq2    C8  554   4.425   4.177  11.279 -0.3302 -0.2101  0.0768
   36TCq2    O4  555   4.497   4.089  11.328 -0.1888  0.8789 -0.3951
   36TCq2    C9  556   4.394   4.506  10.924  0.1875 -0.0651  0.6642
   36TCq2    O5  557   4.279   4.473  10.889  0.5255 -0.0544  0.5120
   36TCq2    O6  558   4.449   4.605  10.878  0.3316  0.1119  0.0701
   36TCq2    H2  559   4.657   4.503  10.927 -1.0756 -1.2826 -0.9899
   36TCq2    H3  560   4.305   4.328  11.083 -0.7783  2.7081 -0.1136
   36TCq2    H4  561   4.686   4.214  11.244  0.8933 -0.8846  0.7235
   37TMC2    C1  562   2.361   4.675  11.388  0.0109  0.0669  0.2411
   37TMC2    C2  563   2.340   4.689  11.256  0.3959  0.4669 -0.7034
   37TMC2    C3  564   2.450   4.705  11.173 -0.1610 -0.5731 -0.4242
   37TMC2    C4  565   2.486   4.679  11.442 -0.1887 -0.1706  0.0888
   37TMC2    C5  566   2.596   4.687  11.352 -0.6893  0.0291  0.0222
   37TMC2    C6  567   2.577   4.706  11.219 -0.0963 -0.1450 -0.5481
   37TMC2     C  568   2.258   4.651  11.487  0.3668  0.1480 -0.0262
   37TMC2     O  569   2.147   4.690  11.455 -0.3745  0.0811 -0.5436
   37TMC2     H  570   2.238   4.689  11.221 -0.3956 -0.7299  1.5959
   37TMC2    H1  571   2.487   4.678  11.550 -0.3037  1.3842  0.1061
   37TMC2    H2  572   2.661   4.719  11.152 -2.1000 -2.2350 -3.4574
   37TMC2    C7  573   2.719   4.638  11.400  0.6097  0.1365  0.6341
   37TMC2    C8  574   2.419   0.023  11.039  0.3417 -0.1963  0.2083
   37TMC2    O1  575   2.729   4.623  11.522 -0.0560 -0.6432 -0.3926
   37TMC2    O2  576   2.350   0.122  11.021  0.4439  0.2304 -0.3607
   37TMC2    O5  577   2.514   4.712  10.951  0.6025  0.2229 -0.2632
   37TMC2    H5  578   2.566   4.637  10.988  0.0118  0.7104  1.5673
   38MPD2     C  579   2.067   4.380  11.890  0.2500 -0.0844 -0.9321
   38MPD2    C1  580   2.204   4.355  11.879 -0.0767  0.3923 -0.4820
   38MPD2    C2  581   2.270   4.416  11.775 -0.0916 -0.6930  0.4524
   38MPD2    C3  582   2.211   4.503  11.685 -0.0167 -0.1253  0.2275
   38MPD2    C4  583   2.083   4.538  11.707 -0.3746  0.2912 -0.0041
   38MPD2    C5  584   2.011   4.468  11.803  0.1810 -0.6544  0.0710
   38MPD2     H  585   2.374   4.386  11.773 -0.1707 -0.9353 -0.3122
   38MPD2    H1  586   2.032   4.615  11.651  1.0009  2.1998  1.3914
   38MPD2    H2  587   2.014   4.327  11.968  1.3967 -1.2295 -0.9316
   38MPD2    H3  588   1.907   4.491  11.822  0.1758  1.0391 -2.0140
   38MPD2     N  589   2.294   4.562  11.588 -0.1570 -0.6368  0.2210
   38MPD2    H5  590   2.391   4.533  11.588 -0.0395 -0.2476 -0.0101
   38MPD2    N1  591   2.274   4.254  11.949 -0.3198 -0.7470  0.5525
   38MPD2    H7  592   2.367   4.239  11.910 -0.6312 -1.1680 -0.0195
   39MPD2     C  593   0.885   0.757   1.586  0.5602 -0.7285  0.3600
   39MPD2    C1  594   0.799   0.859   1.616  0.0352 -0.1186  0.1726
   39MPD2    C2  595   0.664   0.850   1.585 -0.2030  0.1001 -0.3568
   39MPD2    C3  596   0.615   0.735   1.524 -0.3923  0.2433  0.7588
   39MPD2    C4  597   0.704   0.633   1.487 -0.0536 -0.3749 -0.0629
   39MPD2    C5  598   0.834   0.646   1.522 -0.0405 -0.3675  0.6178
   39MPD2     H  599   0.600   0.936   1.600  2.3774  1.3418  3.3551
   39MPD2    H1  600   0.680   0.541   1.435 -1.1501  0.2456 -0.6441
   39MPD2    H2  601   0.992   0.759   1.604  0.5128 -1.2300  0.7030
   39MPD2    H3  602   0.902   0.569   1.488  1.0529  0.9052 -0.0597
   39MPD2     N  603   0.481   0.719   1.482 -0.2005  0.2595 -0.2024
   39MPD2    H5  604   0.465   0.640   1.420 -1.9517  0.7360 -0.3566
   39MPD2    N1  605   0.854   0.968   1.681  0.1617  0.5032 -0.8789
   39MPD2    H7  606   0.955   0.970   1.687  0.1253 -0.9532  0.3080
   40TCq2    C1  607   0.780   1.069   1.739 -0.0159 -0.5949 -0.5268
   40TCq2    O2  608   0.659   1.079   1.761 -0.7207 -0.0190  0.6086
   40TCq2    C2  609   0.877   1.168   1.787  0.0874  0.0466 -0.3447
   40TCq2    C3  610   0.828   1.257   1.876  0.5515 -0.8666  0.3152
   40TCq2    C4  611   0.918   1.348   1.927 -0.3487  0.1542  0.3912
   40TCq2    C5  612   1.051   1.351   1.893 -0.6246 -0.3279  0.3450
   40TCq2    C6  613   1.095   1.260   1.803  0.1426 -0.0470  0.0519
   40TCq2    C7  614   1.006   1.172   1.748 -0.7935 -0.5439 -0.5493
   40TCq2    C8  615   1.235   1.263   1.759 -0.5483  0.4466 -0.5126
   40TCq2    O4  616   1.265   1.171   1.680 -0.2191 -0.1123  0.2600
   40TCq2    C9  617   0.866   1.454   2.014 -0.0646 -0.2425  0.4811
   40TCq2    O5  618   0.751   1.427   2.061 -0.5710 -0.8495 -0.0358
   40TCq2    O6  619   0.948   1.523   2.079 -0.1566 -0.6386  0.2586
   40TCq2    H2  620   0.723   1.257   1.901  0.3231 -0.4310 -0.6402
   40TCq2    H3  621   1.122   1.425   1.930  0.0890 -0.6553 -0.3694
   40TCq2    H4  622   1.039   1.107   1.668 -0.4219 -0.9009 -0.1023
   41TMC2    C1  623   3.919   3.925  13.356  0.9846 -0.0865 -0.0322
   41TMC2    C2  624   4.035   3.863  13.324 -0.1186 -0.2014 -0.6176
   41TMC2    C3  625   4.062   3.847  13.189  0.2893 -0.2548 -0.4420
   41TMC2    C4  626   3.840   3.983  13.267  0.1938 -0.6537 -0.0581
   41TMC2    C5  627   3.879   3.987  13.137 -0.2877  0.7132  0.9370
   41TMC2    C6  628   3.995   3.918  13.097  0.3088  0.7564  0.3989
   41TMC2     C  629   3.871   3.911  13.489 -0.4486  0.4777  0.5494
   41TMC2     O  630   3.750   3.933  13.504 -0.5856 -0.5142 -0.1384
   41TMC2     H  631   4.086   3.804  13.399 -0.6702 -1.0133 -0.8780
   41TMC2    H1  632   3.757   4.047  13.296  0.8430 -0.5726  1.5719
   41TMC2    H2  633   4.033   3.915  12.995  0.0931  1.3784  0.2992
   41TMC2    C7  634   3.778   4.025  13.039 -0.7005  0.4286  0.2187
   41TMC2    C8  635   4.182   3.777  13.148 -0.4034  0.4200 -0.9193
   41TMC2    O1  636   3.661   4.031  13.067 -0.5269 -0.3058  0.3254
   41TMC2    O2  637   4.227   3.784  13.035  0.5380  0.2163  0.0871
   41TMC2    O5  638   4.251   3.716  13.252  0.4119 -0.2716 -0.4864
   41TMC2    H5  639   4.191   3.678  13.319  0.9436  0.0026  0.1398
   42MPD2     C  640   3.839   3.885  13.775  0.5197 -0.4360 -0.7700
   42MPD2    C1  641   3.955   3.917  13.711 -0.4999 -0.1931  0.3311
   42MPD2    C2  642   4.060   3.966  13.792  0.4637 -0.5709 -0.6087
   42MPD2    C3  643   4.052   3.990  13.924  0.1015 -0.4496 -0.1566
   42MPD2    C4  644   3.928   3.964  13.982 -0.2564  0.3507  0.0362
   42MPD2    C5  645   3.825   3.910  13.907  0.2307  0.3663 -0.1499
   42MPD2     H  646   4.156   3.990  13.746  0.5435 -1.1347 -0.7357
   42MPD2    H1  647   3.914   3.972  14.090 -1.3365  0.8714 -0.1384
   42MPD2    H2  648   3.761   3.830  13.724 -1.2259  0.9191  0.4421
   42MPD2    H3  649   3.735   3.880  13.958 -0.1111 -1.2801 -1.6839
   42MPD2     N  650   4.147   4.045  14.006  0.0206 -0.3310  0.7475
   42MPD2    H5  651   4.130   4.054  14.106 -1.2564  0.9345  0.4118
   42MPD2    N1  652   3.974   3.925  13.573 -0.1738  0.6017  0.2251
   42MPD2    H7  653   4.064   3.956  13.538 -0.9455  0.6088 -1.7319
   43MPD2     C  654   0.712   1.999   0.395  0.3493 -0.0743  0.1058
   43MPD2    C1  655   0.774   1.902   0.474  0.6018  0.4592 -0.1413
   43MPD2    C2  656   0.726   1.875   0.601  0.0364 -0.1156 -0.2963
   43MPD2    C3  657   0.615   1.939   0.653 -0.0206 -0.3175 -0.1264
   43MPD2    C4  658   0.566   2.053   0.586  0.1458  0.7341  0.6598
   43MPD2    C5  659   0.613   2.077   0.453  0.7278  0.7954 -0.3315
   43MPD2     H  660   0.779   1.805   0.664  1.8061 -0.8354 -2.5850
   43MPD2    H1  661   0.480   2.102   0.630 -1.6628 -1.4314 -0.4333
   43MPD2    H2  662   0.754   2.033   0.301  0.6111 -1.5572 -0.3085
   43MPD2    H3  663   0.575   2.156   0.389 -1.9333  0.1754  0.4851
   43MPD2     N  664   0.559   1.915   0.782 -0.5293  0.1295  0.4221
   43MPD2    H5  665   0.479   1.972   0.809  0.2590  1.0199  0.9259
   43MPD2    N1  666   0.872   1.814   0.419  0.6737  0.7102 -0.9353
   43MPD2    H7  667   0.919   1.753   0.485 -2.9891  0.4799  1.5031
   44TCq2    C1  668   0.633   1.823   1.364 -0.2128 -0.4874  0.4545
   44TCq2    O2  669   0.697   1.716   1.368 -0.4190  0.1325  0.2192
   44TCq2    C2  670   0.559   1.856   1.245  0.1081  0.0921 -0.3823
   44TCq2    C3  671   0.447   1.933   1.259  0.1060  0.0056 -0.2144
   44TCq2    C4  672   0.396   1.980   1.145 -0.0777  0.4493 -0.2369
   44TCq2    C5  673   0.442   1.949   1.019  0.3139 -0.3966  0.1734
   44TCq2    C6  674   0.543   1.864   1.008 -0.1001  0.8706  0.4751
   44TCq2    C7  675   0.604   1.816   1.120  0.2031  0.1350  0.3785
   44TCq2    C8  676   0.609   1.836   0.881  0.6778 -0.1033 -0.3159
   44TCq2    O4  677   0.707   1.761   0.882 -0.4544 -0.0893  0.0757
   44TCq2    C9  678   0.307   2.099   1.158  0.3575  0.1820  0.1919
   44TCq2    O5  679   0.305   2.157   1.270 -0.3619 -0.5007 -0.3527
   44TCq2    O6  680   0.242   2.135   1.056  0.0185 -0.4372  0.3716
   44TCq2    H2  681   0.398   1.947   1.354 -1.7777  0.5498 -1.2707
   44TCq2    H3  682   0.399   2.002   0.935 -1.4434 -0.7127  0.8585
   44TCq2    H4  683   0.684   1.743   1.120  0.3621  0.3070  2.7197
   45TMC2    C1  684   1.695   4.348   9.741  0.1388  0.2174  0.0989
   45TMC2    C2  685   1.786   4.360   9.846  0.3868  0.0332 -0.4079
   45TMC2    C3  686   1.808   4.482   9.894  0.1594 -0.5148 -0.2919
   45TMC2    C4  687   1.636   4.459   9.692 -0.1050  0.1009 -0.8120
   45TMC2    C5  688   1.663   4.585   9.746 -0.0221 -0.3181 -0.2195
   45TMC2    C6  689   1.744   4.595   9.858  0.6726  0.3657 -0.1682
   45TMC2     C  690   1.658   4.211   9.710 -0.5655  0.2484  0.1601
   45TMC2     O  691   1.729   4.127   9.760 -0.7208 -0.4152 -0.4351
   45TMC2     H  692   1.829   4.272   9.892 -0.5480 -0.3650 -0.2971
   45TMC2    H1  693   1.584   4.453   9.596  0.6475 -1.5929 -1.1022
   45TMC2    H2  694   1.778   4.689   9.902  0.1454 -0.4268  1.9422
   45TMC2    C7  695   1.595   4.695   9.682  0.0266 -0.0343 -0.2866
   45TMC2    C8  696   1.873   4.499  10.026 -0.6009  0.4647  0.0380
   45TMC2    O1  697   1.517   4.673   9.587 -0.1101  0.9011  0.8632
   45TMC2    O2  698   1.852   4.591  10.099  0.1723  0.0031  0.2038
   45TMC2    O5  699   1.951   4.388  10.051  0.2516 -0.2808 -0.3875
   45TMC2    H5  700   1.981   4.342   9.970 -1.0748 -2.9912  0.6572
   46MPD2     C  701   1.570   3.950   9.614  0.3750 -0.4049  0.2174
   46MPD2    C1  702   1.497   4.068   9.595  0.5007  0.5591 -0.3233
   46MPD2    C2  703   1.384   4.060   9.515 -0.6279 -0.0459 -0.1650
   46MPD2    C3  704   1.335   3.942   9.468 -0.2172 -0.6039  0.6824
   46MPD2    C4  705   1.399   3.825   9.503  0.1115  0.7836 -0.2820
   46MPD2    C5  706   1.520   3.832   9.562 -0.2504 -1.0147 -0.5348
   46MPD2     H  707   1.326   4.152   9.509 -1.4810 -0.6196 -0.7912
   46MPD2    H1  708   1.352   3.731   9.475 -1.3614  1.7175 -0.9796
   46MPD2    H2  709   1.669   3.941   9.658  1.7064  0.9680 -2.5163
   46MPD2    H3  710   1.568   3.737   9.584  0.6080 -0.2678  0.7917
   46MPD2     N  711   1.211   3.941   9.397 -0.1395  0.3870 -0.4260
   46MPD2    H5  712   1.157   4.027   9.398 -0.6456  0.0744 -0.5223
   46MPD2    N1  713   1.543   4.195   9.642  0.6218 -0.2488  0.2986
   46MPD2    H7  714   1.497   4.280   9.611  0.4320  0.4671  2.5317
   47TMC2    C1  715   3.957   0.083   9.172 -0.1654 -0.3455 -0.5800
   47TMC2    C2  716   4.000   0.185   9.249 -0.5220 -0.3420  0.2480
   47TMC2    C3  717   3.927   0.213   9.358  0.4265 -0.7468  1.0729
   47TMC2    C4  718   3.842   0.015   9.192  0.0399  0.0147  0.2917
   47TMC2    C5  719   3.772   0.045   9.305 -0.2511  0.6977  0.3794
   47TMC2    C6  720   3.812   0.152   9.385 -0.2072 -0.8037 -0.4179
   47TMC2     C  721   4.022   0.066   9.039  0.8346  0.9149  0.2616
   47TMC2     O  722   3.958   0.015   8.951 -0.2907 -0.3240  0.0199
   47TMC2     H  723   4.081   0.251   9.222 -0.2822 -1.0982 -0.9054
   47TMC2    H1  724   3.824   4.642   9.145 -2.9997  1.1575 -0.9207
   47TMC2    H2  725   3.750   0.185   9.468 -0.3960  1.4451 -1.4812
   47TMC2    C7  726   3.638   0.001   9.334 -0.5292  0.4686  0.0582
   47TMC2    C8  727   3.956   0.328   9.442  0.0884  0.3357 -0.1913
   47TMC2    O1  728   3.600   0.032   9.444 -0.0077  0.0531 -0.0074
   47TMC2    O2  729   3.943   0.327   9.565 -0.3652  0.1722 -0.1216
   47TMC2    O5  730   3.980   0.437   9.369 -0.0770 -0.2292 -0.0114
   47TMC2    H5  731   3.985   0.423   9.272  1.8419  2.1288 -0.2634
   48MPD2     C  732   4.181   0.092   8.788 -0.0369  0.4578 -0.5297
   48MPD2    C1  733   4.232   0.130   8.907 -0.6538 -0.1248 -0.2204
   48MPD2    C2  734   4.365   0.169   8.913 -0.1208 -0.8921 -0.1220
   48MPD2    C3  735   4.447   0.172   8.803 -0.3312  0.4697  0.0718
   48MPD2    C4  736   4.391   0.129   8.684  0.0376 -0.3596 -0.4959
   48MPD2    C5  737   4.261   0.083   8.680  0.5891 -0.4817 -0.2424
   48MPD2     H  738   4.401   0.209   9.007  0.4859 -3.2782  0.6765
   48MPD2    H1  739   4.446   0.124   8.591 -1.8808  1.3028 -1.7328
   48MPD2    H2  740   4.082   0.052   8.776 -0.3384  1.2784 -0.8201
   48MPD2    H3  741   4.217   0.044   8.589 -0.1988 -1.4575  0.5612
   48MPD2     N  742   4.582   0.210   8.827 -0.3372 -0.2805  0.0948
   48MPD2    H5  743   4.612   0.202   8.924  1.9838  0.9680 -0.5142
   48MPD2    N1  744   4.152   0.121   9.031 -0.1152  0.3314 -0.4123
   48MPD2    H7  745   4.202   0.153   9.113  2.1014  0.4450 -1.8033
   49MPD2     C  746   2.012   2.384   9.776 -0.0353  0.9744 -0.0527
   49MPD2    C1  747   2.013   2.313   9.896  0.2110 -0.1856  0.4069
   49MPD2    C2  748   2.104   2.336   9.998 -1.1160  0.2805  0.2918
   49MPD2    C3  749   2.182   2.449   9.990  0.6470  0.1102 -0.3236
   49MPD2    C4  750   2.170   2.523   9.875  0.3773 -0.0266  0.1064
   49MPD2    C5  751   2.096   2.487   9.766  0.6693 -0.2943 -0.7276
   49MPD2     H  752   2.105   2.266  10.080 -1.2227  0.7199  0.6703
   49MPD2    H1  753   2.217   2.620   9.872  2.7683 -1.1809 -0.1515
   49MPD2    H2  754   1.939   2.364   9.698  1.2788  2.0767 -1.5674
   49MPD2    H3  755   2.100   2.543   9.674  2.0547 -0.8081 -0.9767
   49MPD2     N  756   2.257   2.497  10.101 -0.0681  0.2997  0.3739
   49MPD2    H5  757   2.321   2.570  10.071  0.4600  0.2993  1.4865
   49MPD2    N1  758   1.922   2.208   9.908  0.0347  0.0826 -0.1228
   49MPD2    H7  759   1.937   2.160   9.995  2.7607  1.3856  0.1308
   50TCq2    C1  760   1.820   2.178   9.824  0.4674 -0.4414 -0.3142
   50TCq2    O2  761   1.789   2.225   9.714 -0.2843  0.2801  0.1821
   50TCq2    C2  762   1.749   2.067   9.869 -0.3367 -0.5881 -0.2262
   50TCq2    C3  763   1.667   2.000   9.781 -0.4677  0.1597 -0.6659
   50TCq2    C4  764   1.600   1.889   9.827  0.1881 -0.5053 -0.2747
   50TCq2    C5  765   1.614   1.836   9.948  0.7550  1.8755  0.0644
   50TCq2    C6  766   1.692   1.902  10.039 -0.1671 -0.0161  0.7303
   50TCq2    C7  767   1.763   2.018  10.000 -0.0020  0.4612 -0.6052
   50TCq2    C8  768   1.719   1.847  10.171  0.3062 -0.5774 -0.2485
   50TCq2    O4  769   1.661   1.743  10.204 -0.2833 -0.5560  0.5058
   50TCq2    C9  770   1.514   1.818   9.731  0.9856  0.1062 -0.2240
   50TCq2    O5  771   1.465   1.706   9.771 -0.4672 -0.0451  0.4361
   50TCq2    O6  772   1.486   1.873   9.625 -0.4544 -0.6592  0.1521
   50TCq2    H2  773   1.659   2.027   9.676 -0.7766  0.5166 -0.5504
   50TCq2    H3  774   1.550   1.754   9.980  2.0432  0.9681  0.3412
   50TCq2    H4  775   1.814   2.078  10.075  0.1744  0.9304 -1.1013
   51MPD2     C  776   2.648   0.181   0.901 -0.6449 -0.4571 -0.2826
   51MPD2    C1  777   2.578   0.231   0.788 -0.1578  0.4703 -0.6858
   51MPD2    C2  778   2.541   0.358   0.777 -0.3291  0.6644  0.4014
   51MPD2    C3  779   2.574   0.445   0.883  0.6211  0.0041 -0.2237
   51MPD2    C4  780   2.664   0.406   0.979  0.4363 -0.2025  0.1623
   51MPD2    C5  781   2.698   0.273   0.993  0.0259 -0.0405 -0.6108
   51MPD2     H  782   2.464   0.390   0.709 -0.2949 -2.4527 -1.1331
   51MPD2    H1  783   2.697   0.479   1.052 -0.7235 -0.0784  0.5628
   51MPD2    H2  784   2.691   0.082   0.899  1.7653  0.5629  1.2665
   51MPD2    H3  785   2.771   0.243   1.067 -1.6294  0.0709  1.0522
   51MPD2     N  786   2.525   0.582   0.883 -0.2711 -0.1935 -0.1764
   51MPD2    H5  787   2.561   0.649   0.950  0.6814 -3.1247  2.2444
   51MPD2    N1  788   2.543   0.141   0.684  0.8597 -0.0718 -0.0253
   51MPD2    H7  789   2.504   0.189   0.604 -3.2151 -0.2224  1.9141
   52TCq2    C1  790   2.439   0.629   0.792 -0.0495 -0.0150 -0.6140
   52TCq2    O2  791   2.364   0.572   0.713 -0.9251  0.2302 -0.0489
   52TCq2    C2  792   2.399   0.767   0.821  0.8347  0.9533 -0.3590
   52TCq2    C3  793   2.281   0.822   0.771  0.3810  0.2007  0.0385
   52TCq2    C4  794   2.261   0.954   0.789  0.2813  0.5857  0.4946
   52TCq2    C5  795   2.355   1.035   0.840  0.3108 -1.3006  0.0931
   52TCq2    C6  796   2.469   0.982   0.892  0.6908 -0.3677 -0.3689
   52TCq2    C7  797   2.494   0.844   0.882 -0.7409  0.7074  0.2152
   52TCq2    C8  798   2.570   1.068   0.957  0.1167  0.0269 -0.1213
   52TCq2    O4  799   2.646   1.007   1.033  0.3421  0.4746 -0.8209
   52TCq2    C9  800   2.139   1.016   0.739  0.0989 -0.1798 -0.3246
   52TCq2    O5  801   2.111   1.137   0.766 -0.3549  0.2468 -0.5105
   52TCq2    O6  802   2.062   0.939   0.681 -0.3719 -0.9671  0.1979
   52TCq2    H2  803   2.211   0.760   0.716  0.4730 -1.5212  1.8740
   52TCq2    H3  804   2.325   1.138   0.855  1.2835 -0.7246 -1.8106
   52TCq2    H4  805   2.594   0.807   0.898 -0.4861  1.5230  0.5368
   53TMC2    C1  806   3.165   4.172  11.767  0.1740 -0.2531  0.0424
   53TMC2    C2  807   3.260   4.084  11.814 -0.5674 -0.8810  0.3466
   53TMC2    C3  808   3.226   4.012  11.932 -1.0334  0.4453 -0.1756
   53TMC2    C4  809   3.045   4.193  11.830  0.6989 -0.2310 -0.9461
   53TMC2    C5  810   3.024   4.125  11.948 -0.7904  0.6485 -0.6061
   53TMC2    C6  811   3.110   4.033  11.998  0.8293  0.0790 -0.0867
   53TMC2     C  812   3.178   4.215  11.631  0.0189  0.4811  0.2707
   53TMC2     O  813   3.276   4.177  11.570  0.0242 -0.0477  0.1802
   53TMC2     H  814   3.357   4.072  11.765 -0.5646 -0.4162  0.2338
   53TMC2    H1  815   2.964   4.254  11.792 -1.4690 -2.1588  0.5559
   53TMC2    H2  816   3.091   3.977  12.089 -0.4702  1.1061  0.2686
   53TMC2    C7  817   2.907   4.164  12.026 -0.2864 -0.4134  0.1917
   53TMC2    C8  818   3.283   3.880  11.964 -0.1623 -0.3163  0.1304
   53TMC2    O1  819   2.840   4.254  11.976  0.3949  0.3321 -0.2664
   53TMC2    O2  820   3.268   3.828  12.072 -0.0260 -0.2294  0.1236
   53TMC2    O5  821   3.285   3.820  11.847 -0.0084  0.1866  0.4089
   53TMC2    H5  822   3.345   3.866  11.785  1.2087 -0.0359  1.4129
   54MPD2     C  823   3.183   4.403  11.392 -0.3208 -0.4631  0.0271
   54MPD2    C1  824   3.072   4.394  11.477 -0.3613  0.7344  0.1281
   54MPD2    C2  825   2.960   4.465  11.450  0.3606  0.2343 -0.5415
   54MPD2    C3  826   2.944   4.547  11.345  0.0502 -0.5965 -0.4370
   54MPD2    C4  827   3.051   4.556  11.258 -0.8241 -0.1923  0.3263
   54MPD2    C5  828   3.166   4.487  11.287 -0.9384  0.2824  0.0328
   54MPD2     H  829   2.871   4.455  11.510 -1.2479  1.0225 -2.8017
   54MPD2    H1  830   3.040   4.604  11.162 -0.1729  0.1267  0.4172
   54MPD2    H2  831   3.274   4.345  11.403  1.4309  2.3158  0.1595
   54MPD2    H3  832   3.252   4.498  11.222 -2.3833 -0.3867 -2.0008
   54MPD2     N  833   2.818   4.609  11.310  0.2224 -0.0788  0.4826
   54MPD2    H5  834   2.814   4.656  11.220  0.7219 -1.9786 -0.5347
   54MPD2    N1  835   3.081   4.312  11.600 -0.4934 -0.6279  0.1327
   54MPD2    H7  836   3.011   4.331  11.671 -1.2070  1.9647 -1.2496
   55MPD2     C  837   3.904   1.440   0.169 -0.0153 -0.6781 -0.3815
   55MPD2    C1  838   3.835   1.370   0.267 -0.4711 -0.4346  0.3841
   55MPD2    C2  839   3.728   1.438   0.326 -0.5689  0.2260  0.1575
   55MPD2    C3  840   3.683   1.565   0.302  0.2149 -0.2371 -0.1037
   55MPD2    C4  841   3.754   1.635   0.207 -0.5610 -0.8465  0.6140
   55MPD2    C5  842   3.862   1.575   0.148 -0.4895 -0.0705  0.6983
   55MPD2     H  843   3.669   1.389   0.403 -1.9326 -0.1539 -1.1131
   55MPD2    H1  844   3.720   1.731   0.171  2.6108  0.1687  0.2917
   55MPD2    H2  845   3.989   1.406   0.111 -0.0278  0.0594 -0.8284
   55MPD2    H3  846   3.922   1.639   0.085 -0.2862 -2.9382 -1.9937
   55MPD2     N  847   3.568   1.613   0.368 -0.6578  0.2057 -0.7716
   55MPD2    H5  848   3.533   1.551   0.441  0.7815  0.6559  0.3236
   55MPD2    N1  849   3.863   1.234   0.301  0.2370  0.1268  0.1106
   55MPD2    H7  850   3.944   1.192   0.258  1.4469  0.5477  1.9866
   56TCq2    C1  851   3.798   1.152   0.388  0.2585  0.0460  0.3345
   56TCq2    O2  852   3.694   1.172   0.443 -0.8041  0.4965  0.0916
   56TCq2    C2  853   3.862   1.018   0.392  0.3140 -0.2770  0.5163
   56TCq2    C3  854   3.998   1.008   0.375  0.0950 -0.3986  0.1784
   56TCq2    C4  855   4.055   0.883   0.401 -0.0439  1.2009 -0.4692
   56TCq2    C5  856   3.985   0.772   0.443 -0.1924  0.2972 -0.6725
   56TCq2    C6  857   3.852   0.794   0.471 -0.5691  0.5260  0.3520
   56TCq2    C7  858   3.785   0.909   0.444  0.4134  0.5310 -0.6488
   56TCq2    C8  859   3.781   0.690   0.545  0.0090 -0.9689  0.3066
   56TCq2    O4  860   3.847   0.582   0.555 -0.1571  0.4648 -0.1696
   56TCq2    C9  861   4.200   0.885   0.385  0.0105  0.5007 -0.5254
   56TCq2    O5  862   4.248   0.986   0.324 -1.0247 -0.3334  0.1511
   56TCq2    O6  863   4.263   0.777   0.420 -0.0295  0.3733  0.1730
   56TCq2    H2  864   4.061   1.092   0.350 -0.0713  0.0446  1.2663
   56TCq2    H3  865   4.034   0.678   0.463 -0.9781 -0.3050 -1.6085
   56TCq2    H4  866   3.679   0.921   0.460  0.5216 -2.1180  1.9594
   57TMC2    C1  867   2.845   2.879  13.439  0.2384 -1.1780  0.1926
   57TMC2    C2  868   2.894   2.799  13.539 -1.0605 -0.7847  0.1584
   57TMC2    C3  869   3.021   2.815  13.569  0.0812 -0.3793  0.1559
   57TMC2    C4  870   2.936   2.964  13.376  0.3884 -0.2038 -0.0640
   57TMC2    C5  871   3.061   2.979  13.414 -0.2345 -0.0676 -0.7815
   57TMC2    C6  872   3.106   2.906  13.514 -0.4727  0.3063  0.2157
   57TMC2     C  873   2.711   2.921  13.447 -0.4303  0.0619 -0.4974
   57TMC2     O  874   2.693   3.037  13.408  0.0552  0.3143  0.8653
   57TMC2     H  875   2.829   2.729  13.590  0.0320 -0.7878  1.5217
   57TMC2    H1  876   2.907   3.011  13.283 -1.8411 -0.5481  0.4434
   57TMC2    H2  877   3.206   2.919  13.554  0.6744 -2.6454 -1.6942
   57TMC2    C7  878   3.163   3.021  13.320 -0.4882  0.6378  0.1019
   57TMC2    C8  879   3.061   2.761  13.695 -0.4801 -0.2220  0.1968
   57TMC2    O1  880   3.115   3.108  13.246  0.0809  0.5606  0.1265
   57TMC2    O2  881   3.019   2.652  13.725 -0.0667  0.1167  0.1637
   57TMC2    O5  882   3.122   2.852  13.773 -0.1808  0.4050  0.1956
   57TMC2    H5  883   3.089   2.940  13.746 -0.2885  0.2617 -0.1398
   58MPD2     C  884   2.213   2.827  13.477  0.0655 -0.5494  0.7177
   58MPD2    C1  885   2.282   2.946  13.470 -0.1950  0.6743  0.2207
   58MPD2    C2  886   2.421   2.945  13.467 -0.1080  0.3455 -0.0604
   58MPD2    C3  887   2.486   2.827  13.467  0.1169 -0.3505  0.7305
   58MPD2    C4  888   2.419   2.705  13.471 -0.1537 -0.0618  0.0734
   58MPD2    C5  889   2.287   2.713  13.483 -0.3413 -0.0687 -0.0359
   58MPD2     H  890   2.467   3.041  13.489  0.1153 -0.1239  1.5477
   58MPD2    H1  891   2.472   2.611  13.458 -1.9912 -1.1101  0.1122
   58MPD2    H2  892   2.109   2.818  13.505 -0.6446  0.2807 -1.7339
   58MPD2    H3  893   2.239   2.617  13.488 -1.0710  0.2881 -0.2246
   58MPD2     N  894   2.629   2.815  13.474 -0.0450 -0.0540  0.5247
   58MPD2    H5  895   2.663   2.721  13.493 -0.4003 -0.3393 -0.2140
   58MPD2    N1  896   2.222   3.067  13.497  0.1217 -0.3833  0.3192
   58MPD2    H7  897   2.290   3.142  13.509 -0.7214  0.3413  0.5952
   59MPD2     C  898   0.734   3.514  12.433  0.7160 -0.0161  0.1582
   59MPD2    C1  899   0.660   3.487  12.552  0.4836  0.4786  0.7695
   59MPD2    C2  900   0.731   3.469  12.670 -0.2002 -0.4833  0.3258
   59MPD2    C3  901   0.876   3.476  12.669 -0.4036 -0.2138 -0.5573
   59MPD2    C4  902   0.941   3.522  12.556 -0.2559  0.1752  0.6976
   59MPD2    C5  903   0.870   3.539  12.443  0.0119 -0.6895 -0.0903
   59MPD2     H  904   0.674   3.446  12.759 -0.3011 -1.0783  0.1081
   59MPD2    H1  905   1.049   3.531  12.551 -0.5351  2.9254 -0.6057
   59MPD2    H2  906   0.680   3.517  12.339 -0.8595 -1.0012  1.0401
   59MPD2    H3  907   0.922   3.566  12.352 -1.8870  2.4867 -0.2667
   59MPD2     N  908   0.960   3.449  12.777  0.4500  0.4906  0.0711
   59MPD2    H5  909   1.060   3.465  12.770  0.2520  1.3799 -0.7094
   59MPD2    N1  910   0.518   3.478  12.549  0.2730  0.5015 -0.3045
   59MPD2    H7  911   0.460   3.459  12.630  1.8108  4.4422  1.6904
   60TCq2    C1  912   0.433   3.500  12.444  0.0423  0.3215  0.2706
   60TCq2    O2  913   0.457   3.558  12.340 -0.5751  0.0561  0.9913
   60TCq2    C2  914   0.292   3.501  12.474  0.3494 -0.2495  0.3300
   60TCq2    C3  915   0.247   3.422  12.576  0.2712  0.3813  0.7252
   60TCq2    C4  916   0.120   3.426  12.617  0.4624 -0.3746 -0.1700
   60TCq2    C5  917   0.030   3.506  12.556  0.4489  0.0310  0.2678
   60TCq2    C6  918   0.077   3.591  12.458 -0.1529  0.4585 -0.2126
   60TCq2    C7  919   0.209   3.593  12.419 -0.1176  0.0118 -0.1890
   60TCq2    C8  920   4.710   3.706  12.436 -0.0017  0.5593 -0.0560
   60TCq2    O4  921   4.604   3.708  12.498 -0.0022 -0.1621 -0.3650
   60TCq2    C9  922   0.080   3.355  12.737  0.4617 -0.9070  0.5315
   60TCq2    O5  923   4.679   3.355  12.766 -0.0818  0.0795  0.0005
   60TCq2    O6  924   0.154   3.256  12.765  0.1740 -0.2794 -0.1061
   60TCq2    H2  925   0.312   3.359  12.636  1.7146  0.6745 -0.5187
   60TCq2    H3  926   4.654   3.510  12.599  0.1471  0.5432 -0.4821
   60TCq2    H4  927   0.246   3.654  12.337  0.4853 -0.2627 -0.1246
   61MPD2     C  928   4.434   4.612  15.172  0.3146  0.3060 -0.5055
   61MPD2    C1  929   4.497   4.721  15.219 -0.3839  0.0875  0.7198
   61MPD2    C2  930   4.583   0.070  15.137  0.1282 -0.7512 -1.1326
   61MPD2    C3  931   4.599   0.041  15.001 -0.7255 -0.1306  0.0040
   61MPD2    C4  932   4.529   4.648  14.960 -0.4462 -0.3316 -0.2005
   61MPD2    C5  933   4.448   4.577  15.042 -0.2447  0.5105  0.2571
   61MPD2     H  934   4.622   0.161  15.180 -2.2612 -0.3059  0.0733
   61MPD2    H1  935   4.526   4.630  14.853  1.2482 -0.3326 -0.2442
   61MPD2    H2  936   4.374   4.545  15.233  3.2273 -1.9467 -0.1397
   61MPD2    H3  937   4.394   4.491  15.005 -2.4715  2.3320 -0.7473
   61MPD2     N  938   4.675   0.119  14.917 -1.4271  0.1678  0.6078
   61MPD2    H5  939   4.682   0.083  14.823  0.6186  0.4327  0.6652
   61MPD2    N1  940   4.478   0.044  15.354  0.7418 -0.0777 -0.5160
   61MPD2    H7  941   4.536   0.122  15.384 -0.4568 -0.0913  1.8501
   62TCq2    C1  942   4.375   0.018  15.437  0.5259 -0.4901  0.1371
   62TCq2    O2  943   4.301   4.647  15.452  0.0378  0.0473  0.6228
   62TCq2    C2  944   4.346   0.144  15.505 -0.1872  0.0063  0.5048
   62TCq2    C3  945   4.394   0.157  15.632  0.2081 -0.5565 -0.2452
   62TCq2    C4  946   4.431   0.288  15.670  0.2553  0.1897  0.1020
   62TCq2    C5  947   4.453   0.382  15.580 -0.5855  0.0509 -0.1513
   62TCq2    C6  948   4.418   0.361  15.452 -0.2015  0.0760  0.4442
   62TCq2    C7  949   4.354   0.247  15.417 -0.2185  0.2386  0.2715
   62TCq2    C8  950   4.458   0.453  15.346  0.0331 -0.6024 -0.0511
   62TCq2    O4  951   4.522   0.554  15.372 -0.3698  0.3219 -0.0393
   62TCq2    C9  952   4.463   0.322  15.801  0.5512 -1.1008  0.0708
   62TCq2    O5  953   4.492   0.440  15.823 -0.1774 -0.4027  0.8119
   62TCq2    O6  954   4.458   0.237  15.892 -0.0401 -0.3059 -0.2141
   62TCq2    H2  955   4.390   0.069  15.695 -0.0233  1.4870  2.5960
   62TCq2    H3  956   4.501   0.473  15.615 -0.8642 -0.3116  1.1545
   62TCq2    H4  957   4.317   0.226  15.318  0.0058  0.2310  0.1916
   63TMC2    C1  958   4.492   0.375  10.164  0.0931  0.2203  0.0438
   63TMC2    C2  959   4.536   0.348  10.292  0.2823  0.0827 -0.5586
   63TMC2    C3  960   4.588   0.456  10.362 -0.2060  0.7422  0.1109
   63TMC2    C4  961   4.480   0.501  10.119 -0.8201  0.1125  0.8214
   63TMC2    C5  962   4.525   0.607  10.190 -0.3526 -0.3312  0.4387
   63TMC2    C6  963   4.582   0.587  10.314  0.1306  0.9807  0.2026
   63TMC2     C  964   4.508   0.280  10.052  0.0961  0.7853 -0.3032
   63TMC2     O  965   4.545   0.329   9.943  0.5165 -0.2747 -0.4576
   63TMC2     H  966   4.556   0.248  10.330 -2.6203  0.3281  1.6560
   63TMC2    H1  967   4.438   0.509  10.019 -0.1682  0.6428  0.5895
   63TMC2    H2  968   4.623   0.663  10.380 -1.5519  0.5892  1.6946
   63TMC2    C7  969   4.564   0.717  10.116  0.1038 -0.2202  0.1322
   63TMC2    C8  970   4.645   0.422  10.486  0.3268  0.1405  0.0007
   63TMC2    O1  971   4.526   0.711  10.000 -0.6244  0.0175 -0.2606
   63TMC2    O2  972   4.605   0.328  10.555 -0.7179 -0.0025  0.2805
   63TMC2    O5  973   0.021   0.506  10.516  0.2735  0.3840 -0.0056
   63TMC2    H5  974   0.056   0.540  10.431 -0.2081 -4.0461 -1.9831
   64MPD2     C  975   4.606   4.535   9.883  0.5239 -0.2014 -0.3632
   64MPD2    C1  976   4.510   4.527   9.981  0.0969 -0.1211 -0.1634
   64MPD2    C2  977   4.463   4.641  10.040  0.5137 -0.2062  0.6755
   64MPD2    C3  978   4.503   0.040   9.998  0.1153  0.0873  0.0736
   64MPD2    C4  979   4.594   0.048   9.899  0.2707 -0.1681 -0.2947
   64MPD2    C5  980   4.641   4.655   9.839  0.0043 -0.3165 -0.3616
   64MPD2     H  981   4.396   4.638  10.125 -1.2814  2.0257 -0.6490
   64MPD2    H1  982   4.628   0.143   9.860 -1.3439  1.3436  1.9575
   64MPD2    H2  983   4.653   4.445   9.844  2.1776  0.3544  0.3878
   64MPD2    H3  984   4.710   4.661   9.755 -1.1550 -2.9523 -1.5000
   64MPD2     N  985   4.473   0.150  10.081 -0.0876 -0.0847 -0.5571
   64MPD2    H5  986   4.422   0.137  10.168 -0.1029 -0.2455 -0.5910
   64MPD2    N1  987   4.454   4.395  10.011 -0.3423  0.2021  0.3805
   64MPD2    H7  988   4.500   4.312   9.976  0.0158  0.1394  0.9918
   65MPD2     C  989   0.697   3.920  15.668 -0.5112  0.1483 -0.2191
   65MPD2    C1  990   0.653   3.898  15.545 -0.7149  0.9304  0.1874
   65MPD2    C2  991   0.666   3.764  15.496  0.5704  0.1270 -0.1377
   65MPD2    C3  992   0.722   3.661  15.568  0.3394 -0.8678 -0.3143
   65MPD2    C4  993   0.776   3.695  15.687  0.6182  0.6091  0.3565
   65MPD2    C5  994   0.766   3.823  15.738  0.2909 -0.4086  0.0610
   65MPD2     H  995   0.620   3.748  15.399 -1.2288  2.0862  0.3907
   65MPD2    H1  996   0.832   3.631  15.754 -1.4649 -2.3724 -0.7833
   65MPD2    H2  997   0.691   4.022  15.705 -0.1660 -0.5537  1.7635
   65MPD2    H3  998   0.810   3.841  15.835  2.0311 -0.0642 -0.7957
   65MPD2     N  999   0.730   3.527  15.527  0.0840  0.0730 -0.5126
   65MPD2    H5 1000   0.776   3.462  15.589 -1.3143 -1.4306 -1.0677
   65MPD2    N1 1001   0.608   4.004  15.458 -0.8599 -0.0651  0.0638
   65MPD2    H7 1002   0.604   3.986  15.358  0.9906  1.2306 -0.2362
   66TCq2    C1 1003   0.555   4.125  15.501 -0.3145  0.4432 -0.6402
   66TCq2    O2 1004   0.518   4.161  15.612 -0.8136 -0.1019 -0.3085
   66TCq2    C2 1005   0.522   4.211  15.392 -0.6974  0.0163 -0.5825
   66TCq2    C3 1006   0.576   4.207  15.264 -0.5307 -0.7732  0.4276
   66TCq2    C4 1007   0.533   4.295  15.172  0.3896 -0.3578 -0.2003
   66TCq2    C5 1008   0.444   4.395  15.201 -0.9973 -0.6687  0.4732
   66TCq2    C6 1009   0.402   4.409  15.330 -0.7051 -0.2720  0.5441
   66TCq2    C7 1010   0.441   4.323  15.425 -0.0161  0.4070 -0.1687
   66TCq2    C8 1011   0.338   4.540  15.364 -0.4378 -0.0992 -0.1654
   66TCq2    O4 1012   0.296   4.607  15.268  0.2768  0.2941  0.0029
   66TCq2    C9 1013   0.580   4.276  15.036  0.1365 -0.1091 -0.6346
   66TCq2    O5 1014   0.498   4.313  14.951 -0.0214 -0.4187 -0.4586
   66TCq2    O6 1015   0.684   4.205  15.011 -0.2346 -0.3707  0.1735
   66TCq2    H2 1016   0.650   4.138  15.225 -0.4086  1.2450 -2.9003
   66TCq2    H3 1017   0.403   4.459  15.123  0.4294 -0.0416  0.2326
   66TCq2    H4 1018   0.401   4.338  15.525  1.9495 -2.1157  1.0122
   67MPD2     C 1019   0.555   3.482  14.075  0.4102  0.3302 -0.0590
   67MPD2    C1 1020   0.509   3.596  14.140  0.1953 -0.1114  0.1211
   67MPD2    C2 1021   0.382   3.643  14.100 -0.1309  0.2905 -0.5906
   67MPD2    C3 1022   0.310   3.592  13.996  0.3329  0.0615 -0.2141
   67MPD2    C4 1023   0.362   3.481  13.931  0.4829  0.0877  0.1467
   67MPD2    C5 1024   0.484   3.426  13.972 -0.6184  0.1329  0.8645
   67MPD2     H 1025   0.353   3.740  14.139 -1.8608 -0.1154 -0.8705
   67MPD2    H1 1026   0.316   3.435  13.844 -2.0215  1.5349  0.7118
   67MPD2    H2 1027   0.649   3.433  14.099 -1.1607 -1.3396  2.6163
   67MPD2    H3 1028   0.520   3.330  13.938 -0.6342  0.3618  0.2120
   67MPD2     N 1029   0.179   3.641  13.973  0.2006 -0.2915 -0.4013
   67MPD2    H5 1030   0.135   3.685  14.053  0.9179  0.3668 -0.3756
   67MPD2    N1 1031   0.581   3.670  14.236  0.3419 -0.3619  0.8373
   67MPD2    H7 1032   0.536   3.740  14.294  2.1975  0.1128  1.7215
   68TCq2    C1 1033   0.707   3.661  14.262  0.2013 -0.3576 -0.0092
   68TCq2    O2 1034   0.795   3.592  14.212 -0.2612 -0.1004 -0.1209
   68TCq2    C2 1035   0.742   3.760  14.362 -0.5707  0.4439  0.6726
   68TCq2    C3 1036   0.649   3.847  14.410  0.3320 -0.7472 -0.5338
   68TCq2    C4 1037   0.693   3.948  14.487  0.2211  0.5846  0.4115
   68TCq2    C5 1038   0.822   3.969  14.524  0.5416  0.2028  0.2537
   68TCq2    C6 1039   0.912   3.885  14.462 -0.6420 -0.1785  0.0295
   68TCq2    C7 1040   0.878   3.774  14.385 -0.1011  0.0728 -0.1054
   68TCq2    C8 1041   1.038   3.870  14.528  0.1162  0.3085 -0.9151
   68TCq2    O4 1042   1.120   3.792  14.479  0.4371  0.1432  0.0544
   68TCq2    C9 1043   0.592   4.047  14.523  0.0771 -0.4582 -0.5248
   68TCq2    O5 1044   0.622   4.128  14.615 -0.1285  0.0162 -0.2818
   68TCq2    O6 1045   0.483   4.050  14.461  0.1743  0.1768  0.2837
   68TCq2    H2 1046   0.542   3.841  14.393 -0.1589 -0.2562  2.3536
   68TCq2    H3 1047   0.862   4.059  14.569  4.1781 -0.3599 -1.9002
   68TCq2    H4 1048   0.949   3.701  14.349 -0.6824 -0.1433 -0.8250
   69TMC2    C1 1049   2.123   0.337  12.198  0.1262  0.1860  0.4405
   69TMC2    C2 1050   2.011   0.298  12.136  0.5638 -0.2190  0.8300
   69TMC2    C3 1051   1.978   0.355  12.019  0.0402  0.5673 -0.2050
   69TMC2    C4 1052   2.207   0.423  12.138  0.0630 -0.7475 -0.3630
   69TMC2    C5 1053   2.172   0.482  12.018  0.4588 -0.2473  0.1480
   69TMC2    C6 1054   2.058   0.452  11.958  0.4165 -0.2359  0.0098
   69TMC2     C 1055   2.157   0.279  12.317  0.9704  0.1055  0.4462
   69TMC2     O 1056   2.071   0.259  12.399 -0.0237  0.4942  0.4214
   69TMC2     H 1057   1.947   0.224  12.184  0.4231 -0.7370 -0.1417
   69TMC2    H1 1058   2.308   0.431  12.177 -0.0744  1.2630 -0.4260
   69TMC2    H2 1059   2.030   0.498  11.864  2.4233  1.2261  0.1455
   69TMC2    C7 1060   2.288   0.518  11.945  0.0838  0.7565 -0.1659
   69TMC2    C8 1061   1.839   0.359  11.993  0.3317  0.2745 -0.5912
   69TMC2    O1 1062   2.401   0.501  11.986 -0.2478  0.0552 -0.5973
   69TMC2    O2 1063   1.790   0.408  11.894 -0.5802  0.0104  0.1901
   69TMC2    O5 1064   1.785   0.377  12.114 -0.0496  0.0451  0.1701
   69TMC2    H5 1065   1.841   0.412  12.187  0.7601 -1.9200  0.5163
   70MPD2     C 1066   2.479   0.128  12.402 -0.2416  0.1728  0.3375
   70MPD2    C1 1067   2.351   0.169  12.430 -0.1113  0.4872  0.9395
   70MPD2    C2 1068   2.301   0.159  12.561 -0.0821  0.4831  0.7565
   70MPD2    C3 1069   2.379   0.113  12.667  0.3749 -0.0410 -0.0337
   70MPD2    C4 1070   2.503   0.070  12.639  0.0506  0.1304 -0.3730
   70MPD2    C5 1071   2.550   0.075  12.507 -0.2531 -0.1318  0.2098
   70MPD2     H 1072   2.208   0.206  12.589 -0.5459 -0.3129  0.5339
   70MPD2    H1 1073   2.570   0.024  12.710 -1.3236 -2.4203 -0.7493
   70MPD2    H2 1074   2.526   0.138  12.304  0.1019  1.8088  0.6689
   70MPD2    H3 1075   2.645   0.024  12.494 -0.9558 -1.1763 -0.7907
   70MPD2     N 1076   2.348   0.090  12.802 -0.4266 -0.0850 -0.3783
   70MPD2    H5 1077   2.421   0.050  12.860 -0.3597  4.2072  2.5542
   70MPD2    N1 1078   2.286   0.236  12.320 -0.4096 -0.1880 -0.2280
   70MPD2    H7 1079   2.344   0.246  12.238 -0.9175 -1.9526 -0.7975
   71TMC2    C1 1080   0.016   4.710   1.905 -0.5077 -0.3109  0.8503
   71TMC2    C2 1081   0.086   4.719   2.024  0.3492 -0.1447  0.8931
   71TMC2    C3 1082   0.011   0.029   2.135  0.2511 -0.6747 -0.2894
   71TMC2    C4 1083   4.597   4.715   1.904 -0.1134  0.4530 -0.3557
   71TMC2    C5 1084   4.525   0.008   2.019 -0.3102  0.0984 -0.4252
   71TMC2    C6 1085   4.596   0.034   2.138  0.0678 -0.8176  0.3162
   71TMC2     C 1086   0.101   4.667   1.785  0.0070  0.6088 -0.5479
   71TMC2     O 1087   0.214   4.717   1.786  0.3810  0.0906 -0.0400
   71TMC2     H 1088   0.194   4.717   2.032  0.5336  0.1975 -1.5447
   71TMC2    H1 1089   4.552   4.696   1.807  0.3125 -0.8403 -0.2934
   71TMC2    H2 1090   4.542   0.054   2.230 -2.2488  0.5624 -1.3468
   71TMC2    C7 1091   4.381   0.032   2.018  0.9218 -0.6569  0.5740
   71TMC2    C8 1092   0.092   0.044   2.257 -0.1511 -0.5459 -0.1190
   71TMC2    O1 1093   4.336   0.074   2.124 -0.5079 -0.4801  0.5440
   71TMC2    O2 1094   0.212   0.072   2.255  0.1412 -0.3959 -0.1569
   71TMC2    O5 1095   0.015   0.018   2.367 -0.1801  0.4076 -0.6113
   71TMC2    H5 1096   4.651   4.702   2.351 -0.2268  0.0997  0.4417
   72MPD2     C 1097   0.178   4.368   1.386  0.8271 -0.0746 -0.3586
   72MPD2    C1 1098   0.241   4.488   1.420 -0.2789 -0.8046 -0.2428
   72MPD2    C2 1099   0.198   4.556   1.530  0.0849 -0.3782  0.0092
   72MPD2    C3 1100   0.086   4.518   1.599 -0.3107  0.8029 -0.2586
   72MPD2    C4 1101   0.021   4.403   1.558  0.3535  0.5134 -0.3943
   72MPD2    C5 1102   0.067   4.322   1.453  0.2005  0.1261  0.3634
   72MPD2     H 1103   0.251   4.645   1.563 -0.5689 -0.0449  0.1565
   72MPD2    H1 1104   4.662   4.375   1.622  1.9230  0.7501  1.7363
   72MPD2    H2 1105   0.212   4.305   1.304  0.5194  1.2687 -1.5106
   72MPD2    H3 1106   0.031   4.221   1.435 -0.6937  0.0820  2.2853
   72MPD2     N 1107   0.035   4.577   1.713 -0.0166 -0.1384 -0.5478
   72MPD2    H5 1108   4.668   4.542   1.740  0.7447 -2.1000 -0.4972
   72MPD2    N1 1109   0.344   4.543   1.336 -0.6507  0.6000  0.2368
   72MPD2    H7 1110   0.374   4.639   1.345 -0.4440  0.1549  4.2098
   73TMC2    C1 1111   4.380   2.444  13.421  1.1462 -0.7046 -0.4679
   73TMC2    C2 1112   4.304   2.492  13.524 -0.0388  0.1528  0.2178
   73TMC2    C3 1113   4.226   2.400  13.593  0.0174  0.4068  0.1071
   73TMC2    C4 1114   4.372   2.317  13.372 -0.4589 -0.4249 -0.6371
   73TMC2    C5 1115   4.291   2.227  13.443 -0.0036 -0.4762 -0.1668
   73TMC2    C6 1116   4.212   2.272  13.546  0.5900  0.4933  0.5504
   73TMC2     C 1117   4.519   2.472  13.450 -0.1180  0.0352  0.1826
   73TMC2     O 1118   4.589   2.370  13.462  0.1583 -0.2130 -0.1601
   73TMC2     H 1119   4.309   2.597  13.554  1.9008  0.7504 -2.2384
   73TMC2    H1 1120   4.445   2.279  13.300 -1.1133 -2.2751 -0.3301
   73TMC2    H2 1121   4.158   2.189  13.592  0.6263 -0.7553 -1.6362
   73TMC2    C7 1122   4.350   2.092  13.462 -0.5402  0.5507  0.4265
   73TMC2    C8 1123   4.130   2.447  13.693  0.0325 -0.1397  0.8254
   73TMC2    O1 1124   4.279   1.992  13.463  0.1395  0.1732 -0.5365
   73TMC2    O2 1125   4.040   2.379  13.743  0.5456  0.7173  0.0427
   73TMC2    O5 1126   4.182   2.556  13.759 -0.4642  0.5384  0.3927
   73TMC2    H5 1127   4.279   2.565  13.743 -0.5133  0.4360  0.0500
   74MPD2     C 1128   0.207   2.765  13.460  0.1861 -0.5142 -0.3096
   74MPD2    C1 1129   0.186   2.633  13.507 -0.0843 -0.2858  0.1103
   74MPD2    C2 1130   0.052   2.587  13.512  0.1137  0.5028  0.2337
   74MPD2    C3 1131   4.679   2.656  13.454  0.5433 -0.6549 -0.1073
   74MPD2    C4 1132   4.703   2.781  13.402  0.5783  0.2039  0.0010
   74MPD2    C5 1133   0.103   2.835  13.415 -0.0639 -0.4131  0.1340
   74MPD2     H 1134   0.030   2.491  13.557  1.0868 -0.7358 -1.8891
   74MPD2    H1 1135   4.614   2.832  13.368  0.5831 -0.2909 -0.7490
   74MPD2    H2 1136   0.304   2.815  13.465 -0.0529 -0.0695 -0.1075
   74MPD2    H3 1137   0.124   2.935  13.380  0.5747 -0.7302 -0.3851
   74MPD2     N 1138   4.551   2.606  13.426 -0.7417 -0.0165  1.2809
   74MPD2    H5 1139   4.477   2.670  13.399  1.0220  0.6379 -2.0650
   74MPD2    N1 1140   0.306   2.565  13.553 -0.6097  0.3305  1.1344
   74MPD2    H7 1141   0.394   2.615  13.553 -1.8803  2.5334  0.1892
   75TCq2    C1 1142   0.113   3.630  13.857  0.2794 -0.0090  0.9569
   75TCq2    O2 1143   0.164   3.600  13.748 -0.8643  0.5491  0.0573
   75TCq2    C2 1144   4.706   3.682  13.864  0.4615 -0.2190  0.2372
   75TCq2    C3 1145   4.638   3.701  13.986  0.5918  0.2164 -0.1374
   75TCq2    C4 1146   4.510   3.750  13.973  0.0555 -0.3191 -0.3573
   75TCq2    C5 1147   4.457   3.805  13.864 -0.0777  0.3511 -0.1445
   75TCq2    C6 1148   4.534   3.799  13.748  0.1730  0.5123  0.8349
   75TCq2    C7 1149   4.658   3.726  13.748 -0.1242 -0.1316 -0.3311
   75TCq2    C8 1150   4.493   3.840  13.613  0.0573  0.0529  0.3635
   75TCq2    O4 1151   4.547   3.781  13.520 -0.2811  0.0466 -0.0140
   75TCq2    C9 1152   4.433   3.756  14.089  0.3052  0.6310 -0.5622
   75TCq2    O5 1153   4.484   3.734  14.200 -0.5383 -0.0265 -0.0684
   75TCq2    O6 1154   4.309   3.752  14.072  0.0785  0.6283 -0.1082
   75TCq2    H2 1155   4.672   3.658  14.079 -0.6893  1.4547  0.9020
   75TCq2    H3 1156   4.351   3.828  13.871 -0.1204  0.6456 -1.8756
   75TCq2    H4 1157   0.001   3.734  13.664 -0.7762  0.3500 -0.8096
   76MPD2     C 1158   3.552   0.484  11.860 -0.5366 -0.0452  0.0402
   76MPD2    C1 1159   3.512   0.451  11.731 -0.1184  0.6153  0.0261
   76MPD2    C2 1160   3.596   0.386  11.646  0.0196 -0.1122 -0.4091
   76MPD2    C3 1161   3.726   0.353  11.672 -0.2214 -0.3639  0.0014
   76MPD2    C4 1162   3.762   0.385  11.801 -0.5205  0.3346 -0.5575
   76MPD2    C5 1163   3.686   0.455  11.896  0.2285 -0.0535  0.6457
   76MPD2     H 1164   3.556   0.357  11.549  1.4843 -2.0695 -0.4254
   76MPD2    H1 1165   3.856   0.338  11.827 -2.1625 -0.8905  3.1678
   76MPD2    H2 1166   3.489   0.530  11.936 -0.4408  1.7953 -1.0006
   76MPD2    H3 1167   3.718   0.461  12.000  2.3840 -2.2767  0.0993
   76MPD2     N 1168   3.816   0.270  11.599  0.0461  0.0953 -0.2936
   76MPD2    H5 1169   3.900   0.234  11.643  0.4838  2.4016  0.7720
   76MPD2    N1 1170   3.375   0.464  11.694  0.2670  0.0394  0.1989
   76MPD2    H7 1171   3.361   0.442  11.596 -1.5666 -2.3847  0.9857
   77TCq2    C1 1172   3.798   0.241  11.465  0.6553  0.8833 -0.0059
   77TCq2    O2 1173   3.728   0.300  11.391  0.5578 -0.0215 -0.4403
   77TCq2    C2 1174   3.898   0.141  11.420  0.3979  0.5564 -0.7657
   77TCq2    C3 1175   3.938   0.157  11.286 -0.1477 -0.0844 -0.0205
   77TCq2    C4 1176   4.011   0.055  11.225  0.8168 -0.5583 -0.0269
   77TCq2    C5 1177   4.026   4.662  11.291  0.0713 -0.4910  0.0539
   77TCq2    C6 1178   3.979   4.649  11.423 -0.1546  0.9675 -0.1093
   77TCq2    C7 1179   3.913   0.022  11.490  0.0050  0.2346 -0.0042
   77TCq2    C8 1180   4.030   4.535  11.497 -1.1094  0.3725  0.0316
   77TCq2    O4 1181   4.086   4.456  11.427 -0.0194  0.5895 -0.0522
   77TCq2    C9 1182   4.061   0.064  11.094 -0.3220  0.0054 -0.0811
   77TCq2    O5 1183   4.109   4.688  11.037 -0.2170  0.2411 -0.2325
   77TCq2    O6 1184   4.071   0.179  11.054 -0.6498  0.7091 -0.2111
   77TCq2    H2 1185   3.926   0.248  11.229  0.5604 -0.5744 -0.9404
   77TCq2    H3 1186   4.089   4.595  11.234  1.6737 -0.9475  2.3672
   77TCq2    H4 1187   3.861   0.002  11.582  3.3094 -0.2592  1.7612
   78MPD1     C 1188   4.419   4.554   2.425 -0.2410 -0.3389  0.2943
   78MPD1    C1 1189   4.547   4.505   2.412 -0.0682 -0.2337 -0.0459
   78MPD1    C2 1190   4.570   4.432   2.293 -0.2665 -0.2647  0.3888
   78MPD1    C3 1191   4.473   4.421   2.195  0.6219  0.4997 -0.2427
   78MPD1    C4 1192   4.357   4.482   2.208  0.7381 -0.0610 -0.0291
   78MPD1    C5 1193   4.335   4.553   2.320  0.5443 -0.0941  0.1781
   78MPD1     H 1194   4.666   4.386   2.273 -0.3637 -1.0337  1.7304
   78MPD1    H1 1195   4.280   4.468   2.133  2.1531  0.5164 -1.5739
   78MPD1    H2 1196   4.393   4.622   2.505  0.7677  1.5766 -0.9990
   78MPD1    H3 1197   4.246   4.613   2.334 -0.5617 -1.6402 -0.2594
   78MPD1     N 1198   4.500   4.351   2.075  0.1859 -0.0706 -0.4818
   78MPD1    H5 1199   4.420   4.344   2.013  1.1131  1.3097 -1.8307
   78MPD1    N1 1200   4.644   4.521   2.516 -0.0528  0.0476  0.1890
   78MPD1    H6 1201   0.019   4.508   2.495 -0.5370 -4.8911  0.9225
   78MPD1    H7 1202   4.641   4.607   2.571  1.1515  0.1647  0.0657
   79TCq2    C1 1203   4.617   4.317   2.021  0.3452  0.0878 -0.5070
   79TCq2    O2 1204   0.009   4.330   2.058  0.0847  0.2894  1.1350
   79TCq2    C2 1205   4.599   4.254   1.889 -0.8957  0.3817 -0.3130
   79TCq2    C3 1206   4.474   4.237   1.838  0.1610 -0.2064  0.4749
   79TCq2    C4 1207   4.454   4.155   1.729 -0.1611 -0.3404  0.1550
   79TCq2    C5 1208   4.557   4.091   1.673  0.3524 -0.2141 -0.1870
   79TCq2    C6 1209   4.684   4.101   1.730  0.1503  0.7108 -0.2973
   79TCq2    C7 1210   4.705   4.183   1.842  0.9360 -0.6870  0.5816
   79TCq2    C8 1211   0.069   4.028   1.673  0.6425 -0.2667 -0.3594
   79TCq2    O4 1212   0.177   4.077   1.708 -0.1170  0.3293  0.2898
   79TCq2    C9 1213   4.322   4.141   1.673 -0.6700  0.0541 -1.1113
   79TCq2    O5 1214   4.318   4.054   1.580  0.0109 -0.3709 -0.8520
   79TCq2    O6 1215   4.222   4.180   1.742  0.4593  0.0161 -0.6884
   79TCq2    H2 1216   4.397   4.306   1.869  1.5592  1.7055 -0.2463
   79TCq2    H3 1217   4.546   4.034   1.581 -0.2038 -1.4165  0.6375
   79TCq2    H4 1218   0.077   4.185   1.892  0.8092 -2.1320  0.9037
   80MPD2     C 1219   2.929   3.995  11.551 -0.3967  0.7197  0.0792
   80MPD2    C1 1220   2.940   3.893  11.647  0.3009 -0.1075 -0.0437
   80MPD2    C2 1221   2.840   3.897  11.749 -0.6041 -0.1793 -0.3709
   80MPD2    C3 1222   2.742   3.994  11.749  0.0437 -0.5324 -0.6154
   80MPD2    C4 1223   2.740   4.094  11.658 -0.6898  0.3092  0.4641
   80MPD2    C5 1224   2.831   4.095  11.555 -0.2596  0.0922  0.0414
   80MPD2     H 1225   2.851   3.822  11.827  0.0945 -1.3221 -1.5546
   80MPD2    H1 1226   2.663   4.171  11.655 -2.2096 -1.2658 -1.0133
   80MPD2    H2 1227   2.999   3.994  11.469 -1.1815 -1.5047 -0.5811
   80MPD2    H3 1228   2.819   4.175  11.483  0.5227  0.0031 -0.1868
   80MPD2     N 1229   2.642   3.996  11.844  0.3138 -0.2453 -0.3541
   80MPD2    H5 1230   2.578   4.074  11.837  0.3690  0.0872  3.2990
   80MPD2    N1 1231   3.030   3.781  11.640  0.2263  0.0030  0.2225
   80MPD2    H7 1232   3.016   3.713  11.714  0.6445 -0.5573 -0.2127
   81TCq2    C1 1233   3.139   3.776  11.561 -0.3664 -0.8156 -0.0503
   81TCq2    O2 1234   3.197   3.864  11.502 -0.6499 -0.4734 -0.2287
   81TCq2    C2 1235   3.179   3.640  11.536 -0.0517 -0.4921  0.0221
   81TCq2    C3 1236   3.294   3.616  11.474 -0.8006 -0.1052  0.9645
   81TCq2    C4 1237   3.335   3.488  11.451 -0.2854  0.6071  0.2535
   81TCq2    C5 1238   3.267   3.380  11.502 -0.0057 -0.8805 -0.0269
   81TCq2    C6 1239   3.160   3.404  11.584  0.1546  1.0971  0.1615
   81TCq2    C7 1240   3.115   3.531  11.598 -0.0166  0.0383  0.0111
   81TCq2    C8 1241   3.067   3.289  11.590  0.1710 -0.2383  0.1339
   81TCq2    O4 1242   3.084   3.213  11.493 -0.7992  0.9491 -0.1702
   81TCq2    C9 1243   3.456   3.457  11.377  0.0081  0.4588  1.1029
   81TCq2    O5 1244   3.468   3.340  11.325 -0.2213 -0.2763 -0.4625
   81TCq2    O6 1245   3.548   3.543  11.376 -0.5003  0.2175 -0.1378
   81TCq2    H2 1246   3.357   3.694  11.433 -1.0789  0.4189  1.5366
   81TCq2    H3 1247   3.305   3.283  11.472  0.1627 -0.1712 -2.1051
   81TCq2    H4 1248   3.011   3.550  11.625  0.4083  1.7032  0.4744
   82MPD2     C 1249   1.603   4.019  10.720 -0.6607  0.2511  0.6920
   82MPD2    C1 1250   1.503   3.930  10.751  0.3804  0.2468 -0.0176
   82MPD2    C2 1251   1.509   3.876  10.879 -0.4410  0.5407  0.0700
   82MPD2    C3 1252   1.607   3.919  10.970  0.2665  0.2568 -0.4053
   82MPD2    C4 1253   1.700   4.009  10.931 -0.0282 -0.5782  0.5946
   82MPD2    C5 1254   1.700   4.068  10.804  0.0099 -0.7898  0.1801
   82MPD2     H 1255   1.434   3.805  10.912  1.4324 -1.0364  0.8716
   82MPD2    H1 1256   1.773   4.055  10.997 -1.0116  0.4735  0.9451
   82MPD2    H2 1257   1.597   4.069  10.624 -0.8905  1.4443  1.3360
   82MPD2    H3 1258   1.755   4.157  10.778  0.1745 -1.1480 -0.7198
   82MPD2     N 1259   1.612   3.885  11.101 -0.1745  0.2005 -0.3285
   82MPD2    H5 1260   1.684   3.930  11.158 -0.2734 -1.5944  1.2242
   82MPD2    N1 1261   1.397   3.903  10.664  0.8151  0.1567 -0.0854
   82MPD2    H7 1262   1.401   3.957  10.578  0.1739  0.9888  0.4132
   83TCq2    C1 1263   1.519   3.802  11.167 -0.1971 -0.5569 -0.2178
   83TCq2    O2 1264   1.417   3.741  11.131  0.0388 -0.4191  0.2787
   83TCq2    C2 1265   1.555   3.787  11.307  0.1807  0.0851  0.3683
   83TCq2    C3 1266   1.688   3.785  11.332 -0.5297 -0.1041 -0.1737
   83TCq2    C4 1267   1.736   3.729  11.445 -0.1089 -0.1796  1.1626
   83TCq2    C5 1268   1.652   3.668  11.537  0.5518 -0.2368  0.5173
   83TCq2    C6 1269   1.513   3.680  11.517  0.5154 -0.8099  0.5634
   83TCq2    C7 1270   1.470   3.733  11.398  0.2419  0.2819  0.6139
   83TCq2    C8 1271   1.423   3.598  11.585  0.9234 -0.4350  0.1082
   83TCq2    O4 1272   1.304   3.620  11.585  0.5428  0.3527  0.8470
   83TCq2    C9 1273   1.881   3.718  11.463  0.2747  0.4815  0.0865
   83TCq2    O5 1274   1.931   3.637  11.547  0.1584  0.2958 -0.3861
   83TCq2    O6 1275   1.949   3.801  11.399  0.0957 -0.2863 -0.0389
   83TCq2    H2 1276   1.769   3.814  11.265 -2.4150  0.6136 -2.1596
   83TCq2    H3 1277   1.683   3.634  11.635 -0.4550 -2.5511  0.0202
   83TCq2    H4 1278   1.366   3.738  11.367 -0.0460 -1.2150  1.3588
   84TCq2    C1 1279   2.251   2.446  10.237  0.9362  0.0111 -0.6956
   84TCq2    O2 1280   2.184   2.354  10.281 -0.0422  0.1498  0.3708
   84TCq2    C2 1281   2.315   2.529  10.334 -0.7599 -0.2137 -0.5883
   84TCq2    C3 1282   2.439   2.578  10.306  0.6079  0.8094  0.6893
   84TCq2    C4 1283   2.499   2.644  10.408 -0.4623 -0.3130 -0.0801
   84TCq2    C5 1284   2.442   2.668  10.532  0.4331 -0.1836  0.2724
   84TCq2    C6 1285   2.320   2.616  10.554 -0.4851 -0.6143 -0.2997
   84TCq2    C7 1286   2.249   2.547  10.453  0.9924  0.6057 -0.0982
   84TCq2    C8 1287   2.277   2.630  10.689 -0.3277 -0.0727  0.2202
   84TCq2    O4 1288   2.326   2.727  10.748  0.4009  0.0023 -0.1450
   84TCq2    C9 1289   2.627   2.698  10.382 -0.1167  0.0851 -0.2644
   84TCq2    O5 1290   2.699   2.708  10.483 -0.3260  0.1472 -0.4928
   84TCq2    O6 1291   2.668   2.723  10.266  0.0023 -0.3097 -0.4167
   84TCq2    H2 1292   2.485   2.565  10.209 -0.8900 -0.7898  0.1728
   84TCq2    H3 1293   2.492   2.736  10.601 -0.0191  0.6333 -0.2103
   84TCq2    H4 1294   2.156   2.498  10.477  1.8991 -1.0019  0.0987
   85MPD2     C 1295   2.154   0.102  16.472 -0.3603 -0.0139 -0.6054
   85MPD2    C1 1296   2.179   0.026  16.357 -0.2566 -0.1640 -0.5464
   85MPD2    C2 1297   2.264   0.086  16.260  0.4105  0.4719 -0.4163
   85MPD2    C3 1298   2.315   0.208  16.276  0.1253 -0.1097 -0.4841
   85MPD2    C4 1299   2.288   0.279  16.392  0.0082  0.1335 -0.0706
   85MPD2    C5 1300   2.215   0.224  16.490 -0.1268 -0.1769 -0.1159
   85MPD2     H 1301   2.278   0.050  16.159 -0.5359 -0.3745 -0.2512
   85MPD2    H1 1302   2.320   0.381  16.410  1.3432 -0.4840  1.0223
   85MPD2    H2 1303   2.103   0.060  16.558  0.7701  0.6584  0.3917
   85MPD2    H3 1304   2.193   0.269  16.586 -1.0423 -0.6572 -0.1002
   85MPD2     N 1305   2.385   0.254  16.164  0.1349  0.3998 -0.0984
   85MPD2    H5 1306   2.387   0.196  16.081  1.2400  0.7719 -0.3333
   85MPD2    N1 1307   2.126   4.625  16.326  0.2334 -0.0888  0.6010
   85MPD2    H7 1308   2.156   4.578  16.241 -0.6104  1.7056 -0.6950
   86TCq2    C1 1309   2.446   0.375  16.148  0.4672 -0.0069  0.1397
   86TCq2    O2 1310   2.483   0.452  16.238  0.3459 -0.1538 -0.1674
   86TCq2    C2 1311   2.486   0.395  16.011  0.0142  0.6034  0.7489
   86TCq2    C3 1312   2.391   0.390  15.913 -0.1045 -0.5903 -0.1013
   86TCq2    C4 1313   2.421   0.451  15.790  0.2024  0.4314  0.2329
   86TCq2    C5 1314   2.542   0.506  15.770 -0.5264 -0.2384 -0.3306
   86TCq2    C6 1315   2.640   0.499  15.870 -0.0645  0.7631  0.2667
   86TCq2    C7 1316   2.611   0.457  16.001 -0.2315 -0.0321  0.2944
   86TCq2    C8 1317   2.770   0.566  15.849  0.4241  0.7055 -0.6248
   86TCq2    O4 1318   2.867   0.516  15.901  0.1053 -0.2964  0.6364
   86TCq2    C9 1319   2.325   0.450  15.678  0.1256  0.0623  0.5163
   86TCq2    O5 1320   2.351   0.532  15.588  0.0652  0.3219  0.2959
   86TCq2    O6 1321   2.225   0.376  15.685  0.5906 -0.1281  0.0619
   86TCq2    H2 1322   2.293   0.352  15.936  0.2303 -1.8877 -0.8363
   86TCq2    H3 1323   2.562   0.544  15.670 -0.6155  1.1858  0.2000
   86TCq2    H4 1324   2.681   0.468  16.083  0.9025  1.2424 -0.8497
   87MPD2     C 1325   4.528   3.190   1.089 -0.4700 -0.6097  0.4307
   87MPD2    C1 1326   4.557   3.308   1.148  0.8070  0.0633 -0.2778
   87MPD2    C2 1327   4.511   3.428   1.088  0.9314 -0.0152  0.1170
   87MPD2    C3 1328   4.452   3.424   0.960  0.2618  0.3961  0.4148
   87MPD2    C4 1329   4.418   3.302   0.908  0.1177  0.0023  0.2696
   87MPD2    C5 1330   4.453   3.188   0.977 -0.2391  0.1216  0.5639
   87MPD2     H 1331   4.538   3.523   1.133  0.4616  1.1847 -2.1611
   87MPD2    H1 1332   4.360   3.304   0.816  1.0190  1.9209 -0.2602
   87MPD2    H2 1333   4.550   3.094   1.134  0.7577 -1.0165 -1.0318
   87MPD2    H3 1334   4.427   3.091   0.936 -1.1272  1.7483 -2.7100
   87MPD2     N 1335   4.407   3.536   0.887 -0.0593 -0.1071  0.4537
   87MPD2    H5 1336   4.382   3.522   0.790 -3.5557  2.2459  0.9970
   87MPD2    N1 1337   4.626   3.300   1.269 -0.0012  0.7295 -0.4782
   87MPD2    H7 1338   4.671   3.215   1.302 -1.1611 -0.0376 -0.8791
   88TCq2    C1 1339   4.638   3.397   1.363 -0.3040  0.6546 -0.0562
   88TCq2    O2 1340   4.563   3.493   1.379 -0.5962  0.1210 -0.0552
   88TCq2    C2 1341   0.016   3.389   1.461 -0.0709 -0.4520 -0.3375
   88TCq2    C3 1342   0.004   3.462   1.575  0.4717 -0.4455 -0.0395
   88TCq2    C4 1343   0.110   3.461   1.661  0.6067 -0.5038  0.2350
   88TCq2    C5 1344   0.225   3.393   1.629 -0.3107 -0.1165 -0.2145
   88TCq2    C6 1345   0.221   3.312   1.518  0.5581 -0.0905 -0.0362
   88TCq2    C7 1346   0.120   3.317   1.431  0.1570  0.4127 -0.2077
   88TCq2    C8 1347   0.348   3.260   1.472  1.0017 -0.2057 -0.1115
   88TCq2    O4 1348   0.363   3.214   1.361 -0.4182  0.2870 -0.1991
   88TCq2    C9 1349   0.118   3.548   1.773 -0.1339 -1.1780 -0.4196
   88TCq2    O5 1350   0.014   3.617   1.802  0.1225  0.3899  0.2319
   88TCq2    O6 1351   0.228   3.538   1.841  0.2948 -0.1344  0.1782
   88TCq2    H2 1352   4.642   3.524   1.596  0.9795 -0.5319  2.2925
   88TCq2    H3 1353   0.315   3.400   1.689  1.1501  0.9856 -2.5125
   88TCq2    H4 1354   0.133   3.264   1.337 -0.4882 -2.2600  1.1833
   89MPD2     C 1355   1.525   1.243   1.722  0.1641 -0.0982  0.0064
   89MPD2    C1 1356   1.461   1.315   1.828  0.6961  0.4513 -0.1621
   89MPD2    C2 1357   1.546   1.376   1.918 -0.8597 -0.1240  0.3043
   89MPD2    C3 1358   1.685   1.366   1.918 -0.5284 -0.8643  0.3732
   89MPD2    C4 1359   1.742   1.307   1.810 -0.4507  0.5855  0.0021
   89MPD2    C5 1360   1.660   1.253   1.718 -0.1696  0.3494 -0.1374
   89MPD2     H 1361   1.494   1.422   2.002 -0.5801 -1.4548  1.1935
   89MPD2    H1 1362   1.849   1.293   1.801 -0.8481 -1.1419 -2.0647
   89MPD2    H2 1363   1.486   1.188   1.636 -0.7395 -0.6845  0.7850
   89MPD2    H3 1364   1.721   1.207   1.641  0.0172 -0.9938  0.8236
   89MPD2     N 1365   1.750   1.415   2.033  0.7493 -1.2624  0.1141
   89MPD2    H5 1366   1.688   1.455   2.103  1.8430 -1.0174  0.9483
   89MPD2    N1 1367   1.320   1.326   1.843  0.0399  0.9770 -0.6898
   89MPD2    H7 1368   1.295   1.395   1.913 -1.9802  0.3208 -0.7620
   90TCq2    C1 1369   1.882   1.418   2.043  0.1451  0.1030 -0.1528
   90TCq2    O2 1370   1.973   1.378   1.968 -0.5593 -0.2801  0.1070
   90TCq2    C2 1371   1.938   1.493   2.160 -0.2290 -0.7928 -0.0043
   90TCq2    C3 1372   1.853   1.538   2.256 -0.9726  0.6694  0.1412
   90TCq2    C4 1373   1.912   1.582   2.373  0.4638  0.5572 -0.6031
   90TCq2    C5 1374   2.047   1.590   2.394  1.0799 -0.4434 -0.5892
   90TCq2    C6 1375   2.127   1.556   2.291  0.0285 -0.0404 -0.1798
   90TCq2    C7 1376   2.073   1.492   2.175  0.0537  0.1635 -0.3930
   90TCq2    C8 1377   2.266   1.613   2.291 -0.7859  0.5591 -0.2579
   90TCq2    O4 1378   2.338   1.618   2.391  0.0430 -0.0329  0.2955
   90TCq2    C9 1379   1.816   1.615   2.480 -0.0939  0.4142  0.7287
   90TCq2    O5 1380   1.859   1.681   2.581 -0.5363 -0.2485  0.1390
   90TCq2    O6 1381   1.710   1.550   2.490 -0.1607 -0.2602  0.3113
   90TCq2    H2 1382   1.746   1.534   2.244 -0.8692 -0.0067 -0.5154
   90TCq2    H3 1383   2.087   1.626   2.487  1.8286 -0.3559 -0.9472
   90TCq2    H4 1384   2.139   1.497   2.089 -1.5300 -2.5003 -1.7815
   91TMC2    C1 1385   3.038   1.244  16.555 -0.9981 -0.6432 -0.6613
   91TMC2    C2 1386   3.128   1.251  16.655 -0.5986 -0.1787 -0.0911
   91TMC2    C3 1387   3.088   1.219  16.782  0.5861  0.2306 -0.7757
   91TMC2    C4 1388   2.904   1.231  16.575 -0.6998  0.5554  0.3057
   91TMC2    C5 1389   2.858   1.214  16.703  0.1455  0.4364 -0.2948
   91TMC2    C6 1390   2.950   1.208  16.810  0.2350 -0.0340 -0.2244
   91TMC2     C 1391   3.082   1.217  16.418  0.5575 -0.1721 -0.4967
   91TMC2     O 1392   2.996   1.244  16.337 -0.4175 -0.5022  0.2979
   91TMC2     H 1393   3.232   1.269  16.633 -1.0861  0.2198 -2.1661
   91TMC2    H1 1394   2.837   1.235  16.490 -2.2489 -3.7502  1.3113
   91TMC2    H2 1395   2.921   1.188  16.912  2.5205 -2.3281 -0.0146
   91TMC2    C7 1396   2.725   1.165  16.735 -0.2985 -0.4880 -0.1915
   91TMC2    C8 1397   3.196   1.216  16.877  0.1527  0.3364 -0.1476
   91TMC2    O1 1398   2.715   1.146  16.856  0.7351  0.4461  0.4305
   91TMC2    O2 1399   3.295   1.149  16.859 -0.9478  0.3785 -0.0138
   91TMC2    O5 1400   3.133   1.227  16.999  0.2562 -0.4450 -0.4685
   91TMC2    H5 1401   3.074   1.306  16.997 -1.0296 -1.4203 -1.0650
   92MPD2     C 1402   3.215   1.143  16.169 -0.1212  1.1422 -0.2339
   92MPD2    C1 1403   3.274   1.147  16.292 -0.0737 -0.8029 -0.1808
   92MPD2    C2 1404   3.413   1.132  16.298 -0.4689  0.1649  0.2311
   92MPD2    C3 1405   3.490   1.100  16.187  0.5134 -0.1168  0.2788
   92MPD2    C4 1406   3.425   1.093  16.069 -0.3167 -0.4449  0.1867
   92MPD2    C5 1407   3.288   1.115  16.061  0.4885  0.4212  0.0308
   92MPD2     H 1408   3.467   1.141  16.391 -2.7238  0.8343  1.4522
   92MPD2    H1 1409   3.473   1.072  15.974  3.2332  1.0984  1.6200
   92MPD2    H2 1410   3.108   1.152  16.158 -0.2559  0.6553  0.7376
   92MPD2    H3 1411   3.237   1.101  15.967  1.0649 -1.2450 -0.0284
   92MPD2     N 1412   3.629   1.109  16.197  0.3998 -0.1936  1.1793
   92MPD2    H5 1413   3.666   1.146  16.284  0.3325  0.8861  0.7442
   92MPD2    N1 1414   3.205   1.165  16.409 -0.3258  0.6997 -0.6110
   92MPD2    H7 1415   3.255   1.143  16.495 -0.0450 -0.2499 -1.0185
   93MPD2     C 1416   0.114   1.439  13.390 -0.6704 -1.5682  0.7660
   93MPD2    C1 1417   0.072   1.482  13.509 -0.4874 -0.2489  0.0335
   93MPD2    C2 1418   4.680   1.423  13.574  0.7566 -0.2694 -0.4504
   93MPD2    C3 1419   4.593   1.351  13.496  0.1562 -0.5265 -0.6202
   93MPD2    C4 1420   4.641   1.310  13.373 -0.0411 -0.2942  0.3023
   93MPD2    C5 1421   0.035   1.357  13.318  0.0785 -0.3087  0.5109
   93MPD2     H 1422   4.661   1.434  13.680  0.7427  0.0214 -0.4830
   93MPD2    H1 1423   4.574   1.253  13.309  0.1598  0.9265 -0.9888
   93MPD2    H2 1424   0.199   1.487  13.344 -1.2825 -0.3761  0.8943
   93MPD2    H3 1425   0.067   1.316  13.222 -0.5585 -0.5628  0.4103
   93MPD2     N 1426   4.461   1.306  13.542 -0.8349  0.0757 -0.1967
   93MPD2    H5 1427   4.403   1.250  13.480 -0.9273  0.6944 -0.6564
   93MPD2    N1 1428   0.150   1.576  13.585 -0.5437 -0.4595 -0.4699
   93MPD2    H7 1429   0.108   1.616  13.669  2.5039  1.3896  0.1572
   94TCq2    C1 1430   0.271   1.632  13.553  0.3752 -0.6491  0.3178
   94TCq2    O2 1431   0.346   1.613  13.461  0.2792 -0.4510  0.1898
   94TCq2    C2 1432   0.305   1.739  13.652 -0.1284  0.1087  0.0097
   94TCq2    C3 1433   0.206   1.793  13.736  0.3279  0.5461 -0.1623
   94TCq2    C4 1434   0.240   1.883  13.837 -0.3762 -1.0169 -0.1237
   94TCq2    C5 1435   0.376   1.907  13.852 -0.5506 -0.5484  0.1110
   94TCq2    C6 1436   0.467   1.848  13.779  0.0812 -0.1635 -0.1721
   94TCq2    C7 1437   0.440   1.760  13.680 -0.0324 -0.5342 -0.3160
   94TCq2    C8 1438   0.608   1.873  13.783  0.6304 -0.3724 -0.4609
   94TCq2    O4 1439   0.687   1.799  13.730 -0.2274  0.0481 -0.4403
   94TCq2    C9 1440   0.149   1.943  13.929  0.1448 -0.4039  0.5371
   94TCq2    O5 1441   0.191   2.036  14.004 -0.0045  0.5262 -0.2598
   94TCq2    O6 1442   0.025   1.919  13.915  0.1470  0.0859  0.0202
   94TCq2    H2 1443   0.100   1.775  13.723  0.8667 -3.5010  1.1088
   94TCq2    H3 1444   0.407   1.979  13.927  1.1172 -0.0085 -1.0910
   94TCq2    H4 1445   0.511   1.725  13.606  0.2160  1.5435 -1.0447
   95TMC2    C1 1446   0.598   2.597  16.042  0.1343 -0.4516  0.3856
   95TMC2    C2 1447   0.671   2.486  16.053  0.4675  0.4090 -0.1709
   95TMC2    C3 1448   0.614   2.372  16.088  0.2065 -0.0471  0.7122
   95TMC2    C4 1449   0.455   2.596  16.061  0.3676  0.3338  0.3134
   95TMC2    C5 1450   0.403   2.473  16.094 -0.1519  0.1507  0.0370
   95TMC2    C6 1451   0.483   2.353  16.096  0.0625  0.2591  0.3398
   95TMC2     C 1452   0.651   2.709  15.964  0.2225 -1.0162 -0.0000
   95TMC2     O 1453   0.578   2.807  15.940  0.1204 -0.4204  0.0402
   95TMC2     H 1454   0.773   2.470  16.019  0.4086  2.8032 -1.4410
   95TMC2    H1 1455   0.397   2.688  16.067 -1.4985 -0.8858  0.6651
   95TMC2    H2 1456   0.446   2.254  16.117  0.0446 -0.2996 -2.3854
   95TMC2    C7 1457   0.271   2.462  16.140 -0.3456 -0.1498  0.4883
   95TMC2    C8 1458   0.681   2.253  16.040  0.0849 -0.8289  0.2755
   95TMC2    O1 1459   0.251   2.362  16.207 -0.0676 -0.6468 -0.2992
   95TMC2    O2 1460   0.658   2.196  15.935  0.0082  0.1247 -0.2225
   95TMC2    O5 1461   0.807   2.248  16.095 -0.5408  0.2704 -0.5678
   95TMC2    H5 1462   0.820   2.308  16.172  0.4021 -2.4792  1.3935
   96MPD2     C 1463   1.029   3.008  15.811  0.0894  0.4068 -0.6181
   96MPD2    C1 1464   0.908   2.980  15.749 -0.5626 -0.1644  0.5355
   96MPD2    C2 1465   0.825   2.882  15.807 -0.0568 -1.2755 -0.3301
   96MPD2    C3 1466   0.866   2.812  15.917 -0.0737 -0.8349  0.4607
   96MPD2    C4 1467   0.985   2.841  15.972  0.0821 -0.3795  0.4893
   96MPD2    C5 1468   1.068   2.929  15.914 -0.2997  0.0646  0.0529
   96MPD2     H 1469   0.726   2.881  15.763  0.4147 -1.9960 -1.3827
   96MPD2    H1 1470   1.023   2.799  16.064  0.2790  0.9973  1.0314
   96MPD2    H2 1471   1.094   3.088  15.778  0.0180  0.8201  0.2632
   96MPD2    H3 1472   1.159   2.957  15.965 -0.2711  0.9699 -0.5026
   96MPD2     N 1473   0.789   2.712  15.972  0.1907  0.0670 -0.0994
   96MPD2    H5 1474   0.843   2.645  16.025  0.4661  0.3160 -0.0688
   96MPD2    N1 1475   0.884   3.050  15.627  0.6249  0.4510 -0.1729
   96MPD2    H7 1476   0.946   3.127  15.606 -1.0140  1.4733 -1.2214
   97MPD2     C 1477   1.648   0.023   0.740  0.6756  0.2965  0.6631
   97MPD2    C1 1478   1.728   0.134   0.762  0.2541 -0.7078  0.5999
   97MPD2    C2 1479   1.779   0.189   0.649  0.4853 -0.4471 -0.1069
   97MPD2    C3 1480   1.738   0.152   0.520 -0.1762  0.7821  0.4923
   97MPD2    C4 1481   1.644   0.056   0.509 -0.4244 -0.4261 -0.0022
   97MPD2    C5 1482   1.608   4.708   0.618 -1.0034  0.4300  0.0681
   97MPD2     H 1483   1.864   0.255   0.661  0.1517 -0.2557  1.2052
   97MPD2    H1 1484   1.618   0.019   0.410  1.6409  3.8605 -2.1578
   97MPD2    H2 1485   1.611   4.694   0.827 -0.2257  0.9455  0.6700
   97MPD2    H3 1486   1.544   4.622   0.604 -0.0461 -0.7421  3.1030
   97MPD2     N 1487   1.786   0.220   0.401  0.2047  0.4757 -0.0547
   97MPD2    H5 1488   1.749   0.186   0.313  1.3405  1.4729 -0.9236
   97MPD2    N1 1489   1.749   0.169   0.890  0.9480 -0.8643 -0.2371
   97MPD2    H7 1490   1.705   0.112   0.961  1.9418  2.2626  2.8700
   98TCq2    C1 1491   1.871   0.328   0.387  0.3932 -0.1041 -0.2107
   98TCq2    O2 1492   1.913   0.395   0.481 -0.2586 -0.2250 -0.9337
   98TCq2    C2 1493   1.899   0.371   0.248  0.3055  0.1399  0.2146
   98TCq2    C3 1494   1.818   0.310   0.154  0.7142 -0.2566  0.0759
   98TCq2    C4 1495   1.852   0.329   0.020  0.4845  0.1241  0.1175
   98TCq2    C5 1496   1.959   0.408  17.688  0.0498  0.0018 -0.0742
   98TCq2    C6 1497   2.027   0.475   0.092  0.0002  0.0116 -0.3377
   98TCq2    C7 1498   1.999   0.459   0.221  0.7624 -0.7434  0.6579
   98TCq2    C8 1499   2.133   0.571   0.057  0.0506  0.1148  0.1951
   98TCq2    O4 1500   2.215   0.594   0.144 -0.1123 -0.0584 -0.3150
   98TCq2    C9 1501   1.788   0.258  17.616 -0.4213  0.0146  0.4016
   98TCq2    O5 1502   1.742   0.147  17.653  0.0742 -0.2697  0.4729
   98TCq2    O6 1503   1.776   0.317  17.505  0.3403  0.1877  0.0355
   98TCq2    H2 1504   1.723   0.260   0.171  1.1083 -1.0443 -0.0211
   98TCq2    H3 1505   1.997   0.402  17.586 -0.2960 -1.0005 -0.1438
   98TCq2    H4 1506   2.068   0.492   0.298 -1.9198  0.1528  2.6741
   99MPD2     C 1507   0.787   1.952   1.830  0.6607 -0.0544  0.2203
   99MPD2    C1 1508   0.684   2.034   1.796  0.3865  0.1156 -0.7614
   99MPD2    C2 1509   0.634   2.014   1.670 -0.3052  0.4182  0.3226
   99MPD2    C3 1510   0.680   1.917   1.587 -1.0126  0.1743  0.7029
   99MPD2    C4 1511   0.766   1.820   1.625  0.6011 -0.0979  0.2714
   99MPD2    C5 1512   0.823   1.842   1.747 -0.0834 -0.7799  0.0038
   99MPD2     H 1513   0.557   2.083   1.636 -0.6392 -1.3085 -2.3655
   99MPD2    H1 1514   0.811   1.746   1.558  1.0646  0.5147 -0.1011
   99MPD2    H2 1515   0.847   1.969   1.919 -1.5479 -3.0048  2.2910
   99MPD2    H3 1516   0.904   1.777   1.777 -0.3581 -1.4441 -0.6869
   99MPD2     N 1517   0.629   1.923   1.456 -0.9937  0.3963 -0.3845
   99MPD2    H5 1518   0.578   2.009   1.440 -1.3799  0.5493  1.7739
   99MPD2    N1 1519   0.643   2.151   1.872 -0.2789 -0.5914 -0.3072
   99MPD2    H7 1520   0.575   2.208   1.822  0.5169 -0.5954 -1.3809
  100TCq2    C1 1521   0.682   2.169   2.001  0.0486 -0.3271 -0.0071
  100TCq2    O2 1522   0.729   2.084   2.073  0.2508  0.1787 -0.1815
  100TCq2    C2 1523   0.623   2.290   2.065 -0.4214  0.4503  0.6288
  100TCq2    C3 1524   0.685   2.328   2.183 -0.5664 -0.0151  0.0959
  100TCq2    C4 1525   0.631   2.429   2.266  0.0204 -0.3974 -0.1446
  100TCq2    C5 1526   0.515   2.486   2.227 -0.3419 -0.1936 -0.0207
  100TCq2    C6 1527   0.449   2.448   2.110 -0.4666 -0.3641  0.1661
  100TCq2    C7 1528   0.498   2.344   2.025 -0.4988 -0.1465  0.2577
  100TCq2    C8 1529   0.355   2.540   2.045 -0.7238  0.8373  0.5992
  100TCq2    O4 1530   0.348   2.661   2.066 -0.3907  0.1496 -0.7438
  100TCq2    C9 1531   0.703   2.463   2.393  0.4322 -0.3313 -0.0894
  100TCq2    O5 1532   0.682   2.568   2.459 -0.2009 -0.4027 -0.7202
  100TCq2    O6 1533   0.794   2.378   2.428  0.3409  0.3628  0.0844
  100TCq2    H2 1534   0.768   2.272   2.223  0.1468  2.1546  1.6405
  100TCq2    H3 1535   0.475   2.571   2.282  0.5034  0.4023 -0.3253
  100TCq2    H4 1536   0.444   2.296   1.945 -0.4748  1.9629 -1.0312
  101MPD2     C 1537   1.726   3.841  12.967 -0.7307  0.1467  0.0522
  101MPD2    C1 1538   1.640   3.880  13.069  0.3249 -0.1282  0.1087
  101MPD2    C2 1539   1.541   3.786  13.107 -0.8900 -0.7235 -0.4558
  101MPD2    C3 1540   1.538   3.661  13.048  0.1396  0.1560 -0.3770
  101MPD2    C4 1541   1.634   3.624  12.953  0.0463  0.4719 -0.1720
  101MPD2    C5 1542   1.726   3.711  12.919 -0.5287  0.4112  0.5507
  101MPD2     H 1543   1.472   3.812  13.186 -0.1925 -0.1621 -0.0339
  101MPD2    H1 1544   1.645   3.523  12.914  1.8927  0.6915 -0.1836
  101MPD2    H2 1545   1.795   3.919  12.936 -1.6619  0.1896 -1.8744
  101MPD2    H3 1546   1.795   3.681  12.841 -2.1585 -2.3439  0.1523
  101MPD2     N 1547   1.433   3.574  13.083  0.1499 -0.3380  0.3589
  101MPD2    H5 1548   1.373   3.595  13.161 -0.2605  0.4475 -0.1704
  101MPD2    N1 1549   1.643   4.015  13.107  0.6383 -0.2144  0.3973
  101MPD2    H7 1550   1.703   4.072  13.049  2.0682 -1.6298  0.5033
  102TCq2    C1 1551   1.695   4.487  12.983 -0.0007 -0.0993 -0.8257
  102TCq2    O2 1552   1.809   4.445  12.970 -0.1425  0.2279  0.0168
  102TCq2    C2 1553   1.610   4.420  13.075 -0.3190 -0.1142  0.5011
  102TCq2    C3 1554   1.491   4.471  13.121  1.1226 -0.3917 -0.7256
  102TCq2    C4 1555   1.406   4.411  13.202  0.3297  0.4426  0.6058
  102TCq2    C5 1556   1.418   4.273  13.222  0.0733 -0.2366 -1.4372
  102TCq2    C6 1557   1.530   4.217  13.166  0.6517 -0.1501 -0.3792
  102TCq2    C7 1558   1.634   4.285  13.102 -0.0975  0.6272  0.0907
  102TCq2    C8 1559   1.558   4.075  13.189 -0.6655 -0.7383  0.4569
  102TCq2    O4 1560   1.489   4.021  13.269  0.0373 -0.7394  0.2452
  102TCq2    C9 1561   1.310   4.493  13.272 -0.4913 -0.8002 -0.4632
  102TCq2    O5 1562   1.289   4.608  13.229  0.2907 -0.5528 -0.1071
  102TCq2    O6 1563   1.252   4.428  13.358 -0.0782  0.3477  0.3290
  102TCq2    H2 1564   1.489   4.580  13.115  1.8421 -0.3544 -0.3233
  102TCq2    H3 1565   1.358   4.227  13.300  0.6190 -1.4848 -1.7521
  102TCq2    H4 1566   1.721   4.238  13.057  2.0272  0.6824  4.1615
  103TMC2    C1 1567   4.132   4.573  12.294  0.6742  0.0982  0.0069
  103TMC2    C2 1568   4.217   4.656  12.346  0.1575  0.4199  0.4631
  103TMC2    C3 1569   4.240   4.672  12.477  0.7462  0.2120 -0.1221
  103TMC2    C4 1570   4.054   4.491  12.371 -0.3583  0.2587 -0.3151
  103TMC2    C5 1571   4.074   4.508  12.505 -0.2786 -0.1682 -0.2005
  103TMC2    C6 1572   4.169   4.592  12.563  0.2910  1.1859 -0.3774
  103TMC2     C 1573   4.123   4.559  12.148  0.7461 -0.1893 -0.1367
  103TMC2     O 1574   4.175   4.646  12.077  0.5881 -0.0338  0.0501
  103TMC2     H 1575   4.263   0.008  12.284  0.3522  0.4345  0.6264
  103TMC2    H1 1576   4.003   4.410  12.321 -0.3396 -0.8540  1.4900
  103TMC2    H2 1577   4.173   4.607  12.671  2.5481  0.0893 -0.3124
  103TMC2    C7 1578   4.011   4.410  12.592 -0.1401 -0.3306 -0.5412
  103TMC2    C8 1579   4.329   0.049  12.516 -0.2460  0.1500  0.2307
  103TMC2    O1 1580   4.075   4.380  12.694  0.2469 -0.2274 -0.5273
  103TMC2    O2 1581   4.430   0.076  12.451  0.9249  0.1108 -0.1437
  103TMC2    O5 1582   4.314   0.075  12.649 -0.1433  0.2935 -0.1492
  103TMC2    H5 1583   4.224   0.060  12.684  0.5154  0.2748  1.5438
  104MPD2     C 1584   4.124   4.277  11.918  0.4660 -0.1468  0.9170
  104MPD2    C1 1585   4.097   4.405  11.953 -0.1668  0.7038  0.2267
  104MPD2    C2 1586   4.071   4.496  11.857  0.0820  0.8011  0.2774
  104MPD2    C3 1587   4.068   4.458  11.726 -0.0718  0.9266 -0.5531
  104MPD2    C4 1588   4.112   4.332  11.690 -0.3541 -0.9605 -0.8726
  104MPD2    C5 1589   4.122   4.242  11.786 -0.2037  0.2165 -0.4808
  104MPD2     H 1590   4.036   4.595  11.883 -0.1992  1.1091 -1.3083
  104MPD2    H1 1591   4.128   4.284  11.593  0.6839 -1.9537 -0.2155
  104MPD2    H2 1592   4.144   4.198  11.990 -0.8739 -1.2589  0.0627
  104MPD2    H3 1593   4.155   4.140  11.770 -2.8972 -0.5640 -1.1123
  104MPD2     N 1594   4.031   4.556  11.633  0.7942 -0.4294  0.9776
  104MPD2    H5 1595   3.992   4.641  11.673 -1.3568 -0.7894 -0.3620
  104MPD2    N1 1596   4.096   4.433  12.092 -0.3224  0.2167 -0.0887
  104MPD2    H7 1597   4.091   4.354  12.155  2.1455  0.1149 -0.0237
  105MPD2     C 1598   1.417   2.877   0.434 -0.2474 -0.1657  0.1328
  105MPD2    C1 1599   1.362   2.999   0.398  0.2935 -0.0208 -0.4213
  105MPD2    C2 1600   1.298   3.073   0.498  0.1129 -0.4909 -0.9342
  105MPD2    C3 1601   1.296   3.026   0.625 -0.6116 -0.3545  0.1384
  105MPD2    C4 1602   1.353   2.907   0.665 -0.3593  0.6312 -0.0961
  105MPD2    C5 1603   1.418   2.830   0.563 -0.7260 -0.0700  0.4095
  105MPD2     H 1604   1.249   3.166   0.471  0.8744  0.6410  1.6847
  105MPD2    H1 1605   1.337   2.863   0.763  1.7225  1.5033  0.6386
  105MPD2    H2 1606   1.433   2.807   0.353  0.4595  1.5428 -1.2140
  105MPD2    H3 1607   1.451   2.730   0.591  2.5442  0.3761 -1.8079
  105MPD2     N 1608   1.207   3.093   0.713 -0.0839  0.2336  0.0948
  105MPD2    H5 1609   1.146   3.165   0.678 -0.4168 -1.0767 -1.9701
  105MPD2    N1 1610   1.352   3.048   0.258 -0.4974 -0.6912 -0.3703
  105MPD2    H7 1611   1.313   3.141   0.246 -1.0455 -1.2110 -2.5283
  106TCq2    C1 1612   1.199   3.066   0.850 -0.2998  0.8021  0.2223
  106TCq2    O2 1613   1.270   3.003   0.925  0.2460 -0.3087  0.7115
  106TCq2    C2 1614   1.079   3.125   0.910 -0.0702  0.4748  0.2777
  106TCq2    C3 1615   0.974   3.158   0.830 -0.0099 -0.2240  0.4180
  106TCq2    C4 1616   0.865   3.211   0.890  1.0416  0.2436 -0.6678
  106TCq2    C5 1617   0.857   3.239   1.025  0.4171 -0.3182  0.0735
  106TCq2    C6 1618   0.953   3.174   1.101 -1.0959  0.0092  0.3624
  106TCq2    C7 1619   1.070   3.124   1.044  0.1406 -0.2979  0.1349
  106TCq2    C8 1620   0.945   3.175   1.242 -0.0719  0.1744 -0.1947
  106TCq2    O4 1621   1.044   3.145   1.309 -0.4409 -0.0172 -0.1553
  106TCq2    C9 1622   0.750   3.243   0.804 -0.0164 -0.3317 -0.0628
  106TCq2    O5 1623   0.665   3.322   0.851 -0.0747 -0.2748 -0.1194
  106TCq2    O6 1624   0.767   3.203   0.683  0.4015 -0.1030 -0.0482
  106TCq2    H2 1625   0.973   3.140   0.724 -1.3387  0.6712  0.2787
  106TCq2    H3 1626   0.764   3.286   1.055 -0.5079 -3.4723  2.2104
  106TCq2    H4 1627   1.146   3.080   1.108  1.9384 -0.1823 -1.9366
  107TMC2    C1 1628   2.146   2.884  11.585  0.3752  0.3202 -0.7251
  107TMC2    C2 1629   2.183   3.007  11.535  0.7014 -0.5169  0.0619
  107TMC2    C3 1630   2.235   2.988  11.408 -0.1425  0.0257  0.3862
  107TMC2    C4 1631   2.173   2.756  11.541  0.1512 -0.1289  0.6640
  107TMC2    C5 1632   2.213   2.755  11.410 -0.4174  0.5198 -0.3024
  107TMC2    C6 1633   2.254   2.869  11.341 -0.6553 -0.2841  0.0503
  107TMC2     C 1634   2.054   2.899  11.707  0.4707  0.5511 -0.1596
  107TMC2     O 1635   1.994   2.799  11.748 -0.2182 -0.2060  0.4661
  107TMC2     H 1636   2.186   3.107  11.576 -2.4363  0.2211 -1.5003
  107TMC2    H1 1637   2.129   2.667  11.583  0.6350 -0.5503  0.2705
  107TMC2    H2 1638   2.317   2.851  11.254  2.8464 -1.7408  2.8606
  107TMC2    C7 1639   2.210   2.624  11.340  0.3779  0.4557  0.5832
  107TMC2    C8 1640   2.294   3.110  11.346  0.3129  0.4959  0.5937
  107TMC2    O1 1641   2.191   2.525  11.409 -0.1981  0.2858  0.6594
  107TMC2    O2 1642   2.301   3.210  11.417 -0.1919 -0.1976  0.2478
  107TMC2    O5 1643   2.302   3.096  11.211 -0.7734  0.2711 -0.3257
  107TMC2    H5 1644   2.259   3.016  11.174 -0.8011 -0.0427  0.3934
  108MPD2     C 1645   1.916   3.199  11.844 -0.1586  0.4637 -0.3104
  108MPD2    C1 1646   1.944   3.068  11.846 -0.1829  0.2667  0.5029
  108MPD2    C2 1647   1.888   2.991  11.949  0.0270  0.4474  0.3298
  108MPD2    C3 1648   1.800   3.052  12.031 -0.6080 -0.4123 -0.4416
  108MPD2    C4 1649   1.772   3.189  12.032  0.5324 -0.1061  0.1488
  108MPD2    C5 1650   1.827   3.260  11.935 -0.3058 -0.5400 -0.7322
  108MPD2     H 1651   1.902   2.884  11.946 -2.7187  0.1062 -0.7418
  108MPD2    H1 1652   1.717   3.244  12.107 -1.9081 -0.2765 -1.5141
  108MPD2    H2 1653   1.972   3.249  11.765  0.2092  0.9810  0.2788
  108MPD2    H3 1654   1.807   3.367  11.928 -0.0417 -0.3749  0.9906
  108MPD2     N 1655   1.728   2.982  12.128  0.3082  0.3579  0.2287
  108MPD2    H5 1656   1.645   3.028  12.165 -0.1257 -0.1858 -0.0667
  108MPD2    N1 1657   2.030   3.033  11.739 -0.0041 -0.0421  0.2705
  108MPD2    H7 1658   2.045   3.111  11.676  1.7558  0.3697  1.2106
  109MPD2     C 1659   0.994   3.952   2.029 -0.5676  0.1394 -0.4566
  109MPD2    C1 1660   1.037   3.996   1.912  0.4276 -0.3391 -0.5155
  109MPD2    C2 1661   1.161   4.069   1.916 -0.1574  0.7901  0.2411
  109MPD2    C3 1662   1.213   4.103   2.043  0.1505  0.2922 -1.0151
  109MPD2    C4 1663   1.159   4.052   2.156 -0.4317 -1.2782 -0.8634
  109MPD2    C5 1664   1.059   3.957   2.144 -0.0559  0.5941 -0.6150
  109MPD2     H 1665   1.184   4.128   1.829  1.1477  2.4282  1.6914
  109MPD2    H1 1666   1.214   4.067   2.249 -0.2726 -1.4960 -0.9219
  109MPD2    H2 1667   0.899   3.899   2.032 -0.8810  0.8121  1.2785
  109MPD2    H3 1668   1.032   3.905   2.236  1.9461  0.0620 -0.3159
  109MPD2     N 1669   1.313   4.199   2.040 -0.3534 -0.1461 -0.7351
  109MPD2    H5 1670   1.323   4.236   1.946  2.7996  0.2043 -0.2635
  109MPD2    N1 1671   0.970   3.967   1.790 -0.5513 -0.2671  0.6048
  109MPD2    H7 1672   0.877   3.926   1.797 -0.5184 -0.1355  1.7963
  110TCq2    C1 1673   1.376   4.262   2.149  0.2058 -0.0514  0.3029
  110TCq2    O2 1674   1.359   4.250   2.270 -0.1745 -0.0095 -0.1800
  110TCq2    C2 1675   1.475   4.358   2.105  0.2631 -0.1881 -0.5769
  110TCq2    C3 1676   1.555   4.399   2.203 -0.0238 -0.7964 -0.4288
  110TCq2    C4 1677   1.657   4.484   2.167 -0.9636 -0.0962 -0.2059
  110TCq2    C5 1678   1.677   4.526   2.041  0.6076 -0.6982  0.1673
  110TCq2    C6 1679   1.594   4.478   1.943  0.6544  0.3368  0.0947
  110TCq2    C7 1680   1.488   4.399   1.973  0.2036  1.5007 -0.6901
  110TCq2    C8 1681   1.630   4.516   1.806 -0.4690  0.2348  0.6647
  110TCq2    O4 1682   1.696   4.619   1.801 -0.0129 -1.4179  0.6552
  110TCq2    C9 1683   1.755   4.521   2.264 -0.1800  0.2982 -0.0943
  110TCq2    O5 1684   1.729   4.491   2.382 -0.1600 -0.5706  0.2066
  110TCq2    O6 1685   1.866   4.574   2.228  0.1177  0.1785  0.0168
  110TCq2    H2 1686   1.545   4.358   2.303  3.9346  0.0015  0.2932
  110TCq2    H3 1687   1.760   4.595   2.032 -0.6149  0.4284 -2.4076
  110TCq2    H4 1688   1.419   4.365   1.897  1.2288 -0.3856 -0.7855
  111TMC2    C1 1689   1.707   0.343  11.554 -0.0069 -0.3833  0.0892
  111TMC2    C2 1690   1.752   0.469  11.554 -0.1875 -0.3363  0.6640
  111TMC2    C3 1691   1.884   0.492  11.567  0.1784  0.2513  0.1013
  111TMC2    C4 1692   1.790   0.241  11.591  0.5505  0.1106  0.3782
  111TMC2    C5 1693   1.923   0.271  11.613 -0.4033 -0.0554 -0.2027
  111TMC2    C6 1694   1.973   0.405  11.608 -0.0477  0.8301 -0.2710
  111TMC2     C 1695   1.566   0.326  11.544 -0.3073  0.4708 -0.3967
  111TMC2     O 1696   1.503   0.412  11.487  0.0733  0.4248 -0.1434
  111TMC2     H 1697   1.684   0.550  11.530 -0.4557 -0.9033 -0.4990
  111TMC2    H1 1698   1.761   0.137  11.590 -2.3677  0.9156  0.2215
  111TMC2    H2 1699   2.079   0.425  11.606  0.1907 -0.3720 -0.0157
  111TMC2    C7 1700   1.986   0.175  11.698 -0.2231 -0.2288 -0.5411
  111TMC2    C8 1701   1.924   0.628  11.601 -0.0675  0.5655 -0.2165
  111TMC2    O1 1702   1.919   0.090  11.757  0.7003 -0.3014  0.5986
  111TMC2    O2 1703   1.974   0.658  11.706 -0.1976 -0.0586  0.1399
  111TMC2    O5 1704   1.971   0.682  11.484 -0.6739  0.1206  0.6273
  111TMC2    H5 1705   1.924   0.630  11.416  0.1894 -1.9695  1.6064
  112MPD2     C 1706   1.176   0.030  11.464 -0.2903 -0.2005  0.0595
  112MPD2    C1 1707   1.194   0.158  11.422 -0.2702 -1.2333  0.1232
  112MPD2    C2 1708   1.304   0.220  11.465 -0.0141  0.3801  0.4533
  112MPD2    C3 1709   1.390   0.159  11.562 -0.3604 -0.4874 -0.4343
  112MPD2    C4 1710   1.356   0.040  11.613 -0.2702  0.0161  0.6186
  112MPD2    C5 1711   1.246   4.699  11.561 -0.1023  0.3402  0.3298
  112MPD2     H 1712   1.315   0.322  11.431  0.4070  0.8244  1.9027
  112MPD2    H1 1713   1.417   4.714  11.688 -1.0836  0.9631  1.9290
  112MPD2    H2 1714   1.107   4.690  11.410 -1.8480  1.3011  0.2344
  112MPD2    H3 1715   1.213   4.602  11.597 -0.1826 -0.3862 -1.6548
  112MPD2     N 1716   1.517   0.209  11.594  0.4424 -0.8266 -0.6861
  112MPD2    H5 1717   1.574   0.156  11.659  1.6347  0.1040 -0.9703
  112MPD2    N1 1718   1.131   0.219  11.315 -0.6521  0.5288 -0.1258
  112MPD2    H7 1719   1.171   0.309  11.292  1.3966 -0.3163  0.1290
  113MPD2     C 1720   4.660   2.390   1.168 -0.4298  0.4162 -0.3560
  113MPD2    C1 1721   4.571   2.474   1.101 -0.5709  0.5051  0.1326
  113MPD2    C2 1722   4.513   2.435   0.984 -0.3683  0.1785 -0.1215
  113MPD2    C3 1723   4.536   2.310   0.931  0.1259 -0.3576  1.0095
  113MPD2    C4 1724   4.630   2.231   0.989  0.4257  0.9004  0.3174
  113MPD2    C5 1725   4.685   2.264   1.111 -0.1032  0.6975 -0.1950
  113MPD2     H 1726   4.438   2.499   0.939 -0.2094 -1.4091 -2.6531
  113MPD2    H1 1727   4.641   2.129   0.954  3.1783  1.1214  0.5668
  113MPD2    H2 1728   4.700   2.411   1.266 -1.0134 -3.2557  0.6763
  113MPD2    H3 1729   0.027   2.200   1.169 -0.6134  0.0128 -0.3712
  113MPD2     N 1730   4.461   2.249   0.830  0.0116 -0.3150 -0.5609
  113MPD2    H5 1731   4.474   2.150   0.811 -2.3232 -0.6194 -0.6050
  113MPD2    N1 1732   4.530   2.598   1.160  0.6967  0.0588  0.1450
  113MPD2    H7 1733   4.468   2.656   1.104 -0.5300  0.3827  1.8368
  114TCq2    C1 1734   4.353   2.298   0.762  0.3718  0.5656  0.6572
  114TCq2    O2 1735   4.300   2.406   0.776  0.5584  0.2162  0.0068
  114TCq2    C2 1736   4.284   2.201   0.686 -0.3683  0.1258  0.1213
  114TCq2    C3 1737   4.237   2.242   0.566  0.0942 -0.2805 -0.1270
  114TCq2    C4 1738   4.190   2.151   0.478 -0.6652 -0.6555 -0.0231
  114TCq2    C5 1739   4.200   2.016   0.493 -0.3460  0.3551  0.1816
  114TCq2    C6 1740   4.233   1.981   0.622  0.8018  0.2673  0.0219
  114TCq2    C7 1741   4.281   2.068   0.718 -0.1013  0.0839  0.1625
  114TCq2    C8 1742   4.218   1.843   0.653 -0.3503  0.1843  0.0009
  114TCq2    O4 1743   4.240   1.764   0.560 -0.1280 -0.0076  0.8191
  114TCq2    C9 1744   4.131   2.195   0.353 -0.0380 -0.7383  0.2068
  114TCq2    O5 1745   4.072   2.307   0.356  0.1901 -0.7339  0.4696
  114TCq2    O6 1746   4.114   2.116   0.259  0.0346 -0.2566 -0.7480
  114TCq2    H2 1747   4.217   2.346   0.543 -0.1273 -0.2593  0.1664
  114TCq2    H3 1748   4.158   1.944   0.424  2.2614 -0.6983 -0.2848
  114TCq2    H4 1749   4.322   2.028   0.810  0.1555  1.1026  0.4873
  115TMC2    C1 1750   0.738   0.593  17.549  0.1865  0.7583 -0.1335
  115TMC2    C2 1751   0.743   0.579  17.415 -1.0460  0.2019 -0.2344
  115TMC2    C3 1752   0.805   0.686  17.354 -0.5198 -0.0393 -0.7660
  115TMC2    C4 1753   0.793   0.694  17.625  0.1020 -0.2973 -0.6302
  115TMC2    C5 1754   0.853   0.791  17.556 -0.8962  0.4347 -0.7293
  115TMC2    C6 1755   0.848   0.795  17.425  0.3928 -0.2159  0.1623
  115TMC2     C 1756   0.647   0.504  17.599  0.1235 -0.0977  0.3013
  115TMC2     O 1757   0.560   0.466  17.525 -0.4581 -0.5912  0.1805
  115TMC2     H 1758   0.709   0.493  17.358  3.1760 -0.7345 -1.2869
  115TMC2    H1 1759   0.787   0.692   0.035 -0.7016  2.3622 -0.6284
  115TMC2    H2 1760   0.907   0.864  17.366  0.3505  0.0975  0.4848
  115TMC2    C7 1761   0.888   0.915  17.623  0.0116 -0.5528 -0.6631
  115TMC2    C8 1762   0.852   0.670  17.219 -0.1212  0.4737 -0.2097
  115TMC2    O1 1763   0.865   0.925   0.049 -0.2539 -0.3537 -0.3498
  115TMC2    O2 1764   0.971   0.692  17.192 -0.2372  0.4164 -0.1254
  115TMC2    O5 1765   0.761   0.759  17.167 -0.2847 -0.0675 -0.6932
  115TMC2    H5 1766   0.668   0.742  17.193  0.2664 -0.7003  0.8743
  116MPD2     C 1767   0.515   0.128   0.204 -0.3481  0.4567 -0.1141
  116MPD2    C1 1768   0.519   0.133   0.070  0.3605  0.1474  0.5991
  116MPD2    C2 1769   0.572   0.245   0.010 -0.1069  0.4185 -0.5283
  116MPD2    C3 1770   0.619   0.352   0.090  0.0158  0.2128 -0.1851
  116MPD2    C4 1771   0.613   0.341   0.229  0.5443  0.4007  0.6117
  116MPD2    C5 1772   0.561   0.225   0.284  0.7592 -0.8051 -0.1194
  116MPD2     H 1773   0.580   0.234  17.600  1.1345 -0.7820 -0.3198
  116MPD2    H1 1774   0.649   0.419   0.296 -0.6281 -0.0585  1.7955
  116MPD2    H2 1775   0.462   0.050   0.256  0.6248  0.0175  0.2108
  116MPD2    H3 1776   0.562   0.202   0.390 -0.7056 -1.4250 -0.2471
  116MPD2     N 1777   0.687   0.456   0.030 -0.5534 -0.2047 -0.2733
  116MPD2    H5 1778   0.769   0.488   0.080 -1.0995  0.0381  0.4581
  116MPD2    N1 1779   0.473   0.038  17.681 -0.2745  0.6210  0.1852
  116MPD2    H7 1780   0.459   0.069  17.586 -0.5638 -0.1905 -0.0352
  117TMC2    C1 1781   4.214   1.944  13.814  0.3056 -0.3244 -0.3145
  117TMC2    C2 1782   4.304   1.853  13.766  0.1368  0.6912 -0.3863
  117TMC2    C3 1783   4.440   1.871  13.757 -0.2883  0.4084 -0.1024
  117TMC2    C4 1784   4.262   2.070  13.840 -0.0092 -0.2969 -0.5450
  117TMC2    C5 1785   4.396   2.087  13.830 -0.3015  0.7100  0.2212
  117TMC2    C6 1786   4.496   1.990  13.792 -0.6422 -0.0340 -0.7098
  117TMC2     C 1787   4.078   1.926  13.766 -0.0368  0.4649  0.8983
  117TMC2     O 1788   4.047   1.813  13.733  0.1250  0.0309 -0.3765
  117TMC2     H 1789   4.270   1.753  13.739 -0.9649  1.3633 -1.4830
  117TMC2    H1 1790   4.190   2.146  13.867  1.4635  0.6124  0.7660
  117TMC2    H2 1791   4.601   2.009  13.775 -0.3639 -2.3643 -1.5001
  117TMC2    C7 1792   4.442   2.222  13.861 -0.2556  0.1536 -0.4172
  117TMC2    C8 1793   4.518   1.752  13.734  0.5332  0.0576  0.7680
  117TMC2    O1 1794   4.360   2.313  13.839 -0.0654 -0.1778  0.0710
  117TMC2    O2 1795   4.468   1.662  13.667 -0.1236 -0.0808 -0.5369
  117TMC2    O5 1796   4.589   1.731  13.849 -0.4719 -0.2832  0.0420
  117TMC2    H5 1797   4.638   1.812  13.875  0.3723 -1.6805  2.8672
  118MPD2     C 1798   0.060   2.339  13.867 -0.1205  0.5261 -0.3415
  118MPD2    C1 1799   4.646   2.356  13.859  0.4106  0.1180 -0.0726
  118MPD2    C2 1800   4.589   2.481  13.841  0.1825 -0.1151 -0.0473
  118MPD2    C3 1801   4.676   2.587  13.828  0.0410  0.0862 -1.0233
  118MPD2    C4 1802   0.087   2.572  13.846 -0.2365 -0.4211  0.4252
  118MPD2    C5 1803   0.140   2.450  13.866 -0.1156 -0.3408  0.1280
  118MPD2     H 1804   4.482   2.492  13.831  0.3919  1.7233 -0.2665
  118MPD2    H1 1805   0.155   2.656  13.852 -1.2272  0.3922  0.3061
  118MPD2    H2 1806   0.112   2.245  13.885 -0.8077  0.4061  1.0116
  118MPD2    H3 1807   0.245   2.428  13.882  0.2776  1.5286  0.0135
  118MPD2     N 1808   4.632   2.719  13.807  0.5483 -1.0610 -0.4725
  118MPD2    H5 1809   4.707   2.787  13.805 -1.6047  1.2796 -2.4490
  118MPD2    N1 1810   4.577   2.234  13.874 -0.3061  0.5562  0.5880
  118MPD2    H7 1811   4.639   2.154  13.884 -2.9819 -1.7858 -1.8604
  119MPD2     C 1812   2.127   3.776  13.098  0.2958  0.5126 -0.0502
  119MPD2    C1 1813   2.188   3.662  13.132  0.0679 -0.4022 -0.1134
  119MPD2    C2 1814   2.259   3.585  13.044  0.3148  0.0486 -0.2109
  119MPD2    C3 1815   2.248   3.615  12.912  0.0789 -0.2160 -0.3350
  119MPD2    C4 1816   2.183   3.736  12.875  0.9205  0.3106  0.4439
  119MPD2    C5 1817   2.122   3.811  12.967 -0.4689  0.1986  0.7982
  119MPD2     H 1818   2.312   3.496  13.075 -1.0367 -0.3573  0.9502
  119MPD2    H1 1819   2.174   3.770  12.772  0.6071 -0.4879  0.2115
  119MPD2    H2 1820   2.091   3.849  13.169 -1.4677 -0.2360 -0.1791
  119MPD2    H3 1821   2.079   3.906  12.938 -0.3857 -0.3019 -0.9132
  119MPD2     N 1822   2.306   3.543  12.809 -0.1999 -0.2732 -0.0710
  119MPD2    H5 1823   2.309   3.588  12.718  1.5099  0.8433  0.5464
  119MPD2    N1 1824   2.177   3.629  13.269 -0.0602  0.3046  0.2026
  119MPD2    H7 1825   2.120   3.689  13.329 -1.2518  0.4152 -1.0543
  120TCq2    C1 1826   2.361   3.417  12.814  0.9267 -0.1261  0.0551
  120TCq2    O2 1827   2.442   3.376  12.728 -0.2123 -0.3720  0.3761
  120TCq2    C2 1828   2.297   3.312  12.899  0.2501 -0.1200 -0.3736
  120TCq2    C3 1829   2.369   3.214  12.962 -0.2365 -0.3077 -0.1518
  120TCq2    C4 1830   2.301   3.136  13.053 -0.4340  0.3677  0.3857
  120TCq2    C5 1831   2.167   3.154  13.085 -0.3356 -0.3276 -0.6193
  120TCq2    C6 1832   2.102   3.258  13.019 -0.5266 -1.1940  0.2732
  120TCq2    C7 1833   2.165   3.332  12.928  0.6037  0.0096  0.3556
  120TCq2    C8 1834   1.982   3.304  13.080 -0.4199  0.1572 -0.4032
  120TCq2    O4 1835   1.952   3.423  13.071 -0.2151 -0.2318  0.1428
  120TCq2    C9 1836   2.360   3.020  13.103 -0.0139  0.3466  0.8743
  120TCq2    O5 1837   2.483   3.010  13.082 -0.1113 -0.9345  0.3983
  120TCq2    O6 1838   2.281   2.924  13.125  0.0747 -0.2053  0.7767
  120TCq2    H2 1839   2.476   3.201  12.945 -0.7317 -1.8440 -2.1677
  120TCq2    H3 1840   2.134   3.104  13.176  2.3920  0.5481  0.8629
  120TCq2    H4 1841   2.110   3.409  12.876  0.0401 -0.5825  0.0693
  121TMC2    C1 1842   3.983   0.140  13.809 -0.4107 -0.2770  0.7277
  121TMC2    C2 1843   3.982   0.097  13.679  0.2116  0.2561  0.0947
  121TMC2    C3 1844   3.922   4.704  13.648 -0.0755  0.1136 -0.5851
  121TMC2    C4 1845   3.922   0.063  13.905 -0.0454  0.2644  0.0303
  121TMC2    C5 1846   3.860   4.671  13.869  0.2618  0.1774  0.0909
  121TMC2    C6 1847   3.853   4.627  13.737 -0.9110 -0.2912  0.2361
  121TMC2     C 1848   4.065   0.250  13.850  0.4059 -0.5687 -0.3045
  121TMC2     O 1849   4.106   0.256  13.963  0.4209 -0.5978  0.5976
  121TMC2     H 1850   4.042   0.150  13.606  1.1704 -0.2485  0.5244
  121TMC2    H1 1851   3.936   0.090  14.009 -0.7824  0.6783  0.0216
  121TMC2    H2 1852   3.791   4.545  13.701 -1.6451 -0.2203  1.3130
  121TMC2    C7 1853   3.775   4.604  13.963 -1.1651 -0.6076 -0.0910
  121TMC2    C8 1854   3.912   4.667  13.508  0.0913 -0.1898 -0.3587
  121TMC2    O1 1855   3.811   4.571  14.077  0.8535  0.4181 -0.3082
  121TMC2    O2 1856   3.815   4.615  13.452 -0.1556 -0.6651  0.5074
  121TMC2    O5 1857   4.041   4.634  13.482 -0.5442  0.5204 -0.0495
  121TMC2    H5 1858   4.105   4.675  13.544  1.9479 -2.6130 -0.5592
  122MPD2     C 1859   4.237   0.497  13.827  0.9264 -0.2793 -0.3531
  122MPD2    C1 1860   4.134   0.465  13.738  0.3657  0.3051 -0.4127
  122MPD2    C2 1861   4.118   0.537  13.625 -0.5786 -0.1222  0.1342
  122MPD2    C3 1862   4.206   0.647  13.595 -0.4278  0.3154  0.0560
  122MPD2    C4 1863   4.303   0.680  13.693 -0.4048 -0.1497  0.0140
  122MPD2    C5 1864   4.310   0.611  13.810 -0.1924  0.6398 -0.4830
  122MPD2     H 1865   4.063   0.486  13.546 -1.2318  0.9847 -0.1382
  122MPD2    H1 1866   4.362   0.770  13.680  0.3254 -0.7215 -0.6078
  122MPD2    H2 1867   4.253   0.443  13.919  0.2525  2.5939  1.4525
  122MPD2    H3 1868   4.385   0.644  13.880 -0.6228  1.9675 -0.6511
  122MPD2     N 1869   4.193   0.728  13.488 -0.5145  0.7968  0.2037
  122MPD2    H5 1870   4.262   0.800  13.473 -0.8099  1.8672  3.9399
  122MPD2    N1 1871   4.052   0.348  13.749 -0.3879  0.1729  0.2457
  122MPD2    H7 1872   3.983   0.332  13.677 -1.0939 -0.3021  1.0367
  123MPD2     C 1873   2.489   3.413  11.107  0.5796  0.5592  0.3006
  123MPD2    C1 1874   2.485   3.377  10.974 -0.1686  0.3601  0.0205
  123MPD2    C2 1875   2.579   3.445  10.883  0.2891  0.5922  0.3139
  123MPD2    C3 1876   2.663   3.542  10.930 -0.3246  0.3106 -0.1000
  123MPD2    C4 1877   2.652   3.581  11.066  0.3349  0.3570  0.6136
  123MPD2    C5 1878   2.555   3.525  11.144 -0.4225  0.4403 -0.3695
  123MPD2     H 1879   2.590   3.411  10.780 -0.0873  1.1590  0.0881
  123MPD2    H1 1880   2.712   3.660  11.108  0.8668  0.5500 -0.5057
  123MPD2    H2 1881   2.406   3.380  11.169  0.9899 -0.5409  0.2691
  123MPD2    H3 1882   2.549   3.562  11.246 -0.0500  1.8364 -0.8531
  123MPD2     N 1883   2.747   3.604  10.834  0.1665  0.2828 -0.0965
  123MPD2    H5 1884   2.751   3.566  10.740 -1.8350  0.1169 -0.1203
  123MPD2    N1 1885   2.394   3.279  10.930  0.2091  0.2998  0.2713
  123MPD2    H7 1886   2.344   3.232  11.004  0.9121  1.8616  1.7434
  124TCq2    C1 1887   2.827   3.715  10.854 -0.0718 -0.4575  0.8368
  124TCq2    O2 1888   2.838   3.783  10.953  0.2307  0.5066  0.3341
  124TCq2    C2 1889   2.900   3.756  10.737  0.3295  0.4826  0.4124
  124TCq2    C3 1890   2.976   3.868  10.761  0.0496  0.3197  0.1437
  124TCq2    C4 1891   3.014   3.954  10.655 -0.1052 -0.0185  0.1805
  124TCq2    C5 1892   2.956   3.925  10.529  0.1525 -0.3641 -0.0642
  124TCq2    C6 1893   2.867   3.821  10.517  0.5355 -0.4500 -0.7346
  124TCq2    C7 1894   2.847   3.730  10.616  0.1243 -0.3458 -0.1501
  124TCq2    C8 1895   2.834   3.761  10.388  0.2192 -0.1168  0.0084
  124TCq2    O4 1896   2.736   3.691  10.376  0.3309  0.3679  0.6866
  124TCq2    C9 1897   3.108   4.056  10.676  0.1256  0.0115 -0.6137
  124TCq2    O5 1898   3.099   4.142  10.579  0.3738  0.1431 -0.5387
  124TCq2    O6 1899   3.172   4.068  10.786  0.1636 -0.2246  0.0989
  124TCq2    H2 1900   3.007   3.894  10.862  0.0858 -0.6354  0.3874
  124TCq2    H3 1901   2.987   3.992  10.450 -1.8481 -0.1048 -0.6251
  124TCq2    H4 1902   2.796   3.639  10.589 -1.4388  1.1826 -2.2877
  125TMC2    C1 1903   2.959   0.190   9.729 -0.5917  1.0350 -0.4646
  125TMC2    C2 1904   2.834   0.182   9.771  0.7667 -0.1564  0.3975
  125TMC2    C3 1905   2.756   0.104   9.689  0.2253  0.3038 -0.2124
  125TMC2    C4 1906   3.018   0.128   9.621  0.3543  0.6201 -0.7290
  125TMC2    C5 1907   2.934   0.053   9.540  0.0896 -0.6656 -1.2411
  125TMC2    C6 1908   2.802   0.032   9.582 -0.8163 -0.3202  0.6744
  125TMC2     C 1909   3.044   0.283   9.806 -0.1810  0.7065 -0.0931
  125TMC2     O 1910   2.991   0.363   9.882 -0.4481  0.3247 -0.1619
  125TMC2     H 1911   2.795   0.241   9.853  1.7704  0.9233  0.1111
  125TMC2    H1 1912   3.116   0.155   9.585  0.2709  1.7365 -0.1275
  125TMC2    H2 1913   2.733   4.700   9.519 -1.1111 -1.2065  1.7992
  125TMC2    C7 1914   2.983   4.697   9.425  0.0386 -0.3808  0.1360
  125TMC2    C8 1915   2.615   0.081   9.730  0.4274  0.4534 -0.6035
  125TMC2    O1 1916   2.903   4.650   9.344 -0.3353  0.1620 -0.9151
  125TMC2    O2 1917   2.569   0.117   9.838  0.4296  0.9163 -0.3451
  125TMC2    O5 1918   2.546   0.107   9.621  0.2562  0.2799 -0.1819
  125TMC2    H5 1919   2.603   0.152   9.555 -0.4717  2.2654  0.5451
  126MPD1     C 1920   3.504   0.497   9.901 -0.2932 -0.3881  0.2044
  126MPD1    C1 1921   3.528   0.371   9.853 -0.1200 -0.6432 -0.1245
  126MPD1    C2 1922   3.415   0.299   9.807  0.2150  0.1064 -0.2942
  126MPD1    C3 1923   3.288   0.351   9.829 -0.1034 -0.0809 -0.1037
  126MPD1    C4 1924   3.269   0.467   9.895  0.4615  0.4068 -1.1181
  126MPD1    C5 1925   3.379   0.541   9.927  0.1982 -0.8433  0.1714
  126MPD1     H 1926   3.421   0.200   9.763  2.1940  0.4378 -0.7765
  126MPD1    H1 1927   3.175   0.519   9.913  2.0027  2.5743  0.6553
  126MPD1    H2 1928   3.578   0.572   9.929 -0.1287 -0.7690  0.7859
  126MPD1    H3 1929   3.365   0.639   9.972 -0.0263 -1.1158  0.6869
  126MPD1     N 1930   3.179   0.272   9.782  0.1677  0.0484  0.6712
  126MPD1    H5 1931   3.202   0.192   9.724 -0.9819 -0.3248  0.7268
  126MPD1    N1 1932   3.662   0.327   9.823  0.0310  0.5416 -0.0627
  126MPD1    H6 1933   3.683   0.228   9.820 -0.3557  0.4715 -0.3167
  126MPD1    H7 1934   3.733   0.376   9.879 -1.8599  0.9036  2.0372
  127MPD2     C 1935   0.209   4.568   9.439  0.1123 -0.0302 -0.3537
  127MPD2    C1 1936   0.179   4.513   9.317 -0.4900  0.9557 -0.1844
  127MPD2    C2 1937   0.194   4.591   9.207 -0.4093  0.2323  0.9817
  127MPD2    C3 1938   0.233   0.000   9.211  0.1240 -0.6478 -0.5747
  127MPD2    C4 1939   0.280   0.050   9.332 -0.4028 -0.5055  0.2608
  127MPD2    C5 1940   0.261   4.693   9.443 -0.0916  0.3363 -0.1238
  127MPD2     H 1941   0.165   4.557   9.108 -1.6232  0.4568  1.2603
  127MPD2    H1 1942   0.319   0.149   9.353  0.0215 -0.3160 -1.4256
  127MPD2    H2 1943   0.203   4.508   9.529  1.3144 -0.2296 -0.4142
  127MPD2    H3 1944   0.293   0.011   9.537  1.2184  1.0209 -0.8751
  127MPD2     N 1945   0.236   0.076   9.090 -0.2909 -0.3308  0.3008
  127MPD2    H5 1946   0.205   0.023   9.009  2.9890 -2.3647  0.3386
  127MPD2    N1 1947   0.133   4.383   9.319  0.2144 -0.5504 -0.4926
  127MPD2    H7 1948   0.119   4.354   9.416  1.4419 -0.9863 -0.4478
  128TCq2    C1 1949   0.090   4.306   9.214 -0.2225 -0.3521 -0.3905
  128TCq2    O2 1950   0.043   4.343   9.107 -0.2381 -0.2436  0.2745
  128TCq2    C2 1951   0.030   4.179   9.271 -0.1685  0.4312 -0.1741
  128TCq2    C3 1952   0.044   4.154   9.407  0.3033 -0.1867  0.0671
  128TCq2    C4 1953   4.684   4.073   9.472  0.3074 -0.1013 -0.0830
  128TCq2    C5 1954   4.572   4.027   9.404 -0.0859  0.1589  0.1422
  128TCq2    C6 1955   4.557   4.051   9.269 -0.1664 -0.3687 -0.3883
  128TCq2    C7 1956   4.650   4.125   9.200  0.6390 -0.4524 -0.3331
  128TCq2    C8 1957   4.426   4.030   9.206 -0.0344  0.5324 -0.6176
  128TCq2    O4 1958   4.386   4.123   9.141 -0.4522 -0.7845  0.2427
  128TCq2    C9 1959   4.689   4.054   9.611  0.1135 -0.6289 -0.9492
  128TCq2    O5 1960   4.589   4.006   9.660  0.6690  0.1926  0.2507
  128TCq2    O6 1961   0.053   4.116   9.675  0.7483  0.7279  0.7318
  128TCq2    H2 1962   0.123   4.197   9.468  1.0183 -1.9498  0.4005
  128TCq2    H3 1963   4.499   3.970   9.459  0.3447 -1.4114 -0.9073
  128TCq2    H4 1964   4.643   4.154   9.096 -2.1110  1.8763  0.5038
  129MPD2     C 1965   1.927   4.109   0.804 -0.5966 -0.1781  0.5121
  129MPD2    C1 1966   2.013   4.172   0.884  0.1125 -0.0682  0.0259
  129MPD2    C2 1967   2.120   4.242   0.828  0.9981 -0.0001  0.1823
  129MPD2    C3 1968   2.131   4.260   0.688  0.1780  0.6999  0.3359
  129MPD2    C4 1969   2.044   4.185   0.606  0.4811  0.4534 -0.0462
  129MPD2    C5 1970   1.941   4.122   0.664 -0.2203  0.9422  0.6952
  129MPD2     H 1971   2.194   4.283   0.896 -0.1951 -0.6710  1.8929
  129MPD2    H1 1972   2.052   4.190   0.498  1.7678  1.3081  0.0966
  129MPD2    H2 1973   1.845   4.050   0.843 -0.4534 -0.3303  0.5844
  129MPD2    H3 1974   1.871   4.072   0.599  0.7495 -1.5644  1.5911
  129MPD2     N 1975   2.241   4.335   0.637  0.2718  0.4430 -0.0360
  129MPD2    H5 1976   2.304   4.371   0.708  3.2830 -3.5410 -0.6918
  129MPD2    N1 1977   2.006   4.168   1.020  0.2253  0.0963  0.0934
  129MPD2    H7 1978   2.087   4.199   1.073  2.6702 -2.6899 -1.9816
  130TCq2    C1 1979   1.894   4.130   1.097 -1.1791 -0.5623  0.6946
  130TCq2    O2 1980   1.783   4.085   1.063  0.6507  0.1654  0.0371
  130TCq2    C2 1981   1.902   4.176   1.235  0.3773  0.8388  0.0120
  130TCq2    C3 1982   1.972   4.290   1.264  0.7130 -0.0750  0.4156
  130TCq2    C4 1983   1.967   4.349   1.387 -0.1384  0.4032  0.1240
  130TCq2    C5 1984   1.891   4.291   1.478 -0.5905  0.3523 -0.6326
  130TCq2    C6 1985   1.829   4.174   1.455  0.2367 -0.1115 -0.1832
  130TCq2    C7 1986   1.834   4.108   1.338 -0.2365 -0.5560  0.3929
  130TCq2    C8 1987   1.758   4.110   1.564  0.1228 -0.4175 -0.4242
  130TCq2    O4 1988   1.712   3.994   1.546 -0.3622 -0.2517 -0.5306
  130TCq2    C9 1989   2.035   4.475   1.418  0.0717 -0.1898  0.1451
  130TCq2    O5 1990   2.077   4.551   1.327 -0.0377  0.7656  0.0368
  130TCq2    O6 1991   2.050   4.496   1.541 -0.2764  0.4277  0.1562
  130TCq2    H2 1992   2.022   4.348   1.188 -3.8943 -1.3909 -3.6334
  130TCq2    H3 1993   1.871   4.356   1.563 -3.3960  0.1519 -1.1458
  130TCq2    H4 1994   1.775   4.022   1.307  0.6490 -0.5492 -1.3149
  131MPD2     C 1995   1.881   3.184  10.055  0.1276  0.0464 -0.6207
  131MPD2    C1 1996   2.011   3.232  10.083  0.2636  0.8412 -0.4284
  131MPD2    C2 1997   2.065   3.200  10.203 -0.4679 -0.1941  0.1698
  131MPD2    C3 1998   2.000   3.136  10.302  0.4764 -0.4220 -0.0761
  131MPD2    C4 1999   1.874   3.087  10.272 -0.1129 -0.3279  0.6258
  131MPD2    C5 2000   1.815   3.117  10.151 -0.3093 -0.7455 -0.5152
  131MPD2     H 2001   2.169   3.229  10.216 -0.4487 -0.5524  0.8524
  131MPD2    H1 2002   1.811   3.044  10.348 -1.5646  0.5411 -0.0822
  131MPD2    H2 2003   1.825   3.215   9.967 -1.0384  2.3979  0.9586
  131MPD2    H3 2004   1.712   3.085  10.137 -0.1710 -1.9687  1.2714
  131MPD2     N 2005   2.069   3.117  10.424 -0.1457 -0.1097  0.0130
  131MPD2    H5 2006   2.165   3.148  10.433 -0.3008  0.0857  0.9658
  131MPD2    N1 2007   2.076   3.313   9.993  0.1149 -0.4146  0.7296
  131MPD2    H7 2008   2.159   3.356  10.032  0.9901 -1.4145 -0.0245
  132TCq2    C1 2009   2.300   3.726   9.896  0.3440  0.0136  0.2318
  132TCq2    O2 2010   2.250   3.730  10.011 -0.0905 -0.2065 -0.1687
  132TCq2    C2 2011   2.271   3.603   9.816 -0.0175 -0.5352  0.2535
  132TCq2    C3 2012   2.294   3.598   9.681  0.3054  0.1261  0.0192
  132TCq2    C4 2013   2.240   3.498   9.613 -0.6722 -0.1174  0.0493
  132TCq2    C5 2014   2.171   3.391   9.666 -0.3483  0.5588 -0.4125
  132TCq2    C6 2015   2.144   3.409   9.803  0.6139 -0.2572  0.4216
  132TCq2    C7 2016   2.188   3.513   9.876 -0.3649 -0.3282 -0.2509
  132TCq2    C8 2017   2.065   3.308   9.861 -0.4464 -0.5066  0.0370
  132TCq2    O4 2018   1.990   3.247   9.783  0.0022 -0.1272  0.4983
  132TCq2    C9 2019   2.256   3.515   9.470  0.1620  0.1080  0.0420
  132TCq2    O5 2020   2.329   3.611   9.428 -0.0082  0.1507  0.5726
  132TCq2    O6 2021   2.189   3.440   9.396  0.1970 -0.6204 -0.0063
  132TCq2    H2 2022   2.357   3.669   9.628 -2.6611  1.4436 -1.7788
  132TCq2    H3 2023   2.135   3.306   9.610 -2.4194  0.0561  1.6823
  132TCq2    H4 2024   2.151   3.528   9.977  0.9650  0.6955  0.0886
  133MPD2     C 2025   0.309   3.373   9.383  0.2424  0.2093 -0.1552
  133MPD2    C1 2026   0.444   3.335   9.373  0.2563 -0.1042  0.1212
  133MPD2    C2 2027   0.541   3.426   9.347  0.6823 -0.4767  0.2416
  133MPD2    C3 2028   0.509   3.554   9.320  0.7073  0.0791  0.0823
  133MPD2    C4 2029   0.379   3.595   9.314  0.1796  0.3292 -0.3315
  133MPD2    C5 2030   0.281   3.505   9.353  0.7079 -0.3232  0.8873
  133MPD2     H 2031   0.644   3.393   9.348  0.7416 -0.3205 -1.2060
  133MPD2    H1 2032   0.350   3.694   9.281  0.3750  0.1216 -1.1105
  133MPD2    H2 2033   0.238   3.293   9.403 -0.6185  0.7033 -1.2534
  133MPD2    H3 2034   0.175   3.531   9.353  0.9431  0.6151  0.6875
  133MPD2     N 2035   0.605   3.644   9.273 -0.1190 -0.0313 -0.4900
  133MPD2    H5 2036   0.569   3.737   9.253  0.8809  0.2837 -0.8770
  133MPD2    N1 2037   0.463   3.197   9.396 -0.0968  0.0945 -0.5085
  133MPD2    H7 2038   0.385   3.143   9.433  1.4196 -2.1805 -0.5986
  134TCq2    C1 2039   0.592   3.141   9.401  0.6948  0.5098  0.4394
  134TCq2    O2 2040   0.697   3.196   9.417  0.5784 -0.2814 -0.0944
  134TCq2    C2 2041   0.595   2.998   9.410  0.3449  0.7803  0.0721
  134TCq2    C3 2042   0.711   2.941   9.456 -0.1003 -0.6868  0.6125
  134TCq2    C4 2043   0.733   2.806   9.427  0.2597  0.1885  0.1163
  134TCq2    C5 2044   0.649   2.737   9.353 -0.4794 -0.6648 -0.1513
  134TCq2    C6 2045   0.530   2.797   9.313 -0.5112  0.1996  0.1768
  134TCq2    C7 2046   0.501   2.930   9.334  0.3831  0.6248 -0.8271
  134TCq2    C8 2047   0.426   2.726   9.239 -0.4142 -0.1421 -0.1473
  134TCq2    O4 2048   0.342   2.794   9.177 -0.7481  1.5748  0.3953
  134TCq2    C9 2049   0.840   2.743   9.493  1.0039 -0.2311 -0.1596
  134TCq2    O5 2050   0.860   2.625   9.466  0.0138  0.2926  0.0099
  134TCq2    O6 2051   0.924   2.825   9.535  0.0043  0.0270  0.0500
  134TCq2    H2 2052   0.789   3.001   9.501 -0.8512  0.6836  0.0997
  134TCq2    H3 2053   0.651   2.629   9.349 -1.5273 -0.7179  0.6297
  134TCq2    H4 2054   0.418   2.977   9.284 -0.0782  0.7560  0.0547
  135MPD2     C 2055   3.633   1.513   9.499 -0.7056 -0.4698 -0.7728
  135MPD2    C1 2056   3.720   1.410   9.541 -0.2252  0.0835  0.1431
  135MPD2    C2 2057   3.811   1.353   9.451  0.1915 -0.3003  0.2462
  135MPD2    C3 2058   3.811   1.404   9.328  0.0374 -0.4775 -0.2403
  135MPD2    C4 2059   3.725   1.500   9.285 -0.1621 -0.2234 -0.2568
  135MPD2    C5 2060   3.632   1.547   9.373  0.3235  0.3490 -0.3733
  135MPD2     H 2061   3.879   1.278   9.489 -2.2740 -1.1272  3.0760
  135MPD2    H1 2062   3.735   1.544   9.187 -0.5319 -0.5384 -0.4374
  135MPD2    H2 2063   3.554   1.556   9.560  0.0210 -0.5645  0.2367
  135MPD2    H3 2064   3.569   1.626   9.332  0.0992  1.8481  2.8783
  135MPD2     N 2065   3.901   1.360   9.226 -0.5364 -1.0663 -0.5469
  135MPD2    H5 2066   3.874   1.385   9.131  0.3151 -2.8187 -1.2402
  135MPD2    N1 2067   3.713   1.357   9.672 -0.3171 -0.2648  0.0014
  135MPD2    H7 2068   3.782   1.285   9.690 -1.1501 -1.4801 -1.6489
  136TCq2    C1 2069   3.622   1.383   9.772 -0.6377 -0.0948 -0.2391
  136TCq2    O2 2070   3.513   1.431   9.756 -0.1306  0.2892  0.4531
  136TCq2    C2 2071   3.649   1.297   9.887  0.0508  0.0804 -0.1879
  136TCq2    C3 2072   3.786   1.281   9.921  0.0359  0.0419  0.4806
  136TCq2    C4 2073   3.803   1.214  10.042 -0.1072 -0.1458  0.2829
  136TCq2    C5 2074   3.703   1.168  10.120  0.4637  0.4814 -0.4119
  136TCq2    C6 2075   3.574   1.195  10.083  0.1520 -0.1930 -0.3380
  136TCq2    C7 2076   3.547   1.260   9.965  0.1321 -0.8105  0.8736
  136TCq2    C8 2077   3.464   1.142  10.154 -0.6063 -0.3422 -0.0538
  136TCq2    O4 2078   3.362   1.205  10.161  0.4997 -0.1215  0.3399
  136TCq2    C9 2079   3.941   1.207  10.092  0.1804  0.1329  0.0201
  136TCq2    O5 2080   3.953   1.147  10.200 -0.2112 -0.0576  0.5099
  136TCq2    O6 2081   4.030   1.271  10.035 -0.2904  0.4820  0.1995
  136TCq2    H2 2082   3.873   1.318   9.869 -0.9566  1.3335 -0.2685
  136TCq2    H3 2083   3.726   1.114  10.211  0.1741  2.5780  0.9012
  136TCq2    H4 2084   3.445   1.261   9.927 -0.0070  1.1615  1.3064
  137MPD2     C 2085   3.679   4.371   9.417  0.3526 -0.6288 -0.5558
  137MPD2    C1 2086   3.778   4.389   9.324 -0.5914 -0.6384 -0.9208
  137MPD2    C2 2087   3.898   4.439   9.359  0.2195 -0.2601 -0.2118
  137MPD2    C3 2088   3.921   4.477   9.486  0.1672 -0.2275  0.3353
  137MPD2    C4 2089   3.820   4.472   9.580  0.3921 -0.3095  0.0491
  137MPD2    C5 2090   3.699   4.413   9.543 -0.4820  0.1935 -0.3892
  137MPD2     H 2091   3.975   4.440   9.283  2.1595 -0.3320  1.7503
  137MPD2    H1 2092   3.826   4.502   9.684  1.5578  0.2950 -0.1847
  137MPD2    H2 2093   3.582   4.329   9.396  0.1458  0.4724 -1.8039
  137MPD2    H3 2094   3.626   4.395   9.620 -0.0808 -0.0490 -0.0630
  137MPD2     N 2095   4.052   4.526   9.511  0.5866  0.3431 -0.0863
  137MPD2    H5 2096   4.114   4.517   9.432  1.3204  3.0279  0.1803
  137MPD2    N1 2097   3.750   4.343   9.192  0.2173  0.4860  0.2010
  137MPD2    H7 2098   3.660   4.295   9.192 -0.4358  1.7188 -2.2821
  138TCq2    C1 2099   3.833   4.354   9.079  0.0251  0.8960 -0.4513
  138TCq2    O2 2100   3.950   4.382   9.068 -0.2599 -0.0521 -0.7526
  138TCq2    C2 2101   3.761   4.314   8.956 -0.6106  0.5802  0.2630
  138TCq2    C3 2102   3.838   4.249   8.866 -0.0772  0.1706  0.0239
  138TCq2    C4 2103   3.781   4.184   8.760  0.0517  0.0898 -0.1445
  138TCq2    C5 2104   3.650   4.196   8.737  0.1903  0.1099 -0.7471
  138TCq2    C6 2105   3.570   4.250   8.836 -0.5712  0.3306 -0.1542
  138TCq2    C7 2106   3.618   4.305   8.950  0.0943 -0.7005  1.2705
  138TCq2    C8 2107   3.427   4.235   8.824  0.2116 -0.2724  0.4035
  138TCq2    O4 2108   3.372   4.223   8.713 -0.3097  0.1675  0.2726
  138TCq2    C9 2109   3.867   4.121   8.659 -0.1319  0.1246  0.6601
  138TCq2    O5 2110   3.809   4.062   8.563  0.2890 -0.0964  0.2865
  138TCq2    O6 2111   3.984   4.160   8.654  0.5980  0.4336 -0.1094
  138TCq2    H2 2112   3.946   4.261   8.867 -0.0915  0.0867  1.4552
  138TCq2    H3 2113   3.610   4.154   8.646  0.1423  0.4507 -0.8847
  138TCq2    H4 2114   3.557   4.359   9.021  0.1495  0.3405  0.5310
  139TMC2    C1 2115   3.926   2.965  13.242 -0.4174 -0.2708 -0.2961
  139TMC2    C2 2116   4.005   3.039  13.155  0.5987 -0.2560  0.5316
  139TMC2    C3 2117   3.970   3.168  13.121  0.2596 -0.2865 -0.0063
  139TMC2    C4 2118   3.804   3.020  13.293 -0.0794 -0.2650  0.3194
  139TMC2    C5 2119   3.767   3.149  13.245  0.3296 -0.1488 -0.3861
  139TMC2    C6 2120   3.850   3.224  13.166 -0.3291  0.2049  0.3018
  139TMC2     C 2121   3.965   2.825  13.252 -0.1989  0.7926 -0.4366
  139TMC2     O 2122   4.051   2.773  13.179  0.4185  0.2898 -0.4589
  139TMC2     H 2123   4.105   3.002  13.131  1.1252  2.1747 -0.9913
  139TMC2    H1 2124   3.742   2.956  13.355 -0.6799 -0.2081 -0.2217
  139TMC2    H2 2125   3.826   3.329  13.154  2.1657  0.7574 -0.0603
  139TMC2    C7 2126   3.649   3.212  13.303  0.4908 -0.0727 -0.3773
  139TMC2    C8 2127   4.072   3.267  13.133  0.9455 -0.0604 -0.4744
  139TMC2    O1 2128   3.599   3.302  13.235 -0.4151  0.2417 -0.0554
  139TMC2    O2 2129   4.172   3.260  13.204 -0.0651 -0.1532  0.1384
  139TMC2    O5 2130   4.056   3.344  13.027  0.0582 -0.6861  0.8395
  139TMC2    H5 2131   3.988   3.311  12.964  1.2033 -2.4230  0.5131
  140MPD2     C 2132   3.809   2.566  13.466 -0.4607 -0.4410  0.5915
  140MPD2    C1 2133   3.891   2.614  13.369 -0.3140  0.0479  0.3240
  140MPD2    C2 2134   3.963   2.517  13.294  0.1139  0.3556  0.4422
  140MPD2    C3 2135   3.958   2.385  13.322  0.3143 -0.4936  0.1085
  140MPD2    C4 2136   3.873   2.345  13.415  0.0719  0.1981  0.0130
  140MPD2    C5 2137   3.805   2.435  13.490  0.7390  0.0792 -0.2314
  140MPD2     H 2138   4.024   2.547  13.209 -1.5807  0.9526 -0.5469
  140MPD2    H1 2139   3.881   2.241  13.443  1.1261  0.6519  1.4070
  140MPD2    H2 2140   3.745   2.635  13.519 -0.7775 -0.3832  0.1325
  140MPD2    H3 2141   3.735   2.395  13.564  0.0602 -0.8294 -1.3645
  140MPD2     N 2142   4.033   2.294  13.245  0.2503 -0.2460  0.3474
  140MPD2    H5 2143   4.088   2.339  13.171 -0.3051  0.6495  0.4753
  140MPD2    N1 2144   3.886   2.760  13.337  0.0647  0.1226 -0.3948
  140MPD2    H7 2145   3.815   2.815  13.385 -1.1751 -3.0327  1.4321
  141TCq2    C1 2146   4.262   4.105  13.965  0.0763 -0.1765  0.2345
  141TCq2    O2 2147   4.311   4.110  13.853  0.5449 -1.0182  0.2573
  141TCq2    C2 2148   4.341   4.164  14.069 -0.6103  0.0611 -0.4102
  141TCq2    C3 2149   4.285   4.154  14.197  0.1439  0.4266 -0.0415
  141TCq2    C4 2150   4.317   4.252  14.289  0.3298  0.2986  0.2903
  141TCq2    C5 2151   4.388   4.357  14.258 -0.1885 -0.0980 -0.2749
  141TCq2    C6 2152   4.442   4.367  14.134  0.6996  0.2647 -0.4852
  141TCq2    C7 2153   4.415   4.274  14.037  0.8557  0.5047 -0.2017
  141TCq2    C8 2154   4.505   4.484  14.087 -0.3779 -0.7224 -0.4929
  141TCq2    O4 2155   4.500   4.507  13.969 -0.4831 -0.2885 -0.0970
  141TCq2    C9 2156   4.255   4.250  14.425  0.4159 -0.9329  0.0301
  141TCq2    O5 2157   4.214   4.137  14.468 -0.1436  0.3873 -0.2162
  141TCq2    O6 2158   4.256   4.360  14.482  0.5425  0.3253 -0.6774
  141TCq2    H2 2159   4.225   4.072  14.235  0.1022 -0.9275 -3.0088
  141TCq2    H3 2160   4.389   4.441  14.327  1.9720  0.4724 -0.9986
  141TCq2    H4 2161   4.459   4.279  13.938  0.5496  2.6980 -0.2270
  142MPD2     C 2162   2.199   2.816  10.245 -0.3739 -0.5892  0.2955
  142MPD2    C1 2163   2.149   2.849  10.116 -0.0108 -0.4716  0.2314
  142MPD2    C2 2164   2.223   2.931  10.029 -0.1694  0.4955  0.4051
  142MPD2    C3 2165   2.335   2.997  10.078  1.0372  0.1356  0.5370
  142MPD2    C4 2166   2.385   2.967  10.201  0.1183 -0.0441  0.8766
  142MPD2    C5 2167   2.317   2.874  10.279 -0.2382 -0.5355  0.3258
  142MPD2     H 2168   2.193   2.944   9.926  1.8263 -0.1455 -0.2526
  142MPD2    H1 2169   2.470   3.020  10.244 -1.4777  3.3254 -0.0800
  142MPD2    H2 2170   2.131   2.760  10.309 -1.5167 -0.3238 -0.7060
  142MPD2    H3 2171   2.347   2.876  10.384  1.6392 -0.2399 -0.2204
  142MPD2     N 2172   2.413   3.093  10.008  0.1038 -0.4754 -0.2193
  142MPD2    H5 2173   2.497   3.128  10.053  0.5858 -0.6497 -0.9738
  142MPD2    N1 2174   2.021   2.807  10.084 -0.5599  0.0869 -0.7004
  142MPD2    H7 2175   1.964   2.769  10.158  2.9398 -3.4598  0.1874
  143TCq2    C1 2176   2.386   3.138   9.879  0.2071 -0.6726 -0.0142
  143TCq2    O2 2177   2.302   3.101   9.799 -0.9000  0.2489  0.4140
  143TCq2    C2 2178   2.489   3.219   9.825 -0.2450  0.4313 -0.9306
  143TCq2    C3 2179   2.488   3.227   9.689  0.3638  0.3385 -0.6574
  143TCq2    C4 2180   2.557   3.330   9.630 -0.6333 -0.3083 -0.1449
  143TCq2    C5 2181   2.597   3.436   9.708 -0.0482  0.5033 -0.5056
  143TCq2    C6 2182   2.593   3.424   9.846  0.5379  0.1401 -0.1209
  143TCq2    C7 2183   2.543   3.317   9.910 -0.0893  0.1791 -0.5529
  143TCq2    C8 2184   2.665   3.512   9.939  0.3061  1.5089 -1.5510
  143TCq2    O4 2185   2.606   3.533  10.046  0.7768  0.1188 -0.1869
  143TCq2    C9 2186   2.570   3.340   9.485  0.1548  0.0339  0.5113
  143TCq2    O5 2187   2.517   3.242   9.423  0.2388 -0.3697 -0.1277
  143TCq2    O6 2188   2.646   3.429   9.444 -0.1186 -0.1674  0.2704
  143TCq2    H2 2189   2.449   3.150   9.623 -1.1061 -0.2858  0.9664
  143TCq2    H3 2190   2.632   3.523   9.654 -0.7047  0.7835 -0.4886
  143TCq2    H4 2191   2.537   3.312  10.018  0.7741  1.7457 -0.4396
  144MPD2     C 2192   4.510   1.589   0.588  0.4448 -0.0446  0.0877
  144MPD2    C1 2193   4.579   1.487   0.526  0.3465 -0.1254 -0.5950
  144MPD2    C2 2194   4.684   1.429   0.601  0.0613  0.1033  0.0968
  144MPD2    C3 2195   4.716   1.472   0.730  0.6979 -0.4050 -0.1586
  144MPD2    C4 2196   4.644   1.579   0.785 -0.3848  0.2419  0.5903
  144MPD2    C5 2197   4.548   1.639   0.710  0.0844  0.2258  0.2994
  144MPD2     H 2198   0.018   1.354   0.549 -0.3282 -1.0357  1.3022
  144MPD2    H1 2199   4.661   1.618   0.885 -1.0782 -0.1803  0.8656
  144MPD2    H2 2200   4.437   1.653   0.540 -0.8694 -1.1179  0.6798
  144MPD2    H3 2201   4.499   1.729   0.745 -2.5919 -1.0209 -0.2212
  144MPD2     N 2202   0.096   1.417   0.807  0.1744  0.2205  0.6544
  144MPD2    H5 2203   0.123   1.466   0.891  0.9514  0.9895 -0.0373
  144MPD2    N1 2204   4.557   1.441   0.393  0.5452  0.2412 -0.4293
  144MPD2    H7 2205   4.614   1.360   0.371 -0.1254 -0.1427 -0.7639
  145TCq2    C1 2206   0.182   1.313   0.770 -0.1206  0.1105 -0.3657
  145TCq2    O2 2207   0.169   1.228   0.682 -0.2812 -0.4556 -0.0626
  145TCq2    C2 2208   0.303   1.316   0.856 -0.7580  0.6359 -0.9861
  145TCq2    C3 2209   0.424   1.264   0.805  0.3047 -0.7194  0.2008
  145TCq2    C4 2210   0.538   1.285   0.872 -0.1039 -0.0876  0.9361
  145TCq2    C5 2211   0.535   1.350   0.998  0.4170  0.1247  0.0696
  145TCq2    C6 2212   0.420   1.398   1.048 -0.2742 -0.3862 -0.2619
  145TCq2    C7 2213   0.307   1.387   0.974  0.2224 -0.0429  0.1580
  145TCq2    C8 2214   0.419   1.452   1.186 -0.2237 -0.5089  0.3638
  145TCq2    O4 2215   0.486   1.392   1.269  0.2916 -0.6110 -0.5068
  145TCq2    C9 2216   0.663   1.240   0.812 -0.3660  0.6975 -0.2920
  145TCq2    O5 2217   0.651   1.153   0.718 -0.7867  0.5745 -0.3558
  145TCq2    O6 2218   0.769   1.279   0.864  0.7323  0.4912 -0.9918
  145TCq2    H2 2219   0.420   1.206   0.713 -0.3374  1.6036 -1.2237
  145TCq2    H3 2220   0.622   1.345   1.063  1.1111  1.4867 -0.7727
  145TCq2    H4 2221   0.214   1.425   1.013  0.3508  0.9128 -0.4697
  146TMC2    C1 2222   1.890   0.715  12.730 -0.0806 -0.8966  0.5448
  146TMC2    C2 2223   1.842   0.697  12.605  0.4318  0.0031  0.5697
  146TMC2    C3 2224   1.913   0.620  12.514 -0.0331  0.6875  0.1649
  146TMC2    C4 2225   2.002   0.662  12.769 -0.0870 -0.2762 -0.3924
  146TMC2    C5 2226   2.074   0.580  12.681  0.0531 -0.0704  0.4294
  146TMC2    C6 2227   2.031   0.565  12.553  0.3879 -0.0976 -0.1795
  146TMC2     C 2228   1.812   0.807  12.812  1.1996  0.1096  0.0874
  146TMC2     O 2229   1.766   0.908  12.761 -0.4747  0.2734 -0.8283
  146TMC2     H 2230   1.745   0.740  12.583  0.7278 -1.1795 -3.0453
  146TMC2    H1 2231   2.043   0.681  12.868 -0.9641 -0.5945  0.0310
  146TMC2    H2 2232   2.086   0.499  12.486 -0.6260 -0.2164 -0.9005
  146TMC2    C7 2233   2.208   0.536  12.714 -0.0512 -0.0981 -0.0989
  146TMC2    C8 2234   1.867   0.589  12.384  0.5491  0.4785  0.4622
  146TMC2    O1 2235   2.292   0.515  12.624 -0.0834 -0.1208 -0.5110
  146TMC2    O2 2236   1.948   0.599  12.293  0.9090 -0.4120 -0.3330
  146TMC2    O5 2237   1.808   0.469  12.404  0.1154  0.0318  0.7817
  146TMC2    H5 2238   1.764   0.477  12.491  0.9983  0.8141  1.1548
  147MPD2     C 2239   2.548   0.407  13.075 -0.0260 -0.1916 -0.3466
  147MPD2    C1 2240   2.424   0.399  13.129  0.3148  0.4047 -0.2693
  147MPD2    C2 2241   2.316   0.443  13.058 -0.7693  0.2071 -0.3889
  147MPD2    C3 2242   2.337   0.492  12.926 -0.3738  0.1273 -0.4238
  147MPD2    C4 2243   2.461   0.492  12.867  0.5488 -0.1015  0.0810
  147MPD2    C5 2244   2.570   0.455  12.948  0.4109  0.6644 -0.6109
  147MPD2     H 2245   2.218   0.450  13.103 -1.3342 -0.6642 -1.4860
  147MPD2    H1 2246   2.480   0.518  12.764  1.0521 -1.4962 -0.1863
  147MPD2    H2 2247   2.630   0.359  13.127  0.4480  0.9851  0.0080
  147MPD2    H3 2248   2.670   0.443  12.908  1.1462 -2.1620  2.0994
  147MPD2     N 2249   2.221   0.525  12.854  0.0653  0.2507 -0.1627
  147MPD2    H5 2250   2.135   0.532  12.907 -0.2504 -1.5083 -0.4759
  147MPD2    N1 2251   2.416   0.334  13.257  0.4167 -0.0988  0.4308
  147MPD2    H7 2252   2.499   0.290  13.296  1.4725  2.4191  1.0472
  148MPD2     C 2253   2.519   3.866  11.335 -0.0223 -0.4449  0.5095
  148MPD2    C1 2254   2.478   3.884  11.207  0.3081  0.1864 -0.6709
  148MPD2    C2 2255   2.361   3.825  11.167 -0.4282  0.1108  0.3162
  148MPD2    C3 2256   2.288   3.743  11.247  1.2377  0.1728  0.0249
  148MPD2    C4 2257   2.336   3.716  11.368  0.3274  0.5981  0.2614
  148MPD2    C5 2258   2.452   3.776  11.415 -0.5924  0.1609 -0.2579
  148MPD2     H 2259   2.321   3.847  11.069 -1.2482 -0.2673  0.5654
  148MPD2    H1 2260   2.284   3.659  11.444  2.3243  0.3679  1.4614
  148MPD2    H2 2261   2.616   3.901  11.367  0.1508  2.2467 -2.9946
  148MPD2    H3 2262   2.483   3.751  11.516  1.4575  1.2642 -0.6107
  148MPD2     N 2263   2.162   3.697  11.205 -0.3680 -0.2004  0.4202
  148MPD2    H5 2264   2.112   3.636  11.269 -0.2866  0.0368  0.7095
  148MPD2    N1 2265   2.547   3.973  11.120 -0.3380 -0.5666  0.6548
  148MPD2    H7 2266   2.510   3.975  11.025 -0.9418  0.1605  0.9074
  149TCq2    C1 2267   2.664   4.037  11.132 -0.6188  0.1837 -0.1198
  149TCq2    O2 2268   2.723   4.065  11.236 -0.2018  0.1038  0.1340
  149TCq2    C2 2269   2.701   4.103  11.013 -0.3464 -0.0720  0.6159
  149TCq2    C3 2270   2.714   4.239  11.008 -1.0546  0.4147 -0.5301
  149TCq2    C4 2271   2.693   4.306  10.895  0.0193  0.0607 -0.5316
  149TCq2    C5 2272   2.664   4.243  10.776  0.1673  0.2130 -0.3398
  149TCq2    C6 2273   2.655   4.105  10.781 -0.4747 -0.1293  0.0310
  149TCq2    C7 2274   2.665   4.034  10.900 -0.6244  0.2399 -0.1634
  149TCq2    C8 2275   2.590   4.029  10.674 -0.1833 -0.2533  0.6261
  149TCq2    O4 2276   2.530   3.927  10.706 -0.2956  0.2642 -0.0689
  149TCq2    C9 2277   2.667   4.447  10.910  1.0649  0.4717  0.0645
  149TCq2    O5 2278   2.642   4.498  11.023  0.1955  0.0130 -0.0827
  149TCq2    O6 2279   2.644   4.513  10.808 -0.5401 -0.5084 -0.0923
  149TCq2    H2 2280   2.741   4.292  11.099  0.7300  0.0718 -0.8532
  149TCq2    H3 2281   2.633   4.293  10.684 -1.3734  0.4191  0.2797
  149TCq2    H4 2282   2.657   3.927  10.891 -2.0793  0.2725  0.8020
  150MPD2     C 2283   3.204   3.193  11.951  0.0710 -0.2789 -0.4693
  150MPD2    C1 2284   3.291   3.185  11.840  0.5321  0.1542  0.6250
  150MPD2    C2 2285   3.384   3.285  11.818 -0.2252 -0.2220  0.1685
  150MPD2    C3 2286   3.404   3.392  11.907  0.5567 -0.3917  0.7417
  150MPD2    C4 2287   3.328   3.392  12.023 -0.4504 -0.5920 -0.2977
  150MPD2    C5 2288   3.238   3.286  12.043  0.9822  0.0555 -0.1470
  150MPD2     H 2289   3.444   3.281  11.728  0.4211  0.9449  0.5497
  150MPD2    H1 2290   3.355   3.459  12.104 -1.9527 -0.2807 -0.0644
  150MPD2    H2 2291   3.131   3.117  11.974  1.2544 -2.0002 -2.3719
  150MPD2    H3 2292   3.183   3.278  12.135 -1.3070 -1.2206 -1.6373
  150MPD2     N 2293   3.513   3.477  11.881 -0.3076  0.0429 -0.4705
  150MPD2    H5 2294   3.553   3.462  11.789 -0.1334 -0.4812 -0.3071
  150MPD2    N1 2295   3.267   3.079  11.753 -0.0128  0.9109 -0.4894
  150MPD2    H7 2296   3.182   3.028  11.775  0.8761  0.6363  2.3462
  151TCq2    C1 2297   3.570   3.573  11.965 -0.2386 -0.0144 -1.3753
  151TCq2    O2 2298   3.570   3.573  12.084 -0.0589  0.5589  0.3405
  151TCq2    C2 2299   3.669   3.653  11.897 -0.5362  0.2274  0.0450
  151TCq2    C3 2300   3.605   3.717  11.797 -0.2222  0.4687 -0.2141
  151TCq2    C4 2301   3.641   3.846  11.779  0.1883  0.3444 -0.2525
  151TCq2    C5 2302   3.758   3.897  11.835 -0.4450 -0.0543  0.8345
  151TCq2    C6 2303   3.808   3.829  11.945  0.3990  0.6223  0.1524
  151TCq2    C7 2304   3.766   3.704  11.979 -0.2992  0.0511 -0.0465
  151TCq2    C8 2305   3.933   3.881  12.001 -0.1236 -0.5979 -0.2260
  151TCq2    O4 2306   3.959   4.002  11.988 -0.2820  0.3852  0.4708
  151TCq2    C9 2307   3.564   3.926  11.695 -0.7884  0.1071  0.5094
  151TCq2    O5 2308   3.448   3.894  11.658  0.2097 -0.3304  0.3129
  151TCq2    O6 2309   3.617   4.032  11.647  0.5085  0.0269 -0.1985
  151TCq2    H2 2310   3.515   3.690  11.743 -0.9697  1.9866  0.2621
  151TCq2    H3 2311   3.797   3.992  11.802  0.1077 -1.2212 -1.8883
  151TCq2    H4 2312   3.785   3.665  12.079 -0.0011  2.8127  0.9629
  152MPD2     C 2313   3.159   2.969  12.899  0.6417 -0.0142  0.4655
  152MPD2    C1 2314   3.172   3.065  12.802 -0.2448 -1.3133  0.1700
  152MPD2    C2 2315   3.068   3.078  12.705 -0.8793  0.9403 -0.1497
  152MPD2    C3 2316   2.963   2.990  12.706  0.1575 -0.2194 -0.2363
  152MPD2    C4 2317   2.959   2.892  12.800 -1.0989  0.4261  0.3467
  152MPD2    C5 2318   3.054   2.881  12.900 -0.2330  0.0682  0.3043
  152MPD2     H 2319   3.069   3.157  12.631 -2.7973  2.9444  1.9636
  152MPD2    H1 2320   2.878   2.821  12.812 -2.5932  2.3057  1.3889
  152MPD2    H2 2321   3.222   2.969  12.987 -1.2106  0.0049  1.8002
  152MPD2    H3 2322   3.048   2.798  12.970  2.1638 -1.2392 -1.0337
  152MPD2     N 2323   2.873   3.003  12.607 -0.1788 -0.5466 -0.6596
  152MPD2    H5 2324   2.901   3.065  12.532  0.3928  3.2183  2.6548
  152MPD2    N1 2325   3.284   3.144  12.805  0.0150  0.9254  0.6843
  152MPD2    H7 2326   3.359   3.111  12.866  0.7871  0.9688 -0.2324
  153TCq2    C1 2327   3.313   3.258  12.731 -0.9751  0.0282  0.2641
  153TCq2    O2 2328   3.239   3.316  12.648 -0.3314  0.3325 -0.5785
  153TCq2    C2 2329   3.448   3.301  12.734 -0.4984  0.2146  0.4509
  153TCq2    C3 2330   3.561   3.222  12.759  0.1852  0.6996 -0.1473
  153TCq2    C4 2331   3.683   3.279  12.776  0.1221 -0.8239  0.0130
  153TCq2    C5 2332   3.703   3.406  12.745  0.0894  0.1338 -0.0942
  153TCq2    C6 2333   3.587   3.485  12.716 -0.6868  0.0823  0.5516
  153TCq2    C7 2334   3.459   3.431  12.712 -0.2512 -0.2746  0.2965
  153TCq2    C8 2335   3.609   3.620  12.658 -0.5152  0.4461  0.2048
  153TCq2    O4 2336   3.519   3.662  12.583  0.3960 -0.1493  0.1883
  153TCq2    C9 2337   3.789   3.191  12.814  0.3415 -0.0995 -0.6771
  153TCq2    O5 2338   3.898   3.248  12.845 -0.2587  0.8132  0.1431
  153TCq2    O6 2339   3.774   3.073  12.782  0.0587 -0.0067  0.1489
  153TCq2    H2 2340   3.548   3.114  12.762 -2.3441  1.0737  2.1681
  153TCq2    H3 2341   3.803   3.447  12.742  0.6241 -1.4177 -2.7351
  153TCq2    H4 2342   3.381   3.502  12.683  0.9422  0.0436 -2.1339
  154MPD2     C 2343   0.290   2.693   0.230 -0.0742  0.3083 -0.4482
  154MPD2    C1 2344   0.233   2.768   0.130  0.2160 -0.3358  0.0803
  154MPD2    C2 2345   0.098   2.782   0.120  0.4126 -1.2041 -0.3902
  154MPD2    C3 2346   0.018   2.720   0.219 -0.4428 -0.1462  0.4374
  154MPD2    C4 2347   0.077   2.645   0.315 -0.1747 -0.0450 -0.4556
  154MPD2    C5 2348   0.212   2.624   0.315 -0.8972 -0.2806 -0.3456
  154MPD2     H 2349   0.045   2.837   0.044 -0.2001 -0.4220  0.5965
  154MPD2    H1 2350   0.010   2.587   0.378 -0.3563  2.1419  1.3358
  154MPD2    H2 2351   0.397   2.676   0.240  0.2805  3.2402  0.7446
  154MPD2    H3 2352   0.265   2.556   0.380 -1.5626 -0.1674  0.3164
  154MPD2     N 2353   4.602   2.715   0.218 -0.5829 -0.0774  0.5073
  154MPD2    H5 2354   4.551   2.694   0.303  0.5626 -0.0151  1.2129
  154MPD2    N1 2355   0.322   2.842   0.052  0.8219  0.0964 -0.1733
  154MPD2    H7 2356   0.418   2.827   0.080  1.0605  0.0672 -1.0058
  155TCq2    C1 2357   0.291   2.946  17.664  0.1735  0.3001 -0.9705
  155TCq2    O2 2358   0.179   2.995  17.645  0.1318 -0.0455 -0.0169
  155TCq2    C2 2359   0.404   3.038  17.645 -0.5746  0.2260  0.4905
  155TCq2    C3 2360   0.528   2.993  17.670  0.6768  0.4806  0.1534
  155TCq2    C4 2361   0.622   3.084   0.012 -0.8502  0.2834  0.2756
  155TCq2    C5 2362   0.591   3.214   0.009  0.0222  0.0323  0.0113
  155TCq2    C6 2363   0.464   3.259  17.673 -0.1602 -0.2496 -0.2760
  155TCq2    C7 2364   0.371   3.170  17.651 -0.0683  0.4497 -0.2727
  155TCq2    C8 2365   0.418   3.400   0.007  0.2163 -0.3343 -0.1015
  155TCq2    O4 2366   0.297   3.413   0.027 -0.4283  0.5641  0.4324
  155TCq2    C9 2367   0.748   3.041   0.073  0.8282  0.5089  0.2362
  155TCq2    O5 2368   0.820   3.128   0.131  0.0914 -0.3262  0.1038
  155TCq2    O6 2369   0.768   2.920   0.078  0.3071 -0.0543  0.2045
  155TCq2    H2 2370   0.545   2.886  17.663  1.0768  0.6890 -2.1882
  155TCq2    H3 2371   0.674   3.280   0.032  1.2107 -0.8140 -1.7821
  155TCq2    H4 2372   0.279   3.207  17.607  0.3282  1.6149 -0.1228
  156MPD2     C 2373   4.015   0.967  11.315 -0.8870 -0.0581 -0.4769
  156MPD2    C1 2374   3.887   1.008  11.317 -0.8040  0.3849 -0.3216
  156MPD2    C2 2375   3.813   1.021  11.432 -0.0331  0.3710 -0.8015
  156MPD2    C3 2376   3.870   1.002  11.556  0.3238  0.1689 -0.2116
  156MPD2    C4 2377   3.994   0.946  11.555 -0.0152  0.3189  0.4751
  156MPD2    C5 2378   4.056   0.924  11.435  0.1878 -0.4742  0.1427
  156MPD2     H 2379   3.709   1.052  11.433 -0.3625 -0.6372 -3.3550
  156MPD2    H1 2380   4.047   0.925  11.647 -0.1352 -0.6109  0.3307
  156MPD2    H2 2381   4.082   0.960  11.230 -0.4791 -0.1001 -0.1543
  156MPD2    H3 2382   4.158   0.886  11.437  0.2574 -0.3928 -1.5762
  156MPD2     N 2383   3.799   1.023  11.674 -0.1634  0.3978  0.8497
  156MPD2    H5 2384   3.715   1.079  11.662 -1.2192 -1.8727 -2.1566
  156MPD2    N1 2385   3.842   1.029  11.184  0.2169  0.2112 -0.2471
  156MPD2    H7 2386   3.904   1.057  11.109  0.0600 -0.5697 -0.6561
  157TCq2    C1 2387   3.712   1.040  11.146 -0.4787  0.8677 -0.1368
  157TCq2    O2 2388   3.605   1.039  11.214 -0.5480  0.4962 -0.1341
  157TCq2    C2 2389   3.700   1.065  10.995 -0.9411 -0.3553  0.0501
  157TCq2    C3 2390   3.812   1.065  10.917 -0.6872 -0.8169 -0.2554
  157TCq2    C4 2391   3.816   1.148  10.812  0.1885  0.7014 -0.1901
  157TCq2    C5 2392   3.701   1.222  10.777 -0.4866  0.8174  0.0967
  157TCq2    C6 2393   3.583   1.201  10.841  0.0241 -0.1484  0.5087
  157TCq2    C7 2394   3.587   1.130  10.960 -0.0740  0.3901 -0.1555
  157TCq2    C8 2395   3.483   1.308  10.838  0.2876  0.4718  0.2128
  157TCq2    O4 2396   3.525   1.418  10.819 -0.2034  0.0081  0.4487
  157TCq2    C9 2397   3.934   1.178  10.739  0.1561 -0.2585 -0.4029
  157TCq2    O5 2398   3.928   1.236  10.627  0.0516 -0.0991 -0.0217
  157TCq2    O6 2399   4.044   1.132  10.785  0.3328 -0.3790 -0.1073
  157TCq2    H2 2400   3.897   1.001  10.939 -0.1755  0.4194  1.4003
  157TCq2    H3 2401   3.703   1.278  10.685  1.8043  1.1378  0.3506
  157TCq2    H4 2402   3.500   1.125  11.024  3.1019 -4.2414  3.7694
  158TMC2    C1 2403   3.759   4.376  13.199  0.2303  0.0175  0.0090
  158TMC2    C2 2404   3.825   4.462  13.117 -0.1554 -0.1567 -0.3128
  158TMC2    C3 2405   3.765   4.495  13.002  0.3395 -0.3305 -0.1884
  158TMC2    C4 2406   3.642   4.315  13.166 -0.2412 -0.3431  0.6235
  158TMC2    C5 2407   3.590   4.352  13.044 -0.7485 -0.5301  0.0174
  158TMC2    C6 2408   3.645   4.448  12.962  0.1942  0.3039  0.3106
  158TMC2     C 2409   3.830   4.335  13.318 -0.0947  0.2951 -0.0204
  158TMC2     O 2410   3.953   4.328  13.308  0.3671  0.0820 -0.6530
  158TMC2     H 2411   3.915   4.516  13.144 -0.7015  0.1577  0.8591
  158TMC2    H1 2412   3.604   4.233  13.226 -2.5710 -0.0964 -0.5218
  158TMC2    H2 2413   3.603   4.486  12.869  1.4639  1.6965  0.2974
  158TMC2    C7 2414   3.456   4.311  13.008  0.0770  0.0723  0.7092
  158TMC2    C8 2415   3.843   4.581  12.910 -0.9211 -0.1857  0.3223
  158TMC2    O1 2416   3.406   4.389  12.923 -0.0388 -0.2141  0.3617
  158TMC2    O2 2417   3.789   4.662  12.830 -0.2316  0.6439  0.0835
  158TMC2    O5 2418   3.971   4.535  12.904 -0.2304 -0.1495 -0.2786
  158TMC2    H5 2419   3.977   4.457  12.963 -1.4934 -0.1501 -0.1532
  159MPD2     C 2420   3.877   4.281  13.822 -0.7515  0.4256  0.0234
  159MPD2    C1 2421   3.740   4.255  13.788  0.0695  0.1811  0.8647
  159MPD2    C2 2422   3.706   4.274  13.656 -0.1085 -0.0583 -0.0447
  159MPD2    C3 2423   3.798   4.296  13.560  0.2286  0.0251 -0.1454
  159MPD2    C4 2424   3.928   4.313  13.597  0.7616  0.1716  0.1093
  159MPD2    C5 2425   3.969   4.307  13.729  0.8561  0.4484 -0.4677
  159MPD2     H 2426   3.602   4.268  13.627 -0.1386  0.9555 -0.1504
  159MPD2    H1 2427   4.008   4.340  13.529  0.1106 -1.8324 -1.4284
  159MPD2    H2 2428   3.906   4.287  13.926 -1.8767 -1.7213  0.4586
  159MPD2    H3 2429   4.072   4.333  13.752  1.1913 -0.2368 -1.1814
  159MPD2     N 2430   3.749   4.305  13.427 -0.0038 -0.2000  0.0809
  159MPD2    H5 2431   3.648   4.305  13.420 -0.1277  0.4230  1.8958
  159MPD2    N1 2432   3.658   4.213  13.900 -0.3865  0.2358 -0.0172
  159MPD2    H7 2433   3.700   4.211  13.992  1.1003  1.1673 -0.6683
  160TMC2    C1 2434   3.686   1.554   1.155 -0.4596 -0.1988  1.1657
  160TMC2    C2 2435   3.745   1.440   1.187  0.4427  0.6728  0.5693
  160TMC2    C3 2436   3.829   1.376   1.104 -0.0955  0.3170 -0.4086
  160TMC2    C4 2437   3.707   1.605   1.027  0.0188  0.2510  0.2629
  160TMC2    C5 2438   3.798   1.548   0.949 -0.2225  0.2986  0.5648
  160TMC2    C6 2439   3.863   1.431   0.987  0.2405  0.4440  0.4610
  160TMC2     C 2440   3.595   1.619   1.250  0.1222 -0.3370  0.9886
  160TMC2     O 2441   3.618   1.583   1.366  0.0368 -0.2096  0.6825
  160TMC2     H 2442   3.732   1.404   1.289 -2.0585 -1.2811 -0.4364
  160TMC2    H1 2443   3.674   1.708   1.016 -1.8188 -0.4241 -0.5286
  160TMC2    H2 2444   3.938   1.384   0.925 -1.9548  0.4200 -2.1509
  160TMC2    C7 2445   3.827   1.611   0.813  0.3034 -0.6880 -0.0489
  160TMC2    C8 2446   3.877   1.242   1.123 -0.2780 -0.1406 -0.2309
  160TMC2    O1 2447   3.811   1.531   0.718 -0.3480  0.2967 -0.0326
  160TMC2    O2 2448   3.973   1.200   1.060 -0.0638 -0.2024 -0.0814
  160TMC2    O5 2449   3.772   1.168   1.156 -0.2385  0.0028  0.8002
  160TMC2    H5 2450   3.703   1.219   1.202 -0.5130  0.2354  0.1415
  161MPD2     C 2451   3.354   1.710   1.401 -0.1596 -0.0420 -0.5986
  161MPD2    C1 2452   3.390   1.759   1.280 -0.1488  0.5725 -0.5873
  161MPD2    C2 2453   3.322   1.866   1.245  0.5744 -0.0379  0.5406
  161MPD2    C3 2454   3.211   1.918   1.315  0.9477  0.2790 -0.3841
  161MPD2    C4 2455   3.182   1.859   1.436 -0.6071  0.5382  0.2147
  161MPD2    C5 2456   3.257   1.760   1.486  0.1422 -0.2526  0.0497
  161MPD2     H 2457   3.357   1.912   1.154  1.5759  0.3842  1.1383
  161MPD2    H1 2458   3.094   1.887   1.491 -1.7092 -1.2935 -0.6146
  161MPD2    H2 2459   3.408   1.625   1.440 -1.7215  0.5764  2.8722
  161MPD2    H3 2460   3.251   1.717   1.586 -1.0663 -0.9310 -0.3206
  161MPD2     N 2461   3.133   2.016   1.256 -0.0874 -0.3169 -0.0023
  161MPD2    H5 2462   3.053   2.054   1.307  0.2537  1.2488 -0.6446
  161MPD2    N1 2463   3.499   1.706   1.201  0.4858  0.4323  0.0490
  161MPD2    H7 2464   3.507   1.731   1.103 -0.3774  2.7439  0.5516
  162TMC2    C1 2465   0.969   3.557   0.966 -0.1441  0.0662  0.2456
  162TMC2    C2 2466   0.887   3.616   0.873  1.0364 -0.4892  0.2219
  162TMC2    C3 2467   0.757   3.619   0.893  0.1196  0.0864 -0.2250
  162TMC2    C4 2468   0.923   3.537   1.093 -0.5288 -0.9333  0.2482
  162TMC2    C5 2469   0.788   3.565   1.109  0.8031 -0.1656  0.7673
  162TMC2    C6 2470   0.698   3.598   1.008 -0.0739  0.4754 -0.3061
  162TMC2     C 2471   1.108   3.527   0.938  0.3225 -0.5755  0.5712
  162TMC2     O 2472   1.127   3.507   0.818 -0.1800  0.1588  0.5466
  162TMC2     H 2473   0.917   3.627   0.769 -0.4706 -0.7871 -0.2442
  162TMC2    H1 2474   0.969   3.483   1.175 -0.5507 -3.1783 -1.2220
  162TMC2    H2 2475   0.593   3.619   1.021 -0.6254 -2.1046 -0.5502
  162TMC2    C7 2476   0.730   3.558   1.240  0.0853  0.3585 -0.2899
  162TMC2    C8 2477   0.672   3.638   0.782  0.4396 -0.6613 -0.8401
  162TMC2    O1 2478   0.609   3.574   1.251  0.0340 -0.7089 -0.3073
  162TMC2    O2 2479   0.698   3.720   0.699 -0.1463 -0.1507 -0.1192
  162TMC2    O5 2480   0.571   3.548   0.780 -0.1252  0.2935  0.2879
  162TMC2    H5 2481   0.603   3.467   0.826 -1.4422  0.6157  1.7686
  163MPD2     C 2482   1.548   3.293   1.034 -0.1922  0.4996  0.0682
  163MPD2    C1 2483   1.501   3.354   0.920  0.0701 -0.0307 -0.2619
  163MPD2    C2 2484   1.383   3.422   0.919 -0.2771  0.5960  0.1282
  163MPD2    C3 2485   1.309   3.432   1.035  0.0547  0.1064 -1.1141
  163MPD2    C4 2486   1.358   3.365   1.146  0.5525  0.5081  0.5801
  163MPD2    C5 2487   1.478   3.297   1.149 -0.5915 -0.0374  0.2463
  163MPD2     H 2488   1.343   3.468   0.830  2.1740  0.0243 -1.2718
  163MPD2    H1 2489   1.310   3.370   1.243 -3.1211  0.6341 -1.2869
  163MPD2    H2 2490   1.643   3.243   1.049  1.3039  3.0240 -1.1036
  163MPD2    H3 2491   1.514   3.249   1.240 -0.4574 -0.4371 -0.0183
  163MPD2     N 2492   1.174   3.490   1.049  0.4521  0.0709  0.5441
  163MPD2    H5 2493   1.144   3.512   1.144 -0.1676 -1.4730  0.7025
  163MPD2    N1 2494   1.584   3.337   0.806 -0.1567  0.2132  0.7697
  163MPD2    H7 2495   1.668   3.282   0.823 -0.0497  0.0056 -0.4030
  164TCq2    C1 2496   2.267   0.357  11.342  0.0174 -0.3164  0.0143
  164TCq2    O2 2497   2.257   0.339  11.460  0.3252  0.1946  0.4446
  164TCq2    C2 2498   2.151   0.336  11.257  0.1787  1.0041  0.1681
  164TCq2    C3 2499   2.157   0.404  11.136  0.1590 -0.2298 -0.3265
  164TCq2    C4 2500   2.050   0.383  11.054  0.6897  0.1593  0.1982
  164TCq2    C5 2501   1.955   0.290  11.083 -0.5548  1.0136 -0.1039
  164TCq2    C6 2502   1.955   0.224  11.207  0.9547  0.1355 -0.3886
  164TCq2    C7 2503   2.050   0.251  11.298 -0.9328 -0.5573 -0.0084
  164TCq2    C8 2504   1.841   0.145  11.243  0.1036  0.2726  0.4369
  164TCq2    O4 2505   1.746   0.161  11.170 -0.4691  0.3864  0.2413
  164TCq2    C9 2506   2.057   0.441  10.917 -0.2549  0.8851 -0.0723
  164TCq2    O5 2507   1.966   0.410  10.838 -0.2359 -0.9191 -0.3292
  164TCq2    O6 2508   2.170   0.480  10.881 -0.3374  0.6001  0.2327
  164TCq2    H2 2509   2.232   0.474  11.103 -0.9160  1.2196  0.2804
  164TCq2    H3 2510   1.878   0.269  11.010 -1.6075  1.5447  0.8548
  164TCq2    H4 2511   2.047   0.207  11.398  1.5872  0.7840  0.6562
  165MPD2     C 2512   2.698   1.404   0.929  0.6649 -0.5287  0.0154
  165MPD2    C1 2513   2.671   1.287   0.988 -0.1924 -0.4479  0.6391
  165MPD2    C2 2514   2.733   1.262   1.118 -0.5820 -0.2549  0.8026
  165MPD2    C3 2515   2.833   1.343   1.170  0.4234 -0.0762  0.8283
  165MPD2    C4 2516   2.857   1.462   1.102  0.4707  0.0930 -0.0673
  165MPD2    C5 2517   2.787   1.489   0.993 -0.1779 -0.4039 -0.1020
  165MPD2     H 2518   2.687   1.179   1.171 -2.2109 -1.2110 -2.1003
  165MPD2    H1 2519   2.928   1.536   1.137  0.8899  0.9586 -2.8141
  165MPD2    H2 2520   2.660   1.436   0.833  1.8411  0.2008 -0.1992
  165MPD2    H3 2521   2.813   1.580   0.939 -0.5311 -0.6680 -0.7199
  165MPD2     N 2522   2.901   1.313   1.283  0.3475  0.2789  0.2414
  165MPD2    H5 2523   2.976   1.375   1.314  1.6657 -1.0892 -0.2294
  165MPD2    N1 2524   2.572   1.203   0.931 -0.0471 -0.3925 -0.4579
  165MPD2    H7 2525   2.519   1.237   0.852 -1.0436  1.5179  1.0143
  166TCq2    C1 2526   2.895   1.193   1.357 -0.2207  0.0854 -0.0091
  166TCq2    O2 2527   2.811   1.102   1.359 -0.3042  1.1581  0.1262
  166TCq2    C2 2528   2.987   1.199   1.473 -1.0020  0.0549  0.2905
  166TCq2    C3 2529   2.944   1.130   1.585 -0.1063  0.1075 -0.4632
  166TCq2    C4 2530   3.019   1.147   1.691 -0.3581  0.4295 -0.3830
  166TCq2    C5 2531   3.132   1.222   1.701 -0.0471 -0.1075  0.5727
  166TCq2    C6 2532   3.166   1.286   1.588 -0.1236  0.2977  0.1156
  166TCq2    C7 2533   3.095   1.278   1.475  0.4707  0.5556 -0.0469
  166TCq2    C8 2534   3.281   1.374   1.577 -0.6362 -0.0724 -0.4079
  166TCq2    O4 2535   3.364   1.368   1.484 -0.0887  0.1336  0.4640
  166TCq2    C9 2536   2.986   1.084   1.812 -0.3241  0.1431 -0.0999
  166TCq2    O5 2537   2.874   1.030   1.838 -0.0309  0.2635  0.0130
  166TCq2    O6 2538   3.088   1.049   1.876  0.1915  0.0698 -0.2241
  166TCq2    H2 2539   2.863   1.058   1.586 -0.2160  0.2075 -1.8942
  166TCq2    H3 2540   3.194   1.213   1.789  0.9310 -1.8041 -0.2801
  166TCq2    H4 2541   3.138   1.314   1.383  1.5740 -1.1766 -0.2082
  167TMC2    C1 2542   1.389   4.015  12.858 -0.1014  0.2943 -0.5458
  167TMC2    C2 2543   1.304   4.003  12.970  0.0153  0.9598 -0.0395
  167TMC2    C3 2544   1.246   3.883  12.990  0.0987 -0.0613 -0.2479
  167TMC2    C4 2545   1.409   3.910  12.769 -0.0568  0.0780  0.1302
  167TMC2    C5 2546   1.326   3.807  12.792  0.2361  0.5320 -0.1930
  167TMC2    C6 2547   1.247   3.786  12.901  0.4560 -0.0172 -0.1868
  167TMC2     C 2548   1.416   4.154  12.822 -0.6148 -0.0421 -0.9562
  167TMC2     O 2549   1.331   4.233  12.862  0.3488 -0.5009  0.4663
  167TMC2     H 2550   1.287   4.083  13.041 -0.4278  0.2167  0.7007
  167TMC2    H1 2551   1.465   3.927  12.677 -0.9891 -1.2688 -0.6922
  167TMC2    H2 2552   1.169   3.712  12.916  0.0713  0.3036 -0.5962
  167TMC2    C7 2553   1.327   3.687  12.706 -0.3272 -0.4812 -0.5472
  167TMC2    C8 2554   1.196   3.849  13.122 -1.4471  0.3525  0.1065
  167TMC2    O1 2555   1.227   3.614  12.720 -0.5756  0.1428  0.2831
  167TMC2    O2 2556   1.197   3.733  13.160  0.2622  0.4728 -1.3925
  167TMC2    O5 2557   1.111   3.945  13.159 -0.1601  1.1013 -0.0780
  167TMC2    H5 2558   1.127   4.033  13.119 -3.3072  1.3675 -0.7082
  168MPD2     C 2559   1.466   4.385  12.655 -0.6523  0.1889  0.0927
  168MPD2    C1 2560   1.545   4.271  12.643 -0.2661  0.1756 -0.2740
  168MPD2    C2 2561   1.657   4.275  12.563 -0.6994 -0.0985 -0.1493
  168MPD2    C3 2562   1.690   4.388  12.489  0.3801 -0.3949 -0.2095
  168MPD2    C4 2563   1.614   4.501  12.506 -0.7816 -0.3055 -0.0529
  168MPD2    C5 2564   1.506   4.501  12.588  0.2062 -0.5761 -0.0227
  168MPD2     H 2565   1.710   4.181  12.548 -0.1433  0.0726  0.7390
  168MPD2    H1 2566   1.636   4.587  12.444  0.6394 -0.9722 -0.4788
  168MPD2    H2 2567   1.379   4.394  12.719 -0.1079 -0.8720  0.9779
  168MPD2    H3 2568   1.449   4.591  12.606 -1.3562 -1.6007  0.1781
  168MPD2     N 2569   1.784   4.383  12.390  0.0959  0.1127  0.3341
  168MPD2    H5 2570   1.775   4.455  12.319 -1.5804  0.3540  0.7846
  168MPD2    N1 2571   1.509   4.158  12.715 -0.1813  0.7810 -0.1886
  168MPD2    H7 2572   1.557   4.069  12.701 -1.3638  0.2731 -1.0396
  169MPD1     C 2573   3.618   3.846   8.895  0.4035  0.3050  0.3566
  169MPD1    C1 2574   3.707   3.773   8.821  0.6928  0.1597 -0.3920
  169MPD1    C2 2575   3.782   3.675   8.889 -0.2165  0.0527  0.9614
  169MPD1    C3 2576   3.768   3.663   9.028  0.4180  0.1248 -0.4677
  169MPD1    C4 2577   3.674   3.740   9.097  0.8238 -0.2873  0.1089
  169MPD1    C5 2578   3.608   3.834   9.027  0.0276  0.0926 -0.0125
  169MPD1     H 2579   3.847   3.609   8.833  1.9404 -0.5329  4.1531
  169MPD1    H1 2580   3.644   3.720   9.199  0.9119  0.7298  0.3379
  169MPD1    H2 2581   3.558   3.920   8.843 -0.2855 -1.2015 -1.0044
  169MPD1    H3 2582   3.527   3.887   9.076  1.2270  0.7979  1.1597
  169MPD1     N 2583   3.848   3.569   9.094 -0.3034  0.3934 -0.0277
  169MPD1    H5 2584   3.917   3.515   9.042 -2.0040 -0.8907 -0.9541
  169MPD1    N1 2585   3.699   3.768   8.683 -0.1223  0.0479  0.5557
  169MPD1    H6 2586   3.795   3.778   8.652 -0.7153  0.4933 -1.1298
  169MPD1    H7 2587   3.662   3.855   8.644 -0.9099 -0.1242  0.9156
  170MPD1     C 2588   2.604   1.242  12.789  0.3522  0.2671 -0.4143
  170MPD1    C1 2589   2.680   1.340  12.847  0.0085  0.9501 -0.1304
  170MPD1    C2 2590   2.639   1.378  12.974  0.1134 -0.7805  0.8068
  170MPD1    C3 2591   2.546   1.301  13.049 -0.2833  0.1914 -0.2488
  170MPD1    C4 2592   2.483   1.201  12.986  0.0585  0.3664  0.4397
  170MPD1    C5 2593   2.512   1.185  12.858 -0.1138  0.3467 -0.0586
  170MPD1     H 2594   2.682   1.468  13.015 -0.9251  1.2479 -2.5254
  170MPD1    H1 2595   2.410   1.140  13.038  1.1660 -1.1277  0.2404
  170MPD1    H2 2596   2.620   1.224  12.684  2.1796  0.3774 -0.1648
  170MPD1    H3 2597   2.453   1.107  12.811  0.0442  0.2880 -0.1582
  170MPD1     N 2598   2.520   1.338  13.182 -0.3514  1.3065 -0.4947
  170MPD1    H5 2599   2.575   1.416  13.217  0.1002  0.3026  1.0464
  170MPD1    N1 2600   2.780   1.416  12.782  0.0466  0.5913 -0.2516
  170MPD1    H6 2601   2.836   1.367  12.713 -1.1061  2.1516 -2.2904
  170MPD1    H7 2602   2.840   1.463  12.849  0.7678  0.6028 -0.9022
  171MPD1     C 2603   1.502   2.732  15.534 -0.2195 -0.2021 -0.0698
  171MPD1    C1 2604   1.494   2.617  15.460  0.0845 -0.9252  0.1926
  171MPD1    C2 2605   1.490   2.493  15.527  1.0534  1.1533 -0.3228
  171MPD1    C3 2606   1.505   2.484  15.661  0.4735  0.3772 -0.3989
  171MPD1    C4 2607   1.531   2.603  15.734 -0.2224 -0.5463 -0.1878
  171MPD1    C5 2608   1.512   2.724  15.667 -0.6043  0.1387 -0.3250
  171MPD1     H 2609   1.476   2.404  15.466  1.9901 -0.4915  1.8350
  171MPD1    H1 2610   1.546   2.599  15.841 -2.0398  3.6542  0.2025
  171MPD1    H2 2611   1.492   2.827  15.483 -1.7864 -0.2958  0.0677
  171MPD1    H3 2612   1.534   2.818  15.716  1.3013 -1.3235  1.6506
  171MPD1     N 2613   1.506   2.351  15.727  0.1755  0.3721  0.0413
  171MPD1    H5 2614   1.499   2.356  15.828 -0.2944  2.6285 -0.0993
  171MPD1    N1 2615   1.447   2.625  15.329  0.0736 -0.7660  0.2533
  171MPD1    H6 2616   1.468   2.539  15.279  1.9644 -1.1466  1.7062
  171MPD1    H7 2617   1.472   2.704  15.271  0.7473 -1.6797 -0.7051
  172MPD1     C 2618   0.420   1.449  17.544  0.0018 -0.2634  0.4894
  172MPD1    C1 2619   0.486   1.421  17.662 -0.0325  0.3113  0.6312
  172MPD1    C2 2620   0.423   1.434   0.085  0.3812 -0.6332  0.5997
  172MPD1    C3 2621   0.290   1.479   0.093 -0.1076  0.9407 -0.0071
  172MPD1    C4 2622   0.219   1.484  17.676  0.2191  0.0390 -0.4472
  172MPD1    C5 2623   0.286   1.475  17.557  0.3638 -0.4090 -0.1592
  172MPD1     H 2624   0.477   1.430   0.179 -0.3515  0.7595  1.0803
  172MPD1    H1 2625   0.115   1.514  17.671  1.0338  2.5839 -1.6193
  172MPD1    H2 2626   0.466   1.442  17.447  1.6399  1.7275  1.1126
  172MPD1    H3 2627   0.236   1.489  17.462  0.8271 -0.5837 -0.4306
  172MPD1     N 2628   0.244   1.517   0.220 -0.1599 -0.1072  0.1972
  172MPD1    H5 2629   0.312   1.529   0.295 -1.8293  2.1476  1.3564
  172MPD1    N1 2630   0.627   1.388  17.662  0.6596  0.5267  0.5675
  172MPD1    H6 2631   0.674   1.395  17.572 -0.8583 -0.9161 -0.3251
  172MPD1    H7 2632   0.683   1.447   0.025 -0.6641  1.5117  0.8372
  173MPD1     C 2633   1.913   1.908  14.469 -0.7132 -0.0925  0.4290
  173MPD1    C1 2634   1.818   1.816  14.427 -0.4737 -0.0548  0.6691
  173MPD1    C2 2635   1.703   1.803  14.501  0.1410 -0.0962  0.4030
  173MPD1    C3 2636   1.678   1.889  14.608  0.5905 -0.3272  0.3589
  173MPD1    C4 2637   1.771   1.980  14.647  0.5935 -0.6202 -0.0757
  173MPD1    C5 2638   1.892   1.982  14.584  0.6098  0.1761 -0.1666
  173MPD1     H 2639   1.629   1.725  14.485  0.6936 -0.7067  0.8327
  173MPD1    H1 2640   1.752   2.043  14.734  1.2822 -1.1923  0.4932
  173MPD1    H2 2641   2.009   1.919  14.421 -3.0010 -2.4074 -4.6985
  173MPD1    H3 2642   1.971   2.041  14.628  0.8571 -2.7272  3.1831
  173MPD1     N 2643   1.545   1.883  14.666  0.6274 -0.1288 -0.3039
  173MPD1    H5 2644   1.482   1.832  14.606 -1.6403  1.5954  0.6373
  173MPD1    N1 2645   1.851   1.727  14.321 -0.3754  0.0555  0.1953
  173MPD1    H6 2646   1.777   1.670  14.281 -1.0091 -0.3518  1.9401
  173MPD1    H7 2647   1.910   1.771  14.251 -1.1733 -0.1764 -0.6217
  174MPD1     C 2648   0.563   2.105  14.702  0.3194  0.1222  0.5922
  174MPD1    C1 2649   0.652   2.107  14.600  0.7299 -0.8934  0.0094
  174MPD1    C2 2650   0.771   2.037  14.614 -0.1777 -0.4051  0.6624
  174MPD1    C3 2651   0.810   1.987  14.741 -0.6802  0.3988  0.3232
  174MPD1    C4 2652   0.723   2.015  14.848  0.1351  0.2284 -0.2284
  174MPD1    C5 2653   0.603   2.069  14.827  0.0199  0.1698  0.1371
  174MPD1     H 2654   0.830   2.024  14.523 -0.6742  0.6649  0.1992
  174MPD1    H1 2655   0.749   1.973  14.944 -1.7858 -3.4700 -1.3333
  174MPD1    H2 2656   0.458   2.128  14.692  0.7577  1.8496 -0.0658
  174MPD1    H3 2657   0.526   2.065  14.903  0.0957  3.1135  0.3745
  174MPD1     N 2658   0.922   1.913  14.772  0.1096 -0.2914 -0.4638
  174MPD1    H5 2659   0.930   1.883  14.868  2.1597 -0.9877 -0.8502
  174MPD1    N1 2660   0.610   2.158  14.475 -0.1269 -0.1480 -0.2857
  174MPD1    H6 2661   0.554   2.241  14.492 -1.5213 -1.0479 -0.4162
  174MPD1    H7 2662   0.691   2.183  14.420  1.0880 -0.0881  1.5353
  175MPD1     C 2663   0.193   2.627  15.592  0.5420  0.3262 -0.7755
  175MPD1    C1 2664   0.281   2.563  15.676  0.8043 -0.4128 -0.4039
  175MPD1    C2 2665   0.236   2.467  15.756  0.3821 -0.2362  0.3492
  175MPD1    C3 2666   0.109   2.426  15.755  0.1328 -0.0931 -0.4131
  175MPD1    C4 2667   0.024   2.486  15.668 -0.8585 -0.0981 -1.1762
  175MPD1    C5 2668   0.059   2.593  15.588  0.6810  0.9365 -0.3729
  175MPD1     H 2669   0.305   2.416  15.822 -0.0912 -1.3525 -0.0294
  175MPD1    H1 2670   4.648   2.446  15.664 -1.4905  1.3256  0.6248
  175MPD1    H2 2671   0.223   2.711  15.530  0.5261  1.8034  1.2029
  175MPD1    H3 2672   4.710   2.640  15.522  1.6870  1.2880 -1.2466
  175MPD1     N 2673   0.061   2.322  15.835 -0.2211 -0.0318 -0.2865
  175MPD1    H5 2674   4.687   2.297  15.827  0.1327 -1.6177  0.2800
  175MPD1    N1 2675   0.412   2.610  15.705 -0.4912  0.0068  0.3903
  175MPD1    H6 2676   0.453   2.663  15.628 -2.2573  0.4938 -0.2148
  175MPD1    H7 2677   0.481   2.539  15.728 -0.8900  0.2290  2.2815
  176MPD1     C 2678   1.599   3.944   0.039 -0.0200  0.1087 -0.3905
  176MPD1    C1 2679   1.601   3.850  17.633 -0.2834 -0.3828  0.1930
  176MPD1    C2 2680   1.583   3.913  17.507  0.6830 -0.0522  0.6371
  176MPD1    C3 2681   1.579   4.051  17.485 -0.7493  0.6023 -0.1927
  176MPD1    C4 2682   1.590   4.133  17.594  0.3463 -0.2766 -0.9424
  176MPD1    C5 2683   1.601   4.079   0.018  0.2673 -0.1277 -0.8966
  176MPD1     H 2684   1.575   3.852  17.418  0.2598 -0.6385  1.0778
  176MPD1    H1 2685   1.588   4.241  17.594  1.8498 -0.2507 -1.3668
  176MPD1    H2 2686   1.604   3.914   0.143  0.1182 -0.1035 -0.4568
  176MPD1    H3 2687   1.592   4.145   0.104 -1.9778 -1.4255 -0.1550
  176MPD1     N 2688   1.562   4.104  17.352  0.3534  0.0925 -0.0125
  176MPD1    H5 2689   1.545   4.035  17.279 -0.7041 -0.7456  1.0225
  176MPD1    N1 2690   1.585   3.712  17.644  0.0405  0.1066 -0.6064
  176MPD1    H6 2691   1.612   3.659  17.561 -1.2724 -1.5466  0.0186
  176MPD1    H7 2692   1.635   3.675   0.027  0.8587  1.4092 -0.5111
  177MPD1     C 2693   0.442   0.956   8.498 -1.0209 -0.3344  0.2964
  177MPD1    C1 2694   0.345   0.894   8.428 -0.8868 -0.3585  0.2006
  177MPD1    C2 2695   0.290   0.783   8.483  0.7828 -0.3169  0.0017
  177MPD1    C3 2696   0.311   0.749   8.616  0.2996  0.1389  0.3124
  177MPD1    C4 2697   0.405   0.815   8.688  0.2687  0.5637 -0.0811
  177MPD1    C5 2698   0.474   0.916   8.626  0.9364 -0.1324  0.6774
  177MPD1     H 2699   0.228   0.714   8.426  1.8695 -0.4448 -1.0312
  177MPD1    H1 2700   0.435   0.804   8.791 -0.4696  1.7840  0.2640
  177MPD1    H2 2701   0.504   1.031   8.451 -2.4782  2.5048  2.9354
  177MPD1    H3 2702   0.542   0.974   8.686 -0.3113  0.8624  1.1209
  177MPD1     N 2703   0.240   0.636   8.674 -0.1237 -0.5004 -0.2732
  177MPD1    H5 2704   0.175   0.594   8.609 -1.6163  1.8566 -0.2765
  177MPD1    N1 2705   0.319   0.924   8.295 -1.1894 -0.0284  1.0830
  177MPD1    H6 2706   0.220   0.914   8.272 -1.0423  1.4910 -0.2024
  177MPD1    H7 2707   0.353   1.016   8.270  1.2466 -0.8537  1.4172
  178MPD1     C 2708   2.153   0.119   0.701 -0.1802 -0.1840 -0.2565
  178MPD1    C1 2709   2.108   0.022   0.613  0.4121  0.3570 -0.3328
  178MPD1    C2 2710   2.115   0.041   0.476  0.4002 -0.1913 -0.1002
  178MPD1    C3 2711   2.174   0.164   0.428 -0.4321  0.3159  0.0686
  178MPD1    C4 2712   2.212   0.261   0.517 -0.0771  0.6415 -0.0956
  178MPD1    C5 2713   2.200   0.238   0.650  0.1720 -0.6477  0.3740
  178MPD1     H 2714   2.068   4.689   0.415  1.1180  1.6291 -2.9201
  178MPD1    H1 2715   2.254   0.355   0.481  1.5744  0.7063  2.0302
  178MPD1    H2 2716   2.167   0.099   0.807 -3.4258 -0.9855  0.0015
  178MPD1    H3 2717   2.238   0.306   0.725  0.4834  0.1493 -0.5008
  178MPD1     N 2718   2.202   0.193   0.294  0.4566  0.6974  0.3472
  178MPD1    H5 2719   2.244   0.280   0.265  1.7683 -0.3492 -0.9130
  178MPD1    N1 2720   2.050   4.634   0.672 -0.3160  0.1997 -0.4910
  178MPD1    H6 2721   2.004   4.573   0.604 -2.0738  3.6593 -2.3673
  178MPD1    H7 2722   1.972   4.659   0.732  0.0537 -0.2837  0.1987
  179MPD1     C 2723   2.503   2.660  15.303  0.0697 -0.4111  0.1682
  179MPD1    C1 2724   2.376   2.708  15.284 -0.3537 -0.3710 -0.3142
  179MPD1    C2 2725   2.304   2.757  15.396 -0.5678  0.3223  0.3618
  179MPD1    C3 2726   2.341   2.723  15.526  0.5950 -0.4349 -0.6811
  179MPD1    C4 2727   2.464   2.657  15.538  0.3477  0.5706 -0.0060
  179MPD1    C5 2728   2.540   2.628  15.428  0.1091  0.0161 -0.3993
  179MPD1     H 2729   2.213   2.810  15.372 -0.7355  0.1365  0.5885
  179MPD1    H1 2730   2.506   2.626  15.633  0.2632 -1.5530 -0.6575
  179MPD1    H2 2731   2.579   2.644  15.227  1.2396 -0.2850  1.3071
  179MPD1    H3 2732   2.639   2.585  15.435  0.4471  0.6179 -1.3563
  179MPD1     N 2733   2.283   2.773  15.642 -0.6139 -0.2648 -0.3141
  179MPD1    H5 2734   2.313   2.739  15.733  1.5267  2.9126  0.1601
  179MPD1    N1 2735   2.337   2.754  15.159 -0.1125  0.4753  0.6818
  179MPD1    H6 2736   2.237   2.764  15.140  0.0205 -0.9538 -0.7883
  179MPD1    H7 2737   2.374   2.690  15.089 -2.6691  0.2727 -0.4939
  180MPD1     C 2738   1.993   4.715  15.401 -0.0103 -0.0517  0.4578
  180MPD1    C1 2739   2.052   4.678  15.277  0.9571  0.2441  0.2539
  180MPD1    C2 2740   1.988   0.000  15.169  0.4469 -0.5095 -0.5542
  180MPD1    C3 2741   1.864   0.060  15.173  0.5917  0.3416 -0.1493
  180MPD1    C4 2742   1.802   0.072  15.290  0.3417  0.5252 -0.0425
  180MPD1    C5 2743   1.868   0.036  15.407 -0.3045 -0.7620  0.3546
  180MPD1     H 2744   2.035   4.704  15.073 -1.8906  1.9063 -2.2015
  180MPD1    H1 2745   1.697   0.098  15.294 -0.0377 -0.7575 -1.2692
  180MPD1    H2 2746   2.042   4.686  15.494 -0.3233 -1.6134  0.1428
  180MPD1    H3 2747   1.812   0.043  15.500  0.0841  0.2640  0.5154
  180MPD1     N 2748   1.820   0.123  15.049 -0.1893  0.1749  0.3245
  180MPD1    H5 2749   1.873   0.101  14.966 -0.1056  0.8121  0.2069
  180MPD1    N1 2750   2.188   4.623  15.270 -0.2589  0.5025 -0.8967
  180MPD1    H6 2751   2.209   4.562  15.348 -1.3775 -1.0890 -1.8345
  180MPD1    H7 2752   2.203   4.576  15.181 -0.7633 -0.4260 -0.4876
  181MPD1     C 2753   3.364   2.430  10.348 -0.8226  0.0650 -1.2348
  181MPD1    C1 2754   3.397   2.565  10.329 -0.1760 -0.5852 -0.3235
  181MPD1    C2 2755   3.531   2.594  10.297 -0.0249  0.0550 -0.4234
  181MPD1    C3 2756   3.614   2.497  10.253  0.2232 -0.6700  0.3177
  181MPD1    C4 2757   3.574   2.367  10.254  0.5698  0.0544  0.6597
  181MPD1    C5 2758   3.446   2.338  10.293 -1.0932  0.1399  0.4693
  181MPD1     H 2759   3.554   2.699  10.294 -0.7962  0.3110  2.0873
  181MPD1    H1 2760   3.630   2.284  10.215 -2.6546 -1.7675 -0.1094
  181MPD1    H2 2761   3.264   2.404  10.383 -0.3198  1.8940  1.6437
  181MPD1    H3 2762   3.409   2.236  10.296 -3.6117  0.9668 -2.8703
  181MPD1     N 2763   3.742   2.515  10.198 -0.4138  0.4936  0.2231
  181MPD1    H5 2764   3.805   2.437  10.196 -2.7159 -1.3089 -2.2995
  181MPD1    N1 2765   3.306   2.667  10.357 -0.5679 -0.2980  0.2837
  181MPD1    H6 2766   3.339   2.757  10.322  1.7823 -0.8155  1.1781
  181MPD1    H7 2767   3.206   2.656  10.342 -0.4674 -1.1010  0.1872
  182MPD1     C 2768   4.350   0.425   1.458 -0.6146 -0.1510  0.0201
  182MPD1    C1 2769   4.406   0.549   1.453 -0.5940  0.0676  0.3159
  182MPD1    C2 2770   4.456   0.590   1.331 -0.0640 -0.5687  0.3616
  182MPD1    C3 2771   4.454   0.508   1.224 -0.1367  0.4382  0.6175
  182MPD1    C4 2772   4.403   0.381   1.231  0.0357 -0.4934 -0.7864
  182MPD1    C5 2773   4.354   0.335   1.348 -0.5749  0.1463 -0.3694
  182MPD1     H 2774   4.509   0.684   1.325  1.7809 -1.6116  0.0526
  182MPD1    H1 2775   4.403   0.325   1.138 -2.0572 -1.4616 -0.1816
  182MPD1    H2 2776   4.300   0.390   1.547  0.2531  2.0146  1.3509
  182MPD1    H3 2777   4.312   0.235   1.353 -0.0444 -0.0361  0.4204
  182MPD1     N 2778   4.473   0.565   1.084 -0.9415  0.2968  0.1726
  182MPD1    H5 2779   4.466   0.502   1.005  1.2015 -0.1133  0.3179
  182MPD1    N1 2780   4.418   0.636   1.566  0.0352  0.0653  0.1177
  182MPD1    H6 2781   4.432   0.734   1.543 -1.1404  0.6100  1.6933
  182MPD1    H7 2782   4.343   0.624   1.634 -0.0557  0.2924  0.0598
  183MPD1     C 2783   0.292   1.043   8.941 -1.0344 -0.5007  0.1115
  183MPD1    C1 2784   0.218   1.156   8.925 -0.7144  0.2206  0.6672
  183MPD1    C2 2785   0.249   1.255   9.015  0.4863  0.0341 -0.5701
  183MPD1    C3 2786   0.336   1.241   9.123 -0.9463  0.0048 -0.7648
  183MPD1    C4 2787   0.394   1.114   9.138 -0.8693  0.8176  0.2463
  183MPD1    C5 2788   0.375   1.012   9.052 -0.4837 -0.9754  0.2960
  183MPD1     H 2789   0.213   1.357   9.007 -0.6684 -0.4267 -1.2302
  183MPD1    H1 2790   0.468   1.104   9.217 -0.2537 -0.4548 -0.4984
  183MPD1    H2 2791   0.282   0.957   8.876 -0.7074  0.4976 -1.2519
  183MPD1    H3 2792   0.429   0.918   9.053  0.6567 -0.3190  0.2715
  183MPD1     N 2793   0.350   1.351   9.215  0.4824 -0.0682 -0.6941
  183MPD1    H5 2794   0.308   1.438   9.186  0.2494  0.9835  2.7935
  183MPD1    N1 2795   0.150   1.174   8.807  0.1549  0.0017  0.1689
  183MPD1    H6 2796   0.091   1.257   8.808  0.5334  0.2702  0.4910
  183MPD1    H7 2797   0.098   1.094   8.772 -1.4831  1.0163  0.2994
  184MPD1     C 2798   4.103   4.119   9.603  0.9967  0.0002 -0.2228
  184MPD1    C1 2799   4.221   4.171   9.661 -0.2646 -0.3396  0.6272
  184MPD1    C2 2800   4.301   4.261   9.593 -0.3501  0.4708 -0.0795
  184MPD1    C3 2801   4.263   4.286   9.459 -0.7259  0.0156 -0.5870
  184MPD1    C4 2802   4.154   4.227   9.399 -0.1289 -0.3345  0.9704
  184MPD1    C5 2803   4.066   4.150   9.474 -0.0626  0.1196 -0.0100
  184MPD1     H 2804   4.393   4.299   9.636  0.5661 -0.4972 -1.1917
  184MPD1    H1 2805   4.126   4.247   9.296  0.1710 -0.9894  0.7629
  184MPD1    H2 2806   4.034   4.055   9.658  0.1630  1.0385 -0.0635
  184MPD1    H3 2807   3.976   4.105   9.433 -0.5412  1.6761 -0.6351
  184MPD1     N 2808   4.346   4.359   9.368  0.0869 -0.1462 -0.3460
  184MPD1    H5 2809   4.314   4.362   9.271 -0.9896  0.6810  0.0325
  184MPD1    N1 2810   4.241   4.128   9.793 -0.3491 -0.5307 -0.0491
  184MPD1    H6 2811   4.330   4.144   9.839  1.4822 -2.4088 -2.9246
  184MPD1    H7 2812   4.200   4.041   9.828 -1.5660  0.3696  0.7788
  185MPD1     C 2813   4.528   4.484   8.408 -0.9146 -0.3870 -0.3137
  185MPD1    C1 2814   4.412   4.448   8.481 -0.5924 -0.3420  0.3069
  185MPD1    C2 2815   4.419   4.465   8.625  0.2314 -0.4322  0.1333
  185MPD1    C3 2816   4.536   4.505   8.686  0.4410  0.4823 -0.2364
  185MPD1    C4 2817   4.654   4.527   8.610  0.3913  1.3526 -0.1795
  185MPD1    C5 2818   4.642   4.514   8.471  0.8322  0.0540 -0.7827
  185MPD1     H 2819   4.328   4.455   8.683 -0.4801  2.1082 -0.5459
  185MPD1    H1 2820   0.020   4.567   8.654  0.8388  2.2641 -1.9450
  185MPD1    H2 2821   4.540   4.494   8.300  1.0975  1.6456  0.1142
  185MPD1    H3 2822   0.005   4.542   8.413  0.7432  0.2483 -0.8224
  185MPD1     N 2823   4.548   4.518   8.824  0.3929  0.1689 -0.4644
  185MPD1    H5 2824   4.640   4.552   8.850 -0.1148  1.4174 -0.2888
  185MPD1    N1 2825   4.281   4.431   8.418 -0.6044  0.4220  0.3044
  185MPD1    H6 2826   4.292   4.382   8.330 -1.1337  0.6175  0.1264
  185MPD1    H7 2827   4.213   4.391   8.483  0.1864 -0.9908  0.2599
  186MPD1     C 2828   2.129   3.260  15.545 -0.5538  0.1029 -0.1008
  186MPD1    C1 2829   2.009   3.299  15.593 -0.2372 -0.2942 -0.3524
  186MPD1    C2 2830   2.005   3.366  15.711  0.1998  0.2900  0.3071
  186MPD1    C3 2831   2.109   3.423  15.765 -0.2817 -0.1051 -0.5072
  186MPD1    C4 2832   2.230   3.388  15.712  0.6749  0.4913 -0.2480
  186MPD1    C5 2833   2.244   3.305  15.605 -0.4825 -0.6516  0.5350
  186MPD1     H 2834   1.910   3.378  15.760 -0.1212  1.3656 -0.5946
  186MPD1    H1 2835   2.322   3.421  15.758 -0.6769  2.0110  1.3903
  186MPD1    H2 2836   2.141   3.196  15.458 -0.7846 -0.5900  0.3747
  186MPD1    H3 2837   2.345   3.282  15.572 -0.7079 -0.5210 -0.2527
  186MPD1     N 2838   2.109   3.496  15.882 -0.5774  0.2362 -0.1298
  186MPD1    H5 2839   2.201   3.526  15.914  0.4371 -2.0467 -0.9420
  186MPD1    N1 2840   1.897   3.237  15.548 -0.1458  0.1297  0.2879
  186MPD1    H6 2841   1.808   3.283  15.568  1.7330  3.8043  0.1299
  186MPD1    H7 2842   1.893   3.203  15.452 -1.1128 -2.3727  1.2149
  187MPD1     C 2843   1.367   0.278   0.285  0.7551 -0.7393 -0.4646
  187MPD1    C1 2844   1.381   0.413   0.298 -0.3785  0.0441  0.7411
  187MPD1    C2 2845   1.420   0.488   0.190 -1.1139 -0.2964 -0.0870
  187MPD1    C3 2846   1.457   0.421   0.078 -0.4563 -0.8780 -1.0710
  187MPD1    C4 2847   1.439   0.289   0.068  0.5114 -0.6034  0.5110
  187MPD1    C5 2848   1.399   0.216   0.173 -0.3940  0.3178 -0.8745
  187MPD1     H 2849   1.433   0.595   0.197 -0.1327 -0.3754 -0.6786
  187MPD1    H1 2850   1.463   0.238  17.674 -1.5587 -0.2222 -0.2188
  187MPD1    H2 2851   1.337   0.209   0.363  0.7693  0.0098  0.2058
  187MPD1    H3 2852   1.381   0.110   0.160  1.3149  0.0512 -0.9773
  187MPD1     N 2853   1.509   0.491  17.657  0.3894  0.3700 -0.2834
  187MPD1    H5 2854   1.508   0.433  17.574  0.8840 -0.2180  0.1220
  187MPD1    N1 2855   1.338   0.484   0.410  0.1448  0.5965  0.0528
  187MPD1    H6 2856   1.362   0.438   0.497  1.6534 -0.0031 -0.6814
  187MPD1    H7 2857   1.383   0.574   0.417  1.0729  0.2199 -1.0308
  188MPD1     C 2858   0.914   0.567  10.559 -0.5296  0.1268 -0.6387
  188MPD1    C1 2859   0.833   0.465  10.507 -0.0710  0.5382  0.1093
  188MPD1    C2 2860   0.857   0.428  10.371 -0.4913  0.4423  0.2193
  188MPD1    C3 2861   0.944   0.499  10.291  0.2483  0.1628  0.8388
  188MPD1    C4 2862   1.014   0.602  10.347 -1.3280  0.6756  0.0529
  188MPD1    C5 2863   1.000   0.636  10.481 -0.6357  0.1307  0.0191
  188MPD1     H 2864   0.796   0.348  10.333 -1.5158  1.4377 -0.2241
  188MPD1    H1 2865   1.104   0.635  10.296 -1.3509  1.6619  0.6524
  188MPD1    H2 2866   0.903   0.602  10.661  2.6263  0.6132 -0.4874
  188MPD1    H3 2867   1.052   0.720  10.526 -0.8891 -0.9323  2.2864
  188MPD1     N 2868   0.973   0.471  10.158  0.4654 -0.1975  0.1175
  188MPD1    H5 2869   1.041   0.532  10.115  3.0167 -3.3370 -0.3308
  188MPD1    N1 2870   0.751   0.388  10.590 -0.7183 -0.3378 -0.0141
  188MPD1    H6 2871   0.680   0.355  10.525 -0.1560 -1.1531 -0.2267
  188MPD1    H7 2872   0.703   0.448  10.656 -0.3462  0.2981 -0.3162
  189MPD1     C 2873   3.281   0.777   0.442  0.8407 -0.1548 -0.1363
  189MPD1    C1 2874   3.170   0.701   0.432  0.0689 -0.1630  0.1523
  189MPD1    C2 2875   3.054   0.761   0.396 -0.0589 -0.5927  0.8377
  189MPD1    C3 2876   3.044   0.897   0.385  0.1163  0.5175  0.0953
  189MPD1    C4 2877   3.154   0.969   0.410 -0.2436  0.2988  0.1774
  189MPD1    C5 2878   3.274   0.914   0.429  0.3943 -0.3992  0.5127
  189MPD1     H 2879   2.967   0.697   0.387 -1.5084  1.2467  1.7066
  189MPD1    H1 2880   3.153   1.078   0.408  0.0431  0.2679 -1.7127
  189MPD1    H2 2881   3.380   0.739   0.460  0.6601 -0.2977  0.5673
  189MPD1    H3 2882   3.366   0.971   0.433  0.2354 -0.2671  2.3906
  189MPD1     N 2883   2.919   0.952   0.336 -0.2964  0.2245  0.0941
  189MPD1    H5 2884   2.848   0.885   0.307  1.1060 -0.1735 -2.3897
  189MPD1    N1 2885   3.178   0.560   0.436 -0.2780 -0.2035  0.9849
  189MPD1    H6 2886   3.254   0.541   0.500  1.1854 -2.3839 -1.3963
  189MPD1    H7 2887   3.090   0.526   0.475  0.2729  0.5920  2.8935
  190MPD1     C 2888   1.675   4.487  14.819  0.0001 -0.0062 -0.1334
  190MPD1    C1 2889   1.785   4.401  14.812 -0.2047 -0.9441 -0.3016
  190MPD1    C2 2890   1.849   4.370  14.932  0.9490 -0.0933 -0.3142
  190MPD1    C3 2891   1.798   4.408  15.057  0.6487 -0.1694 -0.4292
  190MPD1    C4 2892   1.687   4.488  15.058  0.8065 -0.3255  0.1822
  190MPD1    C5 2893   1.625   4.519  14.940 -0.7517  0.3467 -0.0454
  190MPD1     H 2894   1.945   4.320  14.929  0.6952 -0.4859 -1.8181
  190MPD1    H1 2895   1.643   4.528  15.149 -1.2135 -0.6362 -0.6817
  190MPD1    H2 2896   1.616   4.511  14.731  2.3498  3.1924 -0.8664
  190MPD1    H3 2897   1.528   4.568  14.948  0.4104  2.6699 -0.4199
  190MPD1     N 2898   1.874   4.379  15.174  0.2622 -0.2146 -0.4357
  190MPD1    H5 2899   1.948   4.314  15.149  0.4916  0.7551 -2.2831
  190MPD1    N1 2900   1.849   4.373  14.690  0.2220 -0.0958  0.0994
  190MPD1    H6 2901   1.904   4.288  14.691 -0.5898 -0.6202  0.5925
  190MPD1    H7 2902   1.788   4.358  14.610  0.6187  0.8458 -0.3862
  191MPD1     C 2903   0.900   1.844  12.749 -0.3207 -0.5813  0.4401
  191MPD1    C1 2904   0.878   1.978  12.735 -0.0300 -0.0235  0.8132
  191MPD1    C2 2905   0.965   2.055  12.666 -0.5796  0.2562 -0.5399
  191MPD1    C3 2906   1.080   1.992  12.621 -0.8378 -1.0880 -0.1450
  191MPD1    C4 2907   1.108   1.856  12.653 -0.0826 -0.1313 -0.1519
  191MPD1    C5 2908   1.015   1.782  12.721 -1.0813 -0.0573  0.5237
  191MPD1     H 2909   0.934   2.158  12.656  0.3474  0.4076 -1.8027
  191MPD1    H1 2910   1.198   1.805  12.620 -1.1454 -1.0048 -1.6970
  191MPD1    H2 2911   0.829   1.773  12.790  2.2164 -3.9517 -0.9701
  191MPD1    H3 2912   1.023   1.675  12.730  1.1218  0.1406  0.9395
  191MPD1     N 2913   1.163   2.072  12.545 -0.3494 -0.3055 -0.3658
  191MPD1    H5 2914   1.129   2.165  12.525  1.2733  0.0218 -1.5544
  191MPD1    N1 2915   0.753   2.023  12.775 -0.7571  0.0239 -0.5102
  191MPD1    H6 2916   0.773   2.122  12.788  2.5792 -0.5436 -1.1035
  191MPD1    H7 2917   0.724   1.983  12.865 -0.1808 -0.0696 -0.3643
  192MPD1     C 2918   1.003   2.828  12.287 -0.3109  0.5158 -0.0072
  192MPD1    C1 2919   1.030   2.764  12.168  0.3910 -0.2798 -0.0787
  192MPD1    C2 2920   1.109   2.652  12.164 -0.1823 -0.6606 -0.0094
  192MPD1    C3 2921   1.132   2.590  12.285  0.3051 -0.4026  0.0871
  192MPD1    C4 2922   1.100   2.651  12.401  0.1628  0.0382 -0.3897
  192MPD1    C5 2923   1.040   2.767  12.403  0.9598 -0.8274 -0.0013
  192MPD1     H 2924   1.140   2.612  12.068  0.6314 -2.1531  0.8803
  192MPD1    H1 2925   1.142   2.612  12.494  0.4017 -1.8336 -1.2707
  192MPD1    H2 2926   0.955   2.925  12.293 -1.3760  0.0219 -0.4407
  192MPD1    H3 2927   1.018   2.813  12.498  0.1646 -0.9056 -0.1463
  192MPD1     N 2928   1.194   2.463  12.289  0.2156  0.3094  0.0901
  192MPD1    H5 2929   1.191   2.428  12.384  1.7804  1.6144  0.6269
  192MPD1    N1 2930   0.980   2.818  12.050 -0.7003  0.2716  0.4334
  192MPD1    H6 2931   0.911   2.890  12.066 -0.0960  1.3759 -1.8949
  192MPD1    H7 2932   0.962   2.748  11.977 -0.8801  1.4995 -0.6991
  193MPD1     C 2933   1.105   1.827  15.941  0.4135 -0.7771  0.1252
  193MPD1    C1 2934   1.063   1.944  16.011 -0.6820  0.1140  0.3561
  193MPD1    C2 2935   1.125   1.957  16.137  0.6320  0.9578 -0.3188
  193MPD1    C3 2936   1.199   1.854  16.206  0.0843 -0.2842 -0.2194
  193MPD1    C4 2937   1.222   1.734  16.139  0.2280  0.6323 -0.3854
  193MPD1    C5 2938   1.182   1.731  16.004 -0.1581 -0.0430  0.0567
  193MPD1     H 2939   1.110   2.056  16.180  1.7577 -0.3080  2.9622
  193MPD1    H1 2940   1.289   1.658  16.176 -3.7296 -2.9009 -0.4387
  193MPD1    H2 2941   1.082   1.813  15.836 -0.2491 -0.6036  0.2469
  193MPD1    H3 2942   1.211   1.642  15.950 -0.6606  0.2465 -0.6990
  193MPD1     N 2943   1.255   1.873  16.339 -0.2160  0.0423 -0.0418
  193MPD1    H5 2944   1.323   1.802  16.364 -0.2830 -0.3834 -1.0628
  193MPD1    N1 2945   1.001   2.048  15.937 -0.1450  0.1197  0.4132
  193MPD1    H6 2946   0.942   2.023  15.858  0.9090  0.1805 -0.4010
  193MPD1    H7 2947   0.952   2.106  16.004 -0.6154  0.0241  0.1532
  194MPD1     C 2948   4.292   4.547  16.674 -0.5994 -0.6077 -0.4390
  194MPD1    C1 2949   4.200   4.474  16.610 -0.2198 -0.6518 -0.3250
  194MPD1    C2 2950   4.207   4.336  16.609 -0.7422  0.7408 -0.6338
  194MPD1    C3 2951   4.310   4.267  16.677  0.2785 -0.6712  0.8714
  194MPD1    C4 2952   4.402   4.348  16.748  0.4862 -0.2077 -0.2766
  194MPD1    C5 2953   4.393   4.484  16.740 -0.5989 -0.0371  0.3445
  194MPD1     H 2954   4.132   4.276  16.560 -0.5155 -1.5253  1.8000
  194MPD1    H1 2955   4.470   4.305  16.820  1.6041  2.9691  0.5658
  194MPD1    H2 2956   4.296   4.656  16.673 -0.8006 -0.6043 -0.8958
  194MPD1    H3 2957   4.465   4.536  16.801 -0.7269  2.9211 -2.0195
  194MPD1     N 2958   4.326   4.128  16.685  0.7471 -0.0075  0.0922
  194MPD1    H5 2959   4.410   4.100  16.735  0.4177  1.4946  1.5069
  194MPD1    N1 2960   4.094   4.544  16.544 -0.4610  0.0253 -0.0924
  194MPD1    H6 2961   4.126   4.631  16.502 -1.7939  0.1468 -0.8879
  194MPD1    H7 2962   4.051   4.487  16.470  2.2255 -0.3716 -1.3640
  195MPD1     C 2963   1.386   1.020  17.444  0.0335 -0.0989 -0.1929
  195MPD1    C1 2964   1.343   0.974  17.564  0.0908  0.2344  0.5310
  195MPD1    C2 2965   1.277   0.852  17.580 -0.2285 -0.1588  0.3169
  195MPD1    C3 2966   1.251   0.773  17.471 -0.0751  0.5489 -0.4592
  195MPD1    C4 2967   1.277   0.829  17.350 -0.1375 -0.3485 -0.9283
  195MPD1    C5 2968   1.347   0.945  17.341 -0.2276  1.3161  0.3276
  195MPD1     H 2969   1.257   0.814  17.679  2.2425 -2.8913 -0.2123
  195MPD1    H1 2970   1.254   0.780  17.256  1.9930  1.4938 -2.4381
  195MPD1    H2 2971   1.445   1.110  17.437 -1.1333  0.6412 -0.5760
  195MPD1    H3 2972   1.368   0.965  17.236 -0.7233 -2.2869 -0.4708
  195MPD1     N 2973   1.193   0.644  17.477  0.2475 -0.0808  0.0155
  195MPD1    H5 2974   1.161   0.605  17.390 -2.0711 -0.1656  0.9070
  195MPD1    N1 2975   1.394   1.042  17.672  0.9980 -0.2164 -0.1244
  195MPD1    H6 2976   1.333   1.048   0.055  0.5103 -0.3954 -0.4794
  195MPD1    H7 2977   1.415   1.135  17.635 -1.5943 -0.7547 -2.9470
  196MPD1     C 2978   1.234   4.216   1.199  0.3563  1.0240  0.2680
  196MPD1    C1 2979   1.190   4.240   1.067  0.6043 -0.0559 -0.1995
  196MPD1    C2 2980   1.077   4.324   1.057 -0.0907  1.2187  0.0879
  196MPD1    C3 2981   0.996   4.355   1.165 -0.1075 -0.3907 -0.0565
  196MPD1    C4 2982   1.039   4.310   1.293 -0.0442  0.4367  0.6963
  196MPD1    C5 2983   1.153   4.245   1.305 -0.1361  0.8227 -0.0642
  196MPD1     H 2984   1.055   4.356   0.956  0.6075 -0.7622 -0.6976
  196MPD1    H1 2985   0.976   4.335   1.377 -1.4037  1.3731 -0.6035
  196MPD1    H2 2986   1.320   4.156   1.226 -0.2021  1.0727  2.1526
  196MPD1    H3 2987   1.181   4.217   1.406  1.1268 -1.3923 -1.0266
  196MPD1     N 2988   0.882   4.432   1.152  0.3860 -0.5216 -0.1582
  196MPD1    H5 2989   0.817   4.445   1.230  1.8615  1.4548  0.7469
  196MPD1    N1 2990   1.279   4.219   0.958  0.4272  0.4626 -0.0448
  196MPD1    H6 2991   1.355   4.152   0.958 -0.3147 -0.3631  1.4213
  196MPD1    H7 2992   1.224   4.204   0.874  2.3094  0.3466 -1.2607
  197MPD1     C 2993   4.665   2.370  17.124 -0.4786 -0.6000  0.3230
  197MPD1    C1 2994   0.072   2.409  17.095  0.2717  0.2323 -0.3405
  197MPD1    C2 2995   0.102   2.467  16.971  0.2294  0.0542 -0.4661
  197MPD1    C3 2996   0.009   2.471  16.863 -0.1514 -0.1446  0.5256
  197MPD1    C4 2997   4.600   2.429  16.892  0.1470  0.7965 -0.0617
  197MPD1    C5 2998   4.568   2.381  17.020  0.2059  0.0002 -0.3217
  197MPD1     H 2999   0.205   2.490  16.951 -0.3901  3.5984  0.4249
  197MPD1    H1 3000   4.517   2.434  16.822 -1.6547  0.6211  2.0627
  197MPD1    H2 3001   4.623   2.334  17.217 -1.1893 -0.0864  0.1994
  197MPD1    H3 3002   4.467   2.345  17.038  0.4821 -0.5087  0.1817
  197MPD1     N 3003   0.035   2.521  16.728 -0.1109 -0.2162 -0.8645
  197MPD1    H5 3004   4.677   2.539  16.672 -0.8947 -1.8676 -0.2449
  197MPD1    N1 3005   0.166   2.409  17.201 -0.1944 -0.0729  0.2522
  197MPD1    H6 3006   0.261   2.402  17.165 -0.2686 -2.3442  0.4679
  197MPD1    H7 3007   0.158   2.327  17.262 -2.4813 -0.8948 -1.1704
  198MPD1     C 3008   1.553   0.661  15.652 -0.0285  0.2161 -0.2156
  198MPD1    C1 3009   1.686   0.634  15.644  0.2994  0.1399 -0.4676
  198MPD1    C2 3010   1.773   0.716  15.722  0.1290  0.6048  0.3341
  198MPD1    C3 3011   1.722   0.816  15.805 -0.4030  0.5172  0.1352
  198MPD1    C4 3012   1.593   0.818  15.835 -0.2022  0.4789  0.1089
  198MPD1    C5 3013   1.505   0.746  15.755  0.7242  0.8515  0.1141
  198MPD1     H 3014   1.878   0.691  15.713  0.2046  0.9213  0.3198
  198MPD1    H1 3015   1.546   0.880  15.911 -1.2513 -0.2478  0.0488
  198MPD1    H2 3016   1.478   0.612  15.591 -0.1505 -0.3587  0.3986
  198MPD1    H3 3017   1.398   0.761  15.761  1.0867  2.5588  2.1169
  198MPD1     N 3018   1.815   0.884  15.879  0.4310  0.0384 -0.2368
  198MPD1    H5 3019   1.908   0.884  15.838 -0.5383  0.3975 -2.4432
  198MPD1    N1 3020   1.738   0.547  15.542  0.2753  0.1778 -0.1209
  198MPD1    H6 3021   1.687   0.460  15.527  0.0980  0.2138  0.2882
  198MPD1    H7 3022   1.824   0.513  15.585 -1.3821 -3.3136  0.4473
  199MPD1     C 3023   3.488   2.032   9.996  0.3736  0.0578  0.0939
  199MPD1    C1 3024   3.584   2.122   9.953  0.1500  0.9426 -0.0548
  199MPD1    C2 3025   3.555   2.250   9.921  0.2819  0.5704  0.3768
  199MPD1    C3 3026   3.427   2.305   9.961 -0.3770  0.4119 -0.1082
  199MPD1    C4 3027   3.342   2.216  10.026 -0.0892 -1.1641  0.1382
  199MPD1    C5 3028   3.376   2.084  10.053 -0.1203  0.2213  1.0868
  199MPD1     H 3029   3.624   2.318   9.872  0.7169 -1.1187 -1.3789
  199MPD1    H1 3030   3.247   2.253  10.063 -0.0033  0.6553 -1.4944
  199MPD1    H2 3031   3.516   1.928  10.007  0.3049 -0.0202 -0.4848
  199MPD1    H3 3032   3.304   2.020  10.102 -1.3827 -0.8806 -2.1478
  199MPD1     N 3033   3.397   2.441   9.941  0.1880 -0.2307 -0.6405
  199MPD1    H5 3034   3.302   2.460   9.972  0.3276 -3.4472  1.8367
  199MPD1    N1 3035   3.709   2.077   9.908  0.4593  0.4022  0.2749
  199MPD1    H6 3036   3.738   1.989   9.950  1.1125  0.5798  0.1902
  199MPD1    H7 3037   3.771   2.155   9.929 -2.0421  1.8789  2.0602
  200MPD1     C 3038   3.130   2.166  15.318  0.2856 -0.5587  0.6687
  200MPD1    C1 3039   3.072   2.069  15.241  0.0626  0.2539  0.3780
  200MPD1    C2 3040   3.032   2.106  15.112 -0.6897 -0.1558 -0.0072
  200MPD1    C3 3041   3.048   2.226  15.064  0.4249 -0.4824  0.5035
  200MPD1    C4 3042   3.100   2.327  15.146  0.2724 -0.4732 -0.3797
  200MPD1    C5 3043   3.139   2.296  15.275  0.7626 -0.3394  0.5263
  200MPD1     H 3044   2.993   2.032  15.043  0.5156  0.6860 -1.5874
  200MPD1    H1 3045   3.106   2.429  15.111  1.4544  0.0545  1.3824
  200MPD1    H2 3046   3.151   2.150  15.423  1.9295  0.6476  0.5335
  200MPD1    H3 3047   3.177   2.377  15.337 -1.3718  0.1979  1.1107
  200MPD1     N 3048   2.996   2.249  14.933  0.2959 -0.1108  0.1659
  200MPD1    H5 3049   2.961   2.174  14.875  3.5617 -2.7752  1.6505
  200MPD1    N1 3050   3.042   1.944  15.290  0.3947  0.4489  1.1711
  200MPD1    H6 3051   3.054   1.869  15.223  0.5396 -0.2415  1.9762
  200MPD1    H7 3052   3.100   1.919  15.369  3.0846 -0.6680 -1.1659
  201MPD1     C 3053   1.699   1.821  12.463 -0.4235 -0.7854  0.2169
  201MPD1    C1 3054   1.625   1.709  12.434  0.6383 -0.4656  0.1658
  201MPD1    C2 3055   1.539   1.653  12.529 -0.1079 -0.2589  0.1960
  201MPD1    C3 3056   1.543   1.702  12.653  0.5755 -0.3763 -0.6639
  201MPD1    C4 3057   1.616   1.810  12.684 -0.5542 -0.5258 -0.1364
  201MPD1    C5 3058   1.692   1.876  12.587 -0.5994 -0.5520  0.2643
  201MPD1     H 3059   1.479   1.566  12.502  0.3763  0.1970 -2.3425
  201MPD1    H1 3060   1.621   1.841  12.788  2.6925  0.9784 -0.7523
  201MPD1    H2 3061   1.764   1.875  12.395  2.1167  0.8918  3.9350
  201MPD1    H3 3062   1.754   1.959  12.617 -1.8478  0.0191  1.2641
  201MPD1     N 3063   1.463   1.632  12.746 -0.8731 -0.1330 -0.2515
  201MPD1    H5 3064   1.406   1.559  12.705  1.6636 -0.9626 -2.3112
  201MPD1    N1 3065   1.602   1.673  12.303  0.3080  0.0037 -0.6690
  201MPD1    H6 3066   1.580   1.575  12.284 -3.6662  0.6254  0.6059
  201MPD1    H7 3067   1.679   1.692  12.240 -1.3958 -0.6139 -2.9416
  202MPD1     C 3068   0.847   0.632   9.323  0.1990  0.1292  0.2162
  202MPD1    C1 3069   0.785   0.531   9.396 -0.6600 -0.9873 -0.4165
  202MPD1    C2 3070   0.768   0.563   9.531  0.1993  0.1937  0.0754
  202MPD1    C3 3071   0.758   0.695   9.581 -0.2326  0.0673 -0.3835
  202MPD1    C4 3072   0.808   0.792   9.493 -0.5189  0.1617  0.1719
  202MPD1    C5 3073   0.862   0.760   9.373  0.3806 -0.0465 -0.1472
  202MPD1     H 3074   0.751   0.483   9.603 -1.4572  1.9334  1.6059
  202MPD1    H1 3075   0.819   0.888   9.543  0.9997  0.2143 -0.2626
  202MPD1    H2 3076   0.898   0.609   9.230  1.9976  3.0337  0.4781
  202MPD1    H3 3077   0.920   0.826   9.309 -1.3903  0.3032 -1.3831
  202MPD1     N 3078   0.734   0.727   9.709  0.1715  0.2507  0.0154
  202MPD1    H5 3079   0.707   0.823   9.728  0.3996  0.4487 -0.6805
  202MPD1    N1 3080   0.821   0.398   9.367  0.5771 -0.3634  0.0091
  202MPD1    H6 3081   0.821   0.380   9.267  1.6192  0.3168 -0.1147
  202MPD1    H7 3082   0.764   0.329   9.414  0.7752  0.4052  1.3735
  203MPD1     C 3083   4.498   2.335  12.674  0.0580 -0.0912  1.5126
  203MPD1    C1 3084   4.595   2.236  12.666 -0.2480 -0.7835  0.5411
  203MPD1    C2 3085   4.565   2.109  12.624 -0.2950 -0.1117 -0.2631
  203MPD1    C3 3086   4.433   2.081  12.597 -0.1590 -0.1672  0.2018
  203MPD1    C4 3087   4.338   2.179  12.605 -0.4618  0.0282 -0.4662
  203MPD1    C5 3088   4.369   2.305  12.648  0.4486  0.8243  0.8927
  203MPD1     H 3089   4.634   2.030  12.599 -0.2594 -0.4096  0.7800
  203MPD1    H1 3090   4.233   2.152  12.593 -0.5977 -0.3605  1.7347
  203MPD1    H2 3091   4.521   2.436  12.706 -0.5994  0.4211  0.3891
  203MPD1    H3 3092   4.295   2.381  12.667  0.4963  1.0223  0.2781
  203MPD1     N 3093   4.412   1.946  12.556 -0.2240 -0.1496 -0.5169
  203MPD1    H5 3094   4.482   1.878  12.585 -1.8147 -1.6090 -0.1134
  203MPD1    N1 3095   0.003   2.273  12.678  0.2044 -0.2228  0.3314
  203MPD1    H6 3096   0.063   2.197  12.710 -0.2529 -0.8646 -0.3641
  203MPD1    H7 3097   0.021   2.352  12.740 -0.4518  0.2980 -0.1446
  204MPD1     C 3098   2.571   2.338  17.354 -0.0376 -0.1590 -0.1874
  204MPD1    C1 3099   2.647   2.259  17.439 -0.6677  0.0215  0.1343
  204MPD1    C2 3100   2.776   2.217  17.399  0.2043 -0.2676  0.4885
  204MPD1    C3 3101   2.834   2.274  17.287  0.6498 -0.0936 -0.3584
  204MPD1    C4 3102   2.756   2.356  17.206 -0.1244 -0.4096  0.3237
  204MPD1    C5 3103   2.631   2.386  17.242 -0.8595 -0.7389 -0.0172
  204MPD1     H 3104   2.833   2.146  17.458 -0.0394 -0.6331  0.2782
  204MPD1    H1 3105   2.798   2.400  17.116  0.3309 -0.3290  0.5797
  204MPD1    H2 3106   2.467   2.360  17.377 -0.2036 -1.6832  0.5062
  204MPD1    H3 3107   2.586   2.449  17.166  4.5174  0.1999 -2.3517
  204MPD1     N 3108   2.966   2.245  17.257  0.9639 -0.5020 -0.0753
  204MPD1    H5 3109   3.013   2.188  17.326 -0.4559  0.0273  1.3168
  204MPD1    N1 3110   2.568   2.194  17.540  0.7892 -0.1631 -0.9321
  204MPD1    H6 3111   2.618   2.141  17.611  1.4446  0.0430 -1.2428
  204MPD1    H7 3112   2.503   2.259  17.583  0.1032 -0.0710 -2.0902
  205MPD1     C 3113   4.279   1.195  16.793 -0.2565  0.0138  0.0537
  205MPD1    C1 3114   4.190   1.297  16.799 -0.0343 -0.6666  0.6122
  205MPD1    C2 3115   4.121   1.316  16.910 -0.3402 -0.9159  0.0388
  205MPD1    C3 3116   4.148   1.257  17.032 -0.0562  0.4674 -0.4483
  205MPD1    C4 3117   4.255   1.175  17.038  0.7645 -0.3878  0.7214
  205MPD1    C5 3118   4.314   1.142  16.913 -0.0375 -0.0482  0.2504
  205MPD1     H 3119   4.028   1.370  16.899  1.8483  3.1084  1.3086
  205MPD1    H1 3120   4.286   1.127  17.130  2.9885 -0.5995 -0.1275
  205MPD1    H2 3121   4.333   1.163  16.704  1.3106  3.5156 -0.2548
  205MPD1    H3 3122   4.384   1.059  16.914 -0.3587 -0.3518 -2.1372
  205MPD1     N 3123   4.080   1.286  17.152 -0.1037  0.0397  0.1773
  205MPD1    H5 3124   4.113   1.233  17.232  3.2829  0.1566 -1.1530
  205MPD1    N1 3125   4.138   1.363  16.680 -0.4106  0.1366 -0.0977
  205MPD1    H6 3126   4.094   1.451  16.707  0.7941  0.2532  1.5051
  205MPD1    H7 3127   4.210   1.383  16.611 -0.5606 -0.5924 -0.4643
  206MPD1     C 3128   4.287   4.644  16.281 -0.6186 -0.2583  0.1629
  206MPD1    C1 3129   4.173   4.703  16.244  0.4535 -0.3433 -0.6500
  206MPD1    C2 3130   4.060   4.624  16.207 -0.4674  0.0266  1.0714
  206MPD1    C3 3131   4.060   4.487  16.239  0.4863 -0.0054 -0.1524
  206MPD1    C4 3132   4.181   4.426  16.267 -0.7061 -0.2229  0.1166
  206MPD1    C5 3133   4.292   4.511  16.287  0.0983  0.2824 -1.0195
  206MPD1     H 3134   3.967   4.671  16.179 -0.3533 -0.4541 -0.1208
  206MPD1    H1 3135   4.203   4.320  16.262  0.1251 -0.1474  2.1448
  206MPD1    H2 3136   4.385   4.692  16.288 -1.3798  1.5904 -2.0879
  206MPD1    H3 3137   4.382   4.454  16.308  0.0976  1.2112  1.4909
  206MPD1     N 3138   3.950   4.392  16.221  0.7366 -0.8069 -0.3838
  206MPD1    H5 3139   3.980   4.297  16.207  0.8860 -0.9250  0.7492
  206MPD1    N1 3140   4.177   0.115  16.230 -0.2571 -0.1500  0.0558
  206MPD1    H6 3141   4.083   0.154  16.217 -0.2516 -0.2050 -0.1443
  206MPD1    H7 3142   4.231   0.162  16.302  1.4695 -1.6469 -0.2658
  207MPD1     C 3143   1.443   2.798   9.257  0.5286  0.1562  0.1031
  207MPD1    C1 3144   1.423   2.673   9.301  0.3258  0.2893  0.0404
  207MPD1    C2 3145   1.474   2.636   9.423 -0.4402 -0.0945 -0.3089
  207MPD1    C3 3146   1.520   2.730   9.513 -0.1343 -0.2791 -0.0221
  207MPD1    C4 3147   1.512   2.857   9.478  0.6706 -0.1515  0.6230
  207MPD1    C5 3148   1.477   2.890   9.349 -0.2709  0.1944 -0.1849
  207MPD1     H 3149   1.479   2.531   9.452 -1.3370  0.0413  0.3478
  207MPD1    H1 3150   1.544   2.931   9.551  1.4816  0.1864 -0.0762
  207MPD1    H2 3151   1.410   2.835   9.160 -0.2101 -0.6180  0.0516
  207MPD1    H3 3152   1.466   2.995   9.323 -0.3214  0.4174  0.7286
  207MPD1     N 3153   1.597   2.707   9.627 -0.8570  0.2941 -0.0672
  207MPD1    H5 3154   1.620   2.792   9.677  1.5968 -0.5772  0.2836
  207MPD1    N1 3155   1.382   2.583   9.205 -0.1979 -0.7441 -0.9097
  207MPD1    H6 3156   1.317   2.622   9.137 -0.9293  0.2941  0.3973
  207MPD1    H7 3157   1.344   2.495   9.241  2.0109 -1.1558  0.4263
  208MPD1     C 3158   0.289   1.069   0.105  0.2231 -0.0285  0.1045
  208MPD1    C1 3159   0.276   0.957   0.187 -0.5620  0.0144  0.0894
  208MPD1    C2 3160   0.196   0.854   0.151  0.1090 -0.2135  0.0257
  208MPD1    C3 3161   0.127   0.865   0.027 -0.5132 -0.1178 -0.2715
  208MPD1    C4 3162   0.156   0.963  17.637 -0.5616  0.2758 -0.8401
  208MPD1    C5 3163   0.244   1.065  17.674  0.2176  0.5340  0.5357
  208MPD1     H 3164   0.175   0.772   0.218  4.1832  0.4547  2.1128
  208MPD1    H1 3165   0.112   0.965  17.538 -0.9093  1.1530 -0.6678
  208MPD1    H2 3166   0.342   1.156   0.142 -1.5388  1.0822  0.0357
  208MPD1    H3 3167   0.259   1.155  17.615 -3.1038  1.1078  0.5868
  208MPD1     N 3168   0.042   0.757  17.692 -0.4202 -0.4137  0.8144
  208MPD1    H5 3169   0.053   0.678   0.057 -1.4845 -1.0934  0.1627
  208MPD1    N1 3170   0.339   0.953   0.310 -0.2874 -0.4626 -0.1173
  208MPD1    H6 3171   0.377   0.860   0.326 -0.2199 -0.0763  1.9084
  208MPD1    H7 3172   0.410   1.023   0.329  0.3855 -1.7333  2.0100
  209MPD1     C 3173   1.525   1.344  11.163  0.7421  0.3812 -0.2986
  209MPD1    C1 3174   1.588   1.438  11.245  0.7719  0.1120 -0.2721
  209MPD1    C2 3175   1.665   1.534  11.177 -0.2990 -0.1180  0.1949
  209MPD1    C3 3176   1.650   1.552  11.032 -0.1666 -0.5153 -0.2471
  209MPD1    C4 3177   1.583   1.457  10.957  0.4678 -0.0385 -1.1993
  209MPD1    C5 3178   1.522   1.358  11.026  0.2532  0.9175 -0.0150
  209MPD1     H 3179   1.715   1.610  11.235 -0.5596  0.1258  0.1036
  209MPD1    H1 3180   1.587   1.459  10.849  1.7962 -2.4779 -1.1914
  209MPD1    H2 3181   1.473   1.260  11.206  3.2050 -0.3549  1.2156
  209MPD1    H3 3182   1.476   1.283  10.962  0.5233  1.2638 -0.6140
  209MPD1     N 3183   1.712   1.660  10.965  0.1435  0.0536  0.3851
  209MPD1    H5 3184   1.771   1.716  11.025  1.0661  0.7448 -1.1646
  209MPD1    N1 3185   1.606   1.422  11.378  0.0571  0.0531 -0.3237
  209MPD1    H6 3186   1.542   1.357  11.423  0.5855 -0.9271 -0.9730
  209MPD1    H7 3187   1.616   1.506  11.433 -1.5443 -0.1864  0.3215
  210MPD1     C 3188   2.557   2.170  10.920  0.0312 -0.1063 -0.0745
  210MPD1    C1 3189   2.497   2.076  10.998  0.8922  0.2843  0.0085
  210MPD1    C2 3190   2.370   2.038  10.969  0.2556 -0.3945 -1.0858
  210MPD1    C3 3191   2.306   2.082  10.853 -0.2926  0.7281 -0.4542
  210MPD1    C4 3192   2.378   2.170  10.766 -0.3804 -0.0317 -0.4967
  210MPD1    C5 3193   2.498   2.216  10.808  0.3107  0.3058  0.5268
  210MPD1     H 3194   2.324   1.972  11.041  0.8297 -1.2740 -1.5218
  210MPD1    H1 3195   2.336   2.195  10.670  1.1580 -0.7709 -1.3580
  210MPD1    H2 3196   2.648   2.217  10.955 -0.7487  0.7892  0.7384
  210MPD1    H3 3197   2.558   2.273  10.737 -1.4601  2.7006  0.9554
  210MPD1     N 3198   2.178   2.046  10.816 -0.2316 -0.0980  0.0915
  210MPD1    H5 3199   2.148   2.079  10.725 -0.1999 -0.3124  0.0032
  210MPD1    N1 3200   2.560   2.037  11.117  0.0409  0.0703 -0.4467
  210MPD1    H6 3201   2.521   1.954  11.160 -1.3123  1.8923  1.8581
  210MPD1    H7 3202   2.661   2.037  11.103  0.0992 -0.7200 -0.0168
  211MPD1     C 3203   4.603   1.030  15.686 -0.0336  1.4956  0.4146
  211MPD1    C1 3204   4.623   1.122  15.780  0.2614  0.3756 -0.0342
  211MPD1    C2 3205   4.526   1.145  15.873  0.5969  0.4939 -0.1589
  211MPD1    C3 3206   4.402   1.086  15.858  0.2126  0.8877 -0.9800
  211MPD1    C4 3207   4.385   1.004  15.747  0.0681  0.4841  0.3037
  211MPD1    C5 3208   4.489   0.969  15.668 -0.1576 -0.1571  0.7013
  211MPD1     H 3209   4.551   1.211  15.956  1.1365 -1.7581  1.4479
  211MPD1    H1 3210   4.291   0.963  15.713  1.3880 -3.3488  1.1890
  211MPD1    H2 3211   4.680   1.013  15.611 -0.7089  1.1678 -0.2085
  211MPD1    H3 3212   4.478   0.905  15.581  2.1783  0.5068 -0.0849
  211MPD1     N 3213   4.302   1.118  15.945 -0.0858 -0.9284  0.6968
  211MPD1    H5 3214   4.329   1.184  16.018  0.8581  0.2191 -0.6872
  211MPD1    N1 3215   0.022   1.188  15.785 -0.0631  0.0787  0.2803
  211MPD1    H6 3216   0.015   1.275  15.838 -1.2776  1.2666 -1.8223
  211MPD1    H7 3217   0.059   1.209  15.692  1.3397  0.6792  0.9627
  212MPD1     C 3218   2.869   4.593  16.641 -0.8603  0.0921 -0.3631
  212MPD1    C1 3219   2.941   4.481  16.616 -0.1870  0.6009  0.2796
  212MPD1    C2 3220   2.888   4.362  16.660  0.5203  0.1788  0.4436
  212MPD1    C3 3221   2.773   4.351  16.736  0.0410  0.0831 -0.2748
  212MPD1    C4 3222   2.705   4.468  16.767  0.0488  0.8207  0.3699
  212MPD1    C5 3223   2.754   4.587  16.719 -0.2175  0.3039 -0.0768
  212MPD1     H 3224   2.942   4.275  16.625 -0.6178 -0.1136 -0.5716
  212MPD1    H1 3225   2.617   4.461  16.830 -0.3569  1.0358 -0.1762
  212MPD1    H2 3226   2.897   4.693  16.610  3.1989 -0.9475 -0.0420
  212MPD1    H3 3227   2.699   4.674  16.753  1.4642  1.1095  0.5366
  212MPD1     N 3228   2.721   4.222  16.773  0.0419  0.4116  0.2475
  212MPD1    H5 3229   2.632   4.220  16.822 -0.0120  0.0807  0.1403
  212MPD1    N1 3230   3.040   4.477  16.519 -0.5553  0.5149 -0.4551
  212MPD1    H6 3231   3.087   4.564  16.496  0.5645 -0.0678 -0.3580
  212MPD1    H7 3232   3.105   4.401  16.535  0.6685  1.9263  1.2068
  213MPD1     C 3233   1.372   0.914  15.477 -0.1948  0.2891  0.1259
  213MPD1    C1 3234   1.429   0.960  15.359  0.2218 -0.2531 -0.2217
  213MPD1    C2 3235   1.339   0.938  15.258  0.3250 -0.1075 -0.1352
  213MPD1    C3 3236   1.237   0.851  15.256  0.1220  0.5519  0.4364
  213MPD1    C4 3237   1.193   0.798  15.368  0.3075 -0.8745 -0.8565
  213MPD1    C5 3238   1.261   0.829  15.481 -0.1581 -0.1725  1.0868
  213MPD1     H 3239   1.366   0.978  15.161 -1.3418  2.7485  0.5875
  213MPD1    H1 3240   1.114   0.724  15.367 -0.8269  0.3221 -0.0676
  213MPD1    H2 3241   1.413   0.937  15.575 -1.3099  2.2401  0.1191
  213MPD1    H3 3242   1.230   0.790  15.577 -1.2368 -0.8753  0.4407
  213MPD1     N 3243   1.186   0.818  15.132 -0.6327 -0.3190 -0.2824
  213MPD1    H5 3244   1.238   0.851  15.051 -0.9350 -1.4447 -0.9449
  213MPD1    N1 3245   1.507   1.078  15.362 -0.2632  0.3391  0.0056
  213MPD1    H6 3246   1.582   1.054  15.427 -2.0497 -2.3745  1.0563
  213MPD1    H7 3247   1.546   1.092  15.268 -0.9958 -2.0084 -0.6565
  214MPD1     C 3248   0.431   0.231  14.776  0.5434  0.9701 -0.2712
  214MPD1    C1 3249   0.517   0.232  14.666  0.4113  0.1666  0.2490
  214MPD1    C2 3250   0.635   0.311  14.682 -0.1528 -0.1328  0.0612
  214MPD1    C3 3251   0.669   0.374  14.806 -0.2334 -0.0084 -0.5681
  214MPD1    C4 3252   0.590   0.356  14.914 -0.2487  0.0955 -0.0670
  214MPD1    C5 3253   0.467   0.290  14.898 -0.3753  0.2947 -0.6510
  214MPD1     H 3254   0.697   0.325  14.594  1.9944  1.4926  1.8359
  214MPD1    H1 3255   0.628   0.381  15.013 -0.9052  0.2802  0.1319
  214MPD1    H2 3256   0.343   0.169  14.765 -0.4000  2.1233  0.8739
  214MPD1    H3 3257   0.417   0.263  14.990  3.7195 -0.0200  1.4748
  214MPD1     N 3258   0.793   0.447  14.826  0.0175 -0.6464 -0.3682
  214MPD1    H5 3259   0.797   0.486  14.920  1.9295  0.5023 -0.9140
  214MPD1    N1 3260   0.462   0.197  14.537 -0.1298 -0.1348 -0.2958
  214MPD1    H6 3261   0.533   0.150  14.481 -1.7501 -1.0179 -1.6140
  214MPD1    H7 3262   0.387   0.130  14.552 -0.1459 -0.1204 -0.3121
  215MPD1     C 3263   1.069   1.114  11.033  0.2764 -0.5183 -0.4587
  215MPD1    C1 3264   0.984   1.183  11.115 -0.1507 -0.6017 -0.0659
  215MPD1    C2 3265   1.017   1.314  11.144  0.0986 -1.0022 -0.1627
  215MPD1    C3 3266   1.110   1.385  11.075  0.3563 -0.3649 -0.6479
  215MPD1    C4 3267   1.186   1.324  10.979 -0.2160 -0.5150 -0.4926
  215MPD1    C5 3268   1.156   1.192  10.961 -0.1519 -0.5827 -0.2949
  215MPD1     H 3269   0.960   1.375  11.212  0.3928  0.4566 -1.2251
  215MPD1    H1 3270   1.257   1.375  10.915  0.6061 -2.7889 -1.3820
  215MPD1    H2 3271   1.063   1.007  11.015 -1.4553  0.0143 -3.0261
  215MPD1    H3 3272   1.217   1.155  10.879  1.2207  1.0600 -0.0264
  215MPD1     N 3273   1.126   1.516  11.106 -0.0651  0.4220  0.4237
  215MPD1    H5 3274   1.075   1.548  11.188  0.4626 -0.5719  1.1351
  215MPD1    N1 3275   0.891   1.111  11.194  0.0198  0.4073  0.2442
  215MPD1    H6 3276   0.823   1.181  11.225 -0.2835  1.1758 -2.1008
  215MPD1    H7 3277   0.833   1.059  11.128  0.4486 -1.3277  1.2429
  216MPD1     C 3278   3.719   4.250  16.571  0.7204 -0.0103  0.5567
  216MPD1    C1 3279   3.589   4.199  16.550 -0.0051 -0.2070  0.5841
  216MPD1    C2 3280   3.575   4.065  16.546  0.6580 -0.0445  0.0600
  216MPD1    C3 3281   3.685   3.983  16.539 -0.4418  0.2601  0.0544
  216MPD1    C4 3282   3.808   4.030  16.561 -0.4027  1.2902  0.0654
  216MPD1    C5 3283   3.817   4.164  16.581  0.5110  0.5365 -0.3474
  216MPD1     H 3284   3.478   4.016  16.550  0.2196  0.8761  0.7926
  216MPD1    H1 3285   3.887   3.963  16.592 -1.5406 -0.2632 -0.4437
  216MPD1    H2 3286   3.737   4.357  16.577  0.3709  0.1056 -0.5072
  216MPD1    H3 3287   3.918   4.199  16.596  0.0217  2.9650 -2.6710
  216MPD1     N 3288   3.655   3.840  16.542  0.2377 -0.0839  0.4133
  216MPD1    H5 3289   3.560   3.802  16.546  0.7756 -1.3561  1.1423
  216MPD1    N1 3290   3.477   4.282  16.580 -0.9065  1.0862 -0.4200
  216MPD1    H6 3291   3.393   4.248  16.534 -1.1728  1.1767 -0.0066
  216MPD1    H7 3292   3.489   4.380  16.554 -0.0143  0.9267 -0.5970
  217MPD1     C 3293   4.028   0.999   8.296  0.1148 -0.2422 -0.2191
  217MPD1    C1 3294   3.952   1.098   8.360 -0.4287 -0.1169 -0.4108
  217MPD1    C2 3295   3.975   1.120   8.491  0.2029 -0.4185  0.0770
  217MPD1    C3 3296   4.064   1.041   8.564  0.4488  0.6086  0.3697
  217MPD1    C4 3297   4.128   0.941   8.496 -0.6206 -0.4014 -0.4649
  217MPD1    C5 3298   4.111   0.917   8.363  0.3087  0.4492  0.5352
  217MPD1     H 3299   3.929   1.203   8.544 -1.5820 -1.2630 -0.1344
  217MPD1    H1 3300   4.199   0.879   8.549 -1.0951 -0.6249 -0.0851
  217MPD1    H2 3301   4.022   0.979   8.190  1.0800 -0.4304 -0.2420
  217MPD1    H3 3302   4.182   0.849   8.317 -0.4695 -0.6188  0.9180
  217MPD1     N 3303   4.096   1.064   8.702 -0.1949  0.2053 -0.1939
  217MPD1    H5 3304   4.158   0.995   8.742 -2.1430 -1.2183  0.4045
  217MPD1    N1 3305   3.880   1.186   8.270  0.2107  0.4385 -0.1472
  217MPD1    H6 3306   3.800   1.228   8.317  0.2265 -1.2888  1.4312
  217MPD1    H7 3307   3.847   1.137   8.187 -2.2407  0.1339  0.9882
  218MPD1     C 3308   0.505   1.549  12.912 -0.1440  0.4980  0.5389
  218MPD1    C1 3309   0.645   1.562  12.936  0.5698 -0.5794 -0.5807
  218MPD1    C2 3310   0.729   1.545  12.824 -0.1596  0.2777 -0.4126
  218MPD1    C3 3311   0.684   1.499  12.695  0.0623  0.0259  0.2511
  218MPD1    C4 3312   0.549   1.482  12.681  0.2719  0.7368 -0.5055
  218MPD1    C5 3313   0.459   1.507  12.788 -0.5318 -0.3459  0.6815
  218MPD1     H 3314   0.834   1.569  12.837  0.1601 -1.1239 -0.3568
  218MPD1    H1 3315   0.508   1.448  12.586 -1.9309  2.6421 -0.2630
  218MPD1    H2 3316   0.428   1.585  12.980 -0.2062 -0.9226  1.2199
  218MPD1    H3 3317   0.356   1.482  12.764 -0.2853 -0.4376 -0.2868
  218MPD1     N 3318   0.782   1.484  12.590 -0.2287 -0.0081  0.2679
  218MPD1    H5 3319   0.880   1.488  12.617 -0.5863 -0.0436  1.5608
  218MPD1    N1 3320   0.688   1.645  13.043  0.0010 -0.2877 -0.3926
  218MPD1    H6 3321   0.629   1.633  13.126  1.4994 -0.7310  0.6113
  218MPD1    H7 3322   0.784   1.631  13.074 -0.0766  2.2347  1.0077
  219MPD1     C 3323   1.220   2.019  11.831  0.2762  0.0933  0.5289
  219MPD1    C1 3324   1.122   1.935  11.802  0.2423 -0.5396  0.5274
  219MPD1    C2 3325   1.090   1.834  11.890 -0.2888  0.0966 -0.2011
  219MPD1    C3 3326   1.161   1.821  12.008  0.5947 -0.7437 -0.4357
  219MPD1    C4 3327   1.257   1.911  12.036  0.1214  0.6063  0.2168
  219MPD1    C5 3328   1.283   2.021  11.952  0.0016 -0.1739 -0.1278
  219MPD1     H 3329   1.009   1.765  11.867 -0.1928 -0.1299  0.1382
  219MPD1    H1 3330   1.314   1.901  12.127 -0.0555 -0.2569  0.2299
  219MPD1    H2 3331   1.253   2.088  11.755 -0.7247 -0.5622 -0.4879
  219MPD1    H3 3332   1.374   2.078  11.967  0.3957 -0.1803 -2.4994
  219MPD1     N 3333   1.133   1.729  12.113 -0.4395  0.2043  0.0265
  219MPD1    H5 3334   1.180   1.745  12.202 -0.0268  1.9002 -0.5093
  219MPD1    N1 3335   1.033   1.959  11.695 -0.0738  0.1371 -0.2736
  219MPD1    H6 3336   0.991   1.876  11.654 -0.2568  0.8354 -1.4788
  219MPD1    H7 3337   1.076   2.013  11.621 -0.3508  2.5807  1.3362
  220MPD1     C 3338   1.390   2.992   9.754 -0.1993 -0.3929  0.6257
  220MPD1    C1 3339   1.276   2.917   9.765 -0.2904  0.2680  1.1684
  220MPD1    C2 3340   1.276   2.830   9.875  0.4940  0.5241 -0.0683
  220MPD1    C3 3341   1.372   2.833   9.982 -0.1653 -0.4933 -0.2366
  220MPD1    C4 3342   1.474   2.923   9.965 -0.0759 -0.4269 -0.0485
  220MPD1    C5 3343   1.482   3.003   9.852 -0.0497 -0.8541  0.2080
  220MPD1     H 3344   1.188   2.768   9.887  0.6579  0.4770  0.8475
  220MPD1    H1 3345   1.548   2.936  10.044 -1.0449  1.8582  0.4800
  220MPD1    H2 3346   1.400   3.066   9.675  0.6764 -0.6524  0.4977
  220MPD1    H3 3347   1.562   3.075   9.837 -0.1203 -0.8720 -0.2823
  220MPD1     N 3348   1.359   2.753  10.098 -0.3644 -0.5145 -0.0180
  220MPD1    H5 3349   1.279   2.692  10.088  0.6037 -1.2888 -2.8147
  220MPD1    N1 3350   1.187   2.898   9.657 -0.4533 -0.6479  0.0917
  220MPD1    H6 3351   1.095   2.862   9.680 -1.5664  2.0855 -0.0238
  220MPD1    H7 3352   1.165   2.991   9.620 -0.0984 -0.7502 -0.3797
  221MPD1     C 3353   4.514   0.318  16.985  0.4600  0.4129  0.3619
  221MPD1    C1 3354   4.384   0.308  17.027 -0.3142  1.2034 -0.0179
  221MPD1    C2 3355   4.287   0.382  16.960  0.3853  0.3000 -0.0060
  221MPD1    C3 3356   4.318   0.474  16.860  0.8413  0.1025  0.4970
  221MPD1    C4 3357   4.453   0.503  16.845 -0.0587  0.1140  0.8018
  221MPD1    C5 3358   4.547   0.418  16.899  0.5451  0.5776  0.3748
  221MPD1     H 3359   4.184   0.376  16.992 -0.1471 -0.4950 -1.8596
  221MPD1    H1 3360   4.492   0.573  16.772 -1.1284  0.5954  0.6910
  221MPD1    H2 3361   4.586   0.243  17.019 -1.0777 -0.3078  2.0271
  221MPD1    H3 3362   4.650   0.429  16.868  0.5709 -0.3414  0.1150
  221MPD1     N 3363   4.230   0.556  16.783 -0.5837 -0.2003  0.5870
  221MPD1    H5 3364   4.276   0.602  16.705  0.7024 -3.8743 -0.8361
  221MPD1    N1 3365   4.343   0.195  17.098  0.0117  0.1062  0.4404
  221MPD1    H6 3366   4.421   0.157  17.152 -0.1369 -0.8495 -0.0073
  221MPD1    H7 3367   4.265   0.225  17.156  0.3517  0.8550  0.5114
  222MPD1     C 3368   4.629   4.343  17.170 -0.7640 -0.4815  0.1193
  222MPD1    C1 3369   4.566   4.465  17.138 -0.2034 -0.0861 -0.1267
  222MPD1    C2 3370   4.427   4.447  17.107 -0.0830 -0.2720 -0.9734
  222MPD1    C3 3371   4.366   4.328  17.108 -0.4634 -0.3793  0.2624
  222MPD1    C4 3372   4.436   4.211  17.137 -0.0140  0.6182 -0.0831
  222MPD1    C5 3373   4.569   4.222  17.165 -0.0124  0.7253 -1.1070
  222MPD1     H 3374   4.368   4.532  17.076 -0.1929 -0.3471 -0.9689
  222MPD1    H1 3375   4.390   4.113  17.140 -0.2368  0.7404  0.4559
  222MPD1    H2 3376   0.009   4.332  17.199 -0.0229 -2.0292 -3.1364
  222MPD1    H3 3377   4.634   4.135  17.172 -0.8354  0.1656 -0.4931
  222MPD1     N 3378   4.236   4.311  17.055  0.2217 -0.0755 -0.4583
  222MPD1    H5 3379   4.205   4.216  17.041 -0.1172  0.1896 -1.5007
  222MPD1    N1 3380   4.631   4.582  17.103 -0.2464 -0.3846  0.0150
  222MPD1    H6 3381   4.716   4.597  17.157 -0.3045  0.7521 -0.2156
  222MPD1    H7 3382   4.576   4.667  17.093 -0.5787 -0.5019  0.8409
  223MPD1     C 3383   3.534   3.618  16.950 -0.4559 -0.9559 -0.3053
  223MPD1    C1 3384   3.463   3.728  16.909  0.5216  0.2228  1.4593
  223MPD1    C2 3385   3.528   3.843  16.886 -0.3978  0.4422  0.7855
  223MPD1    C3 3386   3.661   3.856  16.914  0.2038  0.1843  0.1234
  223MPD1    C4 3387   3.734   3.742  16.962 -0.1184  0.5763  0.5594
  223MPD1    C5 3388   3.668   3.626  16.978 -0.7093 -0.2974  0.3195
  223MPD1     H 3389   3.476   3.931  16.847  2.3744  1.5911 -0.3278
  223MPD1    H1 3390   3.842   3.738  16.973  0.1548  1.0803 -1.9123
  223MPD1    H2 3391   3.499   3.517  16.965 -0.2144 -1.0002 -0.0490
  223MPD1    H3 3392   3.716   3.538  17.019  0.1491 -0.1383 -0.3437
  223MPD1     N 3393   3.724   3.986  16.908  0.1251  0.2808  0.8227
  223MPD1    H5 3394   3.666   4.064  16.880 -0.0372 -0.9367 -2.1814
  223MPD1    N1 3395   3.323   3.727  16.887  0.4068  0.5968 -0.1576
  223MPD1    H6 3396   3.291   3.794  16.817 -0.2289  0.9361  0.4602
  223MPD1    H7 3397   3.281   3.637  16.868 -0.6335  1.0519 -0.0069
  224MPD1     C 3398   3.840   1.729   8.927  0.4691 -0.2875  0.1873
  224MPD1    C1 3399   3.930   1.629   8.939  0.7132 -0.8477 -0.5023
  224MPD1    C2 3400   4.019   1.638   9.034  0.7701 -0.1144 -0.6652
  224MPD1    C3 3401   4.027   1.754   9.109 -0.4365 -0.6206  0.2492
  224MPD1    C4 3402   3.946   1.858   9.075  0.4682  0.5539  0.3266
  224MPD1    C5 3403   3.861   1.848   8.978  0.4313  0.3080  0.3095
  224MPD1     H 3404   4.085   1.553   9.048 -0.7196 -1.0334  0.9152
  224MPD1    H1 3405   3.953   1.953   9.128  0.1552  0.9002 -0.2567
  224MPD1    H2 3406   3.753   1.729   8.863  0.1626  1.6737  0.5987
  224MPD1    H3 3407   3.792   1.929   8.954  0.3407  0.5433  1.3531
  224MPD1     N 3408   4.125   1.770   9.213  0.1428  0.0637  0.0093
  224MPD1    H5 3409   4.108   1.850   9.274 -1.3391  0.7224 -1.2747
  224MPD1    N1 3410   3.908   1.514   8.863 -0.5043  0.2083 -0.3546
  224MPD1    H6 3411   3.996   1.467   8.846  0.0561  0.5795  1.5212
  224MPD1    H7 3412   3.859   1.517   8.774 -0.6757  1.5231 -0.2085
  225MPD1     C 3413   0.457   3.001  13.386 -0.2502 -0.2660  0.5117
  225MPD1    C1 3414   0.549   2.914  13.336 -0.0489  0.4949  0.4463
  225MPD1    C2 3415   0.594   2.933  13.209 -0.0500  0.3829 -0.4626
  225MPD1    C3 3416   0.560   3.045  13.137 -0.3230  1.0292  0.3605
  225MPD1    C4 3417   0.486   3.146  13.202 -0.3137 -0.1633 -0.6318
  225MPD1    C5 3418   0.438   3.118  13.322  0.1746 -0.3838 -0.5038
  225MPD1     H 3419   0.663   2.864  13.163 -1.0601 -0.9531  0.0465
  225MPD1    H1 3420   0.471   3.242  13.154  2.7631 -0.0710 -1.4343
  225MPD1    H2 3421   0.397   2.989  13.475 -1.7935 -1.6930 -0.7257
  225MPD1    H3 3422   0.382   3.192  13.378 -0.6620 -1.5468  0.2016
  225MPD1     N 3423   0.603   3.066  13.003 -0.7960  0.3906  0.2020
  225MPD1    H5 3424   0.568   3.156  12.972 -0.6920  0.2758 -0.2416
  225MPD1    N1 3425   0.567   2.789  13.397  0.1726  0.3986 -0.0843
  225MPD1    H6 3426   0.656   2.747  13.372 -0.4237 -2.1017  2.0957
  225MPD1    H7 3427   0.561   2.797  13.498  2.9593 -2.2411  0.2690
  226MPD1     C 3428   3.855   2.725   9.704  1.1033 -0.5659 -0.4604
  226MPD1    C1 3429   3.878   2.597   9.672 -0.2150  0.1281  0.7373
  226MPD1    C2 3430   3.992   2.566   9.605 -0.0737 -0.4132  0.0117
  226MPD1    C3 3431   4.098   2.656   9.599 -0.0031 -0.4175 -0.6324
  226MPD1    C4 3432   4.080   2.787   9.643  0.1046 -0.2928 -0.4714
  226MPD1    C5 3433   3.959   2.820   9.696 -0.9202  0.0733 -0.4652
  226MPD1     H 3434   3.996   2.467   9.559  1.8727 -0.5327  0.4448
  226MPD1    H1 3435   4.164   2.855   9.639  1.5845 -1.9096  2.8317
  226MPD1    H2 3436   3.761   2.757   9.746  1.0599  0.0949 -1.0601
  226MPD1    H3 3437   3.936   2.918   9.735 -2.4643  0.0244 -1.2400
  226MPD1     N 3438   4.220   2.614   9.531  0.2991 -0.3793 -0.1978
  226MPD1    H5 3439   4.218   2.515   9.508 -0.1268 -0.2234 -0.8272
  226MPD1    N1 3440   3.775   2.496   9.671  0.6604  0.3898 -0.5424
  226MPD1    H6 3441   3.805   2.399   9.675 -0.3770  0.0904 -0.0954
  226MPD1    H7 3442   3.699   2.513   9.736  1.3484  0.0360  0.3647
  227MPD1     C 3443   0.560   2.654   9.695  0.8549 -1.0878  0.2498
  227MPD1    C1 3444   0.537   2.527   9.649  0.1388  0.3661  0.4149
  227MPD1    C2 3445   0.416   2.502   9.590 -0.1561 -0.2755 -0.6476
  227MPD1    C3 3446   0.319   2.604   9.577  0.2294 -0.6627  0.2323
  227MPD1    C4 3447   0.345   2.727   9.629  0.3540 -0.1825 -0.3214
  227MPD1    C5 3448   0.471   2.752   9.679  0.1294  0.6054  0.0235
  227MPD1     H 3449   0.389   2.402   9.558  0.2452 -0.9567  1.1901
  227MPD1    H1 3450   0.275   2.809   9.621  0.7181  0.2705  1.0191
  227MPD1    H2 3451   0.644   2.681   9.757  1.2470  1.3045 -1.3569
  227MPD1    H3 3452   0.491   2.850   9.721 -1.0734  0.1764  1.5856
  227MPD1     N 3453   0.191   2.563   9.528  0.6003  0.2025 -0.0787
  227MPD1    H5 3454   0.178   2.465   9.504 -0.5987  0.6556 -1.3199
  227MPD1    N1 3455   0.609   2.420   9.694  0.4753  0.0431 -0.2161
  227MPD1    H6 3456   0.609   2.357   9.614  0.2398 -0.7558  0.4138
  227MPD1    H7 3457   0.704   2.448   9.718  0.8265  0.2089 -1.7946
  228MPD1     C 3458   2.936   4.409  13.279  0.1314 -0.1393  0.3669
  228MPD1    C1 3459   2.958   4.541  13.323 -0.1761 -0.8999 -0.1173
  228MPD1    C2 3460   2.854   4.623  13.363 -0.1662 -0.8211 -0.0235
  228MPD1    C3 3461   2.730   4.567  13.367 -0.4489  0.2264 -0.1454
  228MPD1    C4 3462   2.710   4.435  13.328 -0.2612 -0.2888 -0.8626
  228MPD1    C5 3463   2.814   4.357  13.279 -0.0624  0.0598 -0.5809
  228MPD1     H 3464   2.869   0.007  13.357 -0.0142 -0.7580  1.3881
  228MPD1    H1 3465   2.614   4.388  13.343  0.4628 -1.3569  0.4575
  228MPD1    H2 3466   3.013   4.343  13.243 -0.5975 -1.3193  0.9433
  228MPD1    H3 3467   2.796   4.254  13.251 -0.3669 -0.0669  0.0782
  228MPD1     N 3468   2.627   4.651  13.420 -0.1568  0.0203  0.0585
  228MPD1    H5 3469   2.660   0.018  13.451  0.8969  0.0371 -1.1174
  228MPD1    N1 3470   3.090   4.596  13.318  0.3700 -0.3480  0.3490
  228MPD1    H6 3471   3.107   4.674  13.381 -0.1966  0.3326 -0.3379
  228MPD1    H7 3472   3.162   4.525  13.329  0.1182 -1.3303 -4.5055
  229MPD1     C 3473   3.293   3.377  14.473  0.2236 -0.0380 -0.1392
  229MPD1    C1 3474   3.249   3.444  14.364 -0.6319  0.3230  0.2306
  229MPD1    C2 3475   3.118   3.420  14.322  0.3504  0.1863 -0.3330
  229MPD1    C3 3476   3.040   3.332  14.385 -0.1230  0.1939 -0.0271
  229MPD1    C4 3477   3.083   3.272  14.495  0.1409 -0.2720  0.3397
  229MPD1    C5 3478   3.211   3.296  14.538 -0.1507  0.1749  0.2276
  229MPD1     H 3479   3.089   3.477  14.234 -0.9436  0.5727  0.3612
  229MPD1    H1 3480   3.014   3.208  14.550 -1.8343  0.7183 -0.9921
  229MPD1    H2 3481   3.387   3.398  14.523 -1.1138 -2.1668  3.2296
  229MPD1    H3 3482   3.236   3.252  14.634  0.5037 -3.1274 -1.4506
  229MPD1     N 3483   2.909   3.299  14.344 -0.6295  0.4193 -0.2539
  229MPD1    H5 3484   2.858   3.232  14.399 -1.2279  1.0780 -0.0016
  229MPD1    N1 3485   3.318   3.555  14.316  0.3515  0.4680  0.1158
  229MPD1    H6 3486   3.281   3.585  14.226 -0.5901 -2.9614 -0.6555
  229MPD1    H7 3487   3.414   3.523  14.307  0.6135  1.4014 -0.3918
  230MPD1     C 3488   2.194   3.642  13.722 -0.6842  0.4519  0.3412
  230MPD1    C1 3489   2.331   3.634  13.701  1.0851  0.2392 -0.0541
  230MPD1    C2 3490   2.403   3.536  13.755 -0.7630  0.3084  0.0401
  230MPD1    C3 3491   2.346   3.444  13.846  0.0401  0.1151  0.3762
  230MPD1    C4 3492   2.211   3.446  13.873  0.0740  0.5611  0.7046
  230MPD1    C5 3493   2.134   3.544  13.805 -0.3537 -0.5847  0.0211
  230MPD1     H 3494   2.506   3.526  13.725 -0.9171  0.2527 -0.4734
  230MPD1    H1 3495   2.162   3.375  13.938  1.6711 -0.3599  0.9172
  230MPD1    H2 3496   2.128   3.715  13.677 -0.5666  1.3515  1.6282
  230MPD1    H3 3497   2.027   3.546  13.824 -0.7421 -0.2380 -2.2002
  230MPD1     N 3498   2.438   3.363  13.913  0.5150  0.1161 -0.4646
  230MPD1    H5 3499   2.532   3.360  13.874  0.5589 -0.2089 -0.3331
  230MPD1    N1 3500   2.388   3.713  13.597  0.1094 -1.0774  0.2177
  230MPD1    H6 3501   2.346   3.805  13.588 -0.2368 -1.2191  0.4269
  230MPD1    H7 3502   2.490   3.720  13.605 -0.3251  0.5867  4.0670
  231MPD1     C 3503   0.194   0.649  15.619  0.2009 -0.4713  0.2287
  231MPD1    C1 3504   0.180   0.719  15.498  1.0159  0.0472  0.6357
  231MPD1    C2 3505   0.299   0.761  15.437 -0.6111 -0.0045  0.0504
  231MPD1    C3 3506   0.419   0.742  15.486  0.0050 -0.9023 -0.0093
  231MPD1    C4 3507   0.430   0.666  15.600 -0.4198 -0.0254 -0.3924
  231MPD1    C5 3508   0.316   0.616  15.660  0.0994 -0.1664  0.1688
  231MPD1     H 3509   0.281   0.811  15.343 -2.8791  0.8590  0.9300
  231MPD1    H1 3510   0.526   0.640  15.644 -0.9897  1.2675  1.5909
  231MPD1    H2 3511   0.120   0.623  15.694 -0.1069  3.0837  1.1698
  231MPD1    H3 3512   0.327   0.565  15.756  0.0316 -0.6505 -0.0803
  231MPD1     N 3513   0.522   0.800  15.416 -0.2149  0.1709 -0.3013
  231MPD1    H5 3514   0.492   0.853  15.335 -2.3899  0.7387  0.9084
  231MPD1    N1 3515   0.065   0.771  15.438 -0.7963 -0.0533  0.1159
  231MPD1    H6 3516   4.722   0.696  15.449  0.4810 -0.7589  3.0546
  231MPD1    H7 3517   0.087   0.785  15.339  0.3843 -0.9027  0.2616
  232MPD1     C 3518   1.768   2.072   0.320  0.3977 -0.7045 -0.6034
  232MPD1    C1 3519   1.662   2.158   0.335 -0.2267  0.4166 -0.2212
  232MPD1    C2 3520   1.623   2.184   0.461 -0.3612 -0.7518  0.5294
  232MPD1    C3 3521   1.678   2.129   0.568 -0.3460 -1.0885  0.5924
  232MPD1    C4 3522   1.787   2.042   0.555 -0.4032 -0.1676  0.4271
  232MPD1    C5 3523   1.836   2.019   0.428 -0.5063  0.1927 -0.1146
  232MPD1     H 3524   1.541   2.254   0.473 -0.0821 -0.2919 -0.2910
  232MPD1    H1 3525   1.827   1.977   0.632  1.3730 -1.5481 -1.6426
  232MPD1    H2 3526   1.809   2.062   0.220 -1.8787  1.2854 -1.7737
  232MPD1    H3 3527   1.920   1.952   0.414 -1.6643 -0.8155 -2.2790
  232MPD1     N 3528   1.623   2.160   0.692  0.2668  0.0991 -0.6695
  232MPD1    H5 3529   1.542   2.222   0.697 -1.3313 -1.9155 -1.8136
  232MPD1    N1 3530   1.587   2.195   0.219  0.2788  0.1453  0.1591
  232MPD1    H6 3531   1.544   2.287   0.219  1.7265  0.8249 -1.3048
  232MPD1    H7 3532   1.638   2.194   0.131  0.8746 -1.6592  0.5120
  233MPD1     C 3533   3.287   1.427   0.178  0.2493 -0.3613 -0.5506
  233MPD1    C1 3534   3.214   1.443   0.296 -0.0754  0.6715  0.0069
  233MPD1    C2 3535   3.244   1.355   0.404 -0.2592  0.0807  0.5254
  233MPD1    C3 3536   3.366   1.293   0.408  0.0305  0.1340  0.2796
  233MPD1    C4 3537   3.444   1.293   0.294  0.2809 -0.3135  0.4809
  233MPD1    C5 3538   3.404   1.355   0.179  0.4211  0.0595 -0.3948
  233MPD1     H 3539   3.179   1.353   0.491 -1.1171  0.7522 -0.0894
  233MPD1    H1 3540   3.542   1.248   0.285  0.1900 -0.0041 -1.8818
  233MPD1    H2 3541   3.256   1.473   0.085  0.0826  0.5965 -0.0171
  233MPD1    H3 3542   3.461   1.349   0.087  1.1506  0.0792  0.0572
  233MPD1     N 3543   3.425   1.231   0.527 -0.0631  0.7008  0.2024
  233MPD1    H5 3544   3.521   1.199   0.525 -0.5408 -0.6133 -1.3289
  233MPD1    N1 3545   3.093   1.509   0.299 -0.3600 -0.0527 -0.4984
  233MPD1    H6 3546   3.093   1.582   0.229  0.1086 -0.7236 -1.2011
  233MPD1    H7 3547   3.064   1.537   0.393 -2.3973 -0.7237 -0.9200
  234MPD1     C 3548   0.615   0.158   9.650 -0.1241  0.4436 -0.1531
  234MPD1    C1 3549   0.579   0.207   9.525  0.7064  0.3293 -0.5439
  234MPD1    C2 3550   0.509   0.325   9.509 -0.1143  0.4604 -0.1598
  234MPD1    C3 3551   0.469   0.392   9.618  0.0838  0.2780 -0.0236
  234MPD1    C4 3552   0.499   0.341   9.744  0.6537 -0.5216  0.1253
  234MPD1    C5 3553   0.566   0.223   9.762  0.6352  0.1371  0.1720
  234MPD1     H 3554   0.488   0.375   9.415  0.7210 -0.8998 -1.0629
  234MPD1    H1 3555   0.483   0.404   9.831  2.2507  1.7519 -1.2246
  234MPD1    H2 3556   0.670   0.066   9.664 -0.9930 -0.0019  0.3217
  234MPD1    H3 3557   0.590   0.187   9.861  0.9985 -0.6856 -0.2122
  234MPD1     N 3558   0.394   0.512   9.595  0.6060  0.2097  0.0228
  234MPD1    H5 3559   0.382   0.544   9.500 -2.9615 -1.7141 -0.1690
  234MPD1    N1 3560   0.637   0.147   9.416 -0.0097  0.3417  0.2548
  234MPD1    H6 3561   0.592   0.162   9.326 -0.2706  2.5375  0.7701
  234MPD1    H7 3562   0.663   0.049   9.406  2.4472  0.9582  0.4301
  235MPD1     C 3563   1.781   2.611  11.294  0.1299 -0.5488  0.2682
  235MPD1    C1 3564   1.757   2.579  11.163 -0.0247  0.0797 -1.3458
  235MPD1    C2 3565   1.813   2.657  11.063 -0.4224 -0.2105  0.1507
  235MPD1    C3 3566   1.903   2.762  11.085  0.5695 -0.4063 -0.5208
  235MPD1    C4 3567   1.928   2.789  11.215 -0.1061 -0.3585 -0.0185
  235MPD1    C5 3568   1.867   2.715  11.322  0.2898 -0.4788  0.2467
  235MPD1     H 3569   1.793   2.631  10.959 -1.1922 -0.7647  0.4316
  235MPD1    H1 3570   1.995   2.867  11.247  1.4213 -1.1098 -1.3868
  235MPD1    H2 3571   1.749   2.558  11.383 -0.5074 -0.7576 -0.0873
  235MPD1    H3 3572   1.873   2.757  11.422  1.4417 -0.3240  0.1076
  235MPD1     N 3573   1.967   2.820  10.971  0.0444  0.1530  0.1532
  235MPD1    H5 3574   1.924   2.805  10.881  0.8950 -0.7345 -0.1132
  235MPD1    N1 3575   1.648   2.495  11.130  0.6922  0.1982 -0.1979
  235MPD1    H6 3576   1.674   2.442  11.047 -0.9657 -1.5706  0.4163
  235MPD1    H7 3577   1.636   2.421  11.198 -0.3037  0.8178  0.2979
  236MPD1     C 3578   1.687   3.835  10.317 -1.1749  0.4327  0.5216
  236MPD1    C1 3579   1.605   3.747  10.390  0.3610 -0.1947 -0.0271
  236MPD1    C2 3580   1.651   3.704  10.514 -0.1919 -0.1896 -0.2947
  236MPD1    C3 3581   1.777   3.732  10.558  0.3667  0.4823  0.4987
  236MPD1    C4 3582   1.852   3.823  10.491  0.1077  0.7396 -0.2497
  236MPD1    C5 3583   1.807   3.874  10.373  0.1357  0.4355 -1.0452
  236MPD1     H 3584   1.588   3.639  10.573 -0.4486 -0.7355 -1.1587
  236MPD1    H1 3585   1.943   3.862  10.534 -0.3071  0.8062  0.5539
  236MPD1    H2 3586   1.656   3.878  10.223  2.0748  0.0544 -0.7156
  236MPD1    H3 3587   1.870   3.944  10.319  1.6332 -0.0862  0.0388
  236MPD1     N 3588   1.820   3.705  10.691 -0.4812  0.0397  0.5335
  236MPD1    H5 3589   1.905   3.750  10.721 -0.8584  0.8828  0.3373
  236MPD1    N1 3590   1.494   3.696  10.330  0.1651 -0.3393  0.3572
  236MPD1    H6 3591   1.413   3.680  10.390 -2.0627 -0.2967 -2.6243
  236MPD1    H7 3592   1.464   3.758  10.254  0.4730 -1.1290 -0.4147
  237MPD1     C 3593   1.136   2.576  15.185  0.1400 -0.0539  0.3737
  237MPD1    C1 3594   1.113   2.498  15.300 -0.2454 -0.4566  0.5294
  237MPD1    C2 3595   0.996   2.414  15.313 -0.1288  0.3003  0.1280
  237MPD1    C3 3596   0.912   2.397  15.202  0.0205  0.6081  0.2463
  237MPD1    C4 3597   0.933   2.474  15.094  0.7807 -0.3006  0.4054
  237MPD1    C5 3598   1.039   2.562  15.088 -0.2455 -0.3417 -0.5088
  237MPD1     H 3599   0.994   2.358  15.406  0.2238  1.0476  0.5921
  237MPD1    H1 3600   0.867   2.456  15.009  1.8020  1.4827 -0.7648
  237MPD1    H2 3601   1.220   2.644  15.173  0.7224 -0.5376  1.6915
  237MPD1    H3 3602   1.047   2.622  14.998 -0.4150 -0.4601 -0.6022
  237MPD1     N 3603   0.800   2.312  15.200 -0.1374  0.5346  0.3098
  237MPD1    H5 3604   0.749   2.324  15.114 -1.2130 -1.4186  0.6787
  237MPD1    N1 3605   1.191   2.518  15.414  0.0014  0.0962  0.6362
  237MPD1    H6 3606   1.183   2.433  15.470  1.7087 -0.4388  0.0746
  237MPD1    H7 3607   1.288   2.540  15.392  0.5414 -0.5723  2.3289
  238MPD1     C 3608   2.509   0.217  14.970  0.1899 -0.0602 -0.2878
  238MPD1    C1 3609   2.389   0.169  15.003  0.2947 -0.4080  0.7384
  238MPD1    C2 3610   2.277   0.249  14.981 -0.9074  0.0184 -0.1019
  238MPD1    C3 3611   2.288   0.380  14.933 -0.4877  0.0178 -1.1171
  238MPD1    C4 3612   2.415   0.423  14.913 -0.3132  0.7050  0.7384
  238MPD1    C5 3613   2.521   0.342  14.927 -0.5673 -0.4049  0.6862
  238MPD1     H 3614   2.181   0.212  15.014 -0.0771 -0.9952  1.1603
  238MPD1    H1 3615   2.431   0.527  14.888  0.4496  0.3422 -0.3102
  238MPD1    H2 3616   2.599   0.158  14.979  1.1242  0.8940 -3.4503
  238MPD1    H3 3617   2.621   0.377  14.909  0.1002 -1.4017  2.4904
  238MPD1     N 3618   2.182   0.465  14.921  0.0558  0.5616  0.4322
  238MPD1    H5 3619   2.203   0.549  14.868 -1.9694  0.9173  0.1839
  238MPD1    N1 3620   2.386   0.035  15.052  0.4506  0.3381 -0.2036
  238MPD1    H6 3621   2.464   0.026  15.117 -0.1365 -1.0188  0.3059
  238MPD1    H7 3622   2.311   4.715  15.104 -0.4776  2.6260  0.4307
  239MPD1     C 3623   3.175   1.512  14.949  0.1346  0.4125  1.1540
  239MPD1    C1 3624   3.224   1.568  14.830  0.1684  0.2902 -0.9977
  239MPD1    C2 3625   3.148   1.555  14.716 -0.1045  0.0860 -0.3547
  239MPD1    C3 3626   3.012   1.533  14.720 -0.3301  0.1053 -0.9015
  239MPD1    C4 3627   2.957   1.498  14.838  1.0788 -1.2533  0.2915
  239MPD1    C5 3628   3.042   1.477  14.946  0.3208  0.3095  0.1995
  239MPD1     H 3629   3.198   1.584  14.624  1.5293  0.5975  0.7022
  239MPD1    H1 3630   2.849   1.485  14.842  1.1230 -1.2898  1.3312
  239MPD1    H2 3631   3.234   1.497  15.038 -0.6030  1.7402  1.8770
  239MPD1    H3 3632   2.991   1.432  15.030  1.4844 -1.6606 -0.1620
  239MPD1     N 3633   2.933   1.532  14.601 -0.3518  0.0103  0.5939
  239MPD1    H5 3634   2.838   1.497  14.608 -0.6135  0.5633 -0.1099
  239MPD1    N1 3635   3.361   1.592  14.810  0.4024 -0.4751  0.1996
  239MPD1    H6 3636   3.418   1.634  14.883  0.6687 -1.4058  0.5260
  239MPD1    H7 3637   3.374   1.641  14.722  0.8164  2.2614  1.8034
  240MPD1     C 3638   2.283   1.653  14.076  0.7429  0.4056 -0.1462
  240MPD1    C1 3639   2.239   1.694  14.201 -0.3167 -0.2904  0.3105
  240MPD1    C2 3640   2.169   1.603  14.276 -0.4687 -0.5479 -0.0598
  240MPD1    C3 3641   2.136   1.479  14.228 -0.2039 -0.6931  0.1126
  240MPD1    C4 3642   2.169   1.441  14.102  0.0985 -0.2834  0.6391
  240MPD1    C5 3643   2.255   1.524  14.033  0.2287 -0.6611 -0.5689
  240MPD1     H 3644   2.134   1.629  14.375  0.2811  0.2218  0.0039
  240MPD1    H1 3645   2.144   1.347  14.056  0.3040  0.2000 -0.4698
  240MPD1    H2 3646   2.348   1.712  14.012  1.2708  1.5355  1.4166
  240MPD1    H3 3647   2.268   1.486  13.933 -1.3970 -0.2049 -0.9557
  240MPD1     N 3648   2.056   1.401  14.314 -0.2310  0.2063 -0.3361
  240MPD1    H5 3649   2.051   1.428  14.411  1.1440  1.2554 -0.5666
  240MPD1    N1 3650   2.268   1.822  14.245  0.1130 -0.7424  0.0951
  240MPD1    H6 3651   2.363   1.845  14.218 -0.0822 -1.5081 -1.2405
  240MPD1    H7 3652   2.269   1.825  14.347  0.8812  1.0742  0.0327
  241MPD1     C 3653   2.160   1.351  15.143  0.3161 -0.2773 -0.0340
  241MPD1    C1 3654   2.021   1.346  15.121 -0.0353 -0.5421 -0.3653
  241MPD1    C2 3655   1.960   1.302  15.005  0.0281 -0.1676  0.8207
  241MPD1    C3 3656   2.043   1.291  14.893 -0.4533  0.0338 -0.3768
  241MPD1    C4 3657   2.177   1.315  14.914  0.5809  0.0613  0.0825
  241MPD1    C5 3658   2.233   1.345  15.031  0.0477  0.0481 -0.5458
  241MPD1     H 3659   1.853   1.286  14.996  0.1318 -0.5472  0.2828
  241MPD1    H1 3660   2.247   1.312  14.831  0.2374 -1.3808 -0.1569
  241MPD1    H2 3661   2.210   1.371  15.237  1.2733  0.0062 -0.6004
  241MPD1    H3 3662   2.341   1.346  15.040 -0.1188  0.7286  1.3500
  241MPD1     N 3663   1.989   1.256  14.766  0.4041 -0.3271  0.1053
  241MPD1    H5 3664   2.060   1.253  14.693  0.5673  2.5236  0.1375
  241MPD1    N1 3665   1.944   1.353  15.240 -0.0157 -0.0540 -0.2844
  241MPD1    H6 3666   1.851   1.388  15.217 -0.0847  0.1349  0.2919
  241MPD1    H7 3667   1.975   1.411  15.317 -0.7253 -0.3668  0.2353
  242MPD1     C 3668   1.115   0.123  15.582 -0.6624 -0.2744 -0.6964
  242MPD1    C1 3669   1.059   0.114  15.458  0.2195 -0.3046 -0.5181
  242MPD1    C2 3670   1.097   0.010  15.373  0.6339 -0.0073 -0.3688
  242MPD1    C3 3671   1.189   4.635  15.404  0.8359  0.3727  0.4111
  242MPD1    C4 3672   1.234   4.640  15.534 -0.2229 -0.3756 -0.6134
  242MPD1    C5 3673   1.207   0.024  15.614  0.2475  0.0468 -0.6441
  242MPD1     H 3674   1.037   4.717  15.285  0.1267 -3.1281  0.6036
  242MPD1    H1 3675   1.298   4.564  15.576 -1.2396 -1.3903 -0.9150
  242MPD1    H2 3676   1.076   0.187  15.660  1.8713 -0.4116  0.6635
  242MPD1    H3 3677   1.250   0.037  15.712  0.8091 -1.2025 -0.7298
  242MPD1     N 3678   1.238   4.525  15.323  0.0657 -0.4777 -0.0451
  242MPD1    H5 3679   1.303   4.461  15.367 -0.8786 -0.0731  1.9175
  242MPD1    N1 3680   0.937   0.179  15.434 -0.1034  0.4087 -0.7504
  242MPD1    H6 3681   0.925   0.263  15.490  1.3956 -0.8775  1.4765
  242MPD1    H7 3682   0.925   0.203  15.336  0.0257  0.2084 -0.8165
  243MPD1     C 3683   4.160   2.172  16.986 -0.2211 -0.4190  0.2929
  243MPD1    C1 3684   4.031   2.131  17.024 -0.3025  0.3568 -0.3024
  243MPD1    C2 3685   3.923   2.189  16.956 -0.2553  0.0308 -0.6089
  243MPD1    C3 3686   3.944   2.273  16.847 -0.0740 -0.8379  0.4582
  243MPD1    C4 3687   4.073   2.316  16.817  0.2315 -0.0039 -0.1784
  243MPD1    C5 3688   4.179   2.262  16.889  0.0969 -0.2171 -0.3372
  243MPD1     H 3689   3.820   2.173  16.986  0.1253 -0.0334  0.6511
  243MPD1    H1 3690   4.087   2.393  16.742  0.7971  0.3971  0.3383
  243MPD1    H2 3691   4.246   2.141  17.043  0.7885  0.0484 -0.9744
  243MPD1    H3 3692   4.283   2.290  16.876 -0.0816  1.5854  2.1517
  243MPD1     N 3693   3.825   2.326  16.792  0.1085 -0.8602 -0.1565
  243MPD1    H5 3694   3.737   2.297  16.834 -1.1175 -0.1701 -2.2579
  243MPD1    N1 3695   4.014   2.027  17.123  0.4959 -0.4930 -0.6651
  243MPD1    H6 3696   4.091   2.036  17.189 -1.0086 -0.7505  1.1429
  243MPD1    H7 3697   3.925   2.039  17.170  0.7741 -0.1295 -0.2256
  244MPD1     C 3698   3.231   2.540  17.346 -0.1054  0.0668  0.1851
  244MPD1    C1 3699   3.355   2.483  17.336 -0.7803  0.1948  0.0476
  244MPD1    C2 3700   3.429   2.508  17.214 -0.1815 -0.1502  0.3491
  244MPD1    C3 3701   3.367   2.571  17.104 -0.4072 -0.5809 -0.5334
  244MPD1    C4 3702   3.230   2.618  17.117  1.3586  0.6304  0.1727
  244MPD1    C5 3703   3.168   2.599  17.236 -0.1772 -0.0067  0.2414
  244MPD1     H 3704   3.531   2.474  17.206  0.5675  2.2936 -0.1658
  244MPD1    H1 3705   3.174   2.663  17.036  4.3225  2.7545 -0.7138
  244MPD1    H2 3706   3.179   2.524  17.440 -1.2639 -0.8626 -0.6051
  244MPD1    H3 3707   3.067   2.635  17.252 -1.2596 -1.7808 -2.6949
  244MPD1     N 3708   3.449   2.584  16.987  0.2335 -0.3437 -0.3343
  244MPD1    H5 3709   3.545   2.553  16.997 -0.0767 -1.5499 -1.0892
  244MPD1    N1 3710   3.418   2.429  17.453 -0.2324 -0.5424 -0.0635
  244MPD1    H6 3711   3.504   2.377  17.436  1.3974  2.1925 -0.0883
  244MPD1    H7 3712   3.356   2.366  17.505 -1.8712 -0.2101 -1.6212
  245MPD1     C 3713   4.708   3.065  13.184  0.0404 -0.0597 -0.1887
  245MPD1    C1 3714   4.690   3.147  13.296 -0.3911  0.0139  0.1752
  245MPD1    C2 3715   0.039   3.255  13.318  0.2232  0.5390 -0.1411
  245MPD1    C3 3716   0.137   3.288  13.228  0.0545 -0.5182  0.2480
  245MPD1    C4 3717   0.149   3.214  13.112 -0.2085  0.2142 -0.5687
  245MPD1    C5 3718   0.075   3.100  13.099 -0.7057  0.3307  0.2599
  245MPD1     H 3719   0.038   3.312  13.410  0.6951 -0.1069  0.2737
  245MPD1    H1 3720   0.214   3.227  13.026 -0.0806 -1.1882 -0.6816
  245MPD1    H2 3721   4.663   2.968  13.167 -1.6927  1.1821 -2.7419
  245MPD1    H3 3722   0.100   3.032  13.018 -0.1707  1.7727 -0.7982
  245MPD1     N 3723   0.214   3.402  13.263 -0.0169  0.3342  0.5303
  245MPD1    H5 3724   0.191   3.448  13.350 -1.2013  1.5661 -0.4173
  245MPD1    N1 3725   4.594   3.106  13.396 -0.1648 -0.5988 -0.1607
  245MPD1    H6 3726   4.511   3.063  13.356 -0.8092 -0.1623  0.7080
  245MPD1    H7 3727   4.564   3.186  13.451  0.3224 -0.3611 -0.2402
  246MPD1     C 3728   0.210   2.280   9.094 -0.6021  0.1382 -0.6700
  246MPD1    C1 3729   0.316   2.256   9.183 -0.1398 -0.6975  0.7783
  246MPD1    C2 3730   0.379   2.362   9.240  0.1887 -0.0790  0.9578
  246MPD1    C3 3731   0.355   2.491   9.198 -0.2727 -0.4750 -0.8056
  246MPD1    C4 3732   0.273   2.511   9.088  0.3078  0.2078  0.1917
  246MPD1    C5 3733   0.196   2.410   9.038 -0.5535  0.8956  0.3843
  246MPD1     H 3734   0.457   2.342   9.313  1.3426  1.8812  0.2466
  246MPD1    H1 3735   0.252   2.612   9.056 -0.5410  0.0357  0.2204
  246MPD1    H2 3736   0.142   2.205   9.055 -0.4952  0.4809 -1.5170
  246MPD1    H3 3737   0.115   2.431   8.969 -0.7220  0.9555  0.6026
  246MPD1     N 3738   0.425   2.594   9.274 -0.0166 -0.4211  0.7295
  246MPD1    H5 3739   0.484   2.562   9.350 -0.1985 -0.7404  0.7352
  246MPD1    N1 3740   0.330   2.123   9.232  0.4248 -0.2520 -0.3503
  246MPD1    H6 3741   0.286   2.057   9.168  1.7860 -0.8676 -0.6621
  246MPD1    H7 3742   0.427   2.094   9.243 -0.8526 -5.3732 -2.4726
  247MPD1     C 3743   4.541   2.653  16.272 -0.0074 -0.2836 -0.9218
  247MPD1    C1 3744   4.606   2.540  16.324 -0.4917 -0.0543  0.0766
  247MPD1    C2 3745   0.001   2.515  16.266  0.3452  0.1415 -0.1182
  247MPD1    C3 3746   0.061   2.589  16.168 -0.1719  0.4897 -0.1911
  247MPD1    C4 3747   0.000   2.703  16.136 -0.1815 -0.1483 -0.3134
  247MPD1    C5 3748   4.598   2.731  16.168  0.0241  0.3708  0.1186
  247MPD1     H 3749   0.055   2.427  16.300  0.2878 -0.0670 -0.5698
  247MPD1    H1 3750   0.043   2.768  16.060 -0.4175 -0.7485 -0.9519
  247MPD1    H2 3751   4.449   2.690  16.314  0.2190 -0.6775 -0.0724
  247MPD1    H3 3752   4.537   2.816  16.139  0.6854  0.9717  0.4737
  247MPD1     N 3753   0.189   2.569  16.106  0.0777 -0.6336 -0.5062
  247MPD1    H5 3754   0.223   2.633  16.035  0.0391  0.5558  0.5401
  247MPD1    N1 3755   4.570   2.471  16.432  0.2274 -0.0586  0.4103
  247MPD1    H6 3756   4.593   2.372  16.433 -0.3875 -0.2143 -1.5323
  247MPD1    H7 3757   4.472   2.471  16.459 -0.1892  0.7319 -1.1279
  248MPD1     C 3758   0.469   3.853   0.248  0.0849  0.2862 -0.3515
  248MPD1    C1 3759   0.593   3.812   0.203 -0.0091  0.7322  0.9364
  248MPD1    C2 3760   0.599   3.691   0.143  0.2809 -0.9696 -0.0922
  248MPD1    C3 3761   0.488   3.615   0.108 -0.2310 -0.4495 -0.0785
  248MPD1    C4 3762   0.362   3.669   0.144  0.5041 -0.6997 -0.4788
  248MPD1    C5 3763   0.356   3.782   0.220  0.2268 -0.2890  1.2957
  248MPD1     H 3764   0.697   3.644   0.138 -0.1085 -2.2160  4.2041
  248MPD1    H1 3765   0.268   3.623   0.118 -0.4042  0.5112  0.6649
  248MPD1    H2 3766   0.453   3.949   0.295 -3.0766  1.7958 -4.4923
  248MPD1    H3 3767   0.261   3.826   0.248  1.1821  2.2955  0.4062
  248MPD1     N 3768   0.517   3.489   0.049  0.3207  0.8631 -0.7026
  248MPD1    H5 3769   0.615   3.468   0.034  0.1811 -0.2084 -0.1459
  248MPD1    N1 3770   0.710   3.876   0.251  0.1514 -0.0658 -0.4622
  248MPD1    H6 3771   0.705   3.977   0.259 -0.8712 -0.2029  0.6398
  248MPD1    H7 3772   0.799   3.844   0.213  0.9446  0.9189  0.5714
  249MPD1     C 3773   2.032   1.748  10.557 -0.3960 -0.4337 -0.1122
  249MPD1    C1 3774   2.089   1.848  10.485 -0.0571 -0.1930  0.3361
  249MPD1    C2 3775   2.015   1.901  10.382 -0.4568 -0.1257 -0.4550
  249MPD1    C3 3776   1.903   1.833  10.337 -0.1569  0.5096 -0.3103
  249MPD1    C4 3777   1.848   1.725  10.402  0.6673 -0.0404  0.0269
  249MPD1    C5 3778   1.916   1.685  10.513  0.1662  0.6794  0.3732
  249MPD1     H 3779   2.050   1.985  10.323  0.0767  0.3911  0.5889
  249MPD1    H1 3780   1.765   1.661  10.373 -0.1936  0.9526  0.3186
  249MPD1    H2 3781   2.070   1.740  10.658 -0.8399  0.3530  0.1203
  249MPD1    H3 3782   1.875   1.605  10.573  0.6752  0.1867  0.0585
  249MPD1     N 3783   1.836   1.886  10.228 -0.3053  0.3199  0.5451
  249MPD1    H5 3784   1.887   1.955  10.173  0.3243 -0.4517  0.1532
  249MPD1    N1 3785   2.197   1.917  10.540  0.2349 -0.4915  0.7008
  249MPD1    H6 3786   2.247   1.971  10.470  0.1378  0.4955  1.3941
  249MPD1    H7 3787   2.260   1.856  10.593  0.9863 -1.3523 -1.2008
  250MPD2     C 3788   3.957   1.969  12.751 -0.3998 -0.2286  0.2350
  250MPD2    C1 3789   3.852   1.991  12.833  0.3216  0.2083 -0.3382
  250MPD2    C2 3790   3.777   1.885  12.871 -0.1830  0.0346 -0.3768
  250MPD2    C3 3791   3.812   1.756  12.839  0.4446  0.4119 -0.3727
  250MPD2    C4 3792   3.923   1.731  12.760 -0.4060 -0.2488  0.3766
  250MPD2    C5 3793   3.987   1.840  12.710  0.1403 -1.2659 -0.1449
  250MPD2     H 3794   3.686   1.903  12.926  0.1186 -1.2154  0.5542
  250MPD2    H1 3795   3.972   1.636  12.742  0.7069  0.4235 -0.1755
  250MPD2    H2 3796   4.013   2.054  12.713 -0.9596  0.8641  1.8581
  250MPD2    H3 3797   4.074   1.819  12.648  0.5672 -2.8726  1.0057
  250MPD2     N 3798   3.745   1.643  12.886 -0.3096  0.1137 -0.4368
  250MPD2    H5 3799   3.763   1.552  12.844 -3.2663  0.3069 -2.1531
  250MPD2    N1 3800   3.827   2.131  12.863  0.8371  0.8883  0.1201
  250MPD2    H7 3801   3.889   2.201  12.825 -0.6487  2.0794 -0.1175
  251TMC3    C1 3802   3.709   2.321  12.920 -0.6391 -0.1441 -0.5348
  251TMC3    C2 3803   3.664   2.381  13.031 -0.2796 -0.0042  0.4312
  251TMC3    C3 3804   3.714   2.506  13.061 -1.0471  0.0861  0.0781
  251TMC3    C4 3805   3.803   2.392  12.847  0.1007  0.6106 -0.1039
  251TMC3    C5 3806   3.869   2.508  12.885  1.3468 -0.8726  0.5442
  251TMC3    C6 3807   3.815   2.569  12.994  0.0832  0.6714  0.0387
  251TMC3     C 3808   3.710   2.177  12.925  0.4265  0.0255 -0.3043
  251TMC3     O 3809   3.628   2.114  12.991  0.3206  0.0206  0.4149
  251TMC3     H 3810   3.593   2.332  13.097 -2.1659  1.5682 -0.4270
  251TMC3    H1 3811   3.830   2.350  12.750 -1.1008  3.3365 -1.6112
  251TMC3    H2 3812   3.856   2.660  13.036  0.2583  0.8624 -0.5631
  251TMC3    C7 3813   4.009   2.466  12.887 -0.1056  0.0651 -0.0400
  251TMC3    C8 3814   3.620   2.596  13.127 -0.1508 -0.2422  0.1999
  251TMC3    O1 3815   4.030   2.348  12.855  0.0465 -0.1759 -0.4538
  251TMC3    O2 3816   3.558   2.555  13.221 -0.0247 -0.1420  0.1704
  252TMC3    C1 3817   3.957   3.452   9.264 -0.1539  0.0339 -1.2541
  252TMC3    C2 3818   4.076   3.486   9.203  0.1017 -0.3580 -0.2010
  252TMC3    C3 3819   4.185   3.445   9.266 -0.1183  0.0515  0.4364
  252TMC3    C4 3820   3.952   3.372   9.376 -0.0634 -0.6970  0.0872
  252TMC3    C5 3821   4.066   3.323   9.425  0.3806 -0.4436 -0.7012
  252TMC3    C6 3822   4.191   3.359   9.377 -0.9675  0.1615 -0.1373
  252TMC3     C 3823   3.835   3.529   9.227 -0.3449  0.5746  0.1032
  252TMC3     O 3824   3.747   3.553   9.312 -0.1259  0.4109  0.5318
  252TMC3     H 3825   4.088   3.551   9.117  4.7042 -1.7903 -0.6294
  252TMC3    H1 3826   3.857   3.358   9.426  0.6520 -1.3979  1.2410
  252TMC3    H2 3827   4.284   3.319   9.414  0.6731  1.6123 -2.7111
  252TMC3    C7 3828   4.068   3.272   9.559  0.7156  0.3816  0.1244
  252TMC3    C8 3829   4.301   3.530   9.246 -0.1253  0.4872  0.0618
  252TMC3    O1 3830   4.172   3.299   9.617 -0.3507 -0.7096  0.4824
  252TMC3    O2 3831   4.324   3.563   9.130 -0.0385 -0.0451 -0.1415
  253MPD2     C 3832   0.413   2.451  15.364 -0.0277  0.3761 -0.4357
  253MPD2    C1 3833   0.288   2.398  15.342 -0.1857 -0.3011 -0.9690
  253MPD2    C2 3834   0.244   2.289  15.414  0.3824  0.0277 -0.0758
  253MPD2    C3 3835   0.331   2.227  15.501 -0.8937  0.5027  0.6252
  253MPD2    C4 3836   0.454   2.283  15.527 -0.0393  0.4683  1.0776
  253MPD2    C5 3837   0.489   2.397  15.461 -1.0218 -0.2019 -0.6598
  253MPD2     H 3838   0.140   2.267  15.395 -0.2409  0.8844  2.4154
  253MPD2    H1 3839   0.523   2.241  15.599 -0.0722 -0.1183  0.7679
  253MPD2    H2 3840   0.444   2.542  15.313 -0.6685  0.7070 -0.2477
  253MPD2    H3 3841   0.578   2.453  15.487  0.0284 -1.4586 -1.5630
  253MPD2     N 3842   0.293   2.106  15.569  0.2279 -0.1259 -0.2634
  253MPD2    H5 3843   0.349   2.077  15.649  0.9244  0.3845 -0.5637
  253MPD2    N1 3844   0.193   2.462  15.263  0.4746 -0.1732  0.1061
  253MPD2    H7 3845   0.100   2.423  15.262  0.0688  0.8333 -1.5750
  254TMC3    C1 3846   0.131   1.963  15.654 -0.6407  0.5585 -0.7261
  254TMC3    C2 3847   4.718   1.953  15.670 -0.6908 -0.4226 -0.0039
  254TMC3    C3 3848   4.674   1.863  15.764  0.0721 -0.8558 -0.8201
  254TMC3    C4 3849   0.226   1.896  15.731  0.2896 -0.2657  0.3944
  254TMC3    C5 3850   0.175   1.812  15.824  0.0220 -0.1919 -0.0791
  254TMC3    C6 3851   0.042   1.797  15.842  0.1036  0.1318 -0.4640
  254TMC3     C 3852   0.178   2.039  15.541  0.4026  0.0393  0.4360
  254TMC3     O 3853   0.098   2.054  15.447 -0.1304 -0.3946 -0.0978
  254TMC3     H 3854   4.651   2.019  15.617  0.3787  0.4489 -0.2832
  254TMC3    H1 3855   0.330   1.890  15.699 -0.6628 -1.6358 -2.4719
  254TMC3    H2 3856   4.723   1.741  15.924  1.1733 -2.0644 -1.4372
  254TMC3    C7 3857   0.264   1.761  15.931  0.3530  0.6357 -0.7047
  254TMC3    C8 3858   4.541   1.874  15.812  0.7070 -0.0468  0.7027
  254TMC3    O1 3859   0.214   1.670  15.988  0.0494 -0.0469  0.2297
  254TMC3    O2 3860   4.533   1.853  15.932  0.0608  0.2389 -0.2894
  255MPD2     C 3861   3.955   0.522  10.029 -0.0047  0.3638 -0.1747
  255MPD2    C1 3862   3.940   0.387  10.056 -0.2335  0.9123  0.1450
  255MPD2    C2 3863   4.028   0.296  10.007  1.4688  0.8677  0.3478
  255MPD2    C3 3864   4.131   0.333   9.921 -0.1631  0.3840  0.1300
  255MPD2    C4 3865   4.140   0.471   9.892 -0.1578 -0.3444  0.0123
  255MPD2    C5 3866   4.050   0.562   9.941  0.0821  0.3159 -0.1429
  255MPD2     H 3867   4.025   0.189  10.025  0.4741  0.7306 -0.6396
  255MPD2    H1 3868   4.212   0.503   9.817 -1.8073  1.9242 -0.5873
  255MPD2    H2 3869   3.878   0.592  10.057  0.3351 -0.2280  2.1957
  255MPD2    H3 3870   4.062   0.668   9.925 -1.1119  0.3168 -1.0324
  255MPD2     N 3871   4.206   0.227   9.862 -0.0566 -0.7967 -0.4743
  255MPD2    H5 3872   4.202   0.134   9.902  0.3137 -0.3130  0.6719
  255MPD2    N1 3873   3.818   0.343  10.119  0.0517 -0.7201  0.0649
  255MPD2    H7 3874   3.748   0.409  10.153 -1.2127 -2.3696  0.6286
  256TMC3    C1 3875   3.643   0.204  10.199  0.0327 -0.1193 -0.2463
  256TMC3    C2 3876   3.608   0.302  10.285  0.1245  0.4287 -0.6851
  256TMC3    C3 3877   3.481   0.352  10.284 -0.0895  0.3436 -0.4499
  256TMC3    C4 3878   3.551   0.133  10.129  0.8994  0.2226 -0.2496
  256TMC3    C5 3879   3.418   0.175  10.142  0.7171 -0.4709  0.6267
  256TMC3    C6 3880   3.388   0.291  10.204 -0.2481 -0.1446  0.2132
  256TMC3     C 3881   3.773   0.209  10.128 -0.1160  0.3475 -0.4304
  256TMC3     O 3882   3.838   0.106  10.106 -0.0535  0.3260  0.3723
  256TMC3     H 3883   3.682   0.356  10.341  0.7939 -0.7078 -0.4631
  256TMC3    H1 3884   3.583   0.057  10.059  0.7032 -1.5506  1.5604
  256TMC3    H2 3885   3.292   0.341  10.195  0.3329  0.8412 -0.4908
  256TMC3    C7 3886   3.317   0.091  10.090  0.2960 -0.2489 -0.0385
  256TMC3    C8 3887   3.490   0.492  10.261  0.1503 -0.4512 -0.3095
  256TMC3    O1 3888   3.341   0.025   9.994  0.4645  0.7379  0.3134
  256TMC3    O2 3889   3.591   0.538  10.209  0.5526 -0.3897  0.1605
  257MPD2     C 3890   2.561   2.136  13.316 -0.0634 -0.3679 -0.2584
  257MPD2    C1 3891   2.490   2.050  13.226 -0.6315 -0.3249  0.3020
  257MPD2    C2 3892   2.454   1.922  13.262 -0.1970  0.3657 -0.0559
  257MPD2    C3 3893   2.478   1.876  13.386 -0.4491  0.3185 -0.0912
  257MPD2    C4 3894   2.560   1.949  13.475 -0.4451  0.3770 -0.2638
  257MPD2    C5 3895   2.598   2.076  13.438 -0.1190  0.3509 -0.4634
  257MPD2     H 3896   2.417   1.845  13.195  1.0424  0.7015 -1.1252
  257MPD2    H1 3897   2.596   1.913  13.571  1.3731 -0.5712 -1.3050
  257MPD2    H2 3898   2.594   2.238  13.301  2.0564 -1.2089 -1.3731
  257MPD2    H3 3899   2.669   2.134  13.496 -2.3030  1.1947  1.3485
  257MPD2     N 3900   2.435   1.745  13.420 -0.0699 -0.5851  0.0197
  257MPD2    H5 3901   2.378   1.697  13.352 -0.8104  1.6261 -0.9170
  257MPD2    N1 3902   2.465   2.105  13.093  0.4973  0.1557 -0.3834
  257MPD2    H7 3903   2.497   2.199  13.072  2.5390 -0.4830 -0.0735
  258TMC3    C1 3904   2.431   1.540  13.522  0.2649  0.0741  0.7822
  258TMC3    C2 3905   2.449   1.477  13.406 -0.4059 -0.1773  0.3145
  258TMC3    C3 3906   2.457   1.340  13.413  0.3140 -0.4051 -0.9641
  258TMC3    C4 3907   2.459   1.476  13.640  0.2745  0.2408 -0.4692
  258TMC3    C5 3908   2.487   1.339  13.639  0.5909 -0.6325 -0.4366
  258TMC3    C6 3909   2.473   1.264  13.523 -0.3290 -0.0052 -0.3299
  258TMC3     C 3910   2.458   1.682  13.543 -0.3313 -0.0115  0.0731
  258TMC3     O 3911   2.497   1.722  13.652 -0.2635 -0.1071 -0.6422
  258TMC3     H 3912   2.419   1.525  13.313 -0.7049 -2.5886 -0.8576
  258TMC3    H1 3913   2.452   1.518  13.740  0.8571  1.4101 -0.9162
  258TMC3    H2 3914   2.477   1.156  13.513 -0.9963 -0.0737  0.1701
  258TMC3    C7 3915   2.540   1.285  13.762 -0.2150 -0.9770 -0.2163
  258TMC3    C8 3916   2.450   1.272  13.280  0.2812 -0.2520 -0.0945
  258TMC3    O1 3917   2.566   1.359  13.848 -0.0196 -0.2795 -0.1268
  258TMC3    O2 3918   2.404   1.158  13.272 -0.0015  0.6688  0.4289
  259MPD2     C 3919   0.947   2.427   2.006  0.7100  0.0086  0.1217
  259MPD2    C1 3920   0.869   2.485   1.904  0.2308 -0.3433 -0.2069
  259MPD2    C2 3921   0.865   2.421   1.780  0.0466 -0.9434 -0.1913
  259MPD2    C3 3922   0.938   2.303   1.752  0.3481  0.6936 -0.2397
  259MPD2    C4 3923   1.012   2.244   1.851 -0.3963  0.0991 -0.4032
  259MPD2    C5 3924   1.005   2.299   1.977 -0.0667  0.1189 -0.1180
  259MPD2     H 3925   0.801   2.463   1.704 -0.3823 -0.9439  0.1683
  259MPD2    H1 3926   1.063   2.148   1.848 -1.3911 -0.4883  1.3481
  259MPD2    H2 3927   0.959   2.473   2.103 -1.1896 -1.0174  0.8447
  259MPD2    H3 3928   1.059   2.255   2.060  1.3658  0.1352 -1.0540
  259MPD2     N 3929   0.920   2.247   1.626  0.1624 -0.5111  0.1921
  259MPD2    H5 3930   0.863   2.295   1.558  0.7844  1.5542  1.1397
  259MPD2    N1 3931   0.808   2.610   1.937  0.6453 -0.3760 -0.1644
  259MPD2    H7 3932   0.848   2.652   2.020 -1.1787 -1.0533  1.0671
  260TMC3    C1 3933   0.951   2.098   1.442  0.3026  0.6132  0.4369
  260TMC3    C2 3934   0.860   2.173   1.371 -0.4736 -0.5521  0.5211
  260TMC3    C3 3935   0.822   2.115   1.249  0.2600  0.3452  0.0994
  260TMC3    C4 3936   1.001   1.975   1.397 -0.4265 -0.1759 -0.1934
  260TMC3    C5 3937   0.957   1.927   1.272  0.6145  0.0422 -0.1743
  260TMC3    C6 3938   0.875   2.001   1.198 -0.1991  0.4415 -0.2731
  260TMC3     C 3939   0.982   2.134   1.581 -0.0241 -0.3535  0.1502
  260TMC3     O 3940   1.069   2.072   1.641 -0.1225  0.4720  0.1141
  260TMC3     H 3941   0.816   2.264   1.408 -2.3642 -0.5319 -1.7717
  260TMC3    H1 3942   1.049   1.908   1.466  0.0497 -0.5049 -0.8501
  260TMC3    H2 3943   0.833   1.948   1.113  1.1635 -1.0571 -0.0092
  260TMC3    C7 3944   1.053   1.842   1.205 -0.4165  0.5187 -0.4401
  260TMC3    C8 3945   0.732   2.198   1.169 -0.8015  0.1059 -0.1034
  260TMC3    O1 3946   1.006   1.800   1.099 -0.6318 -0.2576  0.0476
  260TMC3    O2 3947   0.650   2.244   1.246  0.0341  0.4752 -1.0032
  261MPD2     C 3948   3.087   1.628  12.709 -0.0615 -0.6244  0.2038
  261MPD2    C1 3949   3.226   1.650  12.704 -0.6602  0.6816  0.4413
  261MPD2    C2 3950   3.277   1.759  12.629  0.9227  0.6093  0.3102
  261MPD2    C3 3951   3.185   1.839  12.558  0.1978  0.5828  1.0480
  261MPD2    C4 3952   3.048   1.822  12.572  0.0958  0.0951  0.2993
  261MPD2    C5 3953   3.001   1.714  12.645  0.1933 -0.1634 -0.5643
  261MPD2     H 3954   3.383   1.772  12.643  1.2251  0.0600 -1.3564
  261MPD2    H1 3955   2.974   1.879  12.517 -0.9460  0.7821  2.4146
  261MPD2    H2 3956   3.038   1.546  12.760 -0.2672  0.2550  1.4199
  261MPD2    H3 3957   2.895   1.697  12.659  0.0708  1.3332  0.2739
  261MPD2     N 3958   3.242   1.954  12.493  0.2365  0.1203  0.4056
  261MPD2    H5 3959   3.340   1.972  12.474  0.1114  0.8642  0.4503
  261MPD2    N1 3960   3.315   1.564  12.769 -0.4197 -0.7779 -0.1818
  261MPD2    H7 3961   3.413   1.592  12.771 -0.4125 -1.0736  3.7874
  262TMC3    C1 3962   3.251   2.170  12.393  0.2331 -0.0776 -0.2870
  262TMC3    C2 3963   3.200   2.297  12.399  0.0595  0.6411 -0.3527
  262TMC3    C3 3964   3.272   2.398  12.333 -0.3952 -0.0158 -0.3096
  262TMC3    C4 3965   3.356   2.133  12.310  0.2677  0.4465  0.0823
  262TMC3    C5 3966   3.398   2.232  12.224  0.1544  0.0808  1.0201
  262TMC3    C6 3967   3.366   2.364  12.243 -0.9575 -0.2865 -0.0899
  262TMC3     C 3968   3.169   2.065  12.451 -0.1158  0.3906 -0.5273
  262TMC3     O 3969   3.052   2.085  12.461 -0.3738  0.3506 -0.1906
  262TMC3     H 3970   3.108   2.322  12.451 -1.2205 -2.3307 -1.1699
  262TMC3    H1 3971   3.389   2.031  12.293 -0.8853  0.1162 -0.1699
  262TMC3    H2 3972   3.403   2.446  12.183  1.9439 -1.1216  0.5465
  262TMC3    C7 3973   3.355   2.191  12.094  0.1158  0.1594  0.2929
  262TMC3    C8 3974   3.189   2.487  12.257 -0.2754  0.7519  1.0475
  262TMC3    O1 3975   3.288   2.090  12.099  0.0254  0.0996  0.1560
  262TMC3    O2 3976   3.235   2.604  12.241  0.2391 -0.1074 -0.1235
  263MPD2     C 3977   3.929   1.782  11.351 -0.3444 -0.4126 -0.1973
  263MPD2    C1 3978   4.058   1.756  11.330  0.1757  1.0538 -0.2352
  263MPD2    C2 3979   4.133   1.843  11.255  0.5243  0.1223  0.2264
  263MPD2    C3 3980   4.078   1.961  11.219 -0.7247 -0.1864  0.3903
  263MPD2    C4 3981   3.946   1.984  11.253 -0.4262 -0.3026  0.2891
  263MPD2    C5 3982   3.867   1.890  11.313 -0.2047  0.0262  0.0532
  263MPD2     H 3983   4.238   1.823  11.236  0.1625 -2.2346  0.7631
  263MPD2    H1 3984   3.896   2.076  11.223  3.0295  0.9074 -1.8252
  263MPD2    H2 3985   3.879   1.702  11.405 -0.6686 -0.7624 -1.0020
  263MPD2    H3 3986   3.764   1.910  11.340  0.3365  0.0636  2.1371
  263MPD2     N 3987   4.144   2.053  11.125  0.1760 -0.4448  0.6020
  263MPD2    H5 3988   4.243   2.046  11.107 -0.4594 -2.8300 -1.9256
  263MPD2    N1 3989   4.106   1.633  11.379  0.1956 -0.1954  0.1007
  263MPD2    H7 3990   4.038   1.560  11.398 -1.8462  0.8768 -2.8855
  264TMC3    C1 3991   4.160   2.225  10.957  0.2185 -0.1073 -0.1863
  264TMC3    C2 3992   4.102   2.329  10.889  0.2376 -0.0905 -0.0515
  264TMC3    C3 3993   4.159   2.363  10.770 -0.7943  0.2925  0.1789
  264TMC3    C4 3994   4.280   2.170  10.907  0.0021  0.4409 -0.6808
  264TMC3    C5 3995   4.334   2.211  10.790  0.2327 -0.8674  0.4275
  264TMC3    C6 3996   4.272   2.304  10.713  0.5476  0.2203 -0.8809
  264TMC3     C 3997   4.079   2.149  11.050 -0.0623 -0.5210 -0.2430
  264TMC3     O 3998   3.963   2.186  11.060  0.0349 -0.1870  0.4015
  264TMC3     H 3999   4.007   2.362  10.930 -1.2071 -2.1474 -1.7687
  264TMC3    H1 4000   4.317   2.085  10.964 -2.0454 -0.2365 -0.3701
  264TMC3    H2 4001   4.319   2.337  10.621 -1.2592 -3.0879 -3.0014
  264TMC3    C7 4002   4.475   2.183  10.758  0.1594 -0.1760 -1.2626
  264TMC3    C8 4003   4.163   2.508  10.751  0.4137 -0.1594 -0.7347
  264TMC3    O1 4004   4.508   2.172  10.641 -0.3326  0.2232 -0.3313
  264TMC3    O2 4005   4.260   2.544  10.688 -0.4095 -0.3675  0.4638
  265MPD2     C 4006   1.586   1.507  15.522  0.6635 -0.6330 -0.2960
  265MPD2    C1 4007   1.592   1.636  15.478 -0.5339 -0.3287 -0.0303
  265MPD2    C2 4008   1.624   1.656  15.347 -0.2557 -0.2537 -0.2775
  265MPD2    C3 4009   1.633   1.542  15.264  1.0237  0.2417  0.3345
  265MPD2    C4 4010   1.612   1.417  15.308 -0.6516  0.1907  0.8331
  265MPD2    C5 4011   1.595   1.393  15.442  1.1621 -0.5554  0.6173
  265MPD2     H 4012   1.649   1.753  15.304 -3.0183  0.2446 -0.7668
  265MPD2    H1 4013   1.612   1.333  15.240 -2.3536  0.2076  0.8176
  265MPD2    H2 4014   1.585   1.486  15.628  1.8973  0.4731 -0.0725
  265MPD2    H3 4015   1.573   1.295  15.485  0.8820 -0.3924  0.8504
  265MPD2     N 4016   1.658   1.548  15.122  0.0055  0.5189 -0.2006
  265MPD2    H5 4017   1.645   1.457  15.078  1.0388  0.0612  0.4266
  265MPD2    N1 4018   1.565   1.752  15.558 -0.6154 -0.2610 -0.1189
  265MPD2    H7 4019   1.583   1.842  15.516  1.5008 -0.8647 -0.5053
  266TMC3    C1 4020   1.498   1.881  15.745  0.1199 -0.4900 -0.2521
  266TMC3    C2 4021   1.477   1.884  15.879  0.0123  0.1712  0.6143
  266TMC3    C3 4022   1.482   2.005  15.949  0.4271  0.0331  0.4020
  266TMC3    C4 4023   1.524   1.994  15.676 -0.8986 -1.0001  0.3938
  266TMC3    C5 4024   1.519   2.114  15.743  0.4796  0.3454 -0.3304
  266TMC3    C6 4025   1.508   2.121  15.881  0.1578  0.0495  0.0611
  266TMC3     C 4026   1.510   1.752  15.682  0.7864  0.0911  0.2179
  266TMC3     O 4027   1.479   1.661  15.757 -0.0855  0.4145  0.1117
  266TMC3     H 4028   1.468   1.794  15.939 -1.6225  0.5605  0.9398
  266TMC3    H1 4029   1.516   1.995  15.568  0.0188 -0.1855  0.3310
  266TMC3    H2 4030   1.529   2.211  15.938 -0.6241 -0.4710  1.1640
  266TMC3    C7 4031   1.533   2.231  15.659  0.4332 -0.5194  0.2429
  266TMC3    C8 4032   1.545   1.998  16.083  0.2993 -0.4519 -0.1723
  266TMC3    O1 4033   1.545   2.213  15.538 -0.0861 -0.7926  0.3744
  266TMC3    O2 4034   1.597   1.889  16.110  0.2433 -0.1425 -0.8301
  267MPD2     C 4035   3.909   2.798  16.838 -0.8856 -0.7029  0.1866
  267MPD2    C1 4036   3.950   2.915  16.887 -0.1697  0.2923  0.1329
  267MPD2    C2 4037   3.907   3.033  16.835 -0.3039 -0.1003 -0.5127
  267MPD2    C3 4038   3.816   3.027  16.732  0.4439 -0.3000 -0.0623
  267MPD2    C4 4039   3.792   2.913  16.664  0.2671  0.1450 -0.1821
  267MPD2    C5 4040   3.836   2.797  16.723  0.2737  0.3180  0.0442
  267MPD2     H 4041   3.944   3.124  16.881  1.3654 -0.9260 -0.2177
  267MPD2    H1 4042   3.731   2.902  16.575 -0.2960  3.0650 -0.1888
  267MPD2    H2 4043   3.925   2.702  16.886  0.2475  0.1936  1.5770
  267MPD2    H3 4044   3.805   2.705  16.674  1.8647  0.5205 -1.3318
  267MPD2     N 4045   3.755   3.149  16.682  0.3306 -0.3481 -0.2459
  267MPD2    H5 4046   3.692   3.134  16.604 -0.3451 -3.0676  0.7955
  267MPD2    N1 4047   4.030   2.928  17.004 -0.3103  0.3654 -0.1938
  267MPD2    H7 4048   4.071   3.020  17.019 -3.0004  1.4524  0.6816
  268TMC3    C1 4049   4.127   2.856  17.215 -0.4674 -0.3287  0.6453
  268TMC3    C2 4050   4.221   2.947  17.201 -0.6146 -0.2316  0.2320
  268TMC3    C3 4051   4.292   2.984  17.314  0.0043 -0.3736 -0.1593
  268TMC3    C4 4052   4.091   2.806  17.334  0.2719 -0.0112  0.3439
  268TMC3    C5 4053   4.164   2.843  17.444  0.0971  0.6252  0.4296
  268TMC3    C6 4054   4.261   2.942  17.438 -0.5156  0.8172 -0.5852
  268TMC3     C 4055   4.047   2.825  17.096  0.2088  0.4670  0.1224
  268TMC3     O 4056   3.989   2.716  17.102  0.4558 -0.6667 -1.0984
  268TMC3     H 4057   4.266   2.964  17.103 -1.4017 -0.9032 -0.2433
  268TMC3    H1 4058   4.006   2.740  17.341 -0.1171  0.6508  1.8347
  268TMC3    H2 4059   4.288   2.995  17.528  3.3791  0.5008 -1.5631
  268TMC3    C7 4060   4.100   2.819  17.572 -0.8302  0.4134 -0.8098
  268TMC3    C8 4061   4.399   3.082  17.302 -0.8241  0.3991  0.2856
  268TMC3    O1 4062   4.100   2.705  17.623 -0.5300  0.4267 -0.7375
  268TMC3    O2 4063   4.466   3.096  17.406 -0.1756 -0.1665 -0.4824
  269MPD2     C 4064   3.943   2.400  15.492  0.2384 -0.5098 -0.0760
  269MPD2    C1 4065   3.806   2.409  15.500  0.4245  0.5815 -0.4377
  269MPD2    C2 4066   3.742   2.535  15.500 -0.3949 -0.6855  0.9803
  269MPD2    C3 4067   3.817   2.647  15.483  1.1321 -0.1991 -0.0953
  269MPD2    C4 4068   3.958   2.642  15.466  0.3644  0.5508 -0.5179
  269MPD2    C5 4069   4.016   2.516  15.473 -0.0326  0.5932 -0.4447
  269MPD2     H 4070   3.635   2.543  15.517 -0.1556  0.5475  1.9147
  269MPD2    H1 4071   4.024   2.724  15.439  1.4109  0.5324  2.0007
  269MPD2    H2 4072   3.996   2.305  15.489  1.2576  0.0601 -0.1572
  269MPD2    H3 4073   4.123   2.497  15.474 -0.1999 -0.4123 -1.5939
  269MPD2     N 4074   3.746   2.766  15.456 -0.6652 -0.7270 -0.3718
  269MPD2    H5 4075   3.649   2.762  15.484  0.8635 -0.0240  5.0140
  269MPD2    N1 4076   3.736   2.290  15.500 -0.0910 -0.6978  0.1159
  269MPD2    H7 4077   3.794   2.206  15.497 -0.2187 -0.7510 -0.9328
  270TMC3    C1 4078   3.558   2.130  15.480  0.5719  0.2434 -0.3312
  270TMC3    C2 4079   3.468   2.091  15.387 -1.2816  0.1263 -0.7302
  270TMC3    C3 4080   3.449   1.956  15.373  0.2821 -0.5528  0.5099
  270TMC3    C4 4081   3.621   2.040  15.565  0.4738 -0.1383 -0.9719
  270TMC3    C5 4082   3.598   1.909  15.560 -0.6136  0.1332 -0.4577
  270TMC3    C6 4083   3.509   1.866  15.462  0.2118 -0.1013  0.3824
  270TMC3     C 4084   3.597   2.270  15.490 -0.7600  0.3656  0.4855
  270TMC3     O 4085   3.509   2.355  15.490 -0.1381  0.6820  0.1173
  270TMC3     H 4086   3.423   2.156  15.314 -3.3571 -1.2067 -0.6294
  270TMC3    H1 4087   3.700   2.072  15.632 -0.0201 -0.5882 -0.1843
  270TMC3    H2 4088   3.490   1.760  15.453 -1.8205  0.1569  1.5128
  270TMC3    C7 4089   3.694   1.820  15.607  0.2921  0.1516 -1.0914
  270TMC3    C8 4090   3.449   1.908  15.234 -0.2784  0.0776 -0.0378
  270TMC3    O1 4091   3.737   1.737  15.526 -0.4425 -0.2484 -0.4087
  270TMC3    O2 4092   3.433   1.992  15.153  0.0049 -0.6793  1.2438
  271MPD2     C 4093   2.947   2.307  13.776 -0.0432  0.2595 -0.0644
  271MPD2    C1 4094   2.899   2.205  13.858 -0.4671  0.0313  0.5675
  271MPD2    C2 4095   2.766   2.168  13.846 -0.1840 -0.5245 -0.9550
  271MPD2    C3 4096   2.680   2.240  13.762 -0.3582  0.1858  0.2191
  271MPD2    C4 4097   2.730   2.339  13.677  0.0491  0.1168 -0.3556
  271MPD2    C5 4098   2.867   2.364  13.683  0.0047  0.3150  0.4076
  271MPD2     H 4099   2.736   2.095  13.920 -3.5015  1.0360 -0.7395
  271MPD2    H1 4100   2.664   2.389  13.607  1.4763  2.7801  0.2062
  271MPD2    H2 4101   3.050   2.339  13.767 -0.7853  2.5494 -0.4786
  271MPD2    H3 4102   2.909   2.450  13.632 -0.7109  0.3003 -0.2088
  271MPD2     N 4103   2.543   2.204  13.752  0.4329 -0.0241  0.0874
  271MPD2    H5 4104   2.488   2.250  13.680  2.5196  0.8059 -0.9725
  271MPD2    N1 4105   2.978   2.132  13.948  0.0255  0.5036  0.1424
  271MPD2    H7 4106   2.938   2.059  14.005 -1.3771  1.5212  0.4757
  272TMC3    C1 4107   3.169   2.044  14.052 -0.0647 -0.6700 -0.2152
  272TMC3    C2 4108   3.301   2.012  14.028  0.0120 -0.2096 -0.3299
  272TMC3    C3 4109   3.364   1.930  14.119 -0.0909 -0.4118 -0.3535
  272TMC3    C4 4110   3.098   2.015  14.165 -0.8330  0.4038  0.8804
  272TMC3    C5 4111   3.172   1.943  14.255 -0.2743  0.0746 -0.0095
  272TMC3    C6 4112   3.305   1.900  14.236 -0.0336 -0.4409 -1.0359
  272TMC3     C 4113   3.116   2.135  13.954 -0.5829 -0.0564 -0.7850
  272TMC3     O 4114   3.189   2.203  13.880 -0.3090  0.0913 -0.3199
  272TMC3     H 4115   3.349   2.042  13.936  1.3508  0.4759  0.5940
  272TMC3    H1 4116   3.000   2.060  14.172  0.3525  3.2973 -1.1357
  272TMC3    H2 4117   3.352   1.864  14.327 -0.0487  0.0933 -0.8153
  272TMC3    C7 4118   3.124   1.934  14.394  0.0593 -0.4504 -0.4083
  272TMC3    C8 4119   3.492   1.872  14.076  0.0773  0.2800  0.1765
  272TMC3    O1 4120   3.009   1.917  14.405  0.0435  0.1454 -0.2202
  272TMC3    O2 4121   3.551   1.931  13.986  0.4279 -0.5262 -0.4840
  273MPD2     C 4122   4.340   0.122  11.533  0.6401  0.0082  0.3077
  273MPD2    C1 4123   4.426   0.219  11.561  0.3453  0.6438  0.0718
  273MPD2    C2 4124   4.505   0.275  11.462 -0.4491 -0.5058  0.6567
  273MPD2    C3 4125   4.486   0.232  11.335 -0.4017 -0.7223 -0.4858
  273MPD2    C4 4126   4.404   0.123  11.309 -0.7030  0.8152  0.1507
  273MPD2    C5 4127   4.335   0.067  11.410 -0.1472  0.1334  0.4624
  273MPD2     H 4128   4.577   0.354  11.482 -0.9975  0.1521  0.0060
  273MPD2    H1 4129   4.384   0.081  11.211  1.7472  0.1904 -0.0958
  273MPD2    H2 4130   4.276   0.069  11.602  0.0246 -0.5773 -0.7085
  273MPD2    H3 4131   4.267   4.709  11.394  0.2546 -0.3533  1.2273
  273MPD2     N 4132   4.546   0.291  11.223 -0.4229  0.0383  0.6629
  273MPD2    H5 4133   4.523   0.239  11.139  2.9523  1.3018 -1.0372
  273MPD2    N1 4134   4.438   0.240  11.703  0.3167 -0.5286  0.3165
  273MPD2    H7 4135   4.376   0.180  11.757 -1.6659  0.8177 -0.5134
  274TMC3    C1 4136   4.660   0.451  11.090  0.2454 -0.0235 -0.1892
  274TMC3    C2 4137   4.550   0.440  11.004 -0.0011  0.1291 -0.7305
  274TMC3    C3 4138   4.524   0.557  10.947 -0.1472 -0.1338 -0.0030
  274TMC3    C4 4139   0.018   0.563  11.090  0.2088  0.5931  0.1812
  274TMC3    C5 4140   4.701   0.677  11.033 -0.2578  0.0741  0.9186
  274TMC3    C6 4141   4.597   0.675  10.950  0.4293 -0.5313  0.3885
  274TMC3     C 4142   4.635   0.399  11.222 -0.1920  0.4179 -0.2739
  274TMC3     O 4143   4.694   0.461  11.308 -0.1694  0.0413  0.0761
  274TMC3     H 4144   4.475   0.362  11.006  0.5037 -0.3336  0.2172
  274TMC3    H1 4145   0.099   0.572  11.160  0.0860  0.5166  0.3332
  274TMC3    H2 4146   4.551   0.763  10.906  1.4976  0.4836  1.3065
  274TMC3    C7 4147   4.684   0.786  11.132  0.3027 -0.0096 -0.5179
  274TMC3    C8 4148   4.418   0.553  10.850 -0.1540  0.3023 -0.9358
  274TMC3    O1 4149   4.640   0.896  11.100  0.3746 -0.3809  0.0353
  274TMC3    O2 4150   4.334   0.460  10.864  0.2640 -0.4121 -0.0132
  275MPD2     C 4151   4.348   3.146  14.420  0.3503 -0.1315  0.3440
  275MPD2    C1 4152   4.264   3.224  14.497  0.7661  0.2308  0.6829
  275MPD2    C2 4153   4.125   3.221  14.469 -0.5811 -0.0831 -0.1111
  275MPD2    C3 4154   4.085   3.140  14.367  0.0503  0.1509  0.1956
  275MPD2    C4 4155   4.175   3.080  14.279  0.4379  0.1171  0.3373
  275MPD2    C5 4156   4.308   3.077  14.310  0.2315  0.9024  0.7286
  275MPD2     H 4157   4.052   3.273  14.530  0.4029 -0.1936  1.1579
  275MPD2    H1 4158   4.133   3.022  14.197 -0.2693  1.1755 -0.0478
  275MPD2    H2 4159   4.454   3.143  14.440  0.3684  1.0875  0.4274
  275MPD2    H3 4160   4.379   3.023  14.248 -1.1642 -0.3915  0.2569
  275MPD2     N 4161   3.951   3.106  14.350 -0.0049 -0.5604  0.2646
  275MPD2    H5 4162   3.929   3.048  14.269  1.1509 -2.2685  1.1597
  275MPD2    N1 4163   4.309   3.312  14.593  0.0256 -0.4367 -0.0180
  275MPD2    H7 4164   4.241   3.379  14.625 -0.6853  0.0671 -2.5252
  276TMC3    C1 4165   4.442   3.391  14.765  0.4368 -0.5129 -0.0309
  276TMC3    C2 4166   4.330   3.403  14.849  0.2889  0.6655 -0.2686
  276TMC3    C3 4167   4.359   3.465  14.967 -0.0012 -0.0319 -0.0618
  276TMC3    C4 4168   4.571   3.414  14.804 -0.1330  0.3503  0.2628
  276TMC3    C5 4169   4.587   3.468  14.928 -0.5870  0.1870 -0.1076
  276TMC3    C6 4170   4.483   3.508  15.006 -0.8681  0.2940  0.2026
  276TMC3     C 4171   4.429   3.303  14.655  0.3615  0.2798  0.7307
  276TMC3     O 4172   4.530   3.235  14.639  0.9123 -0.0073  0.9167
  276TMC3     H 4173   4.229   3.375  14.822  0.4186  0.5356 -0.6293
  276TMC3    H1 4174   4.657   3.383  14.746 -0.4470 -1.3607  0.7068
  276TMC3    H2 4175   4.502   3.534  15.109  2.8219 -2.5817  0.2640
  276TMC3    C7 4176   4.693   3.416  15.014 -0.4037 -0.2104 -0.3298
  276TMC3    C8 4177   4.288   3.404  15.083  0.1859 -0.1975  0.0872
  276TMC3    O1 4178   4.720   3.477  15.114 -0.3365 -0.2019 -0.1287
  276TMC3    O2 4179   4.244   3.480  15.167  0.6890  0.7732 -0.1669
  277MPD2     C 4180   1.863   1.864  13.381  0.0588 -0.1428 -0.2644
  277MPD2    C1 4181   1.734   1.905  13.373 -0.1669  0.0774  0.1482
  277MPD2    C2 4182   1.683   1.934  13.498  0.2245  0.1914 -0.3893
  277MPD2    C3 4183   1.743   1.912  13.619 -0.4630  1.0270 -0.2652
  277MPD2    C4 4184   1.875   1.871  13.626  0.3501 -0.2465  0.3957
  277MPD2    C5 4185   1.932   1.843  13.503  0.0364  0.8985  0.2715
  277MPD2     H 4186   1.577   1.956  13.502  0.3081  0.6893 -0.9707
  277MPD2    H1 4187   1.931   1.864  13.718  2.2702  0.3758 -0.7175
  277MPD2    H2 4188   1.923   1.832  13.296 -0.3625  2.6670 -1.6335
  277MPD2    H3 4189   2.033   1.807  13.484 -0.5069 -1.5866  2.0621
  277MPD2     N 4190   1.662   1.928  13.731 -0.4209 -0.0069  0.4483
  277MPD2    H5 4191   1.567   1.962  13.716 -1.0947 -1.0370  2.3906
  277MPD2    N1 4192   1.660   1.907  13.251  0.5643 -0.0047 -0.4934
  277MPD2    H7 4193   1.716   1.913  13.166 -0.7463  1.1434 -1.2802
  278TMC3    C1 4194   1.565   1.900  13.944 -0.6683  0.1021  0.4364
  278TMC3    C2 4195   1.537   1.773  13.995 -0.3008  0.0944  0.1520
  278TMC3    C3 4196   1.413   1.729  13.975  0.5603  0.7982  0.1494
  278TMC3    C4 4197   1.469   1.983  13.900 -0.1578  0.1027 -0.5851
  278TMC3    C5 4198   1.345   1.934  13.882 -0.1774  0.1833  0.4669
  278TMC3    C6 4199   1.312   1.807  13.921 -0.2531  0.2316 -0.0206
  278TMC3     C 4200   1.690   1.895  13.860 -0.7907  0.0516  0.9087
  278TMC3     O 4201   1.787   1.841  13.909  0.3638 -0.6761  0.2378
  278TMC3     H 4202   1.616   1.702  14.013 -0.1352  0.2961  0.2218
  278TMC3    H1 4203   1.490   2.088  13.884 -2.6308  0.5872 -0.6725
  278TMC3    H2 4204   1.213   1.774  13.892 -0.5324  1.0204  0.0450
  278TMC3    C7 4205   1.244   2.036  13.868 -0.6797 -0.5072 -0.3823
  278TMC3    C8 4206   1.414   1.597  13.920  0.6214  0.2330 -0.0274
  278TMC3    O1 4207   1.276   2.146  13.901 -0.5181  0.1559  0.1993
  278TMC3    O2 4208   1.455   1.508  13.991 -0.3343 -0.1311 -0.0474
  279MPD2     C 4209   0.631   1.451   0.489 -0.1494 -0.0188  0.8578
  279MPD2    C1 4210   0.529   1.551   0.495  0.1908  0.0609 -0.3905
  279MPD2    C2 4211   0.515   1.641   0.390  0.3730 -0.0523 -0.2037
  279MPD2    C3 4212   0.605   1.631   0.282 -0.0939  0.0761 -0.3868
  279MPD2    C4 4213   0.709   1.543   0.279 -0.0190 -0.2959  0.1363
  279MPD2    C5 4214   0.723   1.450   0.384  0.0937 -0.7692  0.1244
  279MPD2     H 4215   0.454   1.731   0.388  0.1608 -0.1611  1.4834
  279MPD2    H1 4216   0.782   1.549   0.199  0.7823 -1.0239  0.8161
  279MPD2    H2 4217   0.651   1.391   0.577  1.9884  0.8365  0.9419
  279MPD2    H3 4218   0.814   1.392   0.386  1.7668  1.8018 -1.5749
  279MPD2     N 4219   0.597   1.716   0.165  0.0512  0.5300  0.1301
  279MPD2    H5 4220   0.678   1.707   0.105 -1.1462  2.6627 -1.7849
  279MPD2    N1 4221   0.458   1.557   0.620 -0.0989 -0.1069  0.1336
  279MPD2    H7 4222   0.503   1.506   0.695 -1.3165  2.7467  2.8184
  280TMC3    C1 4223   0.274   1.683   0.555  0.2841  0.3858 -0.0384
  280TMC3    C2 4224   0.225   1.593   0.460  0.2653  0.1037  0.0526
  280TMC3    C3 4225   0.125   1.631   0.378 -0.3862 -0.1092 -0.1924
  280TMC3    C4 4226   0.209   1.802   0.577 -0.0674 -1.2437 -0.9080
  280TMC3    C5 4227   0.095   1.829   0.505 -0.5085 -0.0141  0.0263
  280TMC3    C6 4228   0.060   1.749   0.398 -0.7966 -0.4204 -0.3047
  280TMC3     C 4229   0.367   1.654   0.659  0.8577 -1.0206 -0.0269
  280TMC3     O 4230   0.335   1.690   0.772  0.4917  0.3080 -0.0347
  280TMC3     H 4231   0.264   1.492   0.463 -0.4888 -0.2420 -1.3442
  280TMC3    H1 4232   0.234   1.872   0.656 -0.1995 -1.9680 -0.2155
  280TMC3    H2 4233   4.688   1.770   0.353 -0.4586  0.1701 -0.7491
  280TMC3    C7 4234   0.031   1.951   0.532 -0.1027  0.0678  1.0824
  280TMC3    C8 4235   0.123   1.574   0.247 -0.3870 -0.2888  0.2136
  280TMC3    O1 4236   0.044   2.004   0.640  0.4573  0.3563  0.2548
  280TMC3    O2 4237   0.029   1.591   0.175 -0.0296 -0.7016 -0.8881
  281TMC3    C1 4238   4.111   2.092  13.145  0.0528 -0.1023  0.1093
  281TMC3    C2 4239   4.225   2.154  13.097 -0.3320 -0.6679  0.0061
  281TMC3    C3 4240   4.307   2.081  13.013  0.2477 -0.2772  0.4333
  281TMC3    C4 4241   4.074   1.968  13.102 -0.3961  0.7452 -0.2634
  281TMC3    C5 4242   4.153   1.904  13.010  0.0276  0.0260  0.3165
  281TMC3    C6 4243   4.268   1.957  12.962 -0.0664 -0.1524 -0.1027
  281TMC3     C 4244   4.034   2.155  13.246  0.5485  0.0517 -0.8455
  281TMC3     O 4245   3.961   2.079  13.312  0.0443 -0.1718  0.1859
  281TMC3     H 4246   4.261   2.240  13.152  3.2704 -0.1507 -3.1795
  281TMC3    H1 4247   3.992   1.915  13.148 -1.8436  2.5475 -0.7993
  281TMC3    H2 4248   4.329   1.890  12.902 -0.4638 -0.3779 -0.2555
  281TMC3    C7 4249   4.137   1.756  12.996 -0.7321 -0.5509  0.2980
  281TMC3    C8 4250   4.447   2.119  12.994 -0.2844  0.0661 -0.1237
  281TMC3    O1 4251   4.207   1.712  12.908 -0.1474  0.3629  0.2198
  281TMC3    O2 4252   4.521   2.024  12.962  0.1469  0.3143  0.1870
  282MPD2     C 4253   1.351   3.898  14.942 -0.1477 -0.1376 -0.2491
  282MPD2    C1 4254   1.221   3.942  14.977 -0.1771  0.1716 -0.2735
  282MPD2    C2 4255   1.121   3.948  14.880  0.3504  0.2926  0.1525
  282MPD2    C3 4256   1.147   3.915  14.748  0.2622 -0.2211  0.7878
  282MPD2    C4 4257   1.273   3.871  14.718  0.5151  0.3133  0.2826
  282MPD2    C5 4258   1.368   3.861  14.810 -0.1783 -0.7514  0.0934
  282MPD2     H 4259   1.022   3.988  14.901 -0.5901 -2.0493  0.2017
  282MPD2    H1 4260   1.305   3.847  14.617  1.1863 -0.9394  0.7952
  282MPD2    H2 4261   1.437   3.887  15.006 -0.3844 -0.6591 -0.0188
  282MPD2    H3 4262   1.468   3.828  14.785 -1.0003 -1.7617 -1.9203
  282MPD2     N 4263   1.040   3.927  14.650  0.0581 -0.0554  0.0248
  282MPD2    H5 4264   0.951   3.965  14.680 -0.7044 -2.4479  0.7556
  282MPD2    N1 4265   1.186   3.986  15.104 -0.2982 -0.2029  0.0049
  282MPD2    H7 4266   1.091   4.021  15.104  0.2167  1.2397  0.4256
  283TMC3    C1 4267   1.188   3.972  15.341  0.3137 -0.0549 -0.2600
  283TMC3    C2 4268   1.092   4.071  15.354 -0.3957  0.5932 -0.3690
  283TMC3    C3 4269   1.030   4.074  15.477  0.0924 -0.1478  0.3698
  283TMC3    C4 4270   1.216   3.881  15.439  0.1808 -0.2210  0.5477
  283TMC3    C5 4271   1.158   3.894  15.558  0.1932  0.1871  0.1651
  283TMC3    C6 4272   1.056   3.983  15.578  0.3854  0.0371  0.0026
  283TMC3     C 4273   1.260   3.955  15.217 -0.2380 -0.1073 -0.0771
  283TMC3     O 4274   1.359   3.886  15.226  0.2806 -0.2372 -0.3367
  283TMC3     H 4275   1.094   4.155  15.285 -1.0188 -0.1991 -1.3585
  283TMC3    H1 4276   1.290   3.805  15.416 -0.6955 -0.8670 -0.1469
  283TMC3    H2 4277   1.005   3.997  15.673 -1.0832  0.7386 -0.8798
  283TMC3    C7 4278   1.175   3.791  15.661  0.5163 -0.4666 -0.7511
  283TMC3    C8 4279   0.956   4.198  15.516  0.4599 -0.0809 -0.1436
  283TMC3    O1 4280   1.110   3.804  15.765  0.0762  0.5395  0.0588
  283TMC3    O2 4281   0.934   4.217  15.635  0.5009 -0.0026  0.4975
  284MPD2     C 4282   3.833   3.273  11.803 -0.6949  0.0696 -0.4906
  284MPD2    C1 4283   3.956   3.250  11.732 -0.2055 -0.8860 -0.5470
  284MPD2    C2 4284   3.979   3.139  11.653  0.0650 -0.0893  0.8621
  284MPD2    C3 4285   3.877   3.035  11.655  0.0485 -0.2562  0.1416
  284MPD2    C4 4286   3.759   3.065  11.726  0.4706  0.3797  0.0934
  284MPD2    C5 4287   3.731   3.184  11.786 -0.0610 -0.0959  0.7558
  284MPD2     H 4288   4.081   3.135  11.615  0.4599 -0.0554  1.9083
  284MPD2    H1 4289   3.684   2.986  11.730 -1.5197  2.3114  1.1350
  284MPD2    H2 4290   3.811   3.360  11.863 -2.8639 -0.0944 -1.0274
  284MPD2    H3 4291   3.633   3.197  11.831 -0.2981 -0.4270  0.3390
  284MPD2     N 4292   3.883   2.912  11.595  0.7666  0.6362 -0.2814
  284MPD2    H5 4293   3.801   2.854  11.588  1.4757 -0.9088  4.3884
  284MPD2    N1 4294   4.064   3.335  11.734  0.2790 -0.1922 -0.1649
  284MPD2    H7 4295   4.133   3.306  11.666 -0.3503  0.0842 -0.9235
  285TMC3    C1 4296   4.207   3.532  11.766  0.4179 -0.0507 -0.3624
  285TMC3    C2 4297   4.310   3.467  11.712 -0.1534 -0.2060  0.0980
  285TMC3    C3 4298   4.423   3.538  11.674  0.4589  0.1913  0.0200
  285TMC3    C4 4299   4.205   3.665  11.779 -0.3512  0.1253  0.2837
  285TMC3    C5 4300   4.325   3.728  11.759  0.4068 -0.0798  0.0313
  285TMC3    C6 4301   4.438   3.666  11.712  1.1659 -0.8263 -0.2608
  285TMC3     C 4302   4.075   3.462  11.790  0.4457 -0.4665 -0.8308
  285TMC3     O 4303   4.002   3.522  11.865 -0.2195 -0.6771  0.1530
  285TMC3     H 4304   4.290   3.366  11.679  0.2190  1.1035 -4.0796
  285TMC3    H1 4305   4.123   3.724  11.817 -1.6182 -1.0917 -0.5729
  285TMC3    H2 4306   4.535   3.713  11.697  0.7894  0.3127  0.7832
  285TMC3    C7 4307   4.309   3.852  11.688 -0.0528 -0.0499  1.0118
  285TMC3    C8 4308   4.521   3.474  11.592  0.1617 -0.5716 -0.2104
  285TMC3    O1 4309   4.416   3.909  11.680 -0.4013 -0.1007 -0.2641
  285TMC3    O2 4310   4.495   3.363  11.550  0.5796  0.9020 -0.5660
  286MPD2     C 4311   4.456   1.295   1.786 -0.4063 -0.5609 -0.3681
  286MPD2    C1 4312   4.437   1.304   1.650  0.0319 -0.5798 -0.2783
  286MPD2    C2 4313   4.517   1.216   1.568  0.0760 -0.3521  0.0871
  286MPD2    C3 4314   4.590   1.114   1.627  0.9731 -0.0470  0.1362
  286MPD2    C4 4315   4.608   1.122   1.765  0.2822  0.4223  0.4141
  286MPD2    C5 4316   4.554   1.220   1.839  0.4043 -0.4154  1.0241
  286MPD2     H 4317   4.529   1.219   1.461  1.7339 -0.7458  0.2668
  286MPD2    H1 4318   4.665   1.045   1.815  1.8418  1.8890  0.8835
  286MPD2    H2 4319   4.414   1.357   1.865 -0.6586 -0.5864 -0.4797
  286MPD2    H3 4320   4.570   1.233   1.946 -0.5771  1.2451  0.9823
  286MPD2     N 4321   4.666   1.013   1.556 -0.3215  0.3497 -0.4855
  286MPD2    H5 4322   0.007   0.953   1.606  0.4427  0.4852 -1.3174
  286MPD2    N1 4323   4.341   1.392   1.595 -0.2427  1.1170 -0.5281
  286MPD2    H7 4324   4.311   1.366   1.501 -0.8539 -1.1989  0.3126
  287TMC3    C1 4325   0.063   0.919   1.382  0.1532 -0.6488  0.9137
  287TMC3    C2 4326   0.066   0.856   1.257  0.0707  0.2603 -0.7804
  287TMC3    C3 4327   0.161   0.752   1.241  0.4945 -0.1871 -0.2999
  287TMC3    C4 4328   0.159   0.892   1.468  0.0358 -0.2069  0.1116
  287TMC3    C5 4329   0.261   0.802   1.441 -0.0492 -0.7756 -0.1362
  287TMC3    C6 4330   0.261   0.727   1.332 -0.1799 -0.4823 -0.6598
  287TMC3     C 4331   4.675   0.994   1.419 -0.1679 -0.6674  0.2122
  287TMC3     O 4332   4.606   1.042   1.328  0.1034  0.2881  0.4857
  287TMC3     H 4333   0.000   0.884   1.175 -0.1022  1.3884 -0.2615
  287TMC3    H1 4334   0.163   0.947   1.561 -1.6493  0.5915 -0.2876
  287TMC3    H2 4335   0.339   0.661   1.296  0.1479 -0.0959 -0.6641
  287TMC3    C7 4336   0.382   0.808   1.521 -0.3729 -0.4098 -0.0258
  287TMC3    C8 4337   0.168   0.668   1.120  0.2288  0.1253 -0.6209
  287TMC3    O1 4338   0.390   0.892   1.611 -0.1840 -0.5131  0.7599
  287TMC3    O2 4339   0.210   0.555   1.137  0.0715 -0.2370  0.1515
  288TMC3    C1 4340   1.138   1.840  14.763  0.1952 -0.3507  0.0137
  288TMC3    C2 4341   1.120   1.811  14.896  0.0095  0.4330 -0.5249
  288TMC3    C3 4342   1.233   1.822  14.976 -0.6722  0.1872  0.1542
  288TMC3    C4 4343   1.263   1.887  14.717 -0.6132 -0.3647 -0.4370
  288TMC3    C5 4344   1.362   1.912  14.809  0.1297 -0.1353 -0.6923
  288TMC3    C6 4345   1.352   1.873  14.937  0.4939 -0.4503  0.2116
  288TMC3     C 4346   1.022   1.875  14.682 -0.3773 -0.1082 -0.3123
  288TMC3     O 4347   1.041   1.908  14.567  0.6830 -0.2816 -0.9437
  288TMC3     H 4348   1.025   1.771  14.929  1.4623 -2.5076  0.1114
  288TMC3    H1 4349   1.263   1.931  14.617  1.7541 -0.8104 -0.6294
  288TMC3    H2 4350   1.440   1.875  15.001  0.3305 -3.3866  0.5086
  288TMC3    C7 4351   1.494   1.949  14.773 -0.1314  0.5166  0.4288
  288TMC3    C8 4352   1.242   1.766  15.107  0.2124 -0.1616  0.2985
  288TMC3    O1 4353   1.562   2.013  14.860  0.2082 -0.6074  0.5411
  288TMC3    O2 4354   1.338   1.804  15.172 -0.5762  0.1894 -0.2896
  289MPD2     C 4355   1.411   0.734  14.507 -0.2890 -0.1103  0.2053
  289MPD2    C1 4356   1.438   0.833  14.421 -0.4080 -0.0159 -0.6266
  289MPD2    C2 4357   1.359   0.846  14.305 -0.1655  0.2158 -0.0570
  289MPD2    C3 4358   1.254   0.754  14.282  0.5517  0.2458 -0.0825
  289MPD2    C4 4359   1.232   0.647  14.366 -0.0488  0.2482 -0.1856
  289MPD2    C5 4360   1.306   0.647  14.485  1.3832 -0.1984 -0.4156
  289MPD2     H 4361   1.396   0.923  14.238 -0.0482  0.9993  0.9099
  289MPD2    H1 4362   1.157   0.570  14.353 -0.6428  0.6858  0.6152
  289MPD2    H2 4363   1.467   0.719  14.598 -1.2764 -1.0554  0.6530
  289MPD2    H3 4364   1.289   0.564  14.552 -3.6353  1.1474 -0.0519
  289MPD2     N 4365   1.170   0.772  14.174  0.3110 -0.0468  1.1310
  289MPD2    H5 4366   1.097   0.702  14.164  1.1151 -0.9544  1.6808
  289MPD2    N1 4367   1.544   0.925  14.463 -0.4567 -0.2338  0.5137
  289MPD2    H7 4368   1.601   0.909  14.545  0.1708 -0.2744  0.0692
  290TMC3    C1 4369   1.057   0.879  14.009  0.0842  0.0727 -0.5395
  290TMC3    C2 4370   0.990   1.002  14.031  0.0899 -0.5603  0.7275
  290TMC3    C3 4371   0.872   1.018  13.965 -0.3428  0.0141 -0.1232
  290TMC3    C4 4372   1.003   0.780  13.937  0.5409  0.5595  0.4134
  290TMC3    C5 4373   0.878   0.801  13.886 -0.2194  1.0689  0.2236
  290TMC3    C6 4374   0.809   0.921  13.894 -0.6093 -0.4333  0.3149
  290TMC3     C 4375   1.183   0.873  14.084 -0.4353 -0.1461  0.8877
  290TMC3     O 4376   1.261   0.966  14.074  0.5282  0.1800 -0.3393
  290TMC3     H 4377   1.042   1.080  14.085 -0.3198  0.7004 -0.7248
  290TMC3    H1 4378   1.034   0.677  13.929  0.8965  0.7025 -0.0134
  290TMC3    H2 4379   0.719   0.931  13.834 -1.0133  2.3284  1.3997
  290TMC3    C7 4380   0.807   0.696  13.812 -0.0335  0.4539  0.2014
  290TMC3    C8 4381   0.782   1.134  14.001 -0.6189 -0.4573 -0.0927
  290TMC3    O1 4382   0.739   0.739  13.719 -0.2740  0.5676  0.3475
  290TMC3    O2 4383   0.666   1.111  13.977  0.1446  0.2401  0.2108
  291MPD2     C 4384   0.885   0.123   0.591 -0.0126 -0.3023 -0.0122
  291MPD2    C1 4385   0.846   0.052   0.484 -0.3446  0.0771  0.0637
  291MPD2    C2 4386   0.897   0.076   0.357  1.1837 -0.3093  0.2722
  291MPD2    C3 4387   0.987   0.181   0.337 -0.0547  0.2064  0.4189
  291MPD2    C4 4388   1.041   0.237   0.450 -0.1283  0.0342  0.0369
  291MPD2    C5 4389   0.985   0.214   0.577 -0.4959  0.2529  0.1743
  291MPD2     H 4390   0.862   0.013   0.276  0.4628 -0.4043  0.6536
  291MPD2    H1 4391   1.113   0.316   0.434  0.4411 -0.4462  0.2307
  291MPD2    H2 4392   0.855   0.096   0.692  0.9362  1.8956  0.8665
  291MPD2    H3 4393   1.028   0.252   0.669  0.9152  1.8146 -1.1487
  291MPD2     N 4394   1.034   0.225   0.207  0.7363  0.0180  0.4313
  291MPD2    H5 4395   1.101   0.301   0.198  0.9076 -0.0836  0.8281
  291MPD2    N1 4396   0.741   4.678   0.495  0.0780  0.1376  0.5556
  291MPD2    H7 4397   0.741   4.617   0.414 -0.7584 -0.1418  0.7623
  292TMC3    C1 4398   0.546   4.557   0.596 -0.0596  0.2453 -0.0359
  292TMC3    C2 4399   0.444   4.590   0.676 -0.7643  0.2118  0.0241
  292TMC3    C3 4400   0.317   4.556   0.637  0.4370  0.0308 -0.4396
  292TMC3    C4 4401   0.528   4.480   0.482  0.1783 -0.0403  0.5138
  292TMC3    C5 4402   0.404   4.435   0.452 -0.9241  0.6565  0.6944
  292TMC3    C6 4403   0.291   4.471   0.530  1.0759 -0.1840  0.5212
  292TMC3     C 4404   0.652   4.655   0.600 -0.9656 -0.4448  0.1476
  292TMC3     O 4405   0.658   4.724   0.703  0.2791 -0.2368 -0.3366
  292TMC3     H 4406   0.469   4.636   0.770 -0.2982  0.0869 -0.0382
  292TMC3    H1 4407   0.620   4.459   0.429  0.8182  2.7913  0.4883
  292TMC3    H2 4408   0.189   4.464   0.495  0.8556  0.3266  1.0595
  292TMC3    C7 4409   0.386   4.334   0.345 -0.3332 -0.4454 -0.6023
  292TMC3    C8 4410   0.235   4.553   0.755 -0.1769  0.1779 -0.4558
  292TMC3    O1 4411   0.489   4.280   0.309  0.7864 -0.4475 -0.3971
  292TMC3    O2 4412   0.265   4.612   0.856 -0.4324  0.2233 -0.5501
  293MPD2     C 4413   2.542   1.821  12.438  0.0742 -0.8485 -0.2569
  293MPD2    C1 4414   2.445   1.778  12.521  0.1624  0.1348  0.4252
  293MPD2    C2 4415   2.467   1.784  12.663 -0.0953  0.0444 -0.2536
  293MPD2    C3 4416   2.601   1.813  12.706 -0.3611  0.3871  0.6606
  293MPD2    C4 4417   2.694   1.848  12.611  0.3299  0.3960  0.3944
  293MPD2    C5 4418   2.664   1.855  12.476  0.3794 -0.5123 -0.2655
  293MPD2     H 4419   2.393   1.755  12.736  1.4738 -1.7766  0.6351
  293MPD2    H1 4420   2.794   1.876  12.641  0.4843  1.6552 -1.3043
  293MPD2    H2 4421   2.535   1.820  12.329  1.0641 -1.0290 -0.3128
  293MPD2    H3 4422   2.750   1.880  12.415  0.9067  1.5114  1.3062
  293MPD2     N 4423   2.635   1.827  12.841  0.4105 -0.1278 -0.6530
  293MPD2    H5 4424   2.570   1.781  12.903  1.4712  0.5235  0.9242
  293MPD2    N1 4425   2.318   1.741  12.468  0.2186 -0.1771  0.0155
  293MPD2    H7 4426   2.311   1.744  12.366 -1.7150 -0.3593  0.1502
  294TMC3    C1 4427   2.112   1.647  12.463 -0.2560 -0.1281  0.4080
  294TMC3    C2 4428   2.020   1.562  12.509 -0.7085  0.1991  0.1810
  294TMC3    C3 4429   1.914   1.523  12.435 -0.4365 -0.3423  0.1810
  294TMC3    C4 4430   2.089   1.713  12.342 -0.1098  0.5243  0.7956
  294TMC3    C5 4431   1.986   1.673  12.270  0.3554  0.3297 -0.3245
  294TMC3    C6 4432   1.907   1.573  12.306  0.3695 -0.0376 -0.2043
  294TMC3     C 4433   2.226   1.675  12.543  0.5613  0.1043 -0.7104
  294TMC3     O 4434   2.227   1.630  12.658 -0.1137  0.0107 -0.0066
  294TMC3     H 4435   2.041   1.512  12.603 -2.1949  1.2321  1.0645
  294TMC3    H1 4436   2.137   1.805  12.311 -0.0702 -0.1258 -1.0750
  294TMC3    H2 4437   1.817   1.548  12.252 -0.1988 -2.3737  1.8178
  294TMC3    C7 4438   1.952   1.745  12.147 -0.3580 -0.3724 -0.6697
  294TMC3    C8 4439   1.858   1.401  12.469  0.1642  0.2173  0.2410
  294TMC3    O1 4440   1.830   1.748  12.122  0.5120  0.2354 -0.3085
  294TMC3    O2 4441   1.846   1.375  12.589 -0.4215  0.0941 -0.8330
  295MPD2     C 4442   2.629   4.643  17.448  0.5679 -0.0751 -0.1088
  295MPD2    C1 4443   2.697   4.692  17.558  0.7403 -0.1674  0.0035
  295MPD2    C2 4444   2.643   4.673  17.682  0.6696  0.3346 -1.1476
  295MPD2    C3 4445   2.523   4.612  17.695 -0.6858  0.2743  0.7676
  295MPD2    C4 4446   2.459   4.560  17.581 -0.7555  0.6014  0.9657
  295MPD2    C5 4447   2.508   4.583  17.458 -1.0046  0.5624  0.1488
  295MPD2     H 4448   2.706   4.693   0.070  0.0684 -1.8376 -0.1917
  295MPD2    H1 4449   2.363   4.512  17.598 -0.9823  0.6806 -0.0940
  295MPD2    H2 4450   2.675   4.661  17.351 -2.7118 -0.3012 -1.6956
  295MPD2    H3 4451   2.456   4.566  17.364  1.3239  1.1901 -1.2585
  295MPD2     N 4452   2.462   4.606   0.125 -0.0785 -0.2454  0.0493
  295MPD2    H5 4453   2.392   4.534   0.143 -1.6129  1.7628  2.1879
  295MPD2    N1 4454   2.829   0.020  17.554  0.5374 -0.6217  0.2319
  295MPD2    H7 4455   2.870   0.041  17.644 -3.8560 -2.0767  2.5475
  296TMC3    C1 4456   2.430   4.652   0.352  0.0312  1.2026  0.1285
  296TMC3    C2 4457   2.480   4.717   0.461  0.2030  0.2824 -0.0465
  296TMC3    C3 4458   2.453   4.666   0.584  0.1060  0.0891 -0.5465
  296TMC3    C4 4459   2.367   4.533   0.363  0.2512  0.6387  0.2232
  296TMC3    C5 4460   2.355   4.474   0.484 -0.0179  0.3628 -0.7247
  296TMC3    C6 4461   2.406   4.538   0.595  0.0800 -0.3024 -0.3688
  296TMC3     C 4462   2.491   4.691   0.229  0.8248  0.0151 -0.2585
  296TMC3     O 4463   2.559   0.068   0.221  0.5373  0.6044 -0.0067
  296TMC3     H 4464   2.527   0.090   0.459  0.4151  0.2019  0.9471
  296TMC3    H1 4465   2.326   4.472   0.282  0.1292  2.7737 -1.3149
  296TMC3    H2 4466   2.418   4.497   0.695 -2.3566  2.0608  0.9182
  296TMC3    C7 4467   2.257   4.379   0.508  0.0463  0.1620  0.4097
  296TMC3    C8 4468   2.520   0.006   0.700 -0.7529  0.5051 -0.6011
  296TMC3    O1 4469   2.181   4.362   0.412 -0.8495  0.1380  0.0773
  296TMC3    O2 4470   2.531   4.666   0.806  0.0222  0.8731 -0.0648
  297MPD2     C 4471   0.400   2.013  16.524  0.6781  0.1431 -0.3913
  297MPD2    C1 4472   0.381   2.123  16.440 -0.2650 -0.3308 -0.5718
  297MPD2    C2 4473   0.453   2.240  16.461  0.3930  0.6811 -0.3549
  297MPD2    C3 4474   0.557   2.244  16.553 -0.2152  0.1810  0.0483
  297MPD2    C4 4475   0.583   2.126  16.630 -0.0909  0.0971 -0.1675
  297MPD2    C5 4476   0.509   2.016  16.612  0.1930  0.1425  0.7954
  297MPD2     H 4477   0.442   2.318  16.386  2.4338  0.6049 -0.7475
  297MPD2    H1 4478   0.663   2.115  16.703  1.2339 -0.1648 -1.6584
  297MPD2    H2 4479   0.371   1.910  16.507  0.0316  0.0020  1.5646
  297MPD2    H3 4480   0.530   1.925  16.667  0.6273 -0.3538 -0.2017
  297MPD2     N 4481   0.621   2.368  16.561  0.0243 -0.0755 -0.1134
  297MPD2    H5 4482   0.595   2.440  16.495 -3.3976 -0.6064  0.6831
  297MPD2    N1 4483   0.280   2.120  16.334  0.9367  0.4666 -0.4632
  297MPD2    H7 4484   0.266   2.207  16.283  2.6024 -0.4361 -2.4768
  298TMC3    C1 4485   0.098   2.034  16.209 -0.5565  0.2291 -0.2759
  298TMC3    C2 4486   0.155   2.095  16.105 -0.0122 -0.0592 -0.3630
  298TMC3    C3 4487   0.072   2.170  16.020  0.4021  0.4938  0.0864
  298TMC3    C4 4488   4.684   2.034  16.228  0.1066 -0.1135  0.2281
  298TMC3    C5 4489   4.605   2.090  16.138  0.1476  0.6210  0.7645
  298TMC3    C6 4490   4.660   2.170  16.036 -0.2527 -0.1261  0.2902
  298TMC3     C 4491   0.183   2.018  16.326  0.3490 -1.0593 -0.2001
  298TMC3     O 4492   0.159   1.933  16.406  0.2037  0.3251  0.3157
  298TMC3     H 4493   0.261   2.083  16.089 -0.0344  0.5384 -0.9828
  298TMC3    H1 4494   4.641   1.981  16.312 -0.7735  1.3747  0.7028
  298TMC3    H2 4495   4.604   2.233  15.968  1.8986  0.4075 -0.9754
  298TMC3    C7 4496   4.472   2.124  16.177 -0.1746  0.2161  0.4380
  298TMC3    C8 4497   0.138   2.249  15.921  0.3485  0.2654  0.0923
  298TMC3    O1 4498   4.437   2.108  16.294  0.3088  0.5944  0.0505
  298TMC3    O2 4499   0.257   2.229  15.924 -0.0342  0.1802 -0.3195
  299MPD2     C 4500   1.307   2.503  10.885  0.5764 -0.2354  0.7358
  299MPD2    C1 4501   1.369   2.613  10.829  0.4356  0.0256  0.2322
  299MPD2    C2 4502   1.316   2.675  10.716  0.2175  0.0394 -0.4166
  299MPD2    C3 4503   1.198   2.616  10.660 -0.2593 -0.2931  0.4155
  299MPD2    C4 4504   1.139   2.513  10.721 -0.3698 -0.9520  0.1891
  299MPD2    C5 4505   1.197   2.454  10.830 -0.8115  0.1850 -0.1345
  299MPD2     H 4506   1.376   2.757  10.679  1.2557 -0.2135  0.7250
  299MPD2    H1 4507   1.056   2.455  10.683 -0.4208  0.0322 -1.1800
  299MPD2    H2 4508   1.339   2.458  10.978 -0.8813 -3.4970 -0.3294
  299MPD2    H3 4509   1.144   2.369  10.871 -2.8119  0.5187 -2.0400
  299MPD2     N 4510   1.136   2.673  10.547 -0.2014 -0.9577  0.1120
  299MPD2    H5 4511   1.053   2.627  10.513  0.3170 -2.5356  0.9896
  299MPD2    N1 4512   1.468   2.675  10.909  0.3164 -0.3522 -0.1917
  299MPD2    H7 4513   1.487   2.624  10.995  1.8449  0.4796 -0.0341
  300TMC3    C1 4514   1.057   2.844  10.422 -0.2373  0.4732  0.0072
  300TMC3    C2 4515   1.052   2.982  10.441  0.3953 -0.2300  0.1993
  300TMC3    C3 4516   0.936   3.048  10.429  0.3268 -0.0664  0.1459
  300TMC3    C4 4517   0.945   2.772  10.404  0.0425  0.5870  0.6137
  300TMC3    C5 4518   0.830   2.841  10.389  0.2402 -0.3266 -0.0609
  300TMC3    C6 4519   0.823   2.972  10.412  0.0905 -0.2315  0.5678
  300TMC3     C 4520   1.175   2.786  10.480  0.2224 -0.7209  0.4176
  300TMC3     O 4521   1.278   2.852  10.493  0.3407 -0.1741  0.3316
  300TMC3     H 4522   1.144   3.030  10.473  0.0876 -1.3434  2.7257
  300TMC3    H1 4523   0.947   2.665  10.385  0.0264  1.0772 -2.1753
  300TMC3    H2 4524   0.723   3.011  10.402  0.2203  0.0661  0.4389
  300TMC3    C7 4525   0.711   2.757  10.401  0.2567 -0.0914  0.1905
  300TMC3    C8 4526   0.928   3.174  10.509  0.2548  0.8409  0.8321
  300TMC3    O1 4527   0.706   2.650  10.341 -0.0750  0.2037  0.3731
  300TMC3    O2 4528   1.017   3.199  10.589  0.5257  0.2064  0.1545
  301MPD2     C 4529   2.522   2.501   1.634  0.5658 -0.3357 -0.1785
  301MPD2    C1 4530   2.481   2.507   1.502  0.6442  0.0571  0.2738
  301MPD2    C2 4531   2.551   2.447   1.407  0.6454  0.3055  0.3390
  301MPD2    C3 4532   2.660   2.375   1.434  0.1912  0.4145 -0.5360
  301MPD2    C4 4533   2.704   2.371   1.567 -0.6328  0.2626  0.1290
  301MPD2    C5 4534   2.637   2.442   1.671  0.0111  0.3715  0.5964
  301MPD2     H 4535   2.516   2.463   1.305 -0.1621  0.8918  0.7038
  301MPD2    H1 4536   2.802   2.331   1.590 -1.0638 -1.0016 -0.2852
  301MPD2    H2 4537   2.463   2.537   1.718  1.2576 -2.9232  1.4440
  301MPD2    H3 4538   2.674   2.429   1.772 -0.3123 -1.9421  0.3999
  301MPD2     N 4539   2.746   2.311   1.340 -0.3714 -0.0875 -0.2264
  301MPD2    H5 4540   2.837   2.278   1.372  0.5600  1.4172 -1.2822
  301MPD2    N1 4541   2.359   2.563   1.453  0.5592 -0.3719 -0.3003
  301MPD2    H7 4542   2.343   2.548   1.354  0.8556  1.5794 -0.6443
  302TMC3    C1 4543   2.815   2.226   1.125 -0.6226  0.3894  0.1023
  302TMC3    C2 4544   2.931   2.182   1.178 -0.0850 -0.0039 -0.3757
  302TMC3    C3 4545   3.034   2.156   1.093  0.2981 -0.1772  0.7753
  302TMC3    C4 4546   2.793   2.236   0.988  0.2679 -0.0093 -0.0298
  302TMC3    C5 4547   2.898   2.214   0.907  0.5432  0.1074  0.2530
  302TMC3    C6 4548   3.018   2.177   0.955  0.2495  0.2263 -0.8256
  302TMC3     C 4549   2.711   2.285   1.211 -0.5438  0.0506  0.2498
  302TMC3     O 4550   2.598   2.295   1.161 -0.0392 -0.3251  0.1913
  302TMC3     H 4551   2.934   2.172   1.286 -0.6008 -0.5773 -0.4122
  302TMC3    H1 4552   2.696   2.273   0.958 -0.6388  0.0657  3.0352
  302TMC3    H2 4553   3.092   2.155   0.879  1.9883  1.8652  0.4054
  302TMC3    C7 4554   2.876   2.221   0.763  0.4038 -0.7336  0.0316
  302TMC3    C8 4555   3.142   2.068   1.129  0.0841  0.0724 -0.1902
  302TMC3    O1 4556   2.977   2.210   0.687  0.4754  0.0354  0.1693
  302TMC3    O2 4557   3.216   2.035   1.041  0.7746  0.1618 -0.5764
  303MPD2     C 4558   3.108   2.012  10.408  0.2544 -0.8802  0.5376
  303MPD2    C1 4559   2.993   1.938  10.412 -0.8815 -0.2705  0.1690
  303MPD2    C2 4560   2.876   1.995  10.357  0.5956  0.4380  0.1525
  303MPD2    C3 4561   2.891   2.098  10.268  0.1304 -0.0278 -0.9347
  303MPD2    C4 4562   3.013   2.161  10.243  0.2772  0.0122  0.3253
  303MPD2    C5 4563   3.118   2.122  10.322  0.3223  0.2714 -0.0003
  303MPD2     H 4564   2.783   1.946  10.385  0.6038 -0.2787 -1.0508
  303MPD2    H1 4565   3.023   2.241  10.170 -0.9337  0.7618  0.9772
  303MPD2    H2 4566   3.192   1.984  10.471 -0.0660  0.9154  1.7600
  303MPD2    H3 4567   3.215   2.170  10.315 -0.6850  2.3623  0.4158
  303MPD2     N 4568   2.785   2.143  10.186  0.1695 -0.4686  0.3905
  303MPD2    H5 4569   2.812   2.211  10.116  1.3767 -0.6728  0.6566
  303MPD2    N1 4570   2.997   1.813  10.480  0.0720 -0.6592 -0.5054
  303MPD2    H7 4571   3.079   1.794  10.536  0.0354  0.4585 -0.0539
  304TMC3    C1 4572   2.935   1.610  10.565  0.3347 -1.2222 -0.0833
  304TMC3    C2 4573   2.921   1.658  10.699 -0.4742  0.4166  0.6281
  304TMC3    C3 4574   2.866   1.570  10.791 -0.1838  0.3970  0.7192
  304TMC3    C4 4575   2.916   1.476  10.531  0.4949 -0.0761  0.2822
  304TMC3    C5 4576   2.880   1.388  10.629  0.0486  0.1738 -0.1178
  304TMC3    C6 4577   2.859   1.441  10.753  0.4045  0.2677  0.1408
  304TMC3     C 4578   2.906   1.711  10.466 -0.8057  0.5850 -0.3589
  304TMC3     O 4579   2.831   1.692  10.374 -0.0495  0.2458  0.1372
  304TMC3     H 4580   2.931   1.763  10.723 -2.2327  1.3564 -2.7946
  304TMC3    H1 4581   2.912   1.452  10.425 -1.5188  1.4862 -0.0016
  304TMC3    H2 4582   2.822   1.367  10.824  1.9880 -1.1389 -0.5254
  304TMC3    C7 4583   2.766   1.298  10.582  0.0238  0.0891  0.3941
  304TMC3    C8 4584   2.742   1.614  10.861 -0.6052  0.1977  0.0512
  304TMC3    O1 4585   2.665   1.312  10.653 -0.0925 -0.5932  0.5481
  304TMC3    O2 4586   2.743   1.720  10.922 -0.2606  0.1977 -0.0552
  305MPD2     C 4587   0.889   3.908  13.559  0.0150 -0.5776  0.1188
  305MPD2    C1 4588   0.940   3.801  13.622  0.5127  0.5035 -0.2547
  305MPD2    C2 4589   0.954   3.686  13.546  0.2176  0.1121  0.4304
  305MPD2    C3 4590   0.914   3.682  13.410 -0.0501  0.4984 -0.0063
  305MPD2    C4 4591   0.863   3.795  13.352  0.5962 -0.1289 -0.6238
  305MPD2    C5 4592   0.847   3.900  13.430 -0.3509  0.6484 -0.5308
  305MPD2     H 4593   0.999   3.596  13.586  0.5721  0.7252  1.4276
  305MPD2    H1 4594   0.833   3.793  13.247  1.6796  0.9643 -0.9449
  305MPD2    H2 4595   0.861   4.000  13.609  0.9663  0.7099 -1.7406
  305MPD2    H3 4596   0.798   3.988  13.392  0.2043  1.0513 -0.3136
  305MPD2     N 4597   0.956   3.583  13.326  0.5501  0.2047  0.3014
  305MPD2    H5 4598   0.950   3.601  13.226 -0.2028 -0.8960  0.1418
  305MPD2    N1 4599   0.978   3.811  13.760 -0.3184  0.8464  0.0619
  305MPD2    H7 4600   0.978   3.905  13.799  1.1328  0.0974  1.8453
  306TMC3    C1 4601   1.086   3.771  13.961 -0.3768 -0.0805  0.2428
  306TMC3    C2 4602   1.166   3.682  14.031 -0.3075 -0.2737 -0.6710
  306TMC3    C3 4603   1.227   3.736  14.149  0.6377 -0.6325  0.2308
  306TMC3    C4 4604   1.061   3.897  14.006 -0.3088  0.0923  0.1679
  306TMC3    C5 4605   1.110   3.947  14.121  0.4232  1.1577  0.3595
  306TMC3    C6 4606   1.198   3.864  14.191 -0.2621 -0.0529 -0.3712
  306TMC3     C 4607   1.038   3.716  13.836  0.2081  0.0918 -0.3275
  306TMC3     O 4608   1.047   3.594  13.823  0.6660  0.1134  0.2424
  306TMC3     H 4609   1.188   3.583  13.991  0.4409 -0.4627  0.2167
  306TMC3    H1 4610   0.987   3.959  13.957 -0.6756 -0.2374  0.3101
  306TMC3    H2 4611   1.226   3.890  14.293  1.1984  0.0260 -0.7862
  306TMC3    C7 4612   1.040   4.053  14.189 -0.5231 -0.3215  0.1570
  306TMC3    C8 4613   1.328   3.662  14.216  0.0806 -0.3702 -0.0682
  306TMC3    O1 4614   0.925   4.076  14.142 -0.1024  0.1898 -0.0366
  306TMC3    O2 4615   1.352   3.546  14.174  0.0058  0.5126  0.3019
  307MPD2     C 4616   3.572   0.508   0.634  0.4423 -0.2184  0.3339
  307MPD2    C1 4617   3.567   0.643   0.657  0.2579  0.2467  0.0100
  307MPD2    C2 4618   3.461   0.696   0.734 -0.4342 -0.0506 -0.4608
  307MPD2    C3 4619   3.362   0.619   0.786 -0.6256 -0.1135  0.5738
  307MPD2    C4 4620   3.371   0.483   0.758  0.9436  0.2003  0.7947
  307MPD2    C5 4621   3.475   0.429   0.690  0.0436 -0.5512 -0.1561
  307MPD2     H 4622   3.464   0.804   0.746 -0.7022  0.0151 -0.9807
  307MPD2    H1 4623   3.295   0.416   0.795  0.3407 -0.9420 -2.4991
  307MPD2    H2 4624   3.640   0.469   0.559 -0.5111  1.6973 -1.5305
  307MPD2    H3 4625   3.467   0.322   0.673 -2.3696 -0.7018  1.9603
  307MPD2     N 4626   3.250   0.674   0.853  0.4896  0.0432  1.1159
  307MPD2    H5 4627   3.251   0.773   0.870  0.3541  0.5418 -1.7097
  307MPD2    N1 4628   3.661   0.727   0.603 -0.3984  0.2457 -0.3628
  307MPD2    H7 4629   3.655   0.828   0.610  2.3503  0.1983  2.6015
  308TMC3    C1 4630   2.890   0.846   0.783  0.5648 -0.4241  0.7293
  308TMC3    C2 4631   2.927   0.959   0.859  0.3672 -0.1299 -0.1882
  308TMC3    C3 4632   3.031   0.944   0.944  0.0659 -0.8182  1.0260
  308TMC3    C4 4633   2.938   0.725   0.807 -0.4847  0.2816  0.3661
  308TMC3    C5 4634   3.031   0.713   0.900 -0.4274 -0.8255 -0.4573
  308TMC3    C6 4635   3.083   0.825   0.970  0.0760  0.3377  0.1527
  308TMC3     C 4636   2.785   0.849   0.685  0.2124 -0.3608 -0.3778
  308TMC3     O 4637   2.729   0.743   0.666 -0.2854 -0.0807 -0.2995
  308TMC3     H 4638   2.883   1.057   0.844  1.6692  0.5982  0.7464
  308TMC3    H1 4639   2.902   0.634   0.761  2.3412  0.4399 -2.1266
  308TMC3    H2 4640   3.160   0.806   1.045  2.0687  0.2009 -1.9507
  308TMC3    C7 4641   3.132   0.612   0.870 -0.1749  0.3483 -0.3576
  308TMC3    C8 4642   3.075   1.060   1.014  0.0160 -0.3508  0.3626
  308TMC3    O1 4643   3.097   0.504   0.821 -0.6498  0.0523 -0.0176
  308TMC3    O2 4644   3.120   1.043   1.125  0.8284 -0.1190  0.0996
  309MPD2     C 4645   3.175   1.882  17.159 -0.8950  0.7245 -0.7860
  309MPD2    C1 4646   3.103   1.896  17.042  0.8911  0.3508  0.0046
  309MPD2    C2 4647   2.967   1.915  17.044  0.4998 -0.5091 -0.2767
  309MPD2    C3 4648   2.896   1.923  17.164 -0.2234  0.3431 -0.4605
  309MPD2    C4 4649   2.967   1.900  17.279 -0.3093 -0.5213  0.3820
  309MPD2    C5 4650   3.099   1.878  17.273  0.6150  0.3846 -0.4930
  309MPD2     H 4651   2.921   1.936  16.948  1.5810 -0.9454 -0.8858
  309MPD2    H1 4652   2.920   1.905  17.377 -2.2694 -0.6602 -0.5537
  309MPD2    H2 4653   3.283   1.870  17.159 -1.0741 -0.8681  2.6702
  309MPD2    H3 4654   3.154   1.839  17.358 -1.7743  1.7823  1.7119
  309MPD2     N 4655   2.759   1.965  17.170  0.5880 -0.1238 -0.5636
  309MPD2    H5 4656   2.727   1.982  17.265 -1.7537 -0.9147 -1.2166
  309MPD2    N1 4657   3.165   1.891  16.916 -0.5151  0.5278  0.2433
  309MPD2    H7 4658   3.107   1.877  16.834 -0.8285 -1.2039  0.7618
  310TMC3    C1 4659   3.321   1.883  16.752  0.5340 -0.6892  0.6023
  310TMC3    C2 4660   3.223   1.934  16.667  0.3825  0.0862  0.4531
  310TMC3    C3 4661   3.249   1.943  16.531 -0.0364 -0.4205 -0.4088
  310TMC3    C4 4662   3.441   1.843  16.700  0.8119 -0.6378  0.0996
  310TMC3    C5 4663   3.458   1.847  16.561 -0.2899 -0.1485  0.8501
  310TMC3    C6 4664   3.365   1.902  16.477  0.4601  1.0876  0.3872
  310TMC3     C 4665   3.300   1.889  16.890 -0.0990 -0.3116 -0.4533
  310TMC3     O 4666   3.395   1.902  16.963  0.0428  0.5448 -0.3490
  310TMC3     H 4667   3.137   1.990  16.700 -1.9874 -1.4013 -3.1710
  310TMC3    H1 4668   3.520   1.805  16.764  0.7837 -3.3421 -1.4611
  310TMC3    H2 4669   3.373   1.882  16.371  1.0704  0.6249  0.5216
  310TMC3    C7 4670   3.568   1.779  16.496 -0.5396  0.6028  0.0474
  310TMC3    C8 4671   3.151   1.978  16.439 -0.5819 -0.5416 -0.2018
  310TMC3    O1 4672   3.550   1.749  16.377  0.2790 -0.3348 -0.1384
  310TMC3    O2 4673   3.189   2.029  16.333  0.7268 -0.1005 -0.2942
  311MPD2     C 4674   0.437   3.728  12.759  0.1640  0.0474 -0.1189
  311MPD2    C1 4675   0.406   3.860  12.726 -0.0610 -0.2132 -0.7848
  311MPD2    C2 4676   0.272   3.898  12.756 -0.3291  0.0867  0.2541
  311MPD2    C3 4677   0.181   3.808  12.801 -0.1233  0.3140 -0.5431
  311MPD2    C4 4678   0.215   3.683  12.842 -0.2430 -0.1110  0.1224
  311MPD2    C5 4679   0.346   3.646  12.808 -0.5495 -0.0193 -0.2314
  311MPD2     H 4680   0.237   4.000  12.747  1.1684  0.4993 -0.9577
  311MPD2    H1 4681   0.145   3.611  12.882 -1.3803  0.2708 -1.2055
  311MPD2    H2 4682   0.533   3.685  12.735  0.3557 -1.1011  2.6407
  311MPD2    H3 4683   0.371   3.543  12.832 -0.0168  0.8674  3.0490
  311MPD2     N 4684   0.048   3.854  12.808 -0.6497  0.1467 -0.2533
  311MPD2    H5 4685   0.040   3.954  12.788  1.3353  0.6014  1.3130
  311MPD2    N1 4686   0.498   3.949  12.678 -0.7242  0.1112  0.2011
  311MPD2    H7 4687   0.472   4.045  12.698 -0.5232  0.2483 -0.1972
  312TMC3    C1 4688   4.538   3.854  12.806  0.7297 -0.1151 -0.2135
  312TMC3    C2 4689   4.431   3.803  12.739  0.0859 -0.0622 -0.5023
  312TMC3    C3 4690   4.327   3.891  12.725 -0.4822  0.0487  0.1516
  312TMC3    C4 4691   4.524   3.949  12.907 -1.0062 -0.2182  0.0611
  312TMC3    C5 4692   4.410   4.025  12.900 -0.4600 -0.1194 -1.0991
  312TMC3    C6 4693   4.319   4.006  12.807 -0.1431  0.2771 -0.0701
  312TMC3     C 4694   4.658   3.777  12.807 -0.0245  0.2266  0.5128
  312TMC3     O 4695   4.642   3.656  12.809 -0.8439  0.1510 -0.0845
  312TMC3     H 4696   4.438   3.714  12.677 -0.5415  0.1495 -0.8830
  312TMC3    H1 4697   4.607   3.976  12.970 -0.3560  0.4388 -1.0785
  312TMC3    H2 4698   4.225   4.058  12.820 -0.1902 -0.0170  0.7537
  312TMC3    C7 4699   4.355   4.077  13.024 -0.0391  0.4535 -0.5102
  312TMC3    C8 4700   4.204   3.839  12.676  0.9340 -0.0197 -0.2513
  312TMC3    O1 4701   4.259   4.150  13.015 -0.5377  0.2913  0.6193
  312TMC3    O2 4702   4.188   3.716  12.690 -0.0030  0.0873  0.3852
  313MPD2     C 4703   0.173   3.180  10.665  0.4135  0.1432  0.0944
  313MPD2    C1 4704   0.072   3.112  10.601  0.0152  0.2258 -0.4604
  313MPD2    C2 4705   0.096   3.025  10.491 -0.4114 -0.4441 -0.6406
  313MPD2    C3 4706   0.229   3.015  10.443 -0.3582 -0.0568  0.2394
  313MPD2    C4 4707   0.328   3.099  10.504  0.0310 -0.0491  0.5984
  313MPD2    C5 4708   0.300   3.175  10.615  0.1800 -0.7973 -0.2898
  313MPD2     H 4709   0.018   2.965  10.445  0.0989 -0.3270 -1.6736
  313MPD2    H1 4710   0.433   3.093  10.478 -0.5879 -0.6057 -1.7617
  313MPD2    H2 4711   0.163   3.240  10.754 -4.5757  1.6088 -1.4257
  313MPD2    H3 4712   0.380   3.224  10.668 -1.3758  1.5783 -0.1440
  313MPD2     N 4713   0.265   2.917  10.342  0.2621 -0.1101 -0.4873
  313MPD2    H5 4714   0.197   2.847  10.315 -0.9011  1.1070 -0.7007
  313MPD2    N1 4715   4.658   3.141  10.636 -0.4776 -0.1270  0.1821
  313MPD2    H7 4716   4.584   3.095  10.584 -2.1243  2.1233  0.5448
  314TMC3    C1 4717   4.475   3.225  10.762 -0.3155 -0.2144  0.4430
  314TMC3    C2 4718   4.419   3.253  10.885  0.7311 -0.7975 -0.1310
  314TMC3    C3 4719   4.289   3.284  10.882  0.1458 -0.1968 -0.3133
  314TMC3    C4 4720   4.406   3.249  10.647 -0.4493  0.0803 -0.2591
  314TMC3    C5 4721   4.270   3.291  10.645 -0.3817 -0.2046  0.5194
  314TMC3    C6 4722   4.217   3.307  10.770 -0.0612  0.4047 -0.8212
  314TMC3     C 4723   4.616   3.198  10.750 -0.0097 -0.5668 -0.5381
  314TMC3     O 4724   4.677   3.239  10.850 -0.4721 -0.5208 -0.1629
  314TMC3     H 4725   4.482   3.244  10.973 -0.1980 -0.9970  0.5067
  314TMC3    H1 4726   4.447   3.256  10.547 -0.1152 -3.1859 -0.3628
  314TMC3    H2 4727   4.122   3.359  10.780 -1.0653 -1.7282  0.8902
  314TMC3    C7 4728   4.227   3.377  10.538 -0.3232 -0.2584  0.0369
  314TMC3    C8 4729   4.246   3.362  10.997 -0.1747  0.5690 -0.1901
  314TMC3    O1 4730   4.106   3.390  10.536 -0.2625 -0.6375 -0.2208
  314TMC3    O2 4731   4.127   3.382  11.024 -0.1355 -0.0444  0.2540
  315MPD2     C 4732   4.196   1.633  17.394  0.2428 -0.4724  0.9363
  315MPD2    C1 4733   4.238   1.662  17.520 -0.7455  0.3630 -0.0441
  315MPD2    C2 4734   4.258   1.795  17.548  0.2883 -0.6454 -0.2803
  315MPD2    C3 4735   4.259   1.892  17.452  0.1145 -0.7790  0.0493
  315MPD2    C4 4736   4.226   1.856  17.322  1.0272  0.1300  0.3551
  315MPD2    C5 4737   4.196   1.727  17.298 -0.0143  0.5633 -0.2079
  315MPD2     H 4738   4.277   1.820  17.651 -1.4849 -0.2139 -0.0614
  315MPD2    H1 4739   4.225   1.924  17.238 -1.5374 -1.1525 -0.6829
  315MPD2    H2 4740   4.170   1.532  17.365  4.1044 -1.3184  0.3926
  315MPD2    H3 4741   4.155   1.703  17.200  1.7856 -1.8380 -0.3796
  315MPD2     N 4742   4.285   2.028  17.492 -0.3512  0.0005 -0.0062
  315MPD2    H5 4743   4.278   2.051  17.591 -1.3538  2.3639 -0.6241
  315MPD2    N1 4744   4.253   1.560  17.621 -0.6342 -0.5016  0.2633
  315MPD2    H7 4745   4.299   1.582   0.011 -0.7754  1.2251 -0.0909
  316TMC3    C1 4746   4.309   2.270  17.471 -0.5111 -0.0831 -0.0147
  316TMC3    C2 4747   4.336   2.279  17.606  0.0598 -0.3506 -0.4225
  316TMC3    C3 4748   4.344   2.410  17.659 -0.1673 -0.0209 -0.5266
  316TMC3    C4 4749   4.311   2.378  17.389  0.0302 -0.4324  0.1151
  316TMC3    C5 4750   4.331   2.498  17.448  0.2957 -0.5884  0.3257
  316TMC3    C6 4751   4.348   2.518  17.584  0.1350  0.1871  0.6907
  316TMC3     C 4752   4.297   2.139  17.404  0.2190 -0.4023 -0.1797
  316TMC3     O 4753   4.294   2.145  17.283  0.4060 -0.3271 -0.0929
  316TMC3     H 4754   4.320   2.197  17.675  1.6033  0.6180  1.0819
  316TMC3    H1 4755   4.300   2.367  17.282 -0.5377 -0.5188  0.1858
  316TMC3    H2 4756   4.350   2.617  17.628  0.6340  0.2215  0.5959
  316TMC3    C7 4757   4.393   2.592  17.358  0.4834  0.6053 -0.3180
  316TMC3    C8 4758   4.395   2.411   0.094 -0.2170  0.2670  0.0656
  316TMC3    O1 4759   4.464   2.670  17.421  0.5531  0.1389  0.0044
  316TMC3    O2 4760   4.359   2.505   0.167 -0.0934 -0.5418 -0.1109
  317MPD2     C 4761   1.693   0.946  13.057  0.0985  0.7295  0.1097
  317MPD2    C1 4762   1.750   0.816  13.057  0.2551  0.4288  0.2681
  317MPD2    C2 4763   1.765   0.756  13.176 -0.2082  0.2162 -0.4103
  317MPD2    C3 4764   1.709   0.808  13.289  0.0100  0.0918 -0.2328
  317MPD2    C4 4765   1.636   0.922  13.279  0.0657 -0.1072  0.1978
  317MPD2    C5 4766   1.620   0.989  13.161 -0.0620 -0.2404  0.5758
  317MPD2     H 4767   1.815   0.660  13.187  0.5638  0.4241 -2.0471
  317MPD2    H1 4768   1.573   0.951  13.362  0.9677  0.4010  0.7061
  317MPD2    H2 4769   1.662   0.987  12.961  3.0162 -1.2863 -1.7122
  317MPD2    H3 4770   1.551   1.070  13.144 -0.4884 -1.1250 -1.9373
  317MPD2     N 4771   1.711   0.731  13.411  0.6851 -0.9816  0.3819
  317MPD2    H5 4772   1.781   0.657  13.414  0.0119 -1.5833  1.1326
  317MPD2    N1 4773   1.801   0.754  12.940 -0.1693  0.1952  1.1018
  317MPD2    H7 4774   1.850   0.670  12.968  1.3320  0.3958 -0.9999
  318TMC3    C1 4775   1.666   0.625  13.591  0.7311  0.4307  0.3869
  318TMC3    C2 4776   1.612   0.501  13.561  0.1675 -0.1228  0.1615
  318TMC3    C3 4777   1.691   0.392  13.539  0.7600  0.4166 -0.0769
  318TMC3    C4 4778   1.799   0.636  13.615  0.1688 -0.5309  0.3290
  318TMC3    C5 4779   1.871   0.522  13.626  0.0667  0.0207  0.3466
  318TMC3    C6 4780   1.819   0.395  13.587  0.1545 -0.1246 -0.2847
  318TMC3     C 4781   1.620   0.729  13.508  0.0966 -0.5632 -0.3336
  318TMC3     O 4782   1.510   0.777  13.513  0.3441 -0.0286 -0.6399
  318TMC3     H 4783   1.508   0.495  13.529 -0.0937 -0.0945  1.0048
  318TMC3    H1 4784   1.853   0.725  13.645 -0.1672  0.6250 -2.4655
  318TMC3    H2 4785   1.884   0.310  13.573 -0.4073 -0.5610 -0.2503
  318TMC3    C7 4786   2.010   0.538  13.653 -0.1641  0.3291  0.4517
  318TMC3    C8 4787   1.685   0.324  13.409  0.1137 -0.6337 -0.4642
  318TMC3    O1 4788   2.057   0.647  13.630 -0.4190  0.8282 -0.3621
  318TMC3    O2 4789   1.794   0.314  13.352 -0.0488 -0.3567 -0.0914
  319MPD2     C 4790   2.713   1.516  16.586 -0.2136  0.8679  0.0056
  319MPD2    C1 4791   2.603   1.505  16.670 -0.1740 -0.2992  0.1221
  319MPD2    C2 4792   2.481   1.491  16.617  0.4426  0.4338  0.1915
  319MPD2    C3 4793   2.462   1.496  16.477 -0.2323  0.5002 -0.3724
  319MPD2    C4 4794   2.570   1.510  16.400 -0.8748  0.2862  0.3725
  319MPD2    C5 4795   2.692   1.520  16.454  0.0550  0.8105  0.0382
  319MPD2     H 4796   2.391   1.476  16.676 -0.4065 -1.8386 -1.6949
  319MPD2    H1 4797   2.564   1.516  16.292  0.6445  1.2445  0.3564
  319MPD2    H2 4798   2.816   1.525  16.621 -0.2914 -0.5819  0.5949
  319MPD2    H3 4799   2.777   1.544  16.391  1.1816 -0.2859  1.1411
  319MPD2     N 4800   2.337   1.484  16.415  0.4525  0.9513  0.3550
  319MPD2    H5 4801   2.338   1.481  16.313 -2.0644 -2.9276  0.4418
  319MPD2    N1 4802   2.617   1.503  16.816  0.2902 -0.6389  0.0172
  319MPD2    H7 4803   2.533   1.489  16.870 -0.9025  1.1528 -1.3269
  320TMC3    C1 4804   2.097   1.500  16.385 -0.2982 -0.7868  0.0211
  320TMC3    C2 4805   2.106   1.601  16.299 -0.3738  0.1672 -0.0508
  320TMC3    C3 4806   2.008   1.630  16.216 -0.4867 -0.5823 -0.6981
  320TMC3    C4 4807   1.989   1.419  16.395 -0.8316 -0.3452  0.4494
  320TMC3    C5 4808   1.893   1.447  16.308  0.0413 -0.8630 -0.4665
  320TMC3    C6 4809   1.896   1.547  16.216 -0.4124  0.5085  0.2933
  320TMC3     C 4810   2.209   1.482  16.475 -0.3205 -0.1357 -0.6960
  320TMC3     O 4811   2.186   1.479  16.595  0.2907  0.0166  0.6860
  320TMC3     H 4812   2.202   1.650  16.285  0.1327 -0.4941  1.1051
  320TMC3    H1 4813   1.994   1.331  16.459 -1.0662  0.3090  1.3670
  320TMC3    H2 4814   1.816   1.570  16.147  0.2193 -2.4888 -1.4318
  320TMC3    C7 4815   1.809   1.339  16.276 -0.4799 -0.0882 -0.6897
  320TMC3    C8 4816   1.997   1.769  16.185  0.0348  0.4342  0.1874
  320TMC3    O1 4817   1.799   1.300  16.163  0.5459 -0.7805 -0.3668
  320TMC3    O2 4818   2.026   1.840  16.280 -0.3515 -0.0825  0.0210
  321TMC3    C1 4819   2.705   1.522  17.025 -0.3164 -0.6227 -0.1758
  321TMC3    C2 4820   2.594   1.454  17.070 -0.0925  0.1820 -0.6303
  321TMC3    C3 4821   2.595   1.440  17.210 -0.1643 -0.0600  0.4966
  321TMC3    C4 4822   2.810   1.568  17.104  0.3949  0.4131  0.5512
  321TMC3    C5 4823   2.798   1.558  17.242  0.6115 -0.3901 -0.6909
  321TMC3    C6 4824   2.684   1.497  17.292  0.0258 -0.1877  0.5066
  321TMC3     C 4825   2.735   1.529  16.889 -0.1201  0.4923  0.3980
  321TMC3     O 4826   2.844   1.573  16.846  0.1378 -0.1690 -0.5659
  321TMC3     H 4827   2.522   1.396  17.014  0.9580 -1.2691 -0.4810
  321TMC3    H1 4828   2.901   1.610  17.064  0.4581 -0.4558 -0.2160
  321TMC3    H2 4829   2.660   1.506  17.397  2.3734 -1.0848  1.1192
  321TMC3    C7 4830   2.918   1.538  17.324  0.2645 -0.2112  0.3328
  321TMC3    C8 4831   2.577   1.294  17.234 -0.5444  0.2869  0.2680
  321TMC3    O1 4832   2.893   1.483  17.434 -0.4155 -0.0980 -0.0272
  321TMC3    O2 4833   2.511   1.225  17.159  0.4239  0.1719 -0.0605
  322MPD2     C 4834   0.953   3.092  13.343 -1.2383 -0.0557 -0.1601
  322MPD2    C1 4835   1.013   3.031  13.447 -0.1541 -0.0286 -0.1578
  322MPD2    C2 4836   1.060   2.902  13.428  0.4849  0.0390  0.1886
  322MPD2    C3 4837   1.053   2.840  13.303  0.3515  0.3766  0.3626
  322MPD2    C4 4838   0.997   2.907  13.193  0.5915  1.0429 -0.5664
  322MPD2    C5 4839   0.950   3.029  13.223  0.2814  0.6448 -0.0928
  322MPD2     H 4840   1.094   2.839  13.509 -2.1760 -1.4373  0.1730
  322MPD2    H1 4841   1.008   2.871  13.091 -1.4323 -0.0182 -0.4128
  322MPD2    H2 4842   0.897   3.185  13.339  1.7500  1.8298  1.7415
  322MPD2    H3 4843   0.896   3.081  13.144  4.1515  3.8114 -0.6552
  322MPD2     N 4844   1.089   2.703  13.296 -0.1939 -0.6373 -0.3788
  322MPD2    H5 4845   1.105   2.656  13.385  1.2178 -0.9131 -0.7709
  322MPD2    N1 4846   1.022   3.110  13.570  0.3522 -0.0209 -0.0395
  322MPD2    H7 4847   0.993   3.207  13.564 -0.6150 -0.4445 -2.2715
  323TMC3    C1 4848   1.086   3.165  13.795 -0.2656 -0.0148 -0.2114
  323TMC3    C2 4849   1.152   3.275  13.745  0.2282 -0.7447  0.2693
  323TMC3    C3 4850   1.228   3.339  13.839  0.1043  0.1790  0.2034
  323TMC3    C4 4851   1.101   3.118  13.920 -0.1358  0.8168  0.0331
  323TMC3    C5 4852   1.179   3.185  14.005  0.6386  0.1707  0.6957
  323TMC3    C6 4853   1.242   3.300  13.967 -0.4973  0.3754 -0.2905
  323TMC3     C 4854   1.066   3.059  13.693  0.0705 -0.1105  0.2396
  323TMC3     O 4855   1.087   2.946  13.729 -0.6697  0.5180  0.2371
  323TMC3     H 4856   1.169   3.286  13.638 -1.2055 -0.1275  0.1016
  323TMC3    H1 4857   1.049   3.026  13.944  0.0427  0.2850 -1.6038
  323TMC3    H2 4858   1.316   3.345  14.032 -1.5648 -2.2878  2.8048
  323TMC3    C7 4859   1.185   3.140  14.145  0.3976 -0.5715 -0.3352
  323TMC3    C8 4860   1.335   3.425  13.787  0.2281  0.2638  0.3722
  323TMC3    O1 4861   1.158   3.023  14.177  0.2891  0.1129  0.2736
  323TMC3    O2 4862   1.439   3.427  13.856  0.0525 -0.5176  0.6718
  324MPD2     C 4863   2.710   3.911  14.388  0.7750  0.1750 -0.1325
  324MPD2    C1 4864   2.729   4.041  14.370  0.7520 -0.7836 -0.7060
  324MPD2    C2 4865   2.635   4.117  14.302 -0.7409  0.4820  0.5285
  324MPD2    C3 4866   2.511   4.061  14.267 -0.1905  0.8130 -0.0550
  324MPD2    C4 4867   2.497   3.929  14.290  0.1347 -0.5487  0.2993
  324MPD2    C5 4868   2.594   3.856  14.346  0.2097 -0.7489 -0.5768
  324MPD2     H 4869   2.648   4.224  14.302 -0.4975  0.4578  2.1659
  324MPD2    H1 4870   2.409   3.872  14.261 -2.0082  1.2256  3.3499
  324MPD2    H2 4871   2.780   3.846  14.438  1.0703  1.0031  0.5258
  324MPD2    H3 4872   2.581   3.749  14.353 -0.7992 -0.6449 -0.9631
  324MPD2     N 4873   2.403   4.138  14.211 -0.0867  0.0926 -0.6553
  324MPD2    H5 4874   2.322   4.078  14.198 -1.0776  1.6108 -1.4673
  324MPD2    N1 4875   2.841   4.114  14.416  0.1227  0.2783 -0.4677
  324MPD2    H7 4876   2.823   4.214  14.422  0.7269  0.2378  1.9732
  325TMC3    C1 4877   2.279   4.325  14.135 -0.5284 -0.2327  0.1624
  325TMC3    C2 4878   2.165   4.251  14.166 -0.0862  0.2498  0.2456
  325TMC3    C3 4879   2.051   4.316  14.144  0.6226 -0.5138 -0.9111
  325TMC3    C4 4880   2.279   4.459  14.099  0.0870  0.5085 -1.0153
  325TMC3    C5 4881   2.152   4.521  14.073 -0.1854 -0.5642 -0.3256
  325TMC3    C6 4882   2.036   4.444  14.090  0.4750  0.2845  0.2188
  325TMC3     C 4883   2.408   4.267  14.167  0.0433 -0.4712 -0.0671
  325TMC3     O 4884   2.505   4.336  14.141 -0.2902 -0.1274 -0.5392
  325TMC3     H 4885   2.175   4.153  14.211  0.5387 -0.1326 -0.7141
  325TMC3    H1 4886   2.365   4.521  14.079  1.2787 -0.7837  0.1025
  325TMC3    H2 4887   1.944   4.488  14.055  0.5723 -0.2598 -0.7278
  325TMC3    C7 4888   2.135   4.667  14.082  0.0365  0.5586  0.0499
  325TMC3    C8 4889   1.934   4.230  14.145  0.4983  0.1609  0.1374
  325TMC3    O1 4890   2.230   0.005  14.033 -0.0350 -0.9260 -0.3614
  325TMC3    O2 4891   1.957   4.110  14.143  0.5225  0.3369 -0.3582
  326MPD2     C 4892   4.044   0.689  11.058 -0.3858  0.3931  0.1934
  326MPD2    C1 4893   4.052   0.743  10.933 -0.2067  0.3453  0.1447
  326MPD2    C2 4894   4.160   0.824  10.900 -0.1467 -0.4778  0.1171
  326MPD2    C3 4895   4.262   0.848  10.996  0.0565  0.0238  0.9538
  326MPD2    C4 4896   4.253   0.786  11.119 -0.0126 -0.7676  0.1047
  326MPD2    C5 4897   4.155   0.695  11.148 -0.0047  0.2546  0.1382
  326MPD2     H 4898   4.167   0.869  10.802  1.5234  0.5628  0.7200
  326MPD2    H1 4899   4.322   0.803  11.201 -1.0534  1.2311  0.5484
  326MPD2    H2 4900   3.960   0.635  11.100  0.7442  0.2020  2.1844
  326MPD2    H3 4901   4.149   0.656  11.249  2.1792  0.7789  0.4763
  326MPD2     N 4902   4.374   0.937  10.968  0.3244 -0.2884 -0.0671
  326MPD2    H5 4903   4.447   0.943  11.039  0.6608 -0.3264 -0.4110
  326MPD2    N1 4904   3.950   0.720  10.839  0.2130 -0.3883 -0.1411
  326MPD2    H7 4905   3.984   0.727  10.743 -1.0747 -0.7235 -0.6210
  327TMC3    C1 4906   3.747   0.691  10.724 -0.0831  0.4519 -0.8895
  327TMC3    C2 4907   3.674   0.809  10.688 -0.5710  0.5987 -0.7943
  327TMC3    C3 4908   3.649   0.826  10.555  0.9902  0.3568  1.0670
  327TMC3    C4 4909   3.808   0.617  10.629  0.0353  0.0744 -0.4692
  327TMC3    C5 4910   3.803   0.652  10.492 -0.4816 -0.9299  0.5566
  327TMC3    C6 4911   3.717   0.750  10.459  0.3098 -0.6879  0.7678
  327TMC3     C 4912   3.818   0.694  10.858 -0.6010 -0.3756  0.5312
  327TMC3     O 4913   3.750   0.701  10.963 -0.3741  0.1814 -0.2582
  327TMC3     H 4914   3.639   0.879  10.763 -1.6648  1.0063 -1.6815
  327TMC3    H1 4915   3.847   0.521  10.661 -1.7857 -0.9484 -1.3201
  327TMC3    H2 4916   3.715   0.785  10.356 -0.1263 -2.7788  0.0705
  327TMC3    C7 4917   3.927   0.655  10.420  0.5744  0.8955  0.0260
  327TMC3    C8 4918   3.633   0.967  10.521 -0.1102  0.2734 -0.7187
  327TMC3    O1 4919   3.931   0.723  10.319 -0.7494  0.2054 -0.3947
  327TMC3    O2 4920   3.730   1.021  10.469 -0.1148 -0.3005 -0.5084
  328MPD2     C 4921   1.745   0.091  17.153  0.8265  0.1508  0.7216
  328MPD2    C1 4922   1.673   0.043  17.045  0.8871  0.1776  0.1407
  328MPD2    C2 4923   1.622   0.135  16.951 -0.2995 -0.2661 -0.0472
  328MPD2    C3 4924   1.651   0.270  16.961  0.4307  0.3134  0.4649
  328MPD2    C4 4925   1.726   0.313  17.065  0.1992  0.1267  0.4742
  328MPD2    C5 4926   1.764   0.227  17.167  0.5518  0.7312 -0.3606
  328MPD2     H 4927   1.552   0.095  16.878  0.3390  0.2706 -0.9502
  328MPD2    H1 4928   1.753   0.418  17.075 -2.0633  0.7001  0.5186
  328MPD2    H2 4929   1.770   0.023  17.233 -0.2147 -0.7421  0.2822
  328MPD2    H3 4930   1.807   0.257  17.262 -2.3578 -1.3542  1.6073
  328MPD2     N 4931   1.594   0.373  16.882 -0.4393 -0.4740  0.6958
  328MPD2    H5 4932   1.624   0.468  16.898  0.5125 -0.9765  1.8019
  328MPD2    N1 4933   1.644   4.629  17.061  0.1749 -0.1550  0.0368
  328MPD2    H7 4934   1.697   4.589  17.138 -1.3761 -1.2620  0.5434
  329TMC3    C1 4935   1.542   4.426  17.012  0.2455  0.4570  1.3298
  329TMC3    C2 4936   1.423   4.378  16.968  0.1048  0.3344  0.1362
  329TMC3    C3 4937   1.358   4.279  17.051 -0.0295  0.0023 -0.0010
  329TMC3    C4 4938   1.605   4.370  17.121  0.4732 -0.3815 -0.4193
  329TMC3    C5 4939   1.543   4.267  17.188  0.3752 -0.0932 -0.2070
  329TMC3    C6 4940   1.417   4.225  17.159  0.2105  0.0512 -0.5325
  329TMC3     C 4941   1.579   4.558  16.965  0.1110  0.5424 -0.2420
  329TMC3     O 4942   1.550   4.594  16.855 -0.7572 -0.8116 -0.5039
  329TMC3     H 4943   1.378   4.434  16.886  0.3476 -2.1289 -1.7007
  329TMC3    H1 4944   1.701   4.408  17.154  0.0303 -0.3140  0.7869
  329TMC3    H2 4945   1.369   4.142  17.210  1.9616 -1.2531 -0.9716
  329TMC3    C7 4946   1.594   4.231  17.320  0.1865  0.6146 -0.0547
  329TMC3    C8 4947   1.230   4.335  17.102 -0.6584 -0.0563  0.6662
  329TMC3    O1 4948   1.650   4.320  17.380  0.1058 -0.3473  0.0870
  329TMC3    O2 4949   1.194   4.316  17.218  0.1644  0.1693 -0.1809
  330TMC3    C1 4950   0.075   0.264   8.772 -0.0136  0.3305 -0.0736
  330TMC3    C2 4951   0.118   0.207   8.888  0.2800  1.0625  0.4562
  330TMC3    C3 4952   0.226   0.265   8.956  0.3928  0.1767  0.2524
  330TMC3    C4 4953   0.118   0.396   8.739  0.2816 -0.2032  0.5405
  330TMC3    C5 4954   0.218   0.448   8.816  0.4632 -0.2793  0.9171
  330TMC3    C6 4955   0.269   0.395   8.931 -0.2131  0.1114 -0.6027
  330TMC3     C 4956   4.669   0.245   8.723 -0.4053  0.2766 -0.0812
  330TMC3     O 4957   4.647   0.256   8.603 -0.1228  0.1843  0.3286
  330TMC3     H 4958   0.085   0.105   8.909 -0.9502  1.5188  0.7278
  330TMC3    H1 4959   0.072   0.449   8.656  0.1826  0.8988  1.3067
  330TMC3    H2 4960   0.352   0.432   8.989  1.1640 -1.4221 -1.6261
  330TMC3    C7 4961   0.260   0.588   8.800  0.0286 -0.2003 -0.1170
  330TMC3    C8 4962   0.268   0.208   9.085 -0.2228  0.6432 -0.0195
  330TMC3    O1 4963   0.324   0.641   8.889  0.5625 -0.1464 -0.0932
  330TMC3    O2 4964   0.327   0.277   9.166 -0.3190  0.0655 -0.4910
  331MPD2     C 4965   2.126   3.631  12.501 -0.0363  0.7432 -0.4831
  331MPD2    C1 4966   2.231   3.644  12.415 -0.4583  0.3991 -0.5320
  331MPD2    C2 4967   2.308   3.529  12.387 -0.3588  0.3206 -0.9395
  331MPD2    C3 4968   2.287   3.411  12.450  0.7220  0.2013 -0.7100
  331MPD2    C4 4969   2.179   3.403  12.528 -0.3887 -0.2252 -0.3460
  331MPD2    C5 4970   2.100   3.504  12.550  0.1495 -0.3669 -0.3754
  331MPD2     H 4971   2.388   3.537  12.314 -1.9545  2.2042 -2.4697
  331MPD2    H1 4972   2.154   3.315  12.586  0.0054  0.9227  1.6001
  331MPD2    H2 4973   2.082   3.723  12.537 -0.0319  0.5636 -0.0226
  331MPD2    H3 4974   2.019   3.491  12.620 -1.3152  0.9584 -1.8347
  331MPD2     N 4975   2.365   3.296  12.416 -0.6439 -0.0916  0.5966
  331MPD2    H5 4976   2.445   3.323  12.360 -0.7443 -0.0158  0.4914
  331MPD2    N1 4977   2.265   3.766  12.351  0.5538  0.4087 -0.0459
  331MPD2    H7 4978   2.193   3.837  12.345  0.0869 -0.1865 -1.5106
  332TMC3    C1 4979   2.469   3.091  12.411  0.0680 -0.1948 -0.8972
  332TMC3    C2 4980   2.527   3.120  12.296 -0.5913  0.6470  0.1427
  332TMC3    C3 4981   2.653   3.078  12.281 -0.3349  0.1822 -0.4396
  332TMC3    C4 4982   2.528   3.026  12.514  0.7579  0.3606 -0.4265
  332TMC3    C5 4983   2.659   2.995  12.496 -0.0431 -0.0927  0.3459
  332TMC3    C6 4984   2.727   3.021  12.376 -0.0758  0.1438 -0.4770
  332TMC3     C 4985   2.353   3.165  12.457  0.1503 -0.2316 -0.3512
  332TMC3     O 4986   2.256   3.116  12.517  0.5010  0.3484 -0.2894
  332TMC3     H 4987   2.476   3.164  12.211  1.2395  3.2599  0.3761
  332TMC3    H1 4988   2.477   3.006  12.607  1.3238 -0.6865 -0.3399
  332TMC3    H2 4989   2.827   2.980  12.365 -0.6297 -1.8527  1.9094
  332TMC3    C7 4990   2.742   2.958  12.609  0.0278 -0.1595  0.6336
  332TMC3    C8 4991   2.717   3.133  12.159 -0.2980  0.3808 -0.2924
  332TMC3    O1 4992   2.685   2.894  12.697  0.4088  0.2085  0.2928
  332TMC3    O2 4993   2.723   3.254  12.157  0.6125 -0.0642  0.1019
  333MPD2     C 4994   3.061   3.833  11.196 -0.5896 -0.0443 -0.4007
  333MPD2    C1 4995   3.134   3.722  11.157 -0.0794 -0.4400 -0.0862
  333MPD2    C2 4996   3.086   3.595  11.193  0.2231 -0.9137 -0.4255
  333MPD2    C3 4997   2.969   3.572  11.267 -0.3808 -0.3259  0.6581
  333MPD2    C4 4998   2.898   3.687  11.309 -0.2935  0.4050 -0.1783
  333MPD2    C5 4999   2.944   3.812  11.268  0.0558  0.1640 -0.2952
  333MPD2     H 5000   3.138   3.506  11.158  0.2529 -1.6601  1.5260
  333MPD2    H1 5001   2.810   3.682  11.373 -1.2565  0.1097 -1.5306
  333MPD2    H2 5002   3.090   3.934  11.169  2.0270 -0.9101 -0.7931
  333MPD2    H3 5003   2.886   3.896  11.304  1.7000  0.4554  1.6533
  333MPD2     N 5004   2.921   3.442  11.268 -0.1484 -0.3629  0.6893
  333MPD2    H5 5005   2.954   3.373  11.202 -2.0552 -0.6420  0.0307
  333MPD2    N1 5006   3.264   3.744  11.103 -0.3338 -0.3317 -0.0872
  333MPD2    H7 5007   3.287   3.840  11.082 -1.6527 -0.0906 -0.4497
  334TMC3    C1 5008   3.484   3.711  11.039 -0.7819  0.5186  0.3700
  334TMC3    C2 5009   3.563   3.639  10.952 -0.3010  0.3440  0.0283
  334TMC3    C3 5010   3.675   3.695  10.902 -0.0609 -0.0576 -0.7399
  334TMC3    C4 5011   3.523   3.835  11.081 -0.2668  0.6785 -0.0807
  334TMC3    C5 5012   3.645   3.886  11.033  0.3191  0.4820  0.0604
  334TMC3    C6 5013   3.722   3.818  10.941  0.0589  0.0569 -0.4875
  334TMC3     C 5014   3.363   3.650  11.080  0.7919  0.1319  0.2868
  334TMC3     O 5015   3.355   3.526  11.089 -0.2258  0.3241  0.0452
  334TMC3     H 5016   3.526   3.543  10.919 -0.7594  0.3745  0.4558
  334TMC3    H1 5017   3.464   3.895  11.149  0.0049 -0.7931  1.4453
  334TMC3    H2 5018   3.820   3.856  10.911  0.5522 -0.4585  0.4763
  334TMC3    C7 5019   3.667   4.030  11.025  0.1465 -0.3501  0.4312
  334TMC3    C8 5020   3.687   3.669  10.764  0.1994 -0.0367  0.0860
  334TMC3    O1 5021   3.734   4.079  10.931 -0.8777 -0.6588 -0.0019
  334TMC3    O2 5022   3.635   3.570  10.711  0.1145 -0.6036 -0.1219
  335TMC3    C1 5023   2.210   0.145   0.059 -0.0329 -0.1483 -0.1523
  335TMC3    C2 5024   2.148   0.109  17.640 -0.4298  0.5367  0.0111
  335TMC3    C3 5025   2.190   0.147  17.519  0.2398  0.4734 -0.5785
  335TMC3    C4 5026   2.336   0.196   0.045 -0.0485  0.1752  0.7820
  335TMC3    C5 5027   2.385   0.233  17.618  0.8138 -0.2737 -0.0920
  335TMC3    C6 5028   2.308   0.217  17.505 -0.1334 -0.0927 -0.5559
  335TMC3     C 5029   2.161   0.106   0.194 -0.2959  0.4318  0.4461
  335TMC3     O 5030   2.081   0.013   0.195  0.6365 -0.1618  0.5580
  335TMC3     H 5031   2.055   0.054  17.649  0.3687 -0.9404 -0.7344
  335TMC3    H1 5032   2.398   0.215   0.132  1.6864  0.2467 -0.4685
  335TMC3    H2 5033   2.336   0.253  17.407  0.6830  0.5213 -0.0961
  335TMC3    C7 5034   2.520   0.281  17.594 -0.0568 -0.0773 -0.2570
  335TMC3    C8 5035   2.142   0.095  17.394  0.6146 -0.1123 -0.5095
  335TMC3    O1 5036   2.540   0.325  17.483  0.5446 -0.0280  0.4830
  335TMC3    O2 5037   2.174   0.152  17.289  0.5841 -0.3317  0.0111
  336MPD2     C 5038   2.302   2.699  16.358  0.4338  0.3196 -0.3440
  336MPD2    C1 5039   2.266   2.634  16.245  0.6685 -0.5717 -0.4103
  336MPD2    C2 5040   2.266   2.494  16.231  0.1172 -0.0013 -0.3856
  336MPD2    C3 5041   2.300   2.420  16.341  0.1355  0.9376 -0.0301
  336MPD2    C4 5042   2.347   2.481  16.456  0.8827 -0.0522  0.3702
  336MPD2    C5 5043   2.338   2.619  16.461 -0.9427 -0.6597 -0.1053
  336MPD2     H 5044   2.242   2.461  16.131  1.9612  0.3187 -0.9273
  336MPD2    H1 5045   2.384   2.424  16.540 -0.6556  0.0932  1.1479
  336MPD2    H2 5046   2.309   2.807  16.365  1.1817  0.0817  2.9405
  336MPD2    H3 5047   2.370   2.665  16.554 -0.1619 -2.8406  0.6933
  336MPD2     N 5048   2.298   2.281  16.331 -0.3339  0.7497 -0.0134
  336MPD2    H5 5049   2.326   2.222  16.408  0.3072  0.3911 -0.5219
  336MPD2    N1 5050   2.212   2.702  16.133 -0.1143  0.2925 -0.5645
  336MPD2    H7 5051   2.216   2.650  16.046 -0.3812  2.2951 -1.7815
  337TMC3    C1 5052   2.121   2.891  16.009  0.2556  0.7380  0.4610
  337TMC3    C2 5053   2.042   2.999  16.024  0.0676 -0.5818 -0.2666
  337TMC3    C3 5054   1.989   3.041  15.900  0.0649 -0.4632  0.1749
  337TMC3    C4 5055   2.177   2.847  15.890 -0.3298 -0.3136  0.1653
  337TMC3    C5 5056   2.139   2.911  15.780 -0.1727  0.3569 -0.3028
  337TMC3    C6 5057   2.042   3.003  15.779 -0.3696 -0.3422  0.4546
  337TMC3     C 5058   2.156   2.827  16.141  0.6461 -0.1383  0.6400
  337TMC3     O 5059   2.109   2.881  16.238 -0.0620  0.1866 -0.3988
  337TMC3     H 5060   1.972   3.001  16.107  0.1296 -0.1776 -0.2248
  337TMC3    H1 5061   2.240   2.759  15.896  1.3520  0.8888  0.0134
  337TMC3    H2 5062   2.001   3.033  15.684  0.6815 -0.3443 -0.0007
  337TMC3    C7 5063   2.187   2.870  15.642  0.3575  0.0966  0.3094
  337TMC3    C8 5064   1.845   3.076  15.905  0.0673  0.5077 -0.5523
  337TMC3    O1 5065   2.129   2.933  15.553  0.0243  0.3589 -0.0933
  337TMC3    O2 5066   1.789   3.074  16.013 -0.3838 -0.3206  0.2637
  338MPD2     C 5067   2.879   1.808   0.833  0.4663  0.2755  0.2604
  338MPD2    C1 5068   2.741   1.814   0.836 -0.4339  0.2367 -0.7812
  338MPD2    C2 5069   2.674   1.830   0.956  0.4626  0.1182  0.2350
  338MPD2    C3 5070   2.742   1.847   1.079  0.4737 -0.1191 -0.7200
  338MPD2    C4 5071   2.882   1.845   1.066  0.5746  0.5697  0.2743
  338MPD2    C5 5072   2.949   1.829   0.947  0.2550 -0.4635 -0.2620
  338MPD2     H 5073   2.566   1.828   0.965  0.5205  2.2713  1.3578
  338MPD2    H1 5074   2.941   1.850   1.157 -0.2903  1.5416  0.7906
  338MPD2    H2 5075   2.934   1.793   0.741  1.0192  0.7803  0.5073
  338MPD2    H3 5076   3.056   1.829   0.935  0.2852 -1.3167  0.0104
  338MPD2     N 5077   2.680   1.888   1.201  0.0930 -0.0522 -0.5029
  338MPD2    H5 5078   2.579   1.890   1.195 -0.0772 -1.1765  1.8517
  338MPD2    N1 5079   2.655   1.788   0.728  1.0653  0.3797  0.3182
  338MPD2    H7 5080   2.554   1.790   0.740  1.3016 -1.1155  2.3779
  339TMC3    C1 5081   2.649   1.975   1.410  0.1810 -0.0493 -0.4640
  339TMC3    C2 5082   2.694   1.980   1.533  0.8095 -0.8524  0.4782
  339TMC3    C3 5083   2.596   1.999   1.626  0.9424 -0.0177 -0.1662
  339TMC3    C4 5084   2.520   2.012   1.375 -0.2240 -0.5076  0.0923
  339TMC3    C5 5085   2.433   2.051   1.467  1.0314 -0.2699 -0.9059
  339TMC3    C6 5086   2.466   2.040   1.599 -0.0162 -0.0508  0.3898
  339TMC3     C 5087   2.745   1.932   1.315  0.2088  0.0841  0.3880
  339TMC3     O 5088   2.862   1.927   1.348 -0.1042  0.7759 -0.3677
  339TMC3     H 5089   2.791   1.947   1.570  1.1732 -0.4795 -0.1324
  339TMC3    H1 5090   2.491   2.034   1.273 -0.1701 -1.4181 -0.1243
  339TMC3    H2 5091   2.395   2.056   1.679  0.5754  0.6878  0.7665
  339TMC3    C7 5092   2.304   2.081   1.423  0.2582 -0.5306 -0.6387
  339TMC3    C8 5093   2.635   1.974   1.759  0.1309  0.8339  0.0441
  339TMC3    O1 5094   2.266   2.047   1.311 -0.0605 -0.3550  0.1433
  339TMC3    O2 5095   2.740   2.019   1.802 -0.5376 -0.2679 -0.8183
  340MPD2     C 5096   2.820   0.006  10.021 -0.3180  0.7019  0.5091
  340MPD2    C1 5097   2.928   4.666   9.970  0.0325  0.5339 -0.0075
  340MPD2    C2 5098   3.058   4.698  10.014  1.1905 -1.3471  0.2820
  340MPD2    C3 5099   3.071   0.076  10.109  0.0384  1.1783  0.0574
  340MPD2    C4 5100   2.961   0.136  10.162  0.4822 -0.2729  0.6961
  340MPD2    C5 5101   2.831   0.099  10.125  0.7431 -0.2173  0.6996
  340MPD2     H 5102   3.137   4.647   9.961  0.4527 -1.4162 -0.7414
  340MPD2    H1 5103   2.980   0.202  10.245  0.7890  1.0869 -0.4525
  340MPD2    H2 5104   2.722   4.711   9.978  0.0203  1.1563 -0.4651
  340MPD2    H3 5105   2.750   0.160  10.164 -0.1054  1.4471 -3.6368
  340MPD2     N 5106   3.198   0.119  10.147  0.5936  0.2497  0.5403
  340MPD2    H5 5107   3.199   0.173  10.233 -2.6865  0.4213  0.4451
  340MPD2    N1 5108   2.908   4.569   9.869  0.0395  0.0604  0.1762
  340MPD2    H7 5109   2.813   4.548   9.842  0.0609 -1.3752  1.1913
  341TMC3    C1 5110   2.951   4.413   9.692  0.3546 -0.7953 -0.1242
  341TMC3    C2 5111   2.823   4.359   9.712 -0.3680 -0.6715  0.0054
  341TMC3    C3 5112   2.773   4.281   9.605  0.3017  0.3295 -0.5081
  341TMC3    C4 5113   3.028   4.376   9.585 -0.6393  0.3671 -0.2701
  341TMC3    C5 5114   2.978   4.294   9.489  0.1928  0.0216 -0.5729
  341TMC3    C6 5115   2.849   4.247   9.491 -0.0518  0.3341 -0.2474
  341TMC3     C 5116   3.002   4.512   9.784  0.2684  0.0484 -0.2020
  341TMC3     O 5117   3.118   4.539   9.769  0.3023  0.9765  0.2205
  341TMC3     H 5118   2.772   4.368   9.808  0.8545  1.2715  0.4723
  341TMC3    H1 5119   3.129   4.416   9.579 -0.8175  0.9025  0.4002
  341TMC3    H2 5120   2.818   4.182   9.410 -0.1514 -0.2731  0.2722
  341TMC3    C7 5121   3.065   4.275   9.370 -0.5680  0.2645  0.0342
  341TMC3    C8 5122   2.649   4.205   9.620 -0.4199 -0.1164  0.1864
  341TMC3    O1 5123   3.188   4.275   9.390 -0.4511 -0.5529 -0.1986
  341TMC3    O2 5124   2.626   4.112   9.542 -0.2301 -0.3665 -0.2048
  342MPD2     C 5125   0.230   3.050  17.291  0.1839  0.5645  0.5563
  342MPD2    C1 5126   0.368   3.066  17.292 -0.4696  0.4606 -0.4712
  342MPD2    C2 5127   0.416   3.197  17.312  0.5293 -0.5272  0.2660
  342MPD2    C3 5128   0.329   3.304  17.334 -0.5586 -0.0460  0.2128
  342MPD2    C4 5129   0.192   3.284  17.336  0.4481  0.0893  0.4776
  342MPD2    C5 5130   0.146   3.158  17.311 -0.1615 -0.7229 -0.3964
  342MPD2     H 5131   0.524   3.211  17.310  0.2097  1.8762  0.4012
  342MPD2    H1 5132   0.128   3.370  17.350 -0.9534 -0.4914 -2.4947
  342MPD2    H2 5133   0.181   2.956  17.273 -0.2991  1.0118 -0.4357
  342MPD2    H3 5134   0.038   3.148  17.308 -0.0954 -1.7940  0.5637
  342MPD2     N 5135   0.366   3.441  17.345 -0.6172  0.4826  0.0487
  342MPD2    H5 5136   0.292   3.509  17.333 -1.0207  0.2237  1.0869
  342MPD2    N1 5137   0.463   2.961  17.287 -0.1820 -0.5432  0.6157
  342MPD2    H7 5138   0.563   2.978  17.283 -0.3544  0.2919  0.0718
  343TMC3    C1 5139   0.533   2.738  17.293 -0.8578 -0.5103  0.6052
  343TMC3    C2 5140   0.584   2.726  17.171  0.0560 -0.6794 -0.2818
  343TMC3    C3 5141   0.636   2.609  17.130  0.4899  0.4977 -0.1297
  343TMC3    C4 5142   0.508   2.628  17.372 -0.2197  0.5414  0.2689
  343TMC3    C5 5143   0.554   2.507  17.337 -0.1025  0.4625  0.0269
  343TMC3    C6 5144   0.614   2.495  17.214 -0.3960  0.1473  0.1428
  343TMC3     C 5145   0.422   2.830  17.299 -0.0341  0.1719  0.1907
  343TMC3     O 5146   0.319   2.782  17.337  0.0591 -0.8380 -0.6594
  343TMC3     H 5147   0.594   2.813  17.107 -2.1476  0.1975  0.6085
  343TMC3    H1 5148   0.460   2.652  17.466  1.3656 -0.0259  1.2341
  343TMC3    H2 5149   0.663   2.400  17.194  1.2203  1.1300 -0.5170
  343TMC3    C7 5150   0.480   2.393  17.393 -0.3621 -0.5453  0.0759
  343TMC3    C8 5151   0.766   2.621  17.077 -0.0802 -1.1189  0.3791
  343TMC3    O1 5152   0.470   2.297  17.319  0.4228  0.4713 -0.3885
  343TMC3    O2 5153   0.827   2.723  17.105  0.1913  0.7982  0.1863
  344MPD2     C 5154   2.016   3.296  11.102  0.5197  0.2068  0.1015
  344MPD2    C1 5155   1.921   3.249  11.009  0.3285  0.5541  0.2367
  344MPD2    C2 5156   1.912   3.306  10.881 -0.1487 -0.3690  0.0302
  344MPD2    C3 5157   2.003   3.403  10.843 -0.4694  0.1430 -0.1939
  344MPD2    C4 5158   2.106   3.435  10.927  0.3258 -0.7979 -0.1083
  344MPD2    C5 5159   2.111   3.382  11.050  0.0588 -0.2124 -0.6105
  344MPD2     H 5160   1.835   3.285  10.808 -0.8555 -2.6628  1.4455
  344MPD2    H1 5161   2.176   3.514  10.906  2.1303 -1.9130  1.7363
  344MPD2    H2 5162   2.023   3.264  11.205 -0.4633  1.6260  0.6035
  344MPD2    H3 5163   2.195   3.410  11.113 -1.3638 -0.4045  1.3766
  344MPD2     N 5164   2.013   3.459  10.707  0.1606  0.1376 -0.5756
  344MPD2    H5 5165   2.084   3.527  10.682  0.8733 -0.7624 -1.0303
  344MPD2    N1 5166   1.821   3.155  11.036  0.6720 -0.0769 -1.1557
  344MPD2    H7 5167   1.762   3.123  10.959 -0.0511  1.4835 -1.2404
  345TMC3    C1 5168   2.001   3.454  10.471 -1.0371 -0.2777  0.2983
  345TMC3    C2 5169   2.126   3.515  10.478  0.5460 -0.0655 -0.0244
  345TMC3    C3 5170   2.162   3.599  10.376 -0.4457 -0.3481  0.1243
  345TMC3    C4 5171   1.919   3.476  10.358 -0.1817 -0.9150 -0.5562
  345TMC3    C5 5172   1.968   3.556  10.257  0.2559 -0.0570  0.0916
  345TMC3    C6 5173   2.089   3.613  10.261 -0.1745 -0.3083  0.1999
  345TMC3     C 5174   1.944   3.412  10.595  0.0003  0.0516  0.1198
  345TMC3     O 5175   1.842   3.343  10.593  0.3813 -0.3086 -0.0885
  345TMC3     H 5176   2.187   3.507  10.567 -1.5672  0.8243  1.4941
  345TMC3    H1 5177   1.813   3.450  10.357 -0.1391 -1.1025  0.9144
  345TMC3    H2 5178   2.122   3.674  10.178 -0.0729 -0.8610 -0.1656
  345TMC3    C7 5179   1.884   3.596  10.145  0.1654  0.7309 -0.1476
  345TMC3    C8 5180   2.285   3.672  10.407 -0.0393 -0.2441  0.7047
  345TMC3    O1 5181   1.901   3.708  10.097 -0.7093  0.1334 -0.1061
  345TMC3    O2 5182   2.317   3.670  10.523 -0.7691 -0.6285  0.4260
  346MPD2     C 5183   1.038   0.231  14.326  0.1806  0.0139 -0.2796
  346MPD2    C1 5184   1.168   0.202  14.286 -1.0244  0.1551  0.6717
  346MPD2    C2 5185   1.275   0.218  14.366  0.7516  0.0603 -0.6995
  346MPD2    C3 5186   1.263   0.258  14.496 -0.3587 -0.2447 -0.3511
  346MPD2    C4 5187   1.132   0.289  14.540  0.2930  0.4729 -0.1372
  346MPD2    C5 5188   1.020   0.274  14.456  0.4933  0.0680  0.1079
  346MPD2     H 5189   1.377   0.197  14.338  1.9690  3.3413  1.2429
  346MPD2    H1 5190   1.125   0.341  14.634  0.3998 -1.6578  1.0557
  346MPD2    H2 5191   0.947   0.228  14.268  0.6986 -1.6155 -1.0149
  346MPD2    H3 5192   0.918   0.295  14.487  0.1723  0.3314 -1.1202
  346MPD2     N 5193   1.375   0.261  14.581  0.0201  0.1612 -0.7961
  346MPD2    H5 5194   1.460   0.225  14.538  0.5470  0.0954  0.2929
  346MPD2    N1 5195   1.191   0.164  14.153  0.9935  0.4059 -0.1242
  346MPD2    H7 5196   1.289   0.145  14.135  1.3886 -0.4618  2.9876
  347TMC3    C1 5197   1.521   0.303  14.749 -0.5992  0.6428  1.0582
  347TMC3    C2 5198   1.619   0.323  14.653 -0.1281 -0.3946  0.2859
  347TMC3    C3 5199   1.745   0.300  14.688 -0.7307 -0.3522  0.4907
  347TMC3    C4 5200   1.545   0.265  14.881  0.3133  0.0656  0.8654
  347TMC3    C5 5201   1.678   0.244  14.901 -0.0353  0.4937 -0.1462
  347TMC3    C6 5202   1.781   0.249  14.814  0.0723  0.7526  0.3952
  347TMC3     C 5203   1.386   0.305  14.710 -0.2005 -0.7186  0.5394
  347TMC3     O 5204   1.301   0.328  14.798  0.1549 -0.1716 -0.1139
  347TMC3     H 5205   1.597   0.352  14.551 -0.0502  2.0883  0.9906
  347TMC3    H1 5206   1.471   0.211  14.939 -2.4383  0.9682 -1.7917
  347TMC3    H2 5207   1.886   0.236  14.838  0.0965 -1.3614 -0.8688
  347TMC3    C7 5208   1.708   0.198  15.038  0.0104  0.3396 -0.4744
  347TMC3    C8 5209   1.845   0.268  14.589 -0.6732  0.4685  0.1000
  347TMC3    O1 5210   1.623   0.231  15.115 -0.3245  0.4397 -0.0203
  347TMC3    O2 5211   1.926   0.181  14.611 -0.0602  0.1055  0.0124
  348MPD2     C 5212   4.698   4.664  11.833 -1.0331 -0.1737 -0.0564
  348MPD2    C1 5213   0.097   4.719  11.807  0.9002  0.3533 -0.3906
  348MPD2    C2 5214   0.129   0.036  11.678 -0.1206  0.2771  0.2623
  348MPD2    C3 5215   0.042   0.015  11.576 -0.2191 -0.5311 -0.1564
  348MPD2    C4 5216   4.645   4.686  11.596 -0.1522 -0.0158 -0.1907
  348MPD2    C5 5217   4.611   4.661  11.732  1.1245 -0.4708  0.6162
  348MPD2     H 5218   0.225   0.081  11.656 -1.0253  1.7664 -0.6236
  348MPD2    H1 5219   4.564   4.676  11.525  1.1100 -1.0938 -1.4971
  348MPD2    H2 5220   4.668   4.623  11.929 -4.0278 -0.0433 -0.9445
  348MPD2    H3 5221   4.510   4.631  11.756  1.0785 -0.8950 -0.1352
  348MPD2     N 5222   0.091   0.057  11.448 -0.0445 -0.5082  0.4994
  348MPD2    H5 5223   0.179   0.108  11.448 -1.4276  1.8664 -1.3506
  348MPD2    N1 5224   0.195   4.719  11.908  0.2675 -0.1331  0.1811
  348MPD2    H7 5225   0.288   4.719  11.868 -1.2250 -0.9374 -3.2082
  349TMC3    C1 5226   0.295   4.594  12.074 -0.6932  0.1286  0.2719
  349TMC3    C2 5227   0.247   4.471  12.120 -0.3715 -0.1849  0.3546
  349TMC3    C3 5228   0.264   4.353  12.048  0.3785  0.6324 -0.1604
  349TMC3    C4 5229   0.375   4.594  11.959  0.4028  0.6197  0.0727
  349TMC3    C5 5230   0.384   4.471  11.885  0.4191 -0.2870  0.3167
  349TMC3    C6 5231   0.320   4.358  11.918  0.4928 -0.1600 -1.1724
  349TMC3     C 5232   0.182   4.680  12.044  0.3985 -0.5584 -0.5106
  349TMC3     O 5233   0.082   4.660  12.112  0.5762  0.0187  0.2134
  349TMC3     H 5234   0.196   4.461  12.215  0.2309  0.5560  0.7611
  349TMC3    H1 5235   0.429   4.682  11.927 -1.7079  2.0077  0.2831
  349TMC3    H2 5236   0.338   4.269  11.859  1.7520  0.6770 -2.0737
  349TMC3    C7 5237   0.427   4.500  11.744 -0.3964  0.4439  0.0509
  349TMC3    C8 5238   0.192   4.231  12.086  0.4702 -0.2784 -0.1367
  349TMC3    O1 5239   0.487   4.602  11.717 -0.0946 -0.3937 -0.5232
  349TMC3    O2 5240   0.244   4.136  12.029  0.0107  0.7774  0.1378
  350MPD2     C 5241   4.414   2.982   9.886 -0.1374 -0.4602 -0.6465
  350MPD2    C1 5242   4.436   2.844   9.872  0.0371  0.3621 -0.2286
  350MPD2    C2 5243   4.564   2.807   9.842 -0.5968  0.0590  0.1953
  350MPD2    C3 5244   4.670   2.893   9.856 -1.3664 -0.8130 -0.2392
  350MPD2    C4 5245   4.651   3.025   9.875  0.0093  0.7307 -0.4988
  350MPD2    C5 5246   4.522   3.072   9.874 -0.1941 -0.1271  0.3144
  350MPD2     H 5247   4.591   2.704   9.819  1.7298  0.2418  2.0587
  350MPD2    H1 5248   0.004   3.101   9.881  1.2069 -0.5501  0.7367
  350MPD2    H2 5249   4.314   3.012   9.915  0.0554  0.6798 -1.1655
  350MPD2    H3 5250   4.502   3.177   9.885 -0.0885 -0.1066  0.3133
  350MPD2     N 5251   0.069   2.832   9.872  0.5007  0.5330  0.5967
  350MPD2    H5 5252   0.064   2.730   9.865 -1.4387  0.6084  0.8223
  350MPD2    N1 5253   4.332   2.750   9.884  0.9423 -0.3498 -0.4232
  350MPD2    H7 5254   4.353   2.661   9.839 -2.6974 -0.6765 -1.4487
  351TMC3    C1 5255   4.113   2.674   9.956  0.5078  0.9832 -0.2962
  351TMC3    C2 5256   4.135   2.549   9.905  0.1867  0.4757 -0.2301
  351TMC3    C3 5257   4.045   2.451   9.937 -0.4442  0.2756 -0.2976
  351TMC3    C4 5258   4.011   2.698  10.048 -0.9516  0.1445  0.4469
  351TMC3    C5 5259   3.919   2.593  10.082 -0.0085  0.2050 -0.6518
  351TMC3    C6 5260   3.941   2.470  10.026  0.2393  0.1004  0.3316
  351TMC3     C 5261   4.222   2.764   9.964 -0.2779  0.0151 -0.7925
  351TMC3     O 5262   4.226   2.843  10.060  0.3488 -0.5621  0.4031
  351TMC3     H 5263   4.217   2.531   9.837 -0.7702  1.7806 -1.7490
  351TMC3    H1 5264   4.001   2.796  10.094  0.2958 -0.0156  1.0502
  351TMC3    H2 5265   3.864   2.394  10.026 -1.1378  1.5125 -1.5346
  351TMC3    C7 5266   3.788   2.628  10.139 -0.5898 -0.0811 -0.6717
  351TMC3    C8 5267   4.081   2.313   9.897  0.1499 -0.3897 -0.0493
  351TMC3    O1 5268   3.743   2.743  10.149 -0.5090  0.3446  0.4191
  351TMC3    O2 5269   4.158   2.315   9.800 -0.2360  0.1108 -0.0128
  352MPD2     C 5270   1.899   3.413   1.677  0.7253  0.3423  0.7165
  352MPD2    C1 5271   1.871   3.385   1.547 -0.0369  0.1549  0.1741
  352MPD2    C2 5272   1.907   3.258   1.502  0.1468  0.4590  0.2269
  352MPD2    C3 5273   1.942   3.158   1.592 -0.6134 -0.8630  0.5675
  352MPD2    C4 5274   1.950   3.184   1.731 -1.1623 -0.3090  0.6866
  352MPD2    C5 5275   1.933   3.317   1.766  0.3875 -0.3004  0.1053
  352MPD2     H 5276   1.900   3.239   1.395 -0.1524  1.5965  0.0413
  352MPD2    H1 5277   1.984   3.111   1.805  0.7716 -0.5802 -0.4662
  352MPD2    H2 5278   1.877   3.508   1.726  1.3209  1.3359 -0.9458
  352MPD2    H3 5279   1.943   3.349   1.869  3.1919  0.2071 -0.3298
  352MPD2     N 5280   1.984   3.034   1.543  0.3950  0.3466  0.7443
  352MPD2    H5 5281   2.029   2.962   1.599 -0.8070 -0.0492  1.2057
  352MPD2    N1 5282   1.823   3.486   1.458  0.6456  0.3656  0.0958
  352MPD2    H7 5283   1.799   3.576   1.498  1.3379  0.5782  0.0438
  353TMC3    C1 5284   2.023   2.856   1.391 -0.2307  0.6242  0.0099
  353TMC3    C2 5285   2.124   2.814   1.475  0.2072  1.0699  0.2920
  353TMC3    C3 5286   2.172   2.691   1.445 -0.8949  0.0215 -0.0319
  353TMC3    C4 5287   1.972   2.786   1.287 -0.0647 -0.6843  1.0360
  353TMC3    C5 5288   2.039   2.681   1.243  0.0537 -0.1377  0.3847
  353TMC3    C6 5289   2.138   2.627   1.326 -0.1594  0.5845 -0.0177
  353TMC3     C 5290   1.965   2.990   1.414 -1.2278  0.1810 -0.0553
  353TMC3     O 5291   1.891   3.032   1.320 -0.5433 -0.4359  0.2419
  353TMC3     H 5292   2.177   2.876   1.547  1.5736 -2.1602  2.0524
  353TMC3    H1 5293   1.891   2.830   1.229  0.8145  1.2586  1.2743
  353TMC3    H2 5294   2.177   2.530   1.297  0.1548  0.3899  1.0700
  353TMC3    C7 5295   1.983   2.591   1.148 -0.2990 -1.0071 -0.0560
  353TMC3    C8 5296   2.293   2.665   1.519 -0.2693  0.2373 -0.5983
  353TMC3    O1 5297   2.059   2.505   1.106 -0.0023  0.1426 -0.9215
  353TMC3    O2 5298   2.310   2.707   1.635 -0.2635  0.4346  0.3648
  354TMC3    C1 5299   4.114   0.807  13.283 -0.5901  0.6237  0.6799
  354TMC3    C2 5300   4.201   0.915  13.314 -0.5177  0.5537  0.2361
  354TMC3    C3 5301   4.268   0.976  13.205 -0.2929  0.3442 -0.8673
  354TMC3    C4 5302   4.088   0.763  13.159  0.7817 -0.2513 -0.3572
  354TMC3    C5 5303   4.156   0.824  13.055 -0.2993 -0.2097  0.1673
  354TMC3    C6 5304   4.254   0.921  13.079 -0.4538 -1.1005 -0.9120
  354TMC3     C 5305   4.098   0.720  13.389 -0.1580  0.2569  0.4909
  354TMC3     O 5306   4.020   0.630  13.370 -0.0004 -0.0659  0.2488
  354TMC3     H 5307   4.206   0.967  13.408  0.5415 -0.2639  0.6313
  354TMC3    H1 5308   4.036   0.671  13.140  3.2200 -1.5470 -0.8240
  354TMC3    H2 5309   4.302   0.969  12.994 -0.4848 -0.1541 -0.3963
  354TMC3    C7 5310   4.167   0.737  12.943  0.1701  0.1648 -0.0700
  354TMC3    C8 5311   4.320   1.106  13.234 -0.4484 -0.7113  0.6528
  354TMC3    O1 5312   4.113   0.629  12.940  0.3580 -0.2552  0.1780
  354TMC3    O2 5313   4.326   1.145  13.351 -0.1752 -0.3746  0.1294
  355MPD2     C 5314   4.693   1.521  11.947 -0.2154  0.2703 -0.0818
  355MPD2    C1 5315   4.669   1.653  11.944 -1.0116 -0.3559 -0.2665
  355MPD2    C2 5316   0.029   1.733  12.011  0.1349  0.1860  0.0929
  355MPD2    C3 5317   0.135   1.698  12.092 -0.0570  0.3436  0.7740
  355MPD2    C4 5318   0.149   1.558  12.110 -0.1035  0.7835  0.5480
  355MPD2    C5 5319   0.073   1.475  12.025 -0.1575 -0.4937  0.5689
  355MPD2     H 5320   0.011   1.839  12.001  1.4054  0.5396  1.5171
  355MPD2    H1 5321   0.234   1.509  12.156  0.6118  0.0130 -1.5855
  355MPD2    H2 5322   4.634   1.458  11.882 -0.3276 -0.1977  0.4807
  355MPD2    H3 5323   0.100   1.371  12.013 -2.1237 -1.3450  3.4100
  355MPD2     N 5324   0.229   1.789  12.144  0.4785  0.4332 -0.4731
  355MPD2    H5 5325   0.301   1.757  12.208  0.5816 -0.5454 -1.0887
  355MPD2    N1 5326   4.571   1.709  11.858  0.5102  0.1275 -0.6486
  355MPD2    H7 5327   4.560   1.810  11.863 -3.2593 -0.3421  0.8622
  356TMC3    C1 5328   0.352   1.998  12.145  0.0384  0.6145 -0.3802
  356TMC3    C2 5329   0.387   2.080  12.037  0.0685  0.3579  0.0097
  356TMC3    C3 5330   0.469   2.185  12.059 -0.6359  0.3877 -0.8483
  356TMC3    C4 5331   0.375   2.038  12.270 -0.6320 -0.4640 -0.5759
  356TMC3    C5 5332   0.459   2.143  12.288 -0.5000  0.0373 -0.8222
  356TMC3    C6 5333   0.516   2.212  12.184 -0.3261 -0.0595  0.2634
  356TMC3     C 5334   0.224   1.926  12.116 -0.6344  0.3996  0.1726
  356TMC3     O 5335   0.141   2.000  12.062  0.5452  0.4020 -0.8372
  356TMC3     H 5336   0.366   2.061  11.932 -2.1075 -0.0456  0.5209
  356TMC3    H1 5337   0.333   1.980  12.351  0.4694  0.4075  0.6212
  356TMC3    H2 5338   0.605   2.271  12.205 -1.4909  1.4639  0.9564
  356TMC3    C7 5339   0.467   2.187  12.421  0.2285  0.7954 -0.2717
  356TMC3    C8 5340   0.497   2.264  11.938 -0.2935  0.4358 -0.1715
  356TMC3    O1 5341   0.424   2.114  12.509  0.4492  0.2232  0.0957
  356TMC3    O2 5342   0.528   2.208  11.833  0.5264  0.0971 -0.0437
  357MPD2     C 5343   4.293   1.249   0.603 -0.1287 -0.8917 -0.1422
  357MPD2    C1 5344   4.249   1.148   0.681 -0.6144 -0.4091  0.3179
  357MPD2    C2 5345   4.115   1.139   0.715  0.3349 -0.0307 -0.6540
  357MPD2    C3 5346   4.025   1.234   0.671 -0.1908  0.2087 -0.3907
  357MPD2    C4 5347   4.067   1.344   0.597 -0.3897  0.0400  0.2839
  357MPD2    C5 5348   4.200   1.347   0.565  0.7250  0.4929  0.3282
  357MPD2     H 5349   4.092   1.062   0.787  0.1722  0.5326 -0.1032
  357MPD2    H1 5350   3.996   1.421   0.571 -1.0714 -1.3285 -1.8614
  357MPD2    H2 5351   4.400   1.260   0.588 -0.2872  0.2445 -0.4506
  357MPD2    H3 5352   4.244   1.432   0.515 -0.7038 -0.7963 -3.0569
  357MPD2     N 5353   3.890   1.224   0.703  0.4001  0.1743  0.3473
  357MPD2    H5 5354   3.837   1.309   0.684  0.8396  0.4243  0.2334
  357MPD2    N1 5355   4.332   1.039   0.724 -0.4417  0.0536  0.0850
  357MPD2    H7 5356   4.281   0.967   0.772  3.4474 -2.3177  0.6253
  358TMC3    C1 5357   4.526   0.907   0.767 -0.1271  0.3655 -0.4333
  358TMC3    C2 5358   4.592   0.818   0.682 -0.6193  0.3734 -0.3454
  358TMC3    C3 5359   4.595   0.690   0.725 -0.3497  0.6868  0.7890
  358TMC3    C4 5360   4.468   0.865   0.883 -0.1622  0.7567 -0.1265
  358TMC3    C5 5361   4.494   0.734   0.920  0.0847  0.1576  0.2498
  358TMC3    C6 5362   4.545   0.638   0.837  0.0768 -0.5360 -1.1942
  358TMC3     C 5363   4.464   1.019   0.696 -0.1086 -0.4543 -0.1863
  358TMC3     O 5364   4.536   1.086   0.629 -0.7007 -0.1195 -1.2106
  358TMC3     H 5365   4.633   0.847   0.586 -0.3477 -2.1858 -0.9959
  358TMC3    H1 5366   4.413   0.926   0.954 -0.3954  0.4797 -0.0685
  358TMC3    H2 5367   4.599   0.555   0.881  0.6721  0.0296 -0.8618
  358TMC3    C7 5368   4.485   0.698   1.055  0.4576 -0.1175  0.5015
  358TMC3    C8 5369   4.609   0.595   0.611  0.2439 -0.0942 -0.1669
  358TMC3    O1 5370   4.472   0.795   1.128  0.3991  0.5574 -0.1662
  358TMC3    O2 5371   4.636   0.645   0.504 -0.7017  0.1792  0.2875
  359MPD2     C 5372   4.021   0.235  12.282  0.0884 -0.3176 -0.1718
  359MPD2    C1 5373   4.072   0.209  12.154  0.1479 -0.1277  0.0693
  359MPD2    C2 5374   3.983   0.172  12.051  0.1581  0.0806  0.2477
  359MPD2    C3 5375   3.857   0.138  12.092  0.1281 -0.2735 -0.1197
  359MPD2    C4 5376   3.811   0.159  12.221  0.4651 -0.0153 -0.1972
  359MPD2    C5 5377   3.889   0.210  12.316 -0.0849 -0.3300  0.1644
  359MPD2     H 5378   4.016   0.170  11.947  0.8020 -3.2167  0.5110
  359MPD2    H1 5379   3.711   0.122  12.238 -0.0790  1.3276 -0.4191
  359MPD2    H2 5380   4.084   0.265  12.365  2.4431  0.3914 -2.2039
  359MPD2    H3 5381   3.855   0.217  12.419 -0.5339 -2.2209  0.1546
  359MPD2     N 5382   3.763   0.086  11.998 -0.3705  0.6837 -0.6697
  359MPD2    H5 5383   3.669   0.078  12.035 -0.1773  0.3346 -0.2627
  359MPD2    N1 5384   4.197   0.239  12.102 -0.0679 -0.4903  0.7587
  359MPD2    H7 5385   4.207   0.222  12.002 -1.0798 -1.5754  0.8369
  360TMC3    C1 5386   4.424   0.306  12.100 -0.1718 -0.3171 -0.3747
  360TMC3    C2 5387   4.546   0.333  12.165 -0.1439 -0.2950  0.4361
  360TMC3    C3 5388   4.659   0.321  12.088  0.1293  0.0283 -0.7734
  360TMC3    C4 5389   4.417   0.310  11.962  0.1425 -0.0703 -0.5962
  360TMC3    C5 5390   4.538   0.299  11.897  0.1095 -0.3811 -0.3839
  360TMC3    C6 5391   4.659   0.310  11.952 -0.9345 -0.3531 -0.3278
  360TMC3     C 5392   4.304   0.284  12.179  0.5440  0.4836 -0.2511
  360TMC3     O 5393   4.306   0.307  12.297 -0.1131  0.6995  0.0857
  360TMC3     H 5394   4.543   0.327  12.273  0.3196  0.8480  0.5085
  360TMC3    H1 5395   4.327   0.328  11.905  0.3713  3.1947  0.0464
  360TMC3    H2 5396   0.023   0.299  11.890 -0.3419  2.2050  0.0583
  360TMC3    C7 5397   4.531   0.322  11.750  0.1318 -0.7181 -0.6131
  360TMC3    C8 5398   0.059   0.303  12.161 -0.8781  1.0535 -0.7914
  360TMC3    O1 5399   4.615   0.395  11.696 -0.1356  0.0275 -0.2632
  360TMC3    O2 5400   0.047   0.299  12.283 -0.1157 -0.5070 -0.2232
  361MPD2     C 5401   1.238   3.381  16.875 -0.4372  0.0410  0.4895
  361MPD2    C1 5402   1.310   3.452  16.961  0.0370 -0.2184 -0.0719
  361MPD2    C2 5403   1.411   3.387  17.035  0.2519  0.1967 -0.4635
  361MPD2    C3 5404   1.441   3.256  17.018 -0.2968  0.0597 -0.3549
  361MPD2    C4 5405   1.372   3.194  16.917 -0.1706  0.2044  0.4191
  361MPD2    C5 5406   1.266   3.251  16.854  0.3857 -0.1251  0.3095
  361MPD2     H 5407   1.466   3.438  17.113 -0.2875  2.2499 -1.4042
  361MPD2    H1 5408   1.395   3.092  16.890 -1.5500  0.4376 -1.6299
  361MPD2    H2 5409   1.148   3.415  16.823  0.3222  0.3206 -0.6464
  361MPD2    H3 5410   1.207   3.201  16.778 -1.9942 -0.0595  2.1093
  361MPD2     N 5411   1.538   3.179  17.085 -0.3029  0.1291  0.0328
  361MPD2    H5 5412   1.569   3.093  17.041 -0.3892  0.6202 -0.9871
  361MPD2    N1 5413   1.273   3.581  16.997 -0.2425  0.0706 -0.2719
  361MPD2    H7 5414   1.316   3.621  17.080 -0.3738 -1.0354  0.3366
  362TMC3    C1 5415   1.172   3.795  16.978 -0.2981  0.2334 -0.5277
  362TMC3    C2 5416   1.082   3.808  17.081 -0.6164 -0.5786  0.7349
  362TMC3    C3 5417   0.997   3.910  17.073 -0.4387 -0.1850  0.3511
  362TMC3    C4 5418   1.186   3.891  16.884  0.4411  0.1602  0.3892
  362TMC3    C5 5419   1.103   4.005  16.891 -0.3112  0.2145  0.0395
  362TMC3    C6 5420   1.002   4.006  16.982 -0.0961  0.9386  0.3454
  362TMC3     C 5421   1.190   3.662  16.924 -0.1930  0.0898 -0.0561
  362TMC3     O 5422   1.165   3.647  16.804 -0.1409 -0.6692  0.5213
  362TMC3     H 5423   1.062   3.729  17.153  1.3173 -1.2831  0.4997
  362TMC3    H1 5424   1.255   3.880  16.801 -0.9720  0.2982 -0.8100
  362TMC3    H2 5425   0.930   4.087  16.975 -0.3979  0.6937  0.6534
  362TMC3    C7 5426   1.091   4.099  16.783 -0.1974 -0.0897 -0.7568
  362TMC3    C8 5427   0.866   3.863  17.113  0.6329  0.5561 -0.6511
  362TMC3    O1 5428   0.986   4.167  16.784 -0.2825 -0.2829  0.5118
  362TMC3    O2 5429   0.844   3.745  17.080 -0.1720  0.2392 -0.1951
  363TMC3    C1 5430   0.418   1.476   9.399 -0.5649  0.6063 -0.5875
  363TMC3    C2 5431   0.504   1.491   9.506  0.7904  1.0889 -0.9088
  363TMC3    C3 5432   0.479   1.601   9.586  0.3170  0.3511 -0.5286
  363TMC3    C4 5433   0.312   1.563   9.359  0.8876  0.0026  0.4160
  363TMC3    C5 5434   0.293   1.667   9.449 -0.8241 -0.2760 -0.3888
  363TMC3    C6 5435   0.374   1.682   9.558  0.4713  0.4336  0.0996
  363TMC3     C 5436   0.429   1.349   9.329  0.5075 -0.1826  0.0222
  363TMC3     O 5437   0.511   1.268   9.369 -0.0075 -0.0132  0.1271
  363TMC3     H 5438   0.587   1.421   9.509  0.9697  1.4114  1.1760
  363TMC3    H1 5439   0.245   1.544   9.276 -0.2505 -1.1290  1.5925
  363TMC3    H2 5440   0.354   1.764   9.625 -1.6389  0.1727 -0.2138
  363TMC3    C7 5441   0.184   1.770   9.438  0.7624  0.1782 -0.3568
  363TMC3    C8 5442   0.529   1.601   9.721 -0.6697 -0.3311 -0.3851
  363TMC3    O1 5443   0.158   1.847   9.528 -0.2141  0.3355  0.3660
  363TMC3    O2 5444   0.506   1.693   9.796  0.5247  0.4442  0.0417
  364MPD2     C 5445   3.385   1.424  10.492 -0.4004 -0.1337 -0.5002
  364MPD2    C1 5446   3.514   1.391  10.473  0.1260 -0.6480 -0.4191
  364MPD2    C2 5447   3.557   1.257  10.483 -0.3084  0.0826 -0.9869
  364MPD2    C3 5448   3.466   1.157  10.515  0.0026  0.5905  0.2368
  364MPD2    C4 5449   3.337   1.193  10.530 -0.3903  0.0143 -0.3847
  364MPD2    C5 5450   3.296   1.322  10.520 -0.5045  0.2930 -0.2248
  364MPD2     H 5451   3.662   1.231  10.481 -0.4139 -0.5747  1.8600
  364MPD2    H1 5452   3.255   1.123  10.540  0.1238 -0.4471  0.6930
  364MPD2    H2 5453   3.347   1.525  10.485  0.6136  0.1200 -2.3481
  364MPD2    H3 5454   3.197   1.352  10.553 -0.2831  0.7996 -0.0143
  364MPD2     N 5455   3.506   1.022  10.537  0.2355 -0.5329 -0.4520
  364MPD2    H5 5456   3.436   0.955  10.567  0.8402 -0.3558  1.3386
  364MPD2    N1 5457   3.603   1.497  10.440 -0.0636  0.1297  0.6430
  364MPD2    H7 5458   3.558   1.588  10.437 -2.2492 -0.9399  0.9490
  365TMC3    C1 5459   3.770   1.609  10.319  0.0571  0.1883 -0.0890
  365TMC3    C2 5460   3.824   1.596  10.197  0.4461  0.2505 -0.1522
  365TMC3    C3 5461   3.863   1.712  10.132 -0.1917  0.1153 -0.5102
  365TMC3    C4 5462   3.755   1.730  10.378 -0.4183  0.2317  0.1164
  365TMC3    C5 5463   3.776   1.848  10.305  0.4903 -0.3010  0.8965
  365TMC3    C6 5464   3.828   1.840  10.177  0.4945  0.1839  0.6750
  365TMC3     C 5465   3.726   1.484  10.377 -0.6985  0.6609 -0.1733
  365TMC3     O 5466   3.800   1.393  10.345  0.0132 -0.0361  0.2016
  365TMC3     H 5467   3.830   1.506  10.137 -0.3148  0.2084 -0.1610
  365TMC3    H1 5468   3.731   1.730  10.484  0.5534  0.6194  0.3366
  365TMC3    H2 5469   3.843   1.934  10.124 -3.7570  0.2200 -0.5325
  365TMC3    C7 5470   3.716   1.972  10.351 -0.2218  0.6747 -0.0953
  365TMC3    C8 5471   3.886   1.711   9.988 -0.4525 -0.5695  0.1527
  365TMC3    O1 5472   3.758   2.071  10.295 -0.0462  0.1468 -0.2056
  365TMC3    O2 5473   3.844   1.816   9.939  0.1734  0.8397 -0.0797
  366MPD2     C 5474   2.155   1.728  15.124 -0.2124  0.0171  0.8517
  366MPD2    C1 5475   2.147   1.863  15.082 -0.2880  0.3547 -0.0956
  366MPD2    C2 5476   2.258   1.932  15.037  0.5478  0.7760  0.1951
  366MPD2    C3 5477   2.385   1.863  15.035  0.2086  0.7864 -0.1591
  366MPD2    C4 5478   2.394   1.727  15.077  0.7200  0.7727  0.0400
  366MPD2    C5 5479   2.278   1.668  15.123  0.1994 -0.1255 -0.2408
  366MPD2     H 5480   2.256   2.034  15.002  2.7471  0.7124 -0.0890
  366MPD2    H1 5481   2.478   1.661  15.061 -1.4943 -1.6020 -1.7252
  366MPD2    H2 5482   2.070   1.680  15.171 -1.1422 -0.5127 -1.3807
  366MPD2    H3 5483   2.273   1.567  15.161 -0.0774 -0.4000 -1.0036
  366MPD2     N 5484   2.505   1.927  14.989 -0.2917  0.3219 -0.2863
  366MPD2    H5 5485   2.577   1.867  14.949 -2.1786 -1.2870 -1.2635
  366MPD2    N1 5486   2.015   1.920  15.085  0.0520 -0.2601 -0.0923
  366MPD2    H7 5487   1.942   1.869  15.133 -0.6170  0.9409  0.1484
  367TMC3    C1 5488   1.855   2.089  15.103 -0.8040  0.9073 -0.5294
  367TMC3    C2 5489   1.873   2.084  15.238 -0.7064 -0.9310  0.1189
  367TMC3    C3 5490   1.820   2.176  15.322  0.2230 -0.5081 -0.7169
  367TMC3    C4 5491   1.774   2.187  15.050  0.0776 -0.1209 -0.3681
  367TMC3    C5 5492   1.697   2.252  15.138  0.3496  0.0674 -0.3194
  367TMC3    C6 5493   1.716   2.250  15.271  0.0347  0.0585  0.7804
  367TMC3     C 5494   1.975   2.039  15.027  0.3290  0.1169 -0.5516
  367TMC3     O 5495   2.026   2.112  14.939  0.4766 -0.2586 -0.7837
  367TMC3     H 5496   1.956   2.025  15.274 -1.0933 -0.9118  1.0532
  367TMC3    H1 5497   1.770   2.196  14.942  0.4937 -2.5213 -0.5817
  367TMC3    H2 5498   1.674   2.327  15.334  0.1538  2.2290 -1.7597
  367TMC3    C7 5499   1.578   2.332  15.096 -0.3417 -0.2221  0.1177
  367TMC3    C8 5500   1.896   2.208  15.444 -0.0443 -0.4753  0.0056
  367TMC3    O1 5501   1.522   2.392  15.185  0.3458  0.5496 -0.0836
  367TMC3    O2 5502   1.988   2.135  15.463  0.0951  0.0342 -0.1615
  368MPD2     C 5503   2.581   4.210  12.986  0.1771  0.0929  0.2247
  368MPD2    C1 5504   2.586   4.345  12.961  0.5787 -0.2422  0.7452
  368MPD2    C2 5505   2.656   4.384  12.845  0.1819  0.2847 -0.6334
  368MPD2    C3 5506   2.707   4.292  12.759  0.4101  0.3921 -0.3464
  368MPD2    C4 5507   2.695   4.154  12.787  0.3180 -0.4829  0.2616
  368MPD2    C5 5508   2.638   4.116  12.905 -0.0309 -0.2077 -0.1320
  368MPD2     H 5509   2.683   4.488  12.833  0.4611  0.1767 -0.9400
  368MPD2    H1 5510   2.739   4.079  12.722  0.6450 -0.2599  0.2297
  368MPD2    H2 5511   2.537   4.167  13.076 -0.1445  2.1253  1.0404
  368MPD2    H3 5512   2.640   4.011  12.933  1.5109 -0.7498 -2.1782
  368MPD2     N 5513   2.776   4.317  12.638  0.4625  0.4829 -1.2103
  368MPD2    H5 5514   2.811   4.241  12.579  0.4968 -0.1044 -0.4370
  368MPD2    N1 5515   2.514   4.440  13.045 -0.5195 -0.1331  0.7124
  368MPD2    H7 5516   2.443   4.399  13.106 -1.6652  3.3557  1.7383
  369TMC3    C1 5517   2.398   4.634  13.090  0.1733 -0.4493 -0.9969
  369TMC3    C2 5518   2.373   0.029  13.034 -0.1666 -0.0277 -0.0605
  369TMC3    C3 5519   2.248   0.073  12.997  0.5444 -0.0575  0.5213
  369TMC3    C4 5520   2.292   4.561  13.129  0.1289 -0.0417 -1.2409
  369TMC3    C5 5521   2.166   4.612  13.115  0.2420 -0.4945  0.8131
  369TMC3    C6 5522   2.138   0.003  13.045 -0.2701  0.6751  0.0851
  369TMC3     C 5523   2.513   4.578  13.028 -0.6574  0.0103 -0.3239
  369TMC3     O 5524   2.587   4.653  12.971 -0.0849  0.6797 -0.4244
  369TMC3     H 5525   2.454   0.100  13.024  0.8383 -1.1444  0.1596
  369TMC3    H1 5526   2.297   4.466  13.182  1.8033  0.5591 -0.3123
  369TMC3    H2 5527   2.037   0.028  13.016 -0.2191 -0.5169 -1.1022
  369TMC3    C7 5528   2.056   4.544  13.186  0.3138 -0.2327  0.4471
  369TMC3    C8 5529   2.246   0.141  12.874  0.1722  0.1906 -0.0596
  369TMC3    O1 5530   2.072   4.435  13.239  0.4071 -0.6738 -0.1682
  369TMC3    O2 5531   2.153   0.209  12.831 -0.2016 -0.0970 -0.0221
  370TMC3    C1 5532   2.072   4.403  16.384 -0.8866  0.3146  0.2328
  370TMC3    C2 5533   2.085   4.309  16.483  0.1430  0.7776  0.1141
  370TMC3    C3 5534   2.072   4.177  16.447 -0.3379 -0.4126  0.1123
  370TMC3    C4 5535   2.050   4.370  16.251 -0.6943 -0.3413 -0.6656
  370TMC3    C5 5536   2.052   4.241  16.222 -0.4761  0.3698  0.4362
  370TMC3    C6 5537   2.060   4.143  16.313  0.0077 -0.7308  0.1547
  370TMC3     C 5538   2.074   4.544  16.423  0.0344  0.3838 -0.1632
  370TMC3     O 5539   2.035   4.575  16.534  0.9709 -0.4346 -0.2116
  370TMC3     H 5540   2.105   4.354  16.580 -2.6055 -0.2780  1.1786
  370TMC3    H1 5541   2.034   4.449  16.178  0.7604  1.5664  1.0670
  370TMC3    H2 5542   2.056   4.036  16.294 -1.5883 -0.3675 -1.4957
  370TMC3    C7 5543   2.049   4.199  16.082 -0.8197 -0.8237  0.1858
  370TMC3    C8 5544   2.077   4.071  16.546 -0.1611  0.5105  1.5024
  370TMC3    O1 5545   1.975   4.257  16.004  0.1590 -0.6225  0.0261
  370TMC3    O2 5546   2.069   3.957  16.500 -0.3496 -0.3713  0.4799
  371TMC3    C1 5547   3.686   2.991  15.405 -0.4425  0.5380  0.7157
  371TMC3    C2 5548   3.557   2.953  15.423  0.3984 -0.1896  0.6567
  371TMC3    C3 5549   3.466   3.053  15.456  0.1608  0.2870  0.1359
  371TMC3    C4 5550   3.730   3.115  15.421 -1.1386  0.6934 -0.3295
  371TMC3    C5 5551   3.631   3.213  15.442 -0.7246  0.1793 -0.1936
  371TMC3    C6 5552   3.497   3.188  15.451 -1.4156 -1.1524  0.1703
  371TMC3     C 5553   3.788   2.890  15.416 -1.0039 -0.5093  0.5218
  371TMC3     O 5554   3.901   2.925  15.397 -0.4911  0.1223 -0.6659
  371TMC3     H 5555   3.521   2.852  15.407 -1.2377  0.2038  1.8622
  371TMC3    H1 5556   3.831   3.147  15.398 -0.6705 -1.8665 -1.8149
  371TMC3    H2 5557   3.420   3.263  15.462 -0.0144  0.1851  0.6683
  371TMC3    C7 5558   3.671   3.356  15.455  0.8433  0.1732 -0.2984
  371TMC3    C8 5559   3.335   2.999  15.501  0.1363  0.1733 -0.1281
  371TMC3    O1 5560   3.602   3.444  15.405  0.0679  0.5446  0.2145
  371TMC3    O2 5561   3.328   2.878  15.505  0.2941  0.6180 -0.5894
  372MPD2     C 5562   3.167   4.244  13.010  0.0084 -0.5700 -0.2106
  372MPD2    C1 5563   3.268   4.163  13.063 -0.1666 -0.4183 -0.0193
  372MPD2    C2 5564   3.229   4.040  13.109  0.3808  0.4690  0.0054
  372MPD2    C3 5565   3.095   4.000  13.109 -0.0620  0.2940  0.0485
  372MPD2    C4 5566   2.997   4.089  13.062  0.0181  0.2297 -0.2926
  372MPD2    C5 5567   3.035   4.210  13.009  0.0359  0.7740  0.4440
  372MPD2     H 5568   3.300   3.973  13.156  0.9691  1.0965  0.0064
  372MPD2    H1 5569   2.891   4.068  13.058 -0.3616  2.3784 -1.6233
  372MPD2    H2 5570   3.188   4.344  12.974 -1.2915 -0.6196 -1.1203
  372MPD2    H3 5571   2.965   4.278  12.961  0.4879  1.1035  0.2523
  372MPD2     N 5572   3.067   3.875  13.168 -0.2498  0.2410 -0.2008
  372MPD2    H5 5573   3.143   3.827  13.215 -0.6928  1.4416  1.7396
  372MPD2    N1 5574   3.405   4.200  13.060  0.5043 -0.0479  0.2332
  372MPD2    H7 5575   3.469   4.146  13.117  0.8334 -0.9760 -1.0164
  373TMC3    C1 5576   2.917   3.712  13.267 -0.4019 -0.1336 -0.8180
  373TMC3    C2 5577   2.819   3.704  13.361  0.4975  0.3481 -0.4613
  373TMC3    C3 5578   2.845   3.618  13.462 -0.2208 -0.2572  0.1639
  373TMC3    C4 5579   3.027   3.635  13.273  0.3774  0.6231  0.1672
  373TMC3    C5 5580   3.039   3.546  13.380 -0.1874  0.0563 -0.0164
  373TMC3    C6 5581   2.943   3.533  13.468  0.2373 -0.3469  0.1736
  373TMC3     C 5582   2.936   3.838  13.201 -0.8215  0.4599 -0.1529
  373TMC3     O 5583   2.833   3.902  13.194  0.2067 -0.3600  0.1657
  373TMC3     H 5584   2.731   3.767  13.370  2.4687  3.3526 -2.0653
  373TMC3    H1 5585   3.107   3.638  13.201  1.1378 -2.1632  0.9253
  373TMC3    H2 5586   2.945   3.479  13.561 -0.6616 -0.0095  0.3939
  373TMC3    C7 5587   3.170   3.479  13.397  0.7927  0.7745 -0.1761
  373TMC3    C8 5588   2.791   3.661  13.594  0.7276 -0.3818 -0.5355
  373TMC3    O1 5589   3.257   3.491  13.317  0.2669  0.0349  0.4617
  373TMC3    O2 5590   2.672   3.681  13.604  0.6461  0.7001  0.4627
  374TMC3    C1 5591   4.499   4.510   9.275 -0.1752 -0.2402 -0.8636
  374TMC3    C2 5592   4.570   4.625   9.302  0.1893  0.2413 -0.2293
  374TMC3    C3 5593   4.602   4.703   9.188  0.6408  0.6048  0.0811
  374TMC3    C4 5594   4.484   4.455   9.153 -0.0389  0.7026  0.1728
  374TMC3    C5 5595   4.535   4.522   9.048  0.1220  0.5293  0.4788
  374TMC3    C6 5596   4.584   4.651   9.061 -0.3300 -0.0809  0.3822
  374TMC3     C 5597   4.455   4.437   9.398  0.4333  0.7213 -0.5203
  374TMC3     O 5598   4.518   4.462   9.500 -0.5270  0.2098 -0.1415
  374TMC3     H 5599   4.582   4.664   9.403  0.0301  0.5955 -0.3471
  374TMC3    H1 5600   4.430   4.364   9.130  1.8711 -0.4082  0.0198
  374TMC3    H2 5601   4.593   4.711   8.971 -3.4895  0.8465  0.6757
  374TMC3    C7 5602   4.458   4.498   8.921  0.4657  0.3460  0.3078
  374TMC3    C8 5603   4.659   0.113   9.200  0.0929 -0.2535  0.1684
  374TMC3    O1 5604   4.363   4.423   8.917  0.3443 -0.2948 -0.1469
  374TMC3    O2 5605   4.645   0.190   9.105 -0.5555 -0.5013 -0.5999
  375MPD2     C 5606   3.765   0.176  17.267  0.1710 -0.8008 -0.5373
  375MPD2    C1 5607   3.691   0.241  17.170  0.8318  0.1941  0.7586
  375MPD2    C2 5608   3.739   0.236  17.039  0.2864  0.5261  0.2043
  375MPD2    C3 5609   3.859   0.175  17.012 -0.0541  0.2347 -0.7696
  375MPD2    C4 5610   3.930   0.110  17.113 -0.2490 -0.2087 -0.8004
  375MPD2    C5 5611   3.883   0.109  17.240 -0.1400 -0.7684 -0.3903
  375MPD2     H 5612   3.691   0.298  16.963 -1.9209 -0.4265  0.8370
  375MPD2    H1 5613   4.025   0.061  17.095  1.1150  2.4562 -0.9119
  375MPD2    H2 5614   3.736   0.179  17.371  1.6363  2.8983 -0.2152
  375MPD2    H3 5615   3.953   0.064  17.309  0.3073  1.6070  0.6955
  375MPD2     N 5616   3.918   0.170  16.889 -0.1986 -0.1337 -0.3445
  375MPD2    H5 5617   4.008   0.122  16.888 -0.8728 -1.3546 -1.8345
  375MPD2    N1 5618   3.570   0.315  17.198  0.0630  0.3239 -0.9033
  375MPD2    H7 5619   3.530   0.358  17.115  1.3101  2.4224 -0.4143
  376TMC3    C1 5620   3.951   0.189  16.658 -0.4238 -0.1721 -0.0763
  376TMC3    C2 5621   4.079   0.235  16.670 -0.1900  0.3078  0.3896
  376TMC3    C3 5622   4.135   0.292  16.559 -0.1297 -0.2133  0.0160
  376TMC3    C4 5623   3.884   0.199  16.538 -0.0346 -0.0714  0.5803
  376TMC3    C5 5624   3.945   0.255  16.430  0.1394 -0.1943 -0.2893
  376TMC3    C6 5625   4.064   0.313  16.441  0.2478 -0.1883  0.4247
  376TMC3     C 5626   3.868   0.224  16.769 -0.8020 -0.4461 -0.2812
  376TMC3     O 5627   3.774   0.295  16.735  0.2433 -0.2667  0.2945
  376TMC3     H 5628   4.133   0.236  16.764 -0.7117 -0.3957  0.6961
  376TMC3    H1 5629   3.778   0.182  16.526  0.4253 -2.2485 -0.4055
  376TMC3    H2 5630   4.120   0.359  16.360 -1.8508  2.5479  0.5207
  376TMC3    C7 5631   3.884   0.275  16.301  0.2272  0.3025  0.3258
  376TMC3    C8 5632   4.271   0.264  16.530  0.3506 -0.0974  0.2712
  376TMC3    O1 5633   3.916   0.374  16.238  0.6289  0.5766  0.0921
  376TMC3    O2 5634   4.301   0.279  16.412 -0.5093 -0.1843 -0.3214
  377MPD2     C 5635   1.805   0.122  12.621  0.8535 -0.0684  0.4035
  377MPD2    C1 5636   1.872   0.018  12.660 -0.2751  0.0040 -0.0637
  377MPD2    C2 5637   1.828   4.663  12.763  0.0561  0.0892 -0.1377
  377MPD2    C3 5638   1.698   4.678  12.816  0.6053  0.9720  0.4913
  377MPD2    C4 5639   1.619   0.060  12.772  0.0673  0.0002  0.6794
  377MPD2    C5 5640   1.674   0.140  12.671 -0.5220 -0.0428 -0.0495
  377MPD2     H 5641   1.886   4.576  12.791 -0.0816 -0.4279 -1.4384
  377MPD2    H1 5642   1.516   0.065  12.806 -0.2213 -0.1856 -0.1897
  377MPD2    H2 5643   1.833   0.187  12.539 -2.0769  1.0698  0.2835
  377MPD2    H3 5644   1.612   0.220  12.632  0.4790  0.5829 -0.3558
  377MPD2     N 5645   1.634   4.596  12.920 -0.2334 -0.6075 -0.1512
  377MPD2    H5 5646   1.541   4.628  12.945 -0.1627 -2.9643  3.1028
  377MPD2    N1 5647   1.991   4.713  12.587  0.5293 -0.6965 -0.8738
  377MPD2    H7 5648   2.007   0.043  12.502 -1.7290  0.3852 -0.6008
  378TMC3    C1 5649   2.151   4.546  12.257  0.4708  0.3714 -0.1850
  378TMC3    C2 5650   2.100   4.615  12.365  0.3258 -0.1294 -0.8344
  378TMC3    C3 5651   2.159   4.591  12.480  0.5538 -0.5367 -0.4963
  378TMC3    C4 5652   2.252   4.452  12.263  0.0650  0.7643  0.0232
  378TMC3    C5 5653   2.311   4.437  12.386  0.3861  0.1770 -0.0166
  378TMC3    C6 5654   2.261   4.500  12.495  0.3597  0.4839  0.2371
  378TMC3     C 5655   2.127   4.618  12.133  0.2443 -0.1871 -0.1499
  378TMC3     O 5656   2.020   4.671  12.120 -0.1215 -0.2434  0.2764
  378TMC3     H 5657   2.009   4.672  12.351  0.9377  0.3940 -2.6374
  378TMC3    H1 5658   2.292   4.399  12.177 -2.7889 -1.4108  0.0620
  378TMC3    H2 5659   2.314   4.503  12.589  2.2648  1.3337 -0.8677
  378TMC3    C7 5660   2.391   4.324  12.418 -0.0682  0.6178  1.0205
  378TMC3    C8 5661   2.083   4.611  12.602  0.1192 -0.1768 -0.0090
  378TMC3    O1 5662   2.366   4.267  12.525  0.1654  0.0252 -0.0627
  378TMC3    O2 5663   2.092   4.530  12.695  0.5186  0.0966 -0.3007
  379MPD2     C 5664   2.657   2.053  16.338  0.6909  0.3118 -0.7674
  379MPD2    C1 5665   2.768   2.089  16.264 -0.2863 -0.5540 -0.2252
  379MPD2    C2 5666   2.894   2.040  16.303 -0.8755  0.0777  0.1041
  379MPD2    C3 5667   2.907   1.972  16.424 -0.4726  0.2613 -0.6890
  379MPD2    C4 5668   2.796   1.940  16.499  0.2724  0.9146  0.4883
  379MPD2    C5 5669   2.673   1.983  16.455  0.0316  0.3089  0.1211
  379MPD2     H 5670   2.979   2.051  16.236  0.6767 -1.6988  1.7926
  379MPD2    H1 5671   2.809   1.892  16.595  2.3088  0.1764 -0.1470
  379MPD2    H2 5672   2.559   2.090  16.310  0.7311  1.2658  0.3561
  379MPD2    H3 5673   2.590   1.946  16.513 -0.7262 -0.7582 -1.6232
  379MPD2     N 5674   3.029   1.934  16.480 -0.1455  0.4225  0.2883
  379MPD2    H5 5675   3.030   1.894  16.573  2.0437  1.3006  0.6505
  379MPD2    N1 5676   2.762   2.171  16.147  0.1522 -0.1381  0.4094
  379MPD2    H7 5677   2.842   2.186  16.087  1.2545  0.7539  2.0928
  380TMC3    C1 5678   2.631   2.298  15.994  0.4252  0.0263 -0.6386
  380TMC3    C2 5679   2.696   2.241  15.888  0.2646  0.2964 -0.3276
  380TMC3    C3 5680   2.651   2.263  15.761  0.0231  0.2059  0.1481
  380TMC3    C4 5681   2.518   2.373  15.973 -0.1121  0.6696  0.3978
  380TMC3    C5 5682   2.462   2.369  15.850 -0.3631 -0.2778  0.2405
  380TMC3    C6 5683   2.530   2.324  15.743 -0.6440  0.3766  0.1416
  380TMC3     C 5684   2.649   2.245  16.129  0.3234  0.2817  0.1488
  380TMC3     O 5685   2.568   2.290  16.210 -0.2599  0.3217 -0.3150
  380TMC3     H 5686   2.776   2.168  15.901  0.7424  0.7332 -0.8196
  380TMC3    H1 5687   2.458   2.408  16.056  0.0464 -0.0084  0.7938
  380TMC3    H2 5688   2.497   2.341  15.641  0.1332 -2.3747 -0.5776
  380TMC3    C7 5689   2.344   2.447  15.832 -0.7008  0.2421  0.1007
  380TMC3    C8 5690   2.748   2.295  15.658  0.5825  0.0431 -0.9632
  380TMC3    O1 5691   2.324   2.534  15.917  0.3276 -0.3563 -0.1489
  380TMC3    O2 5692   2.701   2.332  15.551  0.2795 -0.0585  0.1678
  381TMC3    C1 5693   2.026   3.588  16.087  0.2061 -0.5687  0.7168
  381TMC3    C2 5694   2.148   3.652  16.105 -0.2051  0.2874 -0.2327
  381TMC3    C3 5695   2.185   3.708  16.226 -0.0076  0.8451  0.3065
  381TMC3    C4 5696   1.950   3.553  16.192 -0.2897 -0.1905  0.7927
  381TMC3    C5 5697   1.993   3.596  16.316 -0.2471  0.0878  0.6775
  381TMC3    C6 5698   2.105   3.674  16.337 -0.1249 -0.0867 -0.6878
  381TMC3     C 5699   1.995   3.526  15.959  0.1938  0.2770 -0.2508
  381TMC3     O 5700   1.882   3.486  15.942 -0.1500  0.6019  0.3866
  381TMC3     H 5701   2.205   3.680  16.017 -0.1401  0.2575 -0.1998
  381TMC3    H1 5702   1.854   3.505  16.179 -1.2724  2.1427 -0.6187
  381TMC3    H2 5703   2.137   3.705  16.436  0.0377 -0.4206 -0.6353
  381TMC3    C7 5704   1.921   3.543  16.432  0.9088 -0.0923 -0.2409
  381TMC3    C8 5705   2.306   3.769  16.245  0.0485  0.8389 -0.8596
  381TMC3    O1 5706   1.883   3.429  16.417 -0.1094 -0.8335  0.2370
  381TMC3    O2 5707   2.387   3.756  16.153 -0.1761 -0.3902  0.3488
  382MPD2     C 5708   2.073   1.262  17.088 -0.2711 -0.3777  0.0275
  382MPD2    C1 5709   2.031   1.279  17.219  0.9335 -0.0349  0.1285
  382MPD2    C2 5710   1.953   1.181  17.276  0.7056 -0.3001 -0.0735
  382MPD2    C3 5711   1.907   1.073  17.198  0.3281  0.2946  0.2264
  382MPD2    C4 5712   1.961   1.057  17.073 -0.0846  0.6466  0.0860
  382MPD2    C5 5713   2.046   1.144  17.020 -0.5208 -0.6961  0.0995
  382MPD2     H 5714   1.919   1.184  17.379  0.4596  1.1161 -0.1937
  382MPD2    H1 5715   1.931   0.983  16.999  0.7861 -0.7661  1.1339
  382MPD2    H2 5716   2.137   1.334  17.038  0.8194 -1.4646 -0.1519
  382MPD2    H3 5717   2.082   1.133  16.918  0.0375 -2.4419  0.4791
  382MPD2     N 5718   1.837   0.972  17.252 -0.4257 -1.0198 -0.9780
  382MPD2    H5 5719   1.834   0.895  17.186  0.1543 -1.9298  0.0677
  382MPD2    N1 5720   2.059   1.398  17.291 -0.1253  0.3153  0.4595
  382MPD2    H7 5721   2.040   1.399  17.391 -1.3347  1.2073  0.2275
  383TMC3    C1 5722   1.711   0.821  17.386  0.3572  0.2580  0.2394
  383TMC3    C2 5723   1.632   0.775  17.274 -0.4098  0.2249 -0.6632
  383TMC3    C3 5724   1.545   0.673  17.295  0.2127 -0.2113  0.4090
  383TMC3    C4 5725   1.691   0.760  17.509  0.2204 -0.2481 -0.4362
  383TMC3    C5 5726   1.607   0.654  17.518  0.4826  0.1603 -0.0633
  383TMC3    C6 5727   1.536   0.601  17.410  0.0959 -0.5696 -0.5959
  383TMC3     C 5728   1.794   0.946  17.382  0.1348 -0.2118 -1.2386
  383TMC3     O 5729   1.804   1.011  17.485  0.1351  0.2972 -0.2264
  383TMC3     H 5730   1.635   0.826  17.178 -0.5281  0.9759 -0.2717
  383TMC3    H1 5731   1.731   0.797  17.603  0.3452 -0.1365 -0.5341
  383TMC3    H2 5732   1.447   0.543  17.427 -0.0836 -0.9128 -2.6618
  383TMC3    C7 5733   1.559   0.623  17.647 -0.7369 -0.4959 -0.3255
  383TMC3    C8 5734   1.474   0.624  17.176  0.7122 -0.3523  0.0744
  383TMC3    O1 5735   1.570   0.708   0.034 -0.1905  0.4442 -0.2596
  383TMC3    O2 5736   1.456   0.710  17.088  0.1998 -0.5460  0.1301
  384MPD2     C 5737   3.550   3.038  12.220 -0.3036 -0.4523 -0.3797
  384MPD2    C1 5738   3.487   2.917  12.235  0.0260 -0.0234  0.8137
  384MPD2    C2 5739   3.521   2.813  12.149  0.3654 -0.1375 -0.4669
  384MPD2    C3 5740   3.632   2.828  12.063  0.1574 -0.2681 -0.1744
  384MPD2    C4 5741   3.695   2.952  12.057 -0.8480 -0.6186 -0.3595
  384MPD2    C5 5742   3.654   3.055  12.142 -0.3893 -0.0233  0.3079
  384MPD2     H 5743   3.486   2.712  12.166  0.3265  0.3710  2.3583
  384MPD2    H1 5744   3.789   2.965  12.005  0.0416 -0.3975  1.3035
  384MPD2    H2 5745   3.529   3.119  12.290  0.3451  0.0179 -0.7333
  384MPD2    H3 5746   3.716   3.144  12.146 -2.2795  1.3147 -0.4375
  384MPD2     N 5747   3.689   2.719  11.999  0.6300 -0.1111  0.3602
  384MPD2    H5 5748   3.783   2.732  11.963  0.6487  0.5053  0.6360
  384MPD2    N1 5749   3.383   2.888  12.327  0.4287 -0.5877 -0.0301
  384MPD2    H7 5750   3.352   2.791  12.330  3.1443 -1.4472  0.1144
  385TMC3    C1 5751   3.746   2.503  11.975 -0.6509  0.3363 -0.4462
  385TMC3    C2 5752   3.703   2.385  11.915  0.2095 -0.5181 -0.1655
  385TMC3    C3 5753   3.733   2.268  11.973  0.2701 -0.1427 -0.7679
  385TMC3    C4 5754   3.819   2.501  12.085 -0.0078  0.3167  0.1063
  385TMC3    C5 5755   3.826   2.386  12.152 -0.5958 -0.9668 -0.4182
  385TMC3    C6 5756   3.796   2.267  12.097  0.4021  0.8799  0.3303
  385TMC3     C 5757   3.637   2.597  11.992 -0.5808  0.7438  0.8502
  385TMC3     O 5758   3.528   2.549  12.025 -0.5637 -0.0910 -0.7249
  385TMC3     H 5759   3.648   2.394  11.821 -1.1897 -1.8642  0.5208
  385TMC3    H1 5760   3.874   2.586  12.124 -0.0365 -0.8371  2.6851
  385TMC3    H2 5761   3.802   2.176  12.156 -0.4619  0.8927  0.4386
  385TMC3    C7 5762   3.778   2.408  12.287 -0.7669 -0.0837  0.0751
  385TMC3    C8 5763   3.700   2.135  11.921 -0.0392  0.0401  0.0813
  385TMC3    O1 5764   3.749   2.520  12.311  0.3912  0.2379 -0.4580
  385TMC3    O2 5765   3.747   2.049  11.993  0.3220 -0.0586  0.1226
  386TMC3    C1 5766   3.146   0.536  11.687  0.8941 -0.3495  0.2032
  386TMC3    C2 5767   3.158   0.537  11.551  0.4321  0.3475  0.3456
  386TMC3    C3 5768   3.044   0.531  11.473 -0.1715 -0.3919  0.4110
  386TMC3    C4 5769   3.019   0.522  11.748 -0.6204  0.3467  0.2049
  386TMC3    C5 5770   2.911   0.521  11.664  0.2693 -0.8817  0.2906
  386TMC3    C6 5771   2.920   0.527  11.527  0.0764  0.0734  0.2759
  386TMC3     C 5772   3.270   0.523  11.766 -0.2292 -0.4002 -0.2493
  386TMC3     O 5773   3.263   0.558  11.884 -0.1762 -0.1709 -0.5275
  386TMC3     H 5774   3.252   0.554  11.499  0.0353 -0.2316 -0.5570
  386TMC3    H1 5775   3.017   0.510  11.856 -0.2435  0.1980  0.1960
  386TMC3    H2 5776   2.855   0.496  11.446  1.6196 -0.2350 -0.8456
  386TMC3    C7 5777   2.782   0.561  11.727  0.1038  0.3749  0.1741
  386TMC3    C8 5778   3.052   0.558  11.329  0.0143  0.7545 -0.3282
  386TMC3    O1 5779   2.762   0.537  11.843  1.0214 -0.2518 -0.1019
  386TMC3    O2 5780   2.962   0.614  11.267 -0.5178  0.3370 -0.1163
  387MPD2     C 5781   0.932   4.636   9.490 -0.4468  0.0078  0.3750
  387MPD2    C1 5782   0.937   4.636   9.628  0.2071  0.1790  0.1150
  387MPD2    C2 5783   0.939   4.514   9.700 -0.6084  0.2616 -0.6882
  387MPD2    C3 5784   0.970   4.398   9.630 -0.4708 -0.6924 -0.2571
  387MPD2    C4 5785   0.986   4.396   9.492  0.5484  0.1226  0.0456
  387MPD2    C5 5786   0.951   4.511   9.424 -0.4188  0.1803 -0.0341
  387MPD2     H 5787   0.936   4.510   9.808  1.9128 -0.9714 -0.6713
  387MPD2    H1 5788   1.005   4.307   9.433 -0.6715 -1.1992  1.6500
  387MPD2    H2 5789   0.902   4.709   9.415  0.6067 -0.3785 -0.4193
  387MPD2    H3 5790   0.947   4.515   9.316  1.3415 -0.4990 -0.1339
  387MPD2     N 5791   0.988   4.287   9.719  0.0033  0.2352 -0.3779
  387MPD2    H5 5792   0.969   4.316   9.814 -2.5759  2.1703 -1.5003
  387MPD2    N1 5793   0.927   0.039   9.700 -0.5224 -0.0376  0.2200
  387MPD2    H7 5794   0.924   0.028   9.801 -2.5309 -0.8703  0.0671
  388TMC3    C1 5795   1.004   0.255   9.740 -0.0746 -0.3271 -0.0652
  388TMC3    C2 5796   0.929   0.275   9.853  0.1210  0.5321  0.4753
  388TMC3    C3 5797   0.984   0.346   9.957  0.3873  0.1785  0.5579
  388TMC3    C4 5798   1.139   0.270   9.747  0.3378 -0.1592  0.1264
  388TMC3    C5 5799   1.204   0.318   9.859  0.7320 -0.4947  0.6064
  388TMC3    C6 5800   1.123   0.355   9.965  0.1332 -0.1100  0.1745
  388TMC3     C 5801   0.946   0.164   9.647  0.2486 -0.6039 -0.1726
  388TMC3     O 5802   0.980   0.184   9.532  0.4335 -0.1006  0.2627
  388TMC3     H 5803   0.823   0.254   9.849  0.2500 -0.7660  3.9392
  388TMC3    H1 5804   1.207   0.221   9.679 -0.3911 -0.6469 -0.2539
  388TMC3    H2 5805   1.176   0.384  10.056  1.0468  2.0916 -1.0703
  388TMC3    C7 5806   1.320   0.236   9.914 -0.2667 -0.2017  0.0996
  388TMC3    C8 5807   0.912   0.372  10.084  0.5049 -0.1590  0.1827
  388TMC3    O1 5808   1.386   0.298   9.992 -0.3571  0.2001  0.2745
  388TMC3    O2 5809   0.811   0.309  10.100  0.0103 -0.0169  0.0945
  389MPD2     C 5810   0.531   3.342  11.706 -1.0002 -0.3971  0.0273
  389MPD2    C1 5811   0.520   3.323  11.569  0.0206  0.2666 -0.4736
  389MPD2    C2 5812   0.454   3.207  11.520  0.1558  0.3026  0.1482
  389MPD2    C3 5813   0.421   3.101  11.604 -0.1532  0.5309 -0.2169
  389MPD2    C4 5814   0.437   3.123  11.741 -0.0576 -0.0420 -0.4021
  389MPD2    C5 5815   0.485   3.239  11.788 -0.2383  0.1449  0.2957
  389MPD2     H 5816   0.456   3.198  11.412 -0.0902 -0.5504  0.2089
  389MPD2    H1 5817   0.416   3.048  11.816 -1.0826  1.1008  0.4494
  389MPD2    H2 5818   0.564   3.437  11.746 -0.5610 -0.6794  0.3456
  389MPD2    H3 5819   0.499   3.261  11.893  0.5582 -1.6271  0.5635
  389MPD2     N 5820   0.378   2.977  11.560 -0.0108  0.1718  0.1762
  389MPD2    H5 5821   0.353   2.903  11.625  2.7901 -0.0879  0.9740
  389MPD2    N1 5822   0.581   3.404  11.468  0.7398  0.2565  0.3187
  389MPD2    H7 5823   0.572   3.369  11.373 -2.4050  1.1700  0.2517
  390TMC3    C1 5824   0.303   2.810  11.404  0.2976  0.6838  0.4266
  390TMC3    C2 5825   0.280   2.732  11.511  0.9469 -0.9202  0.2455
  390TMC3    C3 5826   0.243   2.605  11.482 -0.3108  0.3883  0.0896
  390TMC3    C4 5827   0.281   2.779  11.274  0.1032  0.5439  0.3164
  390TMC3    C5 5828   0.244   2.648  11.257 -0.1894 -0.4746 -0.7783
  390TMC3    C6 5829   0.226   2.563  11.357  0.0255  0.1916  0.7725
  390TMC3     C 5830   0.359   2.949  11.425 -0.5702  0.6252 -0.6653
  390TMC3     O 5831   0.418   3.000  11.330  0.1136  0.1236 -0.5588
  390TMC3     H 5832   0.280   2.757  11.616 -0.7785 -1.0275  0.2753
  390TMC3    H1 5833   0.298   2.851  11.195  3.1107  0.8940  1.3075
  390TMC3    H2 5834   0.208   2.457  11.346  0.6727  0.0229  1.3509
  390TMC3    C7 5835   0.144   2.633  11.154 -0.1766 -0.3395 -0.1181
  390TMC3    C8 5836   0.149   2.531  11.564  0.1887 -0.4742 -0.2597
  390TMC3    O1 5837   0.175   2.638  11.037 -0.0035  0.2597 -0.1967
  390TMC3    O2 5838   0.044   2.516  11.506  0.1851  0.0863  0.0651
  391MPD2     C 5839   0.099   4.542  10.662 -0.0006 -1.2808  0.6501
  391MPD2    C1 5840   0.141   4.671  10.692 -0.0030 -0.1409  0.4759
  391MPD2    C2 5841   0.147   0.040  10.588  0.1271 -0.3707  0.0050
  391MPD2    C3 5842   0.131   4.719  10.455 -0.3565  0.1738  0.3409
  391MPD2    C4 5843   0.076   4.598  10.428 -0.2228 -0.5469  0.3001
  391MPD2    C5 5844   0.061   4.507  10.526 -0.3243 -0.0622 -0.4342
  391MPD2     H 5845   0.170   0.144  10.606 -1.8066 -0.0644  0.7357
  391MPD2    H1 5846   0.043   4.577  10.327 -3.0537  0.3221  1.0346
  391MPD2    H2 5847   0.088   4.460  10.732 -0.0262  1.0066  3.2970
  391MPD2    H3 5848   0.020   4.410  10.499  2.3388 -1.1399 -0.5728
  391MPD2     N 5849   0.135   0.091  10.354  0.5234  0.4981  0.0904
  391MPD2    H5 5850   0.159   0.187  10.379 -0.0520 -0.4050  4.2233
  391MPD2    N1 5851   0.177   4.692  10.829  0.0669  0.2100  0.0481
  391MPD2    H7 5852   0.162   4.614  10.891 -0.1507 -0.1094 -0.4095
  392TMC3    C1 5853   0.173   0.194  10.144 -0.4741 -0.0462  0.3703
  392TMC3    C2 5854   0.165   0.186  10.007  0.8797  0.2620  0.2693
  392TMC3    C3 5855   0.169   0.301   9.933 -0.8726 -0.4178  0.0846
  392TMC3    C4 5856   0.192   0.313  10.207 -0.2829  0.6634 -0.1615
  392TMC3    C5 5857   0.202   0.426  10.127 -0.1775  0.0961 -0.3129
  392TMC3    C6 5858   0.186   0.427   9.992 -0.0802  0.3540  0.2548
  392TMC3     C 5859   0.151   0.071  10.222  0.6717 -0.6700  0.0355
  392TMC3     O 5860   0.137   4.686  10.163 -0.3484 -0.4745  0.1315
  392TMC3     H 5861   0.155   0.093   9.953  1.8446 -0.7712  1.8612
  392TMC3    H1 5862   0.219   0.319  10.312  1.2037 -0.6056 -0.4672
  392TMC3    H2 5863   0.177   0.513   9.926  0.6206  0.8579  0.8300
  392TMC3    C7 5864   0.208   0.557  10.192  0.6707 -0.6229 -0.1201
  392TMC3    C8 5865   0.156   0.280   9.785  0.2933 -0.4685 -0.8638
  392TMC3    O1 5866   0.177   0.560  10.311  0.2859  0.4710  0.0598
  392TMC3    O2 5867   0.190   0.167   9.749 -0.1833 -0.4860  0.0366
  393TMC3    C1 5868   4.081   2.913  10.426  0.7701 -0.9144  0.3630
  393TMC3    C2 5869   3.971   2.887  10.497 -0.2161 -0.0650  0.1812
  393TMC3    C3 5870   3.933   2.753  10.503 -0.4218 -0.0180 -0.5007
  393TMC3    C4 5871   4.155   2.807  10.372  0.1300 -0.3557 -0.4082
  393TMC3    C5 5872   4.124   2.675  10.399 -0.0929  0.0734 -0.1240
  393TMC3    C6 5873   4.012   2.648  10.464  0.4485  0.6171  0.4591
  393TMC3     C 5874   4.074   3.041  10.346 -0.1415 -0.5222  0.4221
  393TMC3     O 5875   3.959   3.085  10.316 -0.4990 -0.2728  0.2215
  393TMC3     H 5876   3.891   2.961  10.498 -0.5457 -0.4070 -2.2489
  393TMC3    H1 5877   4.238   2.828  10.306  0.2784  1.1149  0.2406
  393TMC3    H2 5878   3.976   2.547  10.477 -1.8932  1.4966  0.9770
  393TMC3    C7 5879   4.194   2.568  10.332  0.0153  0.6472  0.0424
  393TMC3    C8 5880   3.808   2.720  10.562 -0.1372  0.2217 -0.7450
  393TMC3    O1 5881   4.144   2.455  10.339  0.4211 -0.6921 -0.5607
  393TMC3    O2 5882   3.775   2.604  10.553  0.5029  0.3066  0.1251
  394TMC3    C1 5883   0.726   3.538  11.366  0.5612 -0.2391 -0.2601
  394TMC3    C2 5884   0.652   3.531  11.250  0.2228  0.4327 -0.1078
  394TMC3    C3 5885   0.722   3.536  11.138 -0.2779  0.2106 -0.3703
  394TMC3    C4 5886   0.859   3.549  11.366  0.1798  0.3412 -0.9046
  394TMC3    C5 5887   0.928   3.554  11.246  0.3188 -0.2988  0.5354
  394TMC3    C6 5888   0.860   3.554  11.126 -0.0492  0.2010  0.1120
  394TMC3     C 5889   0.668   3.503  11.490 -0.4906 -0.4593  0.0692
  394TMC3     O 5890   0.714   3.543  11.597  0.6750  0.1703  0.2040
  394TMC3     H 5891   0.543   3.536  11.254  0.2021 -0.3242  0.2151
  394TMC3    H1 5892   0.913   3.568  11.458 -0.3146 -0.2054 -0.5034
  394TMC3    H2 5893   0.907   3.572  11.030  1.3730  0.7029  0.8884
  394TMC3    C7 5894   1.070   3.535  11.255 -0.1139  0.1556 -0.5722
  394TMC3    C8 5895   0.658   3.518  11.012  0.0090 -0.2460  0.1024
  394TMC3    O1 5896   1.127   3.595  11.162 -0.8061  0.1538 -0.3856
  394TMC3    O2 5897   0.540   3.542  11.015  0.0470  0.2862 -0.2182
  395TMC3    C1 5898   0.063   0.316  14.825  0.4058  0.8842  0.7774
  395TMC3    C2 5899   0.027   0.284  14.690  0.0691  0.0580  0.6641
  395TMC3    C3 5900   0.099   0.352  14.592  0.3889  0.3062 -0.4580
  395TMC3    C4 5901   0.157   0.410  14.858  0.7560  0.4173  0.3999
  395TMC3    C5 5902   0.217   0.477  14.753 -0.5882 -0.1281 -0.0037
  395TMC3    C6 5903   0.194   0.445  14.622 -0.0976 -0.4234 -0.5708
  395TMC3     C 5904   0.017   0.238  14.946 -1.2259  0.9481  0.1559
  395TMC3     O 5905   0.042   0.288  15.057 -0.0376 -0.6259 -0.2071
  395TMC3     H 5906   4.673   0.210  14.675 -0.3999  0.4410  1.2199
  395TMC3    H1 5907   0.192   0.428  14.959 -1.2419 -0.1272  1.1917
  395TMC3    H2 5908   0.237   0.505  14.542  0.9046 -0.1729  0.1520
  395TMC3    C7 5909   0.301   0.587  14.790 -0.0557  0.1378  0.4522
  395TMC3    C8 5910   0.101   0.303  14.453  0.2321  0.6210 -0.3601
  395TMC3    O1 5911   0.291   0.629  14.905  0.3192  0.1953  0.1801
  395TMC3    O2 5912   0.164   0.369  14.374 -0.2651 -0.1781  1.0038
  396MPD2     C 5913   4.602   0.883  16.923 -0.1977 -0.1393  0.1335
  396MPD2    C1 5914   4.706   0.914  17.006 -0.0754  0.3340  0.2395
  396MPD2    C2 5915   0.068   1.023  16.980  0.1173 -0.5175  0.1524
  396MPD2    C3 5916   0.033   1.106  16.870 -0.4836  0.6846 -0.0760
  396MPD2    C4 5917   4.665   1.064  16.778  0.2134 -0.5107  0.1625
  396MPD2    C5 5918   4.586   0.951  16.803  0.3959 -0.7131  0.2765
  396MPD2     H 5919   0.152   1.056  17.040 -2.0483  0.5427  2.5838
  396MPD2    H1 5920   4.633   1.119  16.690 -3.1257  1.3669  2.5224
  396MPD2    H2 5921   4.535   0.802  16.949 -0.7692 -0.1937 -1.5551
  396MPD2    H3 5922   4.506   0.918  16.738  0.8036 -0.4776 -0.3442
  396MPD2     N 5923   0.118   1.216  16.837  0.2091  0.2692  0.2653
  396MPD2    H5 5924   0.175   1.259  16.910 -1.5270  2.5697  0.2566
  396MPD2    N1 5925   4.723   0.830  17.117 -0.2037  0.3558 -0.1361
  396MPD2    H7 5926   4.663   0.749  17.130 -1.5993  1.1403 -1.7455
  397TMC3    C1 5927   0.112   0.744  17.312  0.3905  0.6266  0.6884
  397TMC3    C2 5928   0.232   0.761  17.371 -0.7492 -0.0016  0.8689
  397TMC3    C3 5929   0.335   0.674  17.352  0.1951 -1.2218  1.1492
  397TMC3    C4 5930   0.087   0.618  17.258 -0.2141 -0.2884  0.5141
  397TMC3    C5 5931   0.181   0.523  17.272 -0.1370  0.4093 -0.1944
  397TMC3    C6 5932   0.311   0.545  17.306 -0.4647  0.5751  0.3824
  397TMC3     C 5933   0.084   0.853  17.223 -0.2979  0.7361  0.3425
  397TMC3     O 5934   0.145   0.958  17.245  0.6372  0.7624  0.1006
  397TMC3     H 5935   0.259   0.861  17.404 -1.9875  1.3175 -2.0912
  397TMC3    H1 5936   4.712   0.592  17.222 -0.4575  0.8861  0.3121
  397TMC3    H2 5937   0.398   0.483  17.289  1.0427  2.6674  0.4242
  397TMC3    C7 5938   0.124   0.398  17.315 -0.1230 -0.3986  0.4107
  397TMC3    C8 5939   0.454   0.720  17.290 -0.7923  0.3281 -0.3571
  397TMC3    O1 5940   0.023   0.365  17.249  0.6460 -0.9909  0.4559
  397TMC3    O2 5941   0.514   0.650  17.211 -0.6800  0.4300  0.1922
  398MPD2     C 5942   2.831   1.641   0.022  0.0196  0.1096  0.3900
  398MPD2    C1 5943   2.788   1.617   0.150  0.1281  0.2349 -0.0128
  398MPD2    C2 5944   2.838   1.693   0.249  0.3949  0.1809  0.6517
  398MPD2    C3 5945   2.924   1.802   0.228  0.4460  0.1031 -0.3046
  398MPD2    C4 5946   2.949   1.835   0.097  0.3526 -0.5526 -0.5410
  398MPD2    C5 5947   2.900   1.756  17.694  0.3838 -0.3778  0.4625
  398MPD2     H 5948   2.823   1.667   0.353 -1.2522 -0.5095  0.2561
  398MPD2    H1 5949   3.000   1.929   0.078 -1.4394 -0.0955 -2.9780
  398MPD2    H2 5950   2.798   1.579  17.638 -3.6426 -0.0307  1.9430
  398MPD2    H3 5951   2.919   1.784  17.590  0.2592  3.0098  1.3675
  398MPD2     N 5952   2.995   1.857   0.340 -0.6387 -0.1420  0.5397
  398MPD2    H5 5953   2.967   1.823   0.431  0.5386 -1.2859  0.4737
  398MPD2    N1 5954   2.719   1.504   0.171 -0.1925  0.1965 -0.0354
  398MPD2    H7 5955   2.699   1.473   0.266  2.8453  2.5113  1.3614
  399TMC3    C1 5956   2.666   1.295   0.132 -0.1424 -0.4140  0.0237
  399TMC3    C2 5957   2.775   1.256   0.208  0.5254 -0.4693  0.0507
  399TMC3    C3 5958   2.782   1.124   0.240  0.7438 -0.6782 -0.5555
  399TMC3    C4 5959   2.589   1.204   0.068  0.6931 -0.1067 -0.9306
  399TMC3    C5 5960   2.613   1.068   0.089 -0.0394  0.7699  1.1952
  399TMC3    C6 5961   2.708   1.026   0.179  0.6455  0.2679 -0.2071
  399TMC3     C 5962   2.664   1.425   0.079 -0.6947  0.1521 -0.1750
  399TMC3     O 5963   2.634   1.446  17.663 -0.0100  0.1272 -0.0241
  399TMC3     H 5964   2.849   1.323   0.250  1.5868 -1.4277 -0.2911
  399TMC3    H1 5965   2.515   1.253   0.006 -0.1515 -0.0868  0.1067
  399TMC3    H2 5966   2.732   0.921   0.189 -1.9527 -0.1961  1.2351
  399TMC3    C7 5967   2.521   0.964   0.046 -0.1489  0.2508  0.2120
  399TMC3    C8 5968   2.891   1.086   0.321 -0.4500  0.0935 -0.7059
  399TMC3    O1 5969   2.530   0.859   0.109 -0.1842 -0.0418  0.4703
  399TMC3    O2 5970   2.957   1.178   0.367  0.5407  0.5019 -0.6895
  400TMC3    C1 5971   1.458   0.470  16.712  0.0009  0.0897  0.3073
  400TMC3    C2 5972   1.331   0.471  16.664 -0.1377 -0.0854 -0.2732
  400TMC3    C3 5973   1.266   0.596  16.650  0.0940  0.0411 -0.2359
  400TMC3    C4 5974   1.524   0.585  16.736  0.0549  0.3288  0.1359
  400TMC3    C5 5975   1.458   0.700  16.732  0.2312  0.5113 -0.1014
  400TMC3    C6 5976   1.330   0.711  16.688 -0.7846  0.2573 -0.4145
  400TMC3     C 5977   1.496   0.350  16.786  0.4172  0.2780 -0.2869
  400TMC3     O 5978   1.444   0.242  16.756  0.1214 -0.4674 -0.0493
  400TMC3     H 5979   1.272   0.380  16.661 -1.6862  0.9086 -0.1205
  400TMC3    H1 5980   1.629   0.578  16.760  0.1402  0.5564 -0.1673
  400TMC3    H2 5981   1.284   0.809  16.683  1.3410  1.2438 -0.8083
  400TMC3    C7 5982   1.549   0.808  16.724  0.0093 -0.3895  0.1550
  400TMC3    C8 5983   1.135   0.605  16.577  0.0092  0.0115  0.5885
  400TMC3    O1 5984   1.655   0.783  16.667  0.5027  0.9759 -0.5730
  400TMC3    O2 5985   1.078   0.716  16.593 -0.3939 -0.4327 -0.6644
  401MPD2     C 5986   4.195   3.630   0.210 -0.0471  0.1843  0.3297
  401MPD2    C1 5987   4.249   3.575   0.326 -1.0435  0.6431 -0.8987
  401MPD2    C2 5988   4.283   3.440   0.326  0.0096 -0.2357 -0.3000
  401MPD2    C3 5989   4.255   3.361   0.213  0.6319  0.6036  0.1728
  401MPD2    C4 5990   4.197   3.417   0.098 -0.0984  0.0027 -0.6151
  401MPD2    C5 5991   4.166   3.551   0.104  0.8137  1.1262  0.9443
  401MPD2     H 5992   4.334   3.395   0.410 -2.2370  1.3579  1.9411
  401MPD2    H1 5993   4.183   3.350   0.013  2.4845  0.2449 -1.2334
  401MPD2    H2 5994   4.181   3.737   0.201 -0.8039  0.1355  1.0198
  401MPD2    H3 5995   4.120   3.599   0.019 -0.3464 -3.2767 -0.8998
  401MPD2     N 5996   4.280   3.223   0.229  0.1574 -0.9418 -0.0568
  401MPD2    H5 5997   4.303   3.187   0.321  0.2450  1.8630  1.0110
  401MPD2    N1 5998   4.266   3.650   0.448 -0.0296 -0.0425 -0.3067
  401MPD2    H7 5999   4.311   3.593   0.519 -0.3503  1.0165  0.7359
  402TMC3    C1 6000   4.257   2.999   0.185 -0.2933 -0.4965  0.1264
  402TMC3    C2 6001   4.225   2.988   0.318  0.2203  0.0242 -0.1379
  402TMC3    C3 6002   4.265   2.875   0.380  0.0092  0.1053 -0.2724
  402TMC3    C4 6003   4.329   2.905   0.111 -0.4361 -0.5351 -0.0987
  402TMC3    C5 6004   4.377   2.794   0.179  0.6196  0.3603 -0.1027
  402TMC3    C6 6005   4.350   2.778   0.315 -0.8094  0.2799  0.0006
  402TMC3     C 6006   4.251   3.134   0.127 -0.3485  0.4313 -0.0626
  402TMC3     O 6007   4.250   3.147   0.003 -0.5040 -1.1072 -0.2324
  402TMC3     H 6008   4.145   3.052   0.356 -1.6732 -1.2987 -1.8886
  402TMC3    H1 6009   4.351   2.925   0.007 -1.2806  3.0007  0.4078
  402TMC3    H2 6010   4.407   2.703   0.368 -0.8451 -1.9010 -3.0641
  402TMC3    C7 6011   4.515   2.778   0.127 -0.4931  0.5051  0.1126
  402TMC3    C8 6012   4.228   2.849   0.515  0.0049 -0.3117  0.5078
  402TMC3    O1 6013   4.543   2.819   0.015 -0.4322  0.0031  0.6846
  402TMC3    O2 6014   4.303   2.774   0.579  0.7103  0.3766  0.7328
  403MPD2     C 6015   2.962   2.476  13.178 -0.1798  0.2583 -1.0765
  403MPD2    C1 6016   2.997   2.368  13.243  0.4555  0.2132  0.5113
  403MPD2    C2 6017   3.093   2.373  13.340  0.0034  0.1195 -0.1810
  403MPD2    C3 6018   3.163   2.496  13.375  0.7869 -0.2604 -0.1928
  403MPD2    C4 6019   3.117   2.611  13.313  0.3593 -0.3347 -0.2596
  403MPD2    C5 6020   3.023   2.598  13.210  0.1456 -0.4509 -0.2049
  403MPD2     H 6021   3.139   2.285  13.383  0.9764  0.7245  0.0173
  403MPD2    H1 6022   3.146   2.711  13.341 -1.0819 -0.4819  1.7576
  403MPD2    H2 6023   2.902   2.467  13.088 -2.2556  1.9319  0.1429
  403MPD2    H3 6024   2.984   2.684  13.157 -0.8412  0.1457  1.5068
  403MPD2     N 6025   3.265   2.496  13.479 -0.5005  0.5694  0.4735
  403MPD2    H5 6026   3.277   2.409  13.529  2.2826  1.1844  0.8686
  403MPD2    N1 6027   2.931   2.251  13.191  0.3444 -0.0188  0.3756
  403MPD2    H7 6028   2.858   2.263  13.121 -0.3103 -0.9411  0.8934
  404TMC3    C1 6029   2.857   2.024  13.204 -0.4604 -0.3773  0.3477
  404TMC3    C2 6030   2.855   1.908  13.280  1.0756  0.3715  0.1022
  404TMC3    C3 6031   2.812   1.789  13.224  0.2607 -0.1613  0.0406
  404TMC3    C4 6032   2.817   2.019  13.076 -0.0316 -0.3839 -0.0219
  404TMC3    C5 6033   2.772   1.900  13.022 -0.0099  0.0338  0.1826
  404TMC3    C6 6034   2.756   1.787  13.097  0.2819 -1.1240 -1.0182
  404TMC3     C 6035   2.956   2.126  13.239 -0.3325 -0.4150  0.4401
  404TMC3     O 6036   3.030   2.106  13.337  0.4126 -0.6783 -0.2230
  404TMC3     H 6037   2.903   1.918  13.377 -1.6426  0.8295  1.4108
  404TMC3    H1 6038   2.803   2.113  13.024  2.2842  0.4382  0.8400
  404TMC3    H2 6039   2.734   1.695  13.046  1.8861 -0.7713 -2.3432
  404TMC3    C7 6040   2.728   1.915  12.884  0.2470 -0.2020  0.1955
  404TMC3    C8 6041   2.790   1.664  13.297  0.9336 -0.8958 -0.0958
  404TMC3    O1 6042   2.770   2.015  12.825 -0.0306  0.1900  0.1263
  404TMC3    O2 6043   2.743   1.569  13.230  0.5662  0.5784  0.1013
  405MPD2     C 6044   3.080   2.872  14.395 -0.0558 -0.0425  0.3363
  405MPD2    C1 6045   3.017   2.752  14.373 -0.6615 -0.5549 -0.3364
  405MPD2    C2 6046   2.935   2.741  14.262 -0.0533  0.2520  0.2869
  405MPD2    C3 6047   2.917   2.844  14.171  0.0725  0.3912 -0.2749
  405MPD2    C4 6048   2.972   2.969  14.197  0.3757  0.2634 -0.2485
  405MPD2    C5 6049   3.057   2.977  14.298 -0.3360 -0.3696  0.9644
  405MPD2     H 6050   2.888   2.646  14.239  0.4391  0.6069 -2.1838
  405MPD2    H1 6051   2.975   3.047  14.121  0.1777  0.6174  0.1103
  405MPD2    H2 6052   3.136   2.889  14.486  0.9796 -1.8677  0.0223
  405MPD2    H3 6053   3.111   3.069  14.314 -2.0115  0.7893 -0.2024
  405MPD2     N 6054   2.846   2.808  14.052  0.0933  0.6839 -0.4863
  405MPD2    H5 6055   2.810   2.714  14.043 -1.3302  1.1017  0.7962
  405MPD2    N1 6056   3.048   2.648  14.465 -0.4155  0.6145  0.1443
  405MPD2    H7 6057   3.094   2.674  14.551  1.8025 -2.4328 -0.1322
  406TMC3    C1 6058   2.493   2.851  13.812  0.5867 -0.0642  0.4637
  406TMC3    C2 6059   2.462   2.721  13.839 -0.0501  0.3568 -0.0416
  406TMC3    C3 6060   2.566   2.640  13.874  0.4190 -0.5395  0.6185
  406TMC3    C4 6061   2.616   2.896  13.811 -0.1546  0.0738  0.9507
  406TMC3    C5 6062   2.715   2.820  13.851 -0.2931 -0.0399  0.1526
  406TMC3    C6 6063   2.699   2.686  13.880 -1.0129  0.0769  0.4249
  406TMC3     C 6064   2.397   2.958  13.829 -0.2096 -0.5987 -0.4101
  406TMC3     O 6065   2.426   3.062  13.773 -0.0136 -0.0159 -0.0675
  406TMC3     H 6066   2.357   2.694  13.848 -0.0176 -0.0547 -0.8904
  406TMC3    H1 6067   2.641   3.000  13.792 -1.0107  0.2229  0.5918
  406TMC3    H2 6068   2.782   2.617  13.892 -1.9131 -1.1165 -0.2390
  406TMC3    C7 6069   2.807   2.888  13.945  0.1417  0.5412  1.2004
  406TMC3    C8 6070   2.525   2.522  13.952  0.7009  0.1914 -0.2659
  406TMC3    O1 6071   2.805   3.010  13.945 -0.1832 -0.9038  0.1819
  406TMC3    O2 6072   2.401   2.515  13.964 -0.4557  0.2486 -0.2316
  407MPD2     C 6073   0.632   4.365   9.351 -0.9315 -0.0961  0.3669
  407MPD2    C1 6074   0.681   4.270   9.439  0.3933 -0.3816  0.0736
  407MPD2    C2 6075   0.677   4.285   9.572  0.3461  0.2037  0.1175
  407MPD2    C3 6076   0.617   4.392   9.629 -0.4305  0.0990 -0.3346
  407MPD2    C4 6077   0.564   4.485   9.537  0.8133  0.8466 -1.2083
  407MPD2    C5 6078   0.572   4.475   9.405  0.2757 -0.0471 -0.0145
  407MPD2     H 6079   0.721   4.202   9.625 -3.0201 -2.2259 -0.9015
  407MPD2    H1 6080   0.532   4.583   9.571  0.3408  0.2683  0.0059
  407MPD2    H2 6081   0.635   4.353   9.243  1.7141 -1.3567  0.5742
  407MPD2    H3 6082   0.540   4.555   9.339 -2.0397  1.4143  2.8436
  407MPD2     N 6083   0.604   4.417   9.766 -0.4212 -0.3733  0.0095
  407MPD2    H5 6084   0.549   4.497   9.792 -1.7895 -2.0981  2.3667
  407MPD2    N1 6085   0.761   4.163   9.388  0.0138  0.0897  0.7577
  407MPD2    H7 6086   0.820   4.114   9.455  1.4707  0.9281  0.0752
  408TMC3    C1 6087   0.822   3.989   9.248  0.1444  0.0880 -0.1666
  408TMC3    C2 6088   0.962   3.983   9.289  0.6625  0.2926  0.1583
  408TMC3    C3 6089   1.020   3.857   9.287 -0.1763 -0.0942  0.2681
  408TMC3    C4 6090   0.749   3.873   9.235  0.0293  0.4124  0.6931
  408TMC3    C5 6091   0.811   3.750   9.225 -0.1845  0.6831  0.2072
  408TMC3    C6 6092   0.947   3.747   9.243  0.0240 -0.3950 -0.2644
  408TMC3     C 6093   0.754   4.116   9.258 -0.4845  0.3817 -0.0166
  408TMC3     O 6094   0.698   4.163   9.159 -0.5768 -0.1797  0.8887
  408TMC3     H 6095   1.017   4.073   9.317 -2.5653  2.0893  0.7938
  408TMC3    H1 6096   0.649   3.887   9.195  0.9528  0.1791 -1.6619
  408TMC3    H2 6097   0.996   3.651   9.239  1.3533  0.3837 -2.6322
  408TMC3    C7 6098   0.741   3.627   9.258 -0.0272  0.1401  0.0743
  408TMC3    C8 6099   1.155   3.831   9.338  0.0571  0.0299 -0.2234
  408TMC3    O1 6100   0.810   3.535   9.298 -0.2191  0.6754  0.5569
  408TMC3    O2 6101   1.201   3.723   9.310  0.4142 -0.3468  0.0515
  409MPD2     C 6102   0.169   0.147  17.052  0.7701 -0.1282 -0.1262
  409MPD2    C1 6103   0.293   0.148  17.118 -0.1510  0.1179  0.6870
  409MPD2    C2 6104   0.383   0.245  17.089  0.4063  0.1671  0.5270
  409MPD2    C3 6105   0.361   0.333  16.981  0.1875  0.4289  0.7114
  409MPD2    C4 6106   0.238   0.324  16.914  0.1560 -0.5336 -0.1790
  409MPD2    C5 6107   0.143   0.227  16.943  0.3681  0.1160  1.1439
  409MPD2     H 6108   0.462   0.260  17.161 -0.7031  0.5398  1.6720
  409MPD2    H1 6109   0.215   0.394  16.834  0.3333  0.1880  0.3923
  409MPD2    H2 6110   0.083   0.085  17.076  1.2289  0.0980  2.0937
  409MPD2    H3 6111   0.048   0.245  16.895  0.3187 -0.3566  1.0633
  409MPD2     N 6112   0.453   0.439  16.944  0.3007 -0.1137  0.2648
  409MPD2    H5 6113   0.420   0.507  16.876  1.5859 -0.6363 -0.8729
  409MPD2    N1 6114   0.325   0.060  17.222  0.3102 -0.3206 -0.5654
  409MPD2    H7 6115   0.401   0.084  17.285  0.5193  1.7818 -1.6198
  410TMC3    C1 6116   0.667   0.547  16.925 -0.2263  0.5885  0.1941
  410TMC3    C2 6117   0.797   0.532  16.949  0.2636  0.3788 -0.0359
  410TMC3    C3 6118   0.881   0.619  16.875 -0.1951  0.4006 -0.0791
  410TMC3    C4 6119   0.609   0.652  16.861 -0.2532 -0.4754  0.1205
  410TMC3    C5 6120   0.688   0.738  16.789  0.1034 -0.8489  0.0273
  410TMC3    C6 6121   0.830   0.722  16.799 -0.5513  0.4142  0.6070
  410TMC3     C 6122   0.587   0.445  16.987  0.3559 -0.4828 -0.0514
  410TMC3     O 6123   0.637   0.355  17.055  0.2828  1.0434  0.6844
  410TMC3     H 6124   0.841   0.446  16.999  0.3784  1.0641  1.0446
  410TMC3    H1 6125   0.503   0.654  16.839 -0.5441 -0.4926  1.4887
  410TMC3    H2 6126   0.893   0.778  16.731 -2.1262  0.8767 -0.4900
  410TMC3    C7 6127   0.628   0.783  16.658  0.4167  0.6269  0.0481
  410TMC3    C8 6128   1.020   0.602  16.877  0.7090 -0.3736 -0.3154
  410TMC3    O1 6129   0.544   0.705  16.622 -0.9134  0.7646 -0.1972
  410TMC3    O2 6130   1.093   0.700  16.883  0.4437 -0.1303 -0.2452
  411MPD2     C 6131   0.849   1.486  14.541  0.2181  0.0009 -0.0002
  411MPD2    C1 6132   0.715   1.475  14.536  0.7710  0.9334  0.1658
  411MPD2    C2 6133   0.663   1.361  14.481  0.1249  0.6385 -1.2903
  411MPD2    C3 6134   0.745   1.252  14.445  0.0180 -0.2484  0.4830
  411MPD2    C4 6135   0.884   1.263  14.456 -0.6428 -0.2524 -0.4381
  411MPD2    C5 6136   0.936   1.378  14.503  0.4249  0.5352  0.4892
  411MPD2     H 6137   0.557   1.350  14.461 -0.1486  0.8519  0.1005
  411MPD2    H1 6138   0.948   1.179  14.433  1.0826  1.7235 -2.8816
  411MPD2    H2 6139   0.902   1.573  14.576  1.5259 -0.4118 -0.9506
  411MPD2    H3 6140   1.043   1.391  14.514  0.4546  1.1728 -0.4929
  411MPD2     N 6141   0.686   1.129  14.417  1.0005 -0.0924  0.0650
  411MPD2    H5 6142   0.744   1.054  14.382  0.2182 -0.1129 -1.1696
  411MPD2    N1 6143   0.629   1.579  14.589  0.5249 -0.8207 -0.5233
  411MPD2    H7 6144   0.529   1.565  14.575  0.8019 -2.6654 -0.6685
  412TMC3    C1 6145   0.502   0.974  14.393  0.2576 -0.3616 -0.7341
  412TMC3    C2 6146   0.393   0.920  14.449  0.3855 -0.0957 -0.0567
  412TMC3    C3 6147   0.351   0.796  14.404  0.0407  0.2310 -0.1631
  412TMC3    C4 6148   0.556   0.924  14.278 -0.1762  0.2280 -0.2321
  412TMC3    C5 6149   0.499   0.814  14.224 -0.2194 -0.1159 -0.2547
  412TMC3    C6 6150   0.406   0.746  14.291  0.5159  0.2625  0.5256
  412TMC3     C 6151   0.555   1.098  14.448  0.0616  0.1102  0.0858
  412TMC3     O 6152   0.476   1.157  14.520  0.3605  0.7971  0.5517
  412TMC3     H 6153   0.323   0.965  14.519  1.6343 -1.4919  2.0779
  412TMC3    H1 6154   0.637   0.971  14.223  0.7292 -1.4208 -0.2997
  412TMC3    H2 6155   0.353   0.668  14.239 -0.5253  2.3694 -1.5802
  412TMC3    C7 6156   0.445   0.835  14.093 -0.7438  0.7552 -0.1085
  412TMC3    C8 6157   0.208   0.793  14.392  0.0442  0.3502 -0.6461
  412TMC3    O1 6158   0.431   0.947  14.054 -0.0932 -0.2162  0.5543
  412TMC3    O2 6159   0.143   0.725  14.468 -0.5420  0.1491  0.4090
  413MPD2     C 6160   1.613   4.055  15.480 -0.4245 -0.2955  0.4519
  413MPD2    C1 6161   1.644   4.062  15.345 -0.2838 -0.0703  0.0167
  413MPD2    C2 6162   1.760   4.004  15.296  0.3472  0.2140 -0.6650
  413MPD2    C3 6163   1.848   3.939  15.383 -0.5913  0.1934 -0.4330
  413MPD2    C4 6164   1.810   3.919  15.512 -0.3805 -0.1647 -0.5271
  413MPD2    C5 6165   1.697   3.982  15.557 -0.6210  0.3761 -0.2696
  413MPD2     H 6166   1.786   4.006  15.191  2.8915  0.1498 -0.0344
  413MPD2    H1 6167   1.861   3.853  15.581 -0.6696 -0.4832 -0.6139
  413MPD2    H2 6168   1.521   4.093  15.522 -0.5188 -0.2250  0.1811
  413MPD2    H3 6169   1.672   3.965  15.661 -0.3512  0.8682 -0.1264
  413MPD2     N 6170   1.963   3.882  15.322  0.2291  0.3533 -0.0984
  413MPD2    H5 6171   1.974   3.905  15.224 -2.6942 -0.1480 -0.5441
  413MPD2    N1 6172   1.551   4.140  15.273  0.0406 -0.3052 -0.4157
  413MPD2    H7 6173   1.476   4.189  15.321  0.4479  2.8728 -3.0146
  414TMC3    C1 6174   2.165   3.762  15.307 -0.0966  1.1625  0.5785
  414TMC3    C2 6175   2.227   3.644  15.353 -0.9078  0.1688  0.0988
  414TMC3    C3 6176   2.284   3.561  15.269 -0.8328 -0.4056 -0.7266
  414TMC3    C4 6177   2.169   3.800  15.175  0.4224 -0.2850 -0.4759
  414TMC3    C5 6178   2.238   3.714  15.092  0.0711  0.3083 -0.6754
  414TMC3    C6 6179   2.295   3.600  15.140  0.0261  0.3085 -0.3585
  414TMC3     C 6180   2.050   3.801  15.383  0.2177  0.8831 -0.3413
  414TMC3     O 6181   2.033   3.748  15.493  0.2517  0.1739 -0.2751
  414TMC3     H 6182   2.207   3.608  15.453  0.4585 -0.3848  0.1730
  414TMC3    H1 6183   2.113   3.882  15.131  0.9674  0.9077  1.0966
  414TMC3    H2 6184   2.333   3.521  15.076  2.1180  0.4241  0.7245
  414TMC3    C7 6185   2.320   3.788  14.989 -0.1418  0.0807  0.1287
  414TMC3    C8 6186   2.352   3.449  15.325 -0.3328 -0.2083 -0.0004
  414TMC3    O1 6187   2.269   3.867  14.911 -0.0034 -1.1571  0.1181
  414TMC3    O2 6188   2.363   3.359  15.241 -0.3183  0.7175  0.4414
  415TMC3    C1 6189   2.557   2.148  10.088 -0.2902 -0.4038  0.0612
  415TMC3    C2 6190   2.597   2.244  10.001 -0.3965 -0.0270 -0.5786
  415TMC3    C3 6191   2.506   2.284   9.903 -0.6732 -0.4490 -0.2208
  415TMC3    C4 6192   2.440   2.079  10.070  0.0185  0.0490  0.6733
  415TMC3    C5 6193   2.356   2.112   9.971  0.4247 -0.1191  0.0565
  415TMC3    C6 6194   2.392   2.210   9.878  0.1808 -0.3333  1.0720
  415TMC3     C 6195   2.650   2.097  10.194 -0.7316 -0.0856  0.0010
  415TMC3     O 6196   2.599   2.015  10.269 -0.3330  0.4565 -0.0085
  415TMC3     H 6197   2.692   2.288  10.028 -0.5069 -0.4945  0.5552
  415TMC3    H1 6198   2.414   1.996  10.136 -0.5804 -0.2667  0.0404
  415TMC3    H2 6199   2.322   2.240   9.801  0.3361 -2.1281  0.2434
  415TMC3    C7 6200   2.247   2.027   9.929  0.2607 -0.1329 -0.7831
  415TMC3    C8 6201   2.548   2.379   9.796  0.4517  0.2583  0.1345
  415TMC3    O1 6202   2.198   2.042   9.818 -0.0870  0.3186 -0.3309
  415TMC3    O2 6203   2.493   2.371   9.686  0.2869  0.0789 -0.0602
  416MPD2     C 6204   4.588   0.903  11.623  0.6964  0.3702 -0.3743
  416MPD2    C1 6205   4.529   0.946  11.508 -0.3987  1.0397 -0.0308
  416MPD2    C2 6206   4.565   0.894  11.384  0.4051  0.0039 -0.0105
  416MPD2    C3 6207   4.646   0.790  11.375 -0.0368  0.4961  0.1754
  416MPD2    C4 6208   4.678   0.734  11.491 -0.5308  0.5646  0.0030
  416MPD2    C5 6209   4.657   0.788  11.615 -0.4088 -0.0309 -0.1252
  416MPD2     H 6210   4.513   0.936  11.298  0.5469 -1.6972 -0.9490
  416MPD2    H1 6211   0.021   0.649  11.491 -2.6928 -1.1265 -0.7776
  416MPD2    H2 6212   4.570   0.954  11.717 -1.9428  0.7202 -1.0753
  416MPD2    H3 6213   4.689   0.740  11.707 -1.9492 -0.0016  0.4248
  416MPD2     N 6214   4.680   0.725  11.256  0.0302  0.0103  0.3951
  416MPD2    H5 6215   4.719   0.632  11.264 -0.6276 -0.3259 -0.2510
  416MPD2    N1 6216   4.430   1.043  11.517 -0.4203 -0.1030  0.3136
  416MPD2    H7 6217   4.395   1.049  11.611 -2.4128  0.3209 -0.4579
  417TMC3    C1 6218   4.309   1.234  11.471  0.2026  0.4127  1.0396
  417TMC3    C2 6219   4.234   1.209  11.586 -0.1967 -0.0857  0.3895
  417TMC3    C3 6220   4.160   1.315  11.634 -0.0965  0.0020 -0.1712
  417TMC3    C4 6221   4.307   1.351  11.400 -0.6631  0.8415 -0.6047
  417TMC3    C5 6222   4.234   1.451  11.449 -0.0372  0.4786 -0.5124
  417TMC3    C6 6223   4.161   1.433  11.563  0.0358 -0.0250 -0.7410
  417TMC3     C 6224   4.397   1.131  11.417  0.2621  0.3435  0.2897
  417TMC3     O 6225   4.445   1.144  11.307  0.3407  0.4581 -0.2810
  417TMC3     H 6226   4.235   1.109  11.627 -0.6657  0.3614  1.5128
  417TMC3    H1 6227   4.360   1.370  11.307  2.4620 -1.3007  0.7583
  417TMC3    H2 6228   4.112   1.525  11.594  0.5613  0.2943 -0.8652
  417TMC3    C7 6229   4.231   1.579  11.380  0.0961 -0.1162  0.0311
  417TMC3    C8 6230   4.124   1.320  11.775  0.6363 -0.7255  0.1298
  417TMC3    O1 6231   4.333   1.623  11.325  0.1289  0.0688  0.2597
  417TMC3    O2 6232   4.098   1.431  11.822  0.1222  0.4471  0.2664
  418TMC3    C1 6233   3.396   1.763   0.431  0.0419 -0.4648 -0.2137
  418TMC3    C2 6234   3.329   1.877   0.404  0.5700  0.8965  0.0698
  418TMC3    C3 6235   3.202   1.898   0.445 -0.0102  0.4893  0.5487
  418TMC3    C4 6236   3.336   1.662   0.504  0.5844  0.6411 -0.9978
  418TMC3    C5 6237   3.216   1.694   0.561 -0.3767 -0.1986  0.4952
  418TMC3    C6 6238   3.148   1.807   0.536  0.3902  0.4905 -0.3218
  418TMC3     C 6239   3.526   1.743   0.362 -0.0515 -0.2917  0.0909
  418TMC3     O 6240   3.577   1.841   0.310 -0.1650  0.1621 -0.8654
  418TMC3     H 6241   3.372   1.941   0.327  2.7832  0.1677  0.6811
  418TMC3    H1 6242   3.380   1.569   0.540 -0.4427  0.7534  0.5379
  418TMC3    H2 6243   3.062   1.832   0.597 -1.5833  0.3512 -3.0951
  418TMC3    C7 6244   3.153   1.602   0.654 -0.4685  0.0023 -0.1185
  418TMC3    C8 6245   3.113   1.932   0.336  0.2171  0.2361  0.5900
  418TMC3    O1 6246   3.047   1.549   0.624  0.2167  0.3104  0.1693
  418TMC3    O2 6247   3.160   1.988   0.238 -0.1956  0.3551 -0.1809
  419MPD2     C 6248   2.286   0.819  12.434 -0.1400 -0.1231  0.5873
  419MPD2    C1 6249   2.170   0.872  12.398 -0.1299 -0.5959 -0.6207
  419MPD2    C2 6250   2.089   0.930  12.488 -0.2000  0.0334  0.1511
  419MPD2    C3 6251   2.136   0.954  12.620  0.4386 -0.2144  0.5649
  419MPD2    C4 6252   2.249   0.887  12.655 -0.2667  0.1144 -0.0240
  419MPD2    C5 6253   2.321   0.820  12.565  0.3634  0.2274 -0.5223
  419MPD2     H 6254   1.998   0.975  12.451 -0.5936 -0.0810  0.9879
  419MPD2    H1 6255   2.289   0.872  12.754  0.0805 -1.1672 -0.3604
  419MPD2    H2 6256   2.344   0.758  12.366 -1.9311 -0.9519 -0.1822
  419MPD2    H3 6257   2.412   0.771  12.600  0.1136  1.7805  2.3302
  419MPD2     N 6258   2.059   1.033  12.710  0.5397  1.0642 -0.1499
  419MPD2    H5 6259   1.977   1.080  12.674  1.3959  2.9559  0.3589
  419MPD2    N1 6260   2.121   0.861  12.261 -0.7248 -1.1792  0.1304
  419MPD2    H7 6261   2.023   0.887  12.254 -0.6457 -1.2931 -1.4071
  420TMC3    C1 6262   1.961   1.103  12.911 -0.4528  0.2210 -0.7524
  420TMC3    C2 6263   1.863   1.154  12.837 -0.0117  0.0861  0.3837
  420TMC3    C3 6264   1.777   1.237  12.895  0.3274 -0.0794  0.3900
  420TMC3    C4 6265   1.984   1.155  13.043 -0.4048  0.2697  0.3437
  420TMC3    C5 6266   1.898   1.241  13.101  0.3637  0.7756 -0.3691
  420TMC3    C6 6267   1.799   1.289  13.021 -0.5719 -0.4308 -0.0775
  420TMC3     C 6268   2.073   1.030  12.846 -0.1770 -0.4051 -0.5677
  420TMC3     O 6269   2.155   0.974  12.914 -0.6826 -0.0309 -0.1571
  420TMC3     H 6270   1.851   1.146  12.729 -0.7025 -2.0871  0.6144
  420TMC3    H1 6271   2.057   1.116  13.112 -0.4372 -2.0300 -0.9413
  420TMC3    H2 6272   1.722   1.357  13.055 -2.2989 -2.1095 -0.5839
  420TMC3    C7 6273   1.868   1.233  13.246  0.0226  0.3588 -1.0291
  420TMC3    C8 6274   1.650   1.266  12.832 -0.0065 -0.5669 -0.2065
  420TMC3    O1 6275   1.930   1.149  13.316 -0.3995  0.3081  0.0600
  420TMC3    O2 6276   1.604   1.378  12.830  0.3903 -0.4303  0.0397
  421TMC3    C1 6277   3.407   2.588  13.644 -0.6605 -0.4739 -0.1793
  421TMC3    C2 6278   3.416   2.701  13.722  0.4622  0.2249 -0.4429
  421TMC3    C3 6279   3.484   2.679  13.844  0.0235  0.2885 -0.5160
  421TMC3    C4 6280   3.445   2.463  13.685 -0.1577 -0.0095  0.6780
  421TMC3    C5 6281   3.506   2.447  13.809  0.7686  1.0095 -0.4928
  421TMC3    C6 6282   3.523   2.557  13.891 -0.1853 -0.5547 -0.1835
  421TMC3     C 6283   3.330   2.608  13.526  0.4906  0.3647  0.0390
  421TMC3     O 6284   3.327   2.709  13.469  0.1165 -0.2451  0.3359
  421TMC3     H 6285   3.406   2.802  13.685  1.8401  1.6123  2.8794
  421TMC3    H1 6286   3.440   2.388  13.607 -0.7467 -0.8150  1.4978
  421TMC3    H2 6287   3.570   2.548  13.988 -0.5440 -0.4199  0.0039
  421TMC3    C7 6288   3.588   2.333  13.833  0.3280 -0.6388 -0.9393
  421TMC3    C8 6289   3.523   2.799  13.916 -0.2402  0.2425 -0.7236
  421TMC3    O1 6290   3.671   2.344  13.920  0.3221  0.1441  0.2441
  421TMC3    O2 6291   3.636   2.812  13.957 -0.6048  0.3646  0.3334
  422TMC3    C1 6292   0.885   4.112  12.463  0.1960  0.2702 -0.2634
  422TMC3    C2 6293   0.861   4.239  12.504 -0.0898  0.2398  0.0968
  422TMC3    C3 6294   0.770   4.256  12.602 -0.0592 -1.2382  0.2723
  422TMC3    C4 6295   0.811   4.004  12.495  0.0773  0.3402  0.2006
  422TMC3    C5 6296   0.707   4.033  12.586  0.6303  0.6128 -0.1081
  422TMC3    C6 6297   0.686   4.156  12.646 -0.6231  0.3714 -0.2770
  422TMC3     C 6298   1.008   4.087  12.387  0.6120 -0.5967 -0.1637
  422TMC3     O 6299   1.073   4.184  12.345  0.3458  0.4873 -0.1500
  422TMC3     H 6300   0.934   4.318  12.495 -1.3208  1.4768  0.9868
  422TMC3    H1 6301   0.811   3.902  12.458  1.6580 -0.3727  2.1682
  422TMC3    H2 6302   0.630   4.166  12.739 -1.8064  0.3344 -0.9932
  422TMC3    C7 6303   0.617   3.919  12.619 -0.1972 -0.9400 -0.1865
  422TMC3    C8 6304   0.766   4.387  12.663 -0.8020 -0.2104 -0.0749
  422TMC3    O1 6305   0.657   3.806  12.597  1.0245 -0.0277  0.0861
  422TMC3    O2 6306   0.856   4.465  12.634 -0.2063 -0.2302  0.0210
  423MPD2     C 6307   2.292   3.881   0.966 -0.8735 -0.3217  0.1247
  423MPD2    C1 6308   2.188   3.815   0.902 -0.2499 -0.6204 -0.1666
  423MPD2    C2 6309   2.191   3.805   0.770 -0.5488  0.1349  0.3338
  423MPD2    C3 6310   2.293   3.863   0.687  0.7085  0.0681 -0.2165
  423MPD2    C4 6311   2.380   3.945   0.750  0.7086  0.0939  0.6230
  423MPD2    C5 6312   2.379   3.943   0.888  0.3526  0.0475 -0.3352
  423MPD2     H 6313   2.109   3.750   0.724  0.1205 -0.2258 -0.4195
  423MPD2    H1 6314   2.447   4.003   0.688  1.5289 -0.3158  1.1223
  423MPD2    H2 6315   2.298   3.891   1.074  0.1042 -1.3603  0.1619
  423MPD2    H3 6316   2.462   3.991   0.938 -0.9916  1.1882  0.7930
  423MPD2     N 6317   2.295   3.843   0.545  0.2180  0.6899  0.1079
  423MPD2    H5 6318   2.358   3.899   0.488  0.4734  0.5931  0.2991
  423MPD2    N1 6319   2.078   3.772   0.976  0.1154 -0.3656 -0.7240
  423MPD2    H7 6320   2.010   3.717   0.924 -0.8008  0.3694 -0.2827
  424TMC3    C1 6321   1.916   3.750   1.143 -0.2752  0.5288 -0.1228
  424TMC3    C2 6322   1.891   3.672   1.252 -0.1211  0.0808  0.3526
  424TMC3    C3 6323   1.783   3.590   1.255 -0.8320 -0.3471 -0.8330
  424TMC3    C4 6324   1.837   3.735   1.029  0.9351 -0.2774  0.0901
  424TMC3    C5 6325   1.718   3.674   1.048 -0.2949 -0.0969  0.0127
  424TMC3    C6 6326   1.694   3.595   1.155 -0.0368 -0.2990  0.1917
  424TMC3     C 6327   2.052   3.792   1.112  0.2607  0.6018 -0.1406
  424TMC3     O 6328   2.129   3.825   1.201  0.4323  0.0470  0.5536
  424TMC3     H 6329   1.953   3.672   1.341  2.0330  3.1491 -1.1175
  424TMC3    H1 6330   1.847   3.810   0.951 -1.1679 -0.8500 -0.7362
  424TMC3    H2 6331   1.609   3.528   1.163 -0.0145 -0.3213  0.2465
  424TMC3    C7 6332   1.608   3.735   0.979 -0.3148 -0.2666 -0.8091
  424TMC3    C8 6333   1.785   3.464   1.331 -0.4914 -0.1784  0.1968
  424TMC3    O1 6334   1.629   3.803   0.880  0.0778  0.1657 -0.3265
  424TMC3    O2 6335   1.784   3.368   1.258 -0.4426 -0.4317  0.3283
  425MPD2     C 6336   1.283   3.743  17.504 -0.2323 -0.3599 -0.2545
  425MPD2    C1 6337   1.218   3.630  17.537  0.9677 -0.7729 -0.1327
  425MPD2    C2 6338   1.079   3.625  17.522  0.3464  0.2396 -0.2151
  425MPD2    C3 6339   1.011   3.740  17.489  0.7513 -0.2767 -0.0119
  425MPD2    C4 6340   1.083   3.851  17.455 -0.1203  0.0853 -0.1125
  425MPD2    C5 6341   1.217   3.853  17.471 -0.2826 -0.1520  0.4764
  425MPD2     H 6342   1.024   3.535  17.550  1.3925 -0.9418 -1.9896
  425MPD2    H1 6343   1.029   3.939  17.423 -0.2111 -0.2711 -0.9684
  425MPD2    H2 6344   1.391   3.746  17.516 -0.3324  1.3711  0.2972
  425MPD2    H3 6345   1.275   3.943  17.451 -1.0078  0.0689 -0.6040
  425MPD2     N 6346   0.868   3.738  17.491 -0.1397 -0.5146  0.2070
  425MPD2    H5 6347   0.815   3.657  17.523 -0.0778 -1.0694 -1.1108
  425MPD2    N1 6348   1.288   3.511  17.568  0.2458  0.1477 -0.6812
  425MPD2    H7 6349   1.386   3.509  17.541  0.9838 -0.1192  1.9884
  426TMC3    C1 6350   1.312   3.284  17.626  0.0700 -0.0460  0.1662
  426TMC3    C2 6351   1.344   3.238  17.501 -0.2364 -0.1019 -0.6294
  426TMC3    C3 6352   1.390   3.108  17.488 -0.1477 -0.1355 -0.4198
  426TMC3    C4 6353   1.311   3.204   0.036 -0.4493  1.1135  0.1490
  426TMC3    C5 6354   1.346   3.066   0.022 -0.6221  0.2423 -0.2854
  426TMC3    C6 6355   1.383   3.022  17.596  0.2227 -0.3975 -0.2324
  426TMC3     C 6356   1.232   3.404  17.631  0.2127 -0.0252 -0.2792
  426TMC3     O 6357   1.131   3.390   0.005  0.4028 -0.0215  0.9498
  426TMC3     H 6358   1.342   3.302  17.414 -0.1454  0.9978  0.1764
  426TMC3    H1 6359   1.297   3.247   0.134 -1.0371 -1.7754  1.3290
  426TMC3    H2 6360   1.409   2.919  17.578  0.3322 -1.0096  3.3442
  426TMC3    C7 6361   1.378   2.985   0.139  0.0268  0.5188 -0.4924
  426TMC3    C8 6362   1.380   3.046  17.364 -0.2442 -0.4417 -0.0617
  426TMC3    O1 6363   1.420   2.870   0.121 -0.6044  0.0994  0.0963
  426TMC3    O2 6364   1.467   2.960  17.342 -0.0138  0.1789 -0.1434
  427MPD2     C 6365   4.629   1.395  14.649  0.0528  0.8958  0.1220
  427MPD2    C1 6366   4.578   1.289  14.733 -0.1421  0.4631  0.2723
  427MPD2    C2 6367   4.440   1.267  14.739  0.1160  0.4851  0.0174
  427MPD2    C3 6368   4.348   1.355  14.672  0.0157  0.4779  0.2086
  427MPD2    C4 6369   4.400   1.456  14.594 -0.9781 -0.3756  0.4783
  427MPD2    C5 6370   4.531   1.476  14.579  0.9935  0.7531  0.2700
  427MPD2     H 6371   4.396   1.178  14.784  2.6853  0.1687  1.9131
  427MPD2    H1 6372   4.342   1.523  14.531  1.8550 -0.5280 -2.2405
  427MPD2    H2 6373   0.008   1.421  14.627  0.2767  1.4542  1.8205
  427MPD2    H3 6374   4.560   1.550  14.506  0.2296 -1.4769 -2.2762
  427MPD2     N 6375   4.208   1.334  14.664 -0.4737 -0.0936 -0.0761
  427MPD2    H5 6376   4.165   1.394  14.594  1.9347 -0.6678 -2.0466
  427MPD2    N1 6377   4.660   1.202  14.811 -0.3113 -0.0737 -0.3131
  427MPD2    H7 6378   4.620   1.124  14.863 -0.1009 -1.0175 -1.5625
  428TMC3    C1 6379   0.136   1.115  14.896 -0.7131 -0.6895 -0.5012
  428TMC3    C2 6380   0.076   0.992  14.913 -0.9795 -0.0719  0.3745
  428TMC3    C3 6381   0.128   0.903  15.007 -0.1490 -0.0894 -0.7409
  428TMC3    C4 6382   0.249   1.146  14.963 -0.0588  0.4194 -0.4675
  428TMC3    C5 6383   0.288   1.060  15.061  0.3962  0.8902 -0.8363
  428TMC3    C6 6384   0.228   0.941  15.090  0.2631 -0.9655 -0.2607
  428TMC3     C 6385   0.071   1.225  14.829 -0.2265  0.0027  0.4951
  428TMC3     O 6386   0.149   1.304  14.780 -0.5978  0.2033  0.5599
  428TMC3     H 6387   4.710   0.962  14.861 -0.4330 -0.7136 -0.2022
  428TMC3    H1 6388   0.288   1.247  14.957 -0.6759  0.6456 -0.6913
  428TMC3    H2 6389   0.260   0.873  15.168 -1.6234 -0.5695  0.8872
  428TMC3    C7 6390   0.408   1.088  15.142 -0.0549  0.0714 -0.1720
  428TMC3    C8 6391   0.033   0.798  15.050  0.5161  0.9764 -0.4258
  428TMC3    O1 6392   0.428   1.025  15.243  0.5292  0.3327  0.0945
  428TMC3    O2 6393   0.038   0.764  15.169 -0.5437 -0.7130  0.0490
  429MPD2     C 6394   0.929   1.210  17.680  0.2767  0.4491  0.1353
  429MPD2    C1 6395   0.983   1.139  17.574 -0.1560 -1.2303  0.2990
  429MPD2    C2 6396   1.074   1.205  17.492  1.3764  0.3979 -0.0287
  429MPD2    C3 6397   1.103   1.335  17.506  0.5910 -0.1299 -0.1046
  429MPD2    C4 6398   1.041   1.404  17.607  0.4891  0.0357 -0.8361
  429MPD2    C5 6399   0.961   1.348  17.692  0.3866 -0.1900 -0.7741
  429MPD2     H 6400   1.121   1.154  17.409  1.5369  1.0113 -0.3169
  429MPD2    H1 6401   1.046   1.511  17.623 -0.1350  0.1469 -1.4285
  429MPD2    H2 6402   0.857   1.168   0.051 -0.1750  1.5748  0.3551
  429MPD2    H3 6403   0.909   1.407   0.069 -0.3920  0.0966 -1.5361
  429MPD2     N 6404   1.196   1.390  17.413  0.0500 -0.3226 -0.5620
  429MPD2    H5 6405   1.254   1.325  17.361 -0.5771  0.1013 -1.8128
  429MPD2    N1 6406   0.955   1.000  17.549  0.5908 -0.0035  0.6916
  429MPD2    H7 6407   0.988   0.967  17.458 -0.4503  0.0123  0.3129
  430TMC3    C1 6408   1.336   1.544  17.304  0.6461 -0.8816 -0.1704
  430TMC3    C2 6409   1.320   1.652  17.222  0.1217 -0.4636  0.2850
  430TMC3    C3 6410   1.413   1.662  17.120 -0.1097  0.0241  0.8385
  430TMC3    C4 6411   1.414   1.435  17.271 -0.1203  0.2540 -0.1089
  430TMC3    C5 6412   1.504   1.444  17.168 -0.2638 -0.2578  0.9370
  430TMC3    C6 6413   1.501   1.557  17.091  0.4430 -0.2883  0.5045
  430TMC3     C 6414   1.225   1.520  17.392  0.0656 -0.1002 -0.5967
  430TMC3     O 6415   1.149   1.612  17.419  0.2089  0.0807 -0.3964
  430TMC3     H 6416   1.257   1.737  17.247  0.0480 -0.8512  1.3811
  430TMC3    H1 6417   1.421   1.344  17.330  1.3483  0.2459 -0.2913
  430TMC3    H2 6418   1.584   1.581  17.025 -0.2120  0.6747  0.0287
  430TMC3    C7 6419   1.516   1.317  17.101 -0.2000 -0.1104  0.6566
  430TMC3    C8 6420   1.367   1.731  16.992  0.2775  0.3971 -0.3125
  430TMC3    O1 6421   1.451   1.223  17.147 -0.0022 -0.1748 -0.7983
  430TMC3    O2 6422   1.429   1.691  16.891 -0.1196  0.3355 -0.1579
  431MPD2     C 6423   1.725   1.131  12.455 -0.4007 -0.6332 -0.2032
  431MPD2    C1 6424   1.801   1.192  12.353 -0.4262 -0.3503  0.0933
  431MPD2    C2 6425   1.826   1.124  12.233  0.3239  0.5800 -0.5957
  431MPD2    C3 6426   1.777   0.993  12.209  0.6294  0.2766  0.3328
  431MPD2    C4 6427   1.714   0.933  12.313  0.1636  0.5928 -0.1140
  431MPD2    C5 6428   1.678   1.007  12.430 -0.1662 -0.2185  0.2028
  431MPD2     H 6429   1.865   1.183  12.151 -0.1349  0.0382 -1.2074
  431MPD2    H1 6430   1.669   0.835  12.301  1.8038 -0.3268  1.2582
  431MPD2    H2 6431   1.705   1.182  12.549  0.0185 -0.0765 -0.4189
  431MPD2    H3 6432   1.614   0.965  12.506 -0.0229  0.8927  0.9355
  431MPD2     N 6433   1.793   0.923  12.090  0.3418  0.0272  0.0971
  431MPD2    H5 6434   1.755   0.829  12.099  3.0594 -1.1161 -0.4277
  431MPD2    N1 6435   1.839   1.324  12.352 -0.0364 -0.4958 -0.2490
  431MPD2    H7 6436   1.883   1.360  12.268  0.6282  0.0243  0.3203
  432TMC3    C1 6437   1.942   0.884  11.927 -0.1075  0.2616  0.2377
  432TMC3    C2 6438   1.998   0.944  11.814 -0.3573  0.5215  0.1340
  432TMC3    C3 6439   2.136   0.969  11.826 -0.0568 -0.4249 -0.1915
  432TMC3    C4 6440   2.010   0.823  12.023  0.3309 -1.0056 -0.1057
  432TMC3    C5 6441   2.150   0.835  12.020 -0.9538  0.5215  0.1071
  432TMC3    C6 6442   2.212   0.910  11.921  0.3815 -0.3454  0.5827
  432TMC3     C 6443   1.852   0.977  11.983 -0.9591 -0.2902  0.5987
  432TMC3     O 6444   1.847   1.097  11.945  0.2995 -0.2545 -0.4353
  432TMC3     H 6445   1.938   0.999  11.742  0.7226  2.1945  0.5070
  432TMC3    H1 6446   1.955   0.754  12.087  0.9306  0.8890  2.4522
  432TMC3    H2 6447   2.319   0.914  11.913  0.2921  1.1288  0.2580
  432TMC3    C7 6448   2.211   0.833  12.155  0.2102  0.0776 -0.5382
  432TMC3    C8 6449   2.174   1.107  11.795  0.2047 -0.0103 -0.5835
  432TMC3    O1 6450   2.331   0.835  12.152  0.4702 -0.6248  0.0051
  432TMC3    O2 6451   2.101   1.164  11.714 -0.0264  0.3475 -0.4685
  433MPD2     C 6452   0.676   0.068  10.849 -0.1890 -0.4953 -0.2461
  433MPD2    C1 6453   0.689   4.691  10.938 -0.5662  0.6701  0.4070
  433MPD2    C2 6454   0.708   0.002  11.072 -0.8908 -0.2750 -0.2393
  433MPD2    C3 6455   0.700   0.123  11.121  0.6145  0.1845 -0.1323
  433MPD2    C4 6456   0.673   0.222  11.032  0.3109 -0.9675  0.7271
  433MPD2    C5 6457   0.666   0.195  10.895 -0.3325 -1.2985 -0.0875
  433MPD2     H 6458   0.722   4.647  11.145  1.1337 -0.4936 -0.8670
  433MPD2    H1 6459   0.669   0.325  11.067 -1.5781 -0.5454 -0.7195
  433MPD2    H2 6460   0.681   0.047  10.743 -1.0635 -1.2407 -0.1438
  433MPD2    H3 6461   0.654   0.280  10.829 -3.1003 -0.0888  1.9388
  433MPD2     N 6462   0.703   0.134  11.265  0.2180 -0.6672  0.3116
  433MPD2    H5 6463   0.723   0.050  11.317  0.8819 -1.5566 -1.3976
  433MPD2    N1 6464   0.676   4.558  10.891 -0.0940  0.0814 -0.0590
  433MPD2    H7 6465   0.675   4.548  10.790 -0.8993 -1.0218  0.0518
  434TMC3    C1 6466   0.674   4.325  10.895  0.2598  0.6670  0.2512
  434TMC3    C2 6467   0.738   4.223  10.959 -1.0831 -0.4792  0.3977
  434TMC3    C3 6468   0.813   4.138  10.885 -0.2120 -0.3161  0.0725
  434TMC3    C4 6469   0.683   4.332  10.758  0.1714 -0.3358  0.7074
  434TMC3    C5 6470   0.752   4.243  10.685  0.1864  0.4356  0.0702
  434TMC3    C6 6471   0.823   4.145  10.751  0.2414  0.5144  0.1908
  434TMC3     C 6472   0.669   4.450  10.971  0.5336 -0.3145  0.3672
  434TMC3     O 6473   0.671   4.442  11.094  0.3698 -0.2381 -0.8275
  434TMC3     H 6474   0.733   4.222  11.067  0.9171 -1.4428  0.4778
  434TMC3    H1 6475   0.624   4.400  10.697  1.0008 -0.7337 -0.5327
  434TMC3    H2 6476   0.875   4.069  10.694  0.1119  0.9709 -0.5342
  434TMC3    C7 6477   0.731   4.229  10.542  0.1153 -0.3915  0.5468
  434TMC3    C8 6478   0.928   4.103  10.966 -0.6607  0.5315 -0.2675
  434TMC3    O1 6479   0.622   4.272  10.499  0.1074  0.1327 -0.2296
  434TMC3    O2 6480   0.906   4.077  11.084 -0.0307  0.2637 -0.3658
  435MPD2     C 6481   2.503   3.969  15.435  0.1458  0.1104  0.3216
  435MPD2    C1 6482   2.454   4.068  15.521 -0.4774  0.5269 -0.1882
  435MPD2    C2 6483   2.533   4.104  15.635 -0.0022  0.1425 -0.1327
  435MPD2    C3 6484   2.659   4.040  15.652 -0.6513 -0.6199  0.0561
  435MPD2    C4 6485   2.700   3.949  15.559 -0.2626  0.1963  0.5301
  435MPD2    C5 6486   2.624   3.909  15.457 -0.0087 -0.6879 -0.2184
  435MPD2     H 6487   2.482   4.171  15.703 -0.8226 -0.7864  0.1642
  435MPD2    H1 6488   2.800   3.908  15.561  0.0506  0.9268 -0.4407
  435MPD2    H2 6489   2.444   3.933  15.352  0.6575 -0.1406  0.0655
  435MPD2    H3 6490   2.657   3.832  15.389  0.4414 -0.2201 -0.5289
  435MPD2     N 6491   2.735   4.079  15.762  0.3037  0.0380 -0.7756
  435MPD2    H5 6492   2.690   4.136  15.833  1.8659  0.9879 -0.5406
  435MPD2    N1 6493   2.333   4.143  15.509  0.1937  0.6906 -0.2912
  435MPD2    H7 6494   2.314   4.209  15.584  0.1428  1.2361 -0.7809
  436TMC3    C1 6495   1.988   4.312  15.627  0.1440 -0.1901  0.1401
  436TMC3    C2 6496   2.089   4.238  15.589 -0.7493  0.2352 -0.0551
  436TMC3    C3 6497   2.101   4.190  15.462 -0.7059  0.2041 -0.6700
  436TMC3    C4 6498   1.901   4.356  15.529  0.2276  0.1717  0.0618
  436TMC3    C5 6499   1.925   4.325  15.395 -0.3168 -0.3496 -0.2875
  436TMC3    C6 6500   2.018   4.233  15.365  0.0847 -0.2109  0.4762
  436TMC3     C 6501   2.034   4.417  15.713  0.4126  0.6722  0.2417
  436TMC3     O 6502   2.155   4.438  15.711 -0.0177 -1.0627 -0.1539
  436TMC3     H 6503   2.159   4.211  15.668 -0.1923  1.3251 -0.1780
  436TMC3    H1 6504   1.843   4.446  15.544 -0.9800 -0.5048 -0.5634
  436TMC3    H2 6505   2.024   4.197  15.263  1.4206  2.6904 -0.4549
  436TMC3    C7 6506   1.832   4.389  15.300  0.1224  0.0725 -0.0623
  436TMC3    C8 6507   2.227   4.122  15.422  0.1576 -0.3880  0.6330
  436TMC3    O1 6508   1.730   4.438  15.345  0.1742 -0.0204 -0.2673
  436TMC3    O2 6509   2.224   4.061  15.317  0.0370 -0.1417  0.3723
  437TMC3    C1 6510   1.344   2.135  12.413  0.1919  0.6016 -0.1551
  437TMC3    C2 6511   1.259   2.217  12.348 -0.5279  0.2228 -0.1607
  437TMC3    C3 6512   1.303   2.269  12.230 -0.0762  0.1478  0.2050
  437TMC3    C4 6513   1.468   2.098  12.366  0.1624 -0.1594 -0.0922
  437TMC3    C5 6514   1.505   2.160  12.250 -0.3450  0.4221  0.0827
  437TMC3    C6 6515   1.426   2.244  12.183 -0.9528  0.1852 -0.6247
  437TMC3     C 6516   1.285   2.040  12.505  0.0937 -0.9672 -0.5016
  437TMC3     O 6517   1.351   1.939  12.528 -0.3326 -0.6024  0.2618
  437TMC3     H 6518   1.153   2.228  12.368 -0.3882 -1.0059  1.2848
  437TMC3    H1 6519   1.527   2.024  12.420  0.8860  0.3814 -0.1509
  437TMC3    H2 6520   1.463   2.286  12.090 -0.6170 -2.1775 -1.5837
  437TMC3    C7 6521   1.627   2.127  12.192  0.3172  0.4302 -0.1917
  437TMC3    C8 6522   1.248   2.393  12.182  1.1552 -0.4392 -0.2600
  437TMC3    O1 6523   1.623   2.135  12.070 -0.1099 -0.7066  0.3114
  437TMC3    O2 6524   1.281   2.438  12.070  0.1986 -0.5270  0.0985
  438MPD2     C 6525   3.526   2.245  16.400  0.1866 -0.4387  0.3447
  438MPD2    C1 6526   3.598   2.176  16.497  0.5745  0.0085 -0.4243
  438MPD2    C2 6527   3.541   2.173  16.625  0.7767  0.4530 -0.1840
  438MPD2    C3 6528   3.423   2.237  16.658  0.4324  0.1610 -0.3939
  438MPD2    C4 6529   3.349   2.298  16.557 -0.2926 -0.1304  0.3247
  438MPD2    C5 6530   3.407   2.296  16.431 -0.1519 -1.0459 -0.1760
  438MPD2     H 6531   3.597   2.112  16.695 -1.5251  0.9408  2.1037
  438MPD2    H1 6532   3.257   2.353  16.577 -0.7032 -1.1104  1.1379
  438MPD2    H2 6533   3.552   2.246  16.295  0.4544  0.2035  0.4173
  438MPD2    H3 6534   3.351   2.347  16.353  1.9193  0.8430 -0.4444
  438MPD2     N 6535   3.383   2.249  16.791  0.3461 -0.2688  0.3006
  438MPD2    H5 6536   3.284   2.269  16.800  0.1320  0.0154 -2.4989
  438MPD2    N1 6537   3.715   2.106  16.464  0.3578 -0.8495  0.4579
  438MPD2    H7 6538   3.767   2.073  16.545 -1.5849  1.3028  2.5866
  439TMC3    C1 6539   3.907   2.026  16.355  0.2396  0.5211 -0.1743
  439TMC3    C2 6540   3.945   1.968  16.243  0.4620  0.0002  0.7518
  439TMC3    C3 6541   4.078   1.939  16.247 -0.2153  0.3202  0.2590
  439TMC3    C4 6542   3.980   2.049  16.464 -0.0774  0.4157  0.7476
  439TMC3    C5 6543   4.110   2.020  16.460 -0.0468  1.0389 -0.4705
  439TMC3    C6 6544   4.162   1.956  16.356  0.1956  0.0136 -0.4855
  439TMC3     C 6545   3.772   2.087  16.339 -0.7036  0.2170 -0.0740
  439TMC3     O 6546   3.725   2.105  16.225  0.5649  0.2314 -0.1443
  439TMC3     H 6547   3.880   1.957  16.157 -0.1886  0.1062  1.2314
  439TMC3    H1 6548   3.936   2.103  16.548 -1.8847 -0.5498  0.4294
  439TMC3    H2 6549   4.265   1.932  16.334  0.4361  0.1995  0.4523
  439TMC3    C7 6550   4.189   2.019  16.582 -0.4862  0.3729 -0.3936
  439TMC3    C8 6551   4.129   1.878  16.127 -0.6027  0.1933  0.3012
  439TMC3    O1 6552   4.137   1.982  16.687  0.3305 -0.2340 -0.0880
  439TMC3    O2 6553   4.222   1.803  16.132 -0.0183  0.5306 -0.3641
  440MPD2     C 6554   2.638   2.662  14.437  0.2744  0.4219 -0.0242
  440MPD2    C1 6555   2.666   2.795  14.476  0.4239 -0.1343  0.2566
  440MPD2    C2 6556   2.698   2.815  14.605 -0.1326  0.0493  0.1233
  440MPD2    C3 6557   2.702   2.711  14.699 -0.3784 -0.5877  0.0576
  440MPD2    C4 6558   2.680   2.583  14.658  0.3328  0.3863  0.2572
  440MPD2    C5 6559   2.642   2.560  14.526 -0.3594 -0.0566  1.1087
  440MPD2     H 6560   2.734   2.912  14.641  3.3812 -0.8893 -0.8338
  440MPD2    H1 6561   2.685   2.504  14.732  0.1632 -1.5338 -1.7878
  440MPD2    H2 6562   2.609   2.637  14.335 -1.3360  0.6690  0.3678
  440MPD2    H3 6563   2.612   2.461  14.493  0.2355 -0.2421  1.1123
  440MPD2     N 6564   2.748   2.731  14.831 -0.4101  0.2484 -0.4359
  440MPD2    H5 6565   2.778   2.650  14.884 -1.2930  1.7366  2.3248
  440MPD2    N1 6566   2.650   2.913  14.401 -0.0156  0.0928 -0.1875
  440MPD2    H7 6567   2.672   2.998  14.451 -0.2821  1.3619 -2.2232
  441TMC3    C1 6568   2.789   2.848  15.033 -0.9696  0.0195 -0.2349
  441TMC3    C2 6569   2.803   2.974  15.098  0.0995  0.1730 -0.1907
  441TMC3    C3 6570   2.891   2.987  15.200  0.0771 -0.1883  0.1064
  441TMC3    C4 6571   2.841   2.739  15.086 -0.5477  0.1043 -0.3601
  441TMC3    C5 6572   2.928   2.753  15.191 -0.3280 -0.8938  0.3316
  441TMC3    C6 6573   2.965   2.879  15.241 -0.0442  0.3463 -0.1288
  441TMC3     C 6574   2.735   2.847  14.899 -0.2368  0.0349  0.5682
  441TMC3     O 6575   2.688   2.948  14.857 -0.0936  0.0195 -0.1794
  441TMC3     H 6576   2.742   3.058  15.066  1.6116  1.6518  0.7928
  441TMC3    H1 6577   2.828   2.644  15.036  0.9259 -0.6751  0.7272
  441TMC3    H2 6578   3.041   2.884  15.318 -0.6527  1.3686  0.4173
  441TMC3    C7 6579   2.942   2.632  15.271 -0.3832  0.8152  0.0078
  441TMC3    C8 6580   2.906   3.117  15.256 -0.1700  0.8879  0.1469
  441TMC3    O1 6581   2.861   2.543  15.246 -0.0093 -0.0618 -0.0454
  441TMC3    O2 6582   3.017   3.173  15.249  0.1022 -0.2578 -0.2421
  442MPD2     C 6583   0.180   2.942  16.991 -0.0834 -0.1311  0.1893
  442MPD2    C1 6584   0.275   3.027  16.936  0.0998  0.0808  0.2379
  442MPD2    C2 6585   0.392   2.971  16.885 -0.1209  0.9235  0.1782
  442MPD2    C3 6586   0.415   2.837  16.892  0.1460 -0.0588 -0.0510
  442MPD2    C4 6587   0.319   2.754  16.951  0.1944 -0.0549 -0.2914
  442MPD2    C5 6588   0.199   2.807  16.990  0.2640  1.0010  0.6596
  442MPD2     H 6589   0.465   3.032  16.833  0.5022  0.0818  0.0663
  442MPD2    H1 6590   0.338   2.648  16.951  1.3526  0.1533 -0.2626
  442MPD2    H2 6591   0.092   2.988  17.034  1.1061  0.0502  2.4647
  442MPD2    H3 6592   0.128   2.740  17.036 -0.1601  0.2629 -1.0878
  442MPD2     N 6593   0.525   2.774  16.832  0.6115  0.2071 -0.3418
  442MPD2    H5 6594   0.537   2.673  16.840  1.4911  0.4218  0.8795
  442MPD2    N1 6595   0.253   3.164  16.922  0.0052  0.0742 -0.1030
  442MPD2    H7 6596   0.333   3.212  16.882  0.9790 -1.7233 -0.2812
  443TMC3    C1 6597   0.153   3.371  16.948 -0.0105 -0.1100 -0.1056
  443TMC3    C2 6598   0.268   3.440  16.962  0.7991 -0.7040  0.2029
  443TMC3    C3 6599   0.298   3.550  16.889 -0.6801  0.1723  0.3461
  443TMC3    C4 6600   0.053   3.429  16.873  0.6634  0.5116 -0.7415
  443TMC3    C5 6601   0.085   3.540  16.794 -0.3518 -0.4268 -0.3596
  443TMC3    C6 6602   0.201   3.603  16.815  0.2358  0.3770  0.1205
  443TMC3     C 6603   0.144   3.235  16.980  0.3163  0.0374  0.0576
  443TMC3     O 6604   0.032   3.193  17.009  0.3992 -0.7052  0.4127
  443TMC3     H 6605   0.346   3.391  17.018  1.5992  1.6762  1.1507
  443TMC3    H1 6606   4.687   3.371  16.859 -0.1260  1.6205 -0.3159
  443TMC3    H2 6607   0.225   3.687  16.750 -0.2351 -0.4968 -1.1895
  443TMC3    C7 6608   0.051   3.532  16.651 -0.5624 -0.2706 -0.5880
  443TMC3    C8 6609   0.435   3.566  16.857  0.1639  0.3770 -0.1837
  443TMC3    O1 6610   0.071   3.626  16.576 -0.3649  0.6646 -0.0782
  443TMC3    O2 6611   0.517   3.472  16.872  0.7338 -0.0144  0.0717
  444MPD2     C 6612   1.052   2.540  17.071 -0.0930 -0.0776 -0.4901
  444MPD2    C1 6613   0.957   2.468  17.011  0.1608 -0.2284  0.7623
  444MPD2    C2 6614   0.998   2.360  16.938  0.3954 -0.0190  0.0416
  444MPD2    C3 6615   1.139   2.328  16.923 -0.3722  0.4419 -0.0696
  444MPD2    C4 6616   1.227   2.419  16.969  0.2393  0.0810 -1.0351
  444MPD2    C5 6617   1.187   2.523  17.044 -0.1168 -0.9977  0.0766
  444MPD2     H 6618   0.921   2.296  16.895  2.0787  0.1713 -3.2983
  444MPD2    H1 6619   1.335   2.404  16.972 -0.0999 -2.2540 -0.5139
  444MPD2    H2 6620   1.023   2.609  17.150 -0.9697  1.0518 -1.8090
  444MPD2    H3 6621   1.265   2.571  17.102 -1.3277 -0.8824  1.6020
  444MPD2     N 6622   1.180   2.211  16.856  0.6624 -0.6744 -0.1934
  444MPD2    H5 6623   1.119   2.158  16.795  0.7895 -0.7504 -0.2540
  444MPD2    N1 6624   0.820   2.499  17.029  0.6084 -0.1091  0.3291
  444MPD2    H7 6625   0.752   2.427  17.009  0.0908  0.7857 -1.1103
  445TMC3    C1 6626   1.342   2.056  16.760  0.4871  0.0156  0.0483
  445TMC3    C2 6627   1.275   2.055  16.641 -0.6195  0.2455  0.2694
  445TMC3    C3 6628   1.310   1.970  16.542  0.6666  0.2274 -0.0839
  445TMC3    C4 6629   1.461   1.989  16.773  0.7980  0.8136  0.1151
  445TMC3    C5 6630   1.505   1.916  16.666  0.8873  0.6113 -0.3578
  445TMC3    C6 6631   1.429   1.906  16.551  0.3433  0.0507  0.2890
  445TMC3     C 6632   1.310   2.157  16.866  0.5515 -0.1986  0.0716
  445TMC3     O 6633   1.409   2.202  16.926 -0.5548  0.1484 -0.4672
  445TMC3     H 6634   1.197   2.130  16.631 -0.0068  0.9638  0.9026
  445TMC3    H1 6635   1.514   2.017  16.864  0.1535 -3.4743  1.8057
  445TMC3    H2 6636   1.466   1.835  16.478  1.4005  0.5467  0.3264
  445TMC3    C7 6637   1.635   1.845  16.668 -0.3578 -0.8423  0.1871
  445TMC3    C8 6638   1.218   1.970  16.427 -0.0864  0.2871 -0.6607
  445TMC3    O1 6639   1.661   1.786  16.564  0.1233  0.0485 -0.0742
  445TMC3    O2 6640   1.130   2.058  16.412  0.1697  0.1788  0.4258
  446MPD2     C 6641   0.568   4.110  11.522 -0.0330  0.1470  0.3676
  446MPD2    C1 6642   0.534   4.172  11.405  0.3689 -0.8057 -0.6214
  446MPD2    C2 6643   0.626   4.248  11.341  0.7031  0.2515 -0.4759
  446MPD2    C3 6644   0.755   4.249  11.375 -0.6103  0.0424 -0.6085
  446MPD2    C4 6645   0.789   4.187  11.500  0.0859  0.6528  1.0130
  446MPD2    C5 6646   0.694   4.111  11.569  0.0616  0.2757 -0.0113
  446MPD2     H 6647   0.584   4.302  11.257 -0.6836  0.1197  0.1259
  446MPD2    H1 6648   0.893   4.180  11.532  1.1117 -0.9191 -2.6648
  446MPD2    H2 6649   0.499   4.049  11.579 -1.6851  2.2505  0.6225
  446MPD2    H3 6650   0.723   4.054  11.656 -0.7401  0.6606  0.5022
  446MPD2     N 6651   0.845   4.325  11.295 -0.7277 -0.0433 -0.4018
  446MPD2    H5 6652   0.805   4.384  11.223 -0.1080 -0.9483 -1.4771
  446MPD2    N1 6653   0.416   4.157  11.340 -0.0563  0.3221 -0.6096
  446MPD2    H7 6654   0.411   4.214  11.255  1.0043 -0.0141 -0.9056
  447TMC3    C1 6655   1.053   4.404  11.233 -0.9775 -0.4185 -0.2457
  447TMC3    C2 6656   0.999   4.419  11.110  0.2346  0.2409  0.1201
  447TMC3    C3 6657   1.076   4.494  11.025  0.3284  1.0203  0.1011
  447TMC3    C4 6658   1.168   4.465  11.272 -0.4843 -0.1163 -0.1463
  447TMC3    C5 6659   1.226   4.550  11.190  0.1235 -0.8855  0.0865
  447TMC3    C6 6660   1.192   4.563  11.056 -0.3725  0.4969  0.2938
  447TMC3     C 6661   0.981   4.321  11.329  0.5475  0.2787 -0.3312
  447TMC3     O 6662   1.045   4.243  11.397  0.1818  0.0447  0.7945
  447TMC3     H 6663   0.921   4.363  11.059 -1.2915 -1.2490  4.1314
  447TMC3    H1 6664   1.210   4.436  11.367 -0.8809  0.6143  0.2499
  447TMC3    H2 6665   1.230   4.648  11.000  0.5676 -0.4819 -0.5397
  447TMC3    C7 6666   1.363   4.591  11.228 -0.2089  0.3935  0.8309
  447TMC3    C8 6667   1.058   4.477  10.882 -0.1872  0.2913 -0.0157
  447TMC3    O1 6668   1.415   4.661  11.143 -0.2472  0.0561 -0.2838
  447TMC3    O2 6669   0.965   4.409  10.842  0.0556  0.2595  0.5999
  448TMC3    C1 6670   4.290   3.893  16.657 -0.2046  0.1581  0.1893
  448TMC3    C2 6671   4.236   3.798  16.571 -0.2567 -0.4367  0.0332
  448TMC3    C3 6672   4.278   3.670  16.576 -0.2170  0.6496  0.1117
  448TMC3    C4 6673   4.386   3.854  16.753  1.0976  0.0294  0.6601
  448TMC3    C5 6674   4.426   3.723  16.751 -0.5383  0.5704  0.2659
  448TMC3    C6 6675   4.375   3.628  16.667  0.5176  0.0444  0.1392
  448TMC3     C 6676   4.243   4.028  16.630 -1.3237 -0.1899  0.0743
  448TMC3     O 6677   4.141   4.042  16.568 -0.4279 -0.0816  0.4056
  448TMC3     H 6678   4.149   3.824  16.510  1.3776  1.4118 -1.5289
  448TMC3    H1 6679   4.434   3.920  16.824 -1.0080  0.3091  1.8250
  448TMC3    H2 6680   4.419   3.529  16.658  0.3757  0.1425 -1.7744
  448TMC3    C7 6681   4.493   3.667  16.865  0.2592 -0.2044  0.4391
  448TMC3    C8 6682   4.222   3.566  16.485 -0.0473  0.4622  0.7036
  448TMC3    O1 6683   4.567   3.743  16.926  0.3821  0.1285 -0.2098
  448TMC3    O2 6684   4.299   3.472  16.464 -0.4334 -0.3376 -0.0425
  449MPD2     C 6685   0.101   1.880  13.393  0.3123  0.1008 -0.7438
  449MPD2    C1 6686   0.107   2.008  13.441 -0.1230 -0.0412  0.0597
  449MPD2    C2 6687   4.720   2.075  13.473 -0.4113 -0.6823  0.3323
  449MPD2    C3 6688   4.596   2.020  13.449  0.3214  0.1585 -0.3350
  449MPD2    C4 6689   4.587   1.887  13.412 -0.9161  0.4428 -0.6558
  449MPD2    C5 6690   4.707   1.824  13.377 -0.3636  0.0773 -0.2316
  449MPD2     H 6691   0.002   2.175  13.512  1.0675 -0.9139  0.7196
  449MPD2    H1 6692   4.493   1.837  13.397 -0.2455 -1.6808  2.1514
  449MPD2    H2 6693   0.184   1.817  13.363  1.8993  0.2178  3.4440
  449MPD2    H3 6694   4.701   1.719  13.352  1.6670 -0.0103 -0.3862
  449MPD2     N 6695   4.487   2.110  13.456 -0.8054 -0.5708  0.2342
  449MPD2    H5 6696   4.508   2.209  13.457 -3.6806  0.0224  1.2957
  449MPD2    N1 6697   0.220   2.083  13.463 -1.1086  0.3405  0.0546
  449MPD2    H7 6698   0.211   2.181  13.487 -0.6179  0.7347 -1.3558
  450TMC3    C1 6699   0.452   2.131  13.480 -0.1764 -0.0405 -0.4439
  450TMC3    C2 6700   0.548   2.174  13.384  0.2556 -0.2278  0.7565
  450TMC3    C3 6701   0.572   2.309  13.382 -0.1970  0.6300  0.0027
  450TMC3    C4 6702   0.404   2.224  13.574  0.1755 -0.4967  0.4578
  450TMC3    C5 6703   0.419   2.358  13.557  0.5292  0.1487 -0.6632
  450TMC3    C6 6704   0.500   2.394  13.456  0.6008  0.3833  0.0008
  450TMC3     C 6705   0.351   2.031  13.445 -0.4010  0.1853  0.3248
  450TMC3     O 6706   0.394   1.924  13.404  0.6656  0.2775  0.0734
  450TMC3     H 6707   0.609   2.100  13.332  1.1665 -0.0057  1.5129
  450TMC3    H1 6708   0.346   2.180  13.654  0.2677  1.1374  1.4252
  450TMC3    H2 6709   0.510   2.501  13.440 -0.9249  0.8163  2.0057
  450TMC3    C7 6710   0.299   2.428  13.569  0.1643 -0.4670  0.1461
  450TMC3    C8 6711   0.659   2.364  13.277 -0.0923  0.0995 -0.7631
  450TMC3    O1 6712   0.204   2.358  13.539 -0.7721  0.9128  0.1215
  450TMC3    O2 6713   0.653   2.482  13.250 -0.2131 -0.7335 -0.0202
  451MPD2     C 6714   1.547   0.909   1.612  0.4431 -0.0002 -0.4441
  451MPD2    C1 6715   1.554   0.919   1.475 -0.1148 -0.2971 -0.6840
  451MPD2    C2 6716   1.616   0.805   1.408 -0.4732 -0.1152  0.5390
  451MPD2    C3 6717   1.669   0.700   1.481  0.2498 -0.0988  0.1499
  451MPD2    C4 6718   1.666   0.703   1.619  0.4904 -0.6017  0.0602
  451MPD2    C5 6719   1.607   0.808   1.686  0.3686  0.0985  0.5331
  451MPD2     H 6720   1.610   0.802   1.300 -1.6250 -0.3191  0.6027
  451MPD2    H1 6721   1.711   0.621   1.673  2.6212  0.4194 -0.1931
  451MPD2    H2 6722   1.510   0.992   1.671  1.6621  0.5411 -0.4580
  451MPD2    H3 6723   1.589   0.802   1.792 -1.2392 -0.0067  0.2503
  451MPD2     N 6724   1.741   0.588   1.422  0.0014 -0.4459 -0.1479
  451MPD2    H5 6725   1.768   0.515   1.488 -3.4495 -0.2801  1.4650
  451MPD2    N1 6726   1.508   1.035   1.414  0.0214  0.2746 -0.3257
  451MPD2    H7 6727   1.461   1.105   1.471 -1.4836 -2.0059  1.2102
  452TMC3    C1 6728   1.803   0.435   1.253  0.1331 -0.0493 -0.2970
  452TMC3    C2 6729   1.760   0.332   1.333 -0.2267  0.2614  0.1933
  452TMC3    C3 6730   1.757   0.211   1.276 -0.4054  0.4461  0.0086
  452TMC3    C4 6731   1.840   0.421   1.122  0.0671  0.2139  0.3807
  452TMC3    C5 6732   1.838   0.290   1.073  0.1237  0.4145  0.0400
  452TMC3    C6 6733   1.805   0.184   1.151 -0.8554 -0.7714 -0.1153
  452TMC3     C 6734   1.770   0.575   1.289 -0.4858 -0.3446  0.1595
  452TMC3     O 6735   1.765   0.656   1.197  0.8702 -0.3474  0.3958
  452TMC3     H 6736   1.692   0.337   1.418 -0.1373  0.5132  0.2501
  452TMC3    H1 6737   1.845   0.508   1.058 -2.4928  0.2178  0.1581
  452TMC3    H2 6738   1.808   0.082   1.114 -1.3254 -0.9323  0.2930
  452TMC3    C7 6739   1.830   0.273   0.931 -0.1572  0.3484  0.0792
  452TMC3    C8 6740   1.732   0.105   1.371 -0.1179  0.5705 -0.0851
  452TMC3    O1 6741   1.880   0.363   0.868  0.0793  0.4536  0.4931
  452TMC3    O2 6742   1.762   0.133   1.486  0.7204  0.3424  0.1308
  453TMC3    C1 6743   3.267   2.946  11.563  0.5686 -0.1335 -0.0691
  453TMC3    C2 6744   3.191   2.858  11.640  0.7887 -0.0704 -0.3715
  453TMC3    C3 6745   3.132   2.753  11.575  0.0201  0.0297 -0.0533
  453TMC3    C4 6746   3.287   2.931  11.430 -0.3376  0.3039 -0.0907
  453TMC3    C5 6747   3.209   2.838  11.363 -0.0462  0.4830 -0.4575
  453TMC3    C6 6748   3.130   2.749  11.440  0.0970  0.8798  0.1663
  453TMC3     C 6749   3.341   3.050  11.640 -0.4149 -0.7572 -0.5052
  453TMC3     O 6750   3.441   3.103  11.589  0.8006  0.1012 -0.2800
  453TMC3     H 6751   3.180   2.859  11.748  0.3225  0.9228 -0.4208
  453TMC3    H1 6752   3.343   3.012  11.385  0.7100  0.3673  1.3182
  453TMC3    H2 6753   3.066   2.673  11.397  0.5181  0.4006  0.3908
  453TMC3    C7 6754   3.184   2.869  11.226  0.9342 -0.6540  0.9354
  453TMC3    C8 6755   3.058   2.648  11.639  0.1146 -0.1239  0.1475
  453TMC3    O1 6756   3.264   2.943  11.174  0.5136 -0.4689  0.0015
  453TMC3    O2 6757   2.955   2.607  11.588  0.1065 -0.0246  0.3596
  454MPD2     C 6758   2.049   2.259  16.674  0.4648  0.3274  0.4974
  454MPD2    C1 6759   1.982   2.382  16.684  0.0295  0.1044  0.0461
  454MPD2    C2 6760   1.912   2.415  16.801 -0.0853 -0.7900  0.1067
  454MPD2    C3 6761   1.911   2.326  16.912  0.0522  0.0420  0.3551
  454MPD2    C4 6762   1.972   2.206  16.897  0.1422  0.1791  0.0355
  454MPD2    C5 6763   2.044   2.175  16.788 -0.3401 -0.0994 -1.0701
  454MPD2     H 6764   1.866   2.513  16.809 -2.4690 -2.0147  1.2440
  454MPD2    H1 6765   1.969   2.123  16.967  0.0559  1.7389  1.8674
  454MPD2    H2 6766   2.100   2.228  16.584 -0.3875  0.1465  0.0807
  454MPD2    H3 6767   2.107   2.088  16.779  2.3401  1.6485  0.9340
  454MPD2     N 6768   1.844   2.349  17.038  0.0534  0.2278 -0.3631
  454MPD2    H5 6769   1.862   2.282  17.112 -1.6547 -1.6369 -1.6292
  454MPD2    N1 6770   1.953   2.465  16.577  1.1761  0.4600 -0.4002
  454MPD2    H7 6771   1.924   2.560  16.600  0.8635 -0.4291  2.8912
  455TMC3    C1 6772   1.657   2.493  16.959  0.0438  1.3005  0.9559
  455TMC3    C2 6773   1.607   2.621  16.967 -0.6206  0.4825 -0.0184
  455TMC3    C3 6774   1.513   2.663  16.877 -1.2147 -0.0113 -0.7140
  455TMC3    C4 6775   1.624   2.406  16.860  0.1444 -0.0137 -0.6734
  455TMC3    C5 6776   1.534   2.455  16.768 -0.3580  0.7456 -0.0316
  455TMC3    C6 6777   1.473   2.576  16.777 -1.0031  0.4332  0.5840
  455TMC3     C 6778   1.754   2.462  17.064  0.4793 -0.1007  0.0829
  455TMC3     O 6779   1.726   2.499  17.180 -0.2001  0.3255 -0.2469
  455TMC3     H 6780   1.635   2.686  17.049  1.4874 -1.8846  1.1146
  455TMC3    H1 6781   1.668   2.307  16.864  2.5087  1.2125  3.6248
  455TMC3    H2 6782   1.400   2.603  16.701 -1.2142  1.1870  1.0516
  455TMC3    C7 6783   1.518   2.385  16.642 -0.3053  0.4200 -0.2491
  455TMC3    C8 6784   1.463   2.791  16.909  0.0923 -0.7513  0.0800
  455TMC3    O1 6785   1.407   2.383  16.584 -0.6436 -0.2947 -0.0589
  455TMC3    O2 6786   1.535   2.868  16.965 -0.2438  0.1432  0.3070
  456MPD2     C 6787   4.204   2.266  15.970 -0.6243 -0.5460  0.6846
  456MPD2    C1 6788   4.276   2.251  16.088  0.7810  0.2317 -0.0325
  456MPD2    C2 6789   4.238   2.327  16.203  0.3055 -0.5288 -0.3061
  456MPD2    C3 6790   4.128   2.406  16.189 -0.9462  0.3101  0.5247
  456MPD2    C4 6791   4.057   2.423  16.071  0.1638  0.1463  0.5026
  456MPD2    C5 6792   4.092   2.347  15.967  0.3579  0.2807  0.5778
  456MPD2     H 6793   4.300   2.335  16.292  1.2004  0.0911 -0.9809
  456MPD2    H1 6794   3.985   2.500  16.046 -0.5076 -1.5532 -2.7950
  456MPD2    H2 6795   4.226   2.207  15.882  1.2274  0.5038  0.4345
  456MPD2    H3 6796   4.033   2.362  15.877  2.3055  0.5059 -0.6868
  456MPD2     N 6797   4.112   2.496  16.299  0.7318  0.1438  0.0734
  456MPD2    H5 6798   4.181   2.499  16.374  2.9588  1.4012 -2.0588
  456MPD2    N1 6799   4.389   2.174  16.079 -0.2027  0.3116 -0.3292
  456MPD2    H7 6800   4.424   2.156  15.986  0.1878 -1.8797  0.2232
  457TMC3    C1 6801   4.044   2.681  16.419  0.3880 -0.2318 -0.1937
  457TMC3    C2 6802   4.032   2.815  16.387 -0.6934 -0.2700  0.5620
  457TMC3    C3 6803   4.096   2.900  16.482  0.3014  0.6272 -0.3698
  457TMC3    C4 6804   4.117   2.642  16.528 -0.7605 -0.0193 -0.6491
  457TMC3    C5 6805   4.173   2.730  16.611  0.2442  0.4446 -0.2500
  457TMC3    C6 6806   4.165   2.864  16.596  0.1686  0.0546 -0.2191
  457TMC3     C 6807   4.010   2.591  16.309 -0.8952  0.1786 -0.2052
  457TMC3     O 6808   3.927   2.622  16.228 -0.2267 -0.4474  0.1278
  457TMC3     H 6809   4.002   2.845  16.287 -1.8820  1.2369  1.3710
  457TMC3    H1 6810   4.123   2.536  16.551 -0.7904 -0.0471 -0.7697
  457TMC3    H2 6811   4.198   2.936  16.670 -1.5631 -1.6126  2.1895
  457TMC3    C7 6812   4.242   2.674  16.726 -0.8154  0.4008  0.3726
  457TMC3    C8 6813   4.094   3.042  16.460 -0.7110  0.1014 -0.3809
  457TMC3    O1 6814   4.224   2.556  16.753 -0.2263  0.6573 -0.1328
  457TMC3    O2 6815   4.188   3.101  16.513 -1.0465  0.0130 -0.1478
  458MPD2     C 6816   2.141   2.075  12.209  0.5957 -0.2463  0.3623
  458MPD2    C1 6817   2.091   2.068  12.339  0.1339  0.4188  0.1850
  458MPD2    C2 6818   1.952   2.073  12.366 -0.1516 -0.0314 -0.0225
  458MPD2    C3 6819   1.870   2.092  12.260  0.2962 -0.3705 -0.1416
  458MPD2    C4 6820   1.919   2.099  12.127 -0.1660 -0.2742  0.1296
  458MPD2    C5 6821   2.052   2.093  12.109  0.3939  0.2903 -0.7299
  458MPD2     H 6822   1.920   2.063  12.469  1.4097 -1.2337  0.3319
  458MPD2    H1 6823   1.857   2.125  12.042  0.6004 -0.5379 -0.5122
  458MPD2    H2 6824   2.246   2.072  12.181 -0.3001 -0.5549 -2.9214
  458MPD2    H3 6825   2.097   2.109  12.011  1.5655  0.4848 -0.1550
  458MPD2     N 6826   1.728   2.111  12.283 -0.3733 -0.6854  0.3276
  458MPD2    H5 6827   1.698   2.109  12.379 -0.5782  1.7298  0.3237
  458MPD2    N1 6828   2.195   2.081  12.433  0.3651 -0.2025  0.4174
  458MPD2    H7 6829   2.288   2.103  12.400  0.4661 -0.0981  0.7780
  459TMC3    C1 6830   2.300   2.087  12.646  0.4350  0.3523 -0.3463
  459TMC3    C2 6831   2.389   2.181  12.601  0.5893  0.5586 -0.1207
  459TMC3    C3 6832   2.492   2.214  12.684 -0.8091 -1.4308 -0.3616
  459TMC3    C4 6833   2.294   2.053  12.779  0.2309 -0.4473 -0.0641
  459TMC3    C5 6834   2.400   2.089  12.860  0.3268 -0.7341 -0.0719
  459TMC3    C6 6835   2.506   2.161  12.811 -0.0157 -0.2077  0.5225
  459TMC3     C 6836   2.181   2.047  12.565 -0.0308  0.0747  1.0048
  459TMC3     O 6837   2.105   1.964  12.611 -0.4786  0.3230  0.0439
  459TMC3     H 6838   2.386   2.219  12.499  0.4666 -1.0592 -0.7261
  459TMC3    H1 6839   2.217   1.983  12.809 -1.1893  0.5958 -1.3195
  459TMC3    H2 6840   2.589   2.182  12.878  0.9985  0.7366 -1.0434
  459TMC3    C7 6841   2.398   2.032  12.993  0.8937  0.4898  0.6131
  459TMC3    C8 6842   2.599   2.303  12.641 -0.3998  0.1604  0.2765
  459TMC3    O1 6843   2.324   1.934  13.001 -0.1346 -0.1570  1.1236
  459TMC3    O2 6844   2.685   2.326  12.726  0.2880  0.6198  0.0893
  460MPD2     C 6845   1.301   4.496  10.593 -0.8061  0.0923  0.4912
  460MPD2    C1 6846   1.182   4.513  10.663 -0.2468  0.2165 -0.0520
  460MPD2    C2 6847   1.073   4.502  10.581  0.5243  0.4932  0.9225
  460MPD2    C3 6848   1.082   4.493  10.440  0.1430  0.1184  0.0570
  460MPD2    C4 6849   1.205   4.471  10.383  0.3193  0.2785 -0.2054
  460MPD2    C5 6850   1.312   4.487  10.458 -0.4616 -0.1931  0.1960
  460MPD2     H 6851   0.975   4.514  10.626 -0.3999 -0.6419 -0.8060
  460MPD2    H1 6852   1.221   4.449  10.278  2.9121 -1.4938  0.5590
  460MPD2    H2 6853   1.393   4.506  10.649 -0.0755 -0.5270 -0.5961
  460MPD2    H3 6854   1.407   4.485  10.406  0.1209 -0.3111  1.2574
  460MPD2     N 6855   0.960   4.500  10.372 -0.6332  0.8440 -0.0230
  460MPD2    H5 6856   0.879   4.513  10.432  0.1103  1.8592  0.7644
  460MPD2    N1 6857   1.166   4.517  10.802 -0.5856  0.0762  0.6308
  460MPD2    H7 6858   1.250   4.535  10.856  0.0023  0.2439 -0.3276
  461TMC3    C1 6859   0.809   4.466  10.184  0.1771  0.8827  0.4953
  461TMC3    C2 6860   0.794   4.402  10.066  0.4982 -0.1248 -0.2250
  461TMC3    C3 6861   0.674   4.403   9.999 -0.0289  0.0303 -0.2906
  461TMC3    C4 6862   0.707   4.544  10.229  0.2696  0.3734 -0.4152
  461TMC3    C5 6863   0.590   4.549  10.157  0.1419  0.0819 -0.7997
  461TMC3    C6 6864   0.568   4.480  10.039 -0.6821 -0.2753 -0.0829
  461TMC3     C 6865   0.942   4.465  10.236  0.7024  0.5303 -0.2838
  461TMC3     O 6866   1.029   4.432  10.158  0.5238 -0.8489  0.1277
  461TMC3     H 6867   0.864   4.329  10.026 -0.7150 -0.9747 -0.7973
  461TMC3    H1 6868   0.726   4.613  10.310 -1.2818  2.6648 -2.0053
  461TMC3    H2 6869   0.477   4.487   9.980 -1.2688 -0.0362  0.8441
  461TMC3    C7 6870   0.542   4.689  10.157  0.0731 -0.3250  0.4939
  461TMC3    C8 6871   0.677   4.340   9.867 -0.4613 -0.3583  0.1474
  461TMC3    O1 6872   0.558   0.027  10.055 -0.6273 -0.0691  0.4056
  461TMC3    O2 6873   0.737   4.238   9.851 -0.0421  1.0003  0.6212
  462TMC3    C1 6874   1.112   0.445  17.568 -0.3839  0.6041  0.1900
  462TMC3    C2 6875   1.100   0.395  17.439  0.3967 -0.3176  0.4109
  462TMC3    C3 6876   1.061   0.260  17.433  0.5304 -0.1062 -0.1515
  462TMC3    C4 6877   1.101   0.367  17.684 -0.3190 -0.0268 -0.6197
  462TMC3    C5 6878   1.075   0.236  17.668  0.3672  0.2339 -0.2106
  462TMC3    C6 6879   1.043   0.188  17.548 -0.1577  0.2481  0.2655
  462TMC3     C 6880   1.175   0.574  17.597 -1.1413 -0.2559  0.9792
  462TMC3     O 6881   1.189   0.604   0.015 -0.2083 -0.1396  1.0643
  462TMC3     H 6882   1.102   0.458  17.351 -0.1452  0.3449  0.8744
  462TMC3    H1 6883   1.117   0.419   0.080  0.4500  0.5429 -1.0596
  462TMC3    H2 6884   1.011   0.084  17.551  0.9954 -0.1118 -0.1090
  462TMC3    C7 6885   1.008   0.171   0.084 -0.2163 -0.6236  0.5866
  462TMC3    C8 6886   1.029   0.211  17.301  0.2180  0.2039  1.1039
  462TMC3    O1 6887   0.930   0.081   0.063 -0.3018  0.6557 -0.5575
  462TMC3    O2 6888   0.980   0.301  17.235 -0.3461 -0.6174  0.2476
  463MPD2     C 6889   1.635   4.055   2.062  1.1301  0.0651  0.5247
  463MPD2    C1 6890   1.592   3.984   1.952  0.4848  0.0270  0.1909
  463MPD2    C2 6891   1.644   4.016   1.822 -0.0524 -0.1803  0.1955
  463MPD2    C3 6892   1.727   4.125   1.808  0.0032  0.1674 -0.2868
  463MPD2    C4 6893   1.761   4.191   1.922  0.1396 -0.4912  0.1529
  463MPD2    C5 6894   1.727   4.151   2.049 -0.4115 -0.2506  0.6227
  463MPD2     H 6895   1.610   3.955   1.739  3.4054 -2.2455  0.3001
  463MPD2    H1 6896   1.819   4.281   1.903  0.5085 -1.1396 -1.7244
  463MPD2    H2 6897   1.611   4.023   2.163  0.1204 -0.4058  0.1390
  463MPD2    H3 6898   1.767   4.193   2.140  0.3665  0.5155 -0.0627
  463MPD2     N 6899   1.777   4.175   1.683  0.5829  0.1898  0.0305
  463MPD2    H5 6900   1.847   4.247   1.683  0.9490 -0.1665  0.0721
  463MPD2    N1 6901   1.506   3.871   1.956  0.5356 -0.4917  0.5564
  463MPD2    H7 6902   1.483   3.827   1.867 -0.6165 -0.4401  0.8222
  464TMC3    C1 6903   1.375   3.697   2.040  0.8061 -0.3866  0.7467
  464TMC3    C2 6904   1.301   3.707   1.925  0.2269 -0.6869 -0.0381
  464TMC3    C3 6905   1.189   3.626   1.915  0.4969 -0.8191 -0.1872
  464TMC3    C4 6906   1.333   3.629   2.148 -0.5324 -0.8389  0.6018
  464TMC3    C5 6907   1.228   3.541   2.134  0.7635 -0.5577  0.4864
  464TMC3    C6 6908   1.151   3.540   2.018 -0.1497 -0.7597 -0.5578
  464TMC3     C 6909   1.466   3.803   2.069  0.2399  0.5499  0.0939
  464TMC3     O 6910   1.498   3.821   2.184 -0.0360  0.2434  0.0887
  464TMC3     H 6911   1.340   3.755   1.835  0.6396 -2.6328 -0.8995
  464TMC3    H1 6912   1.379   3.640   2.246 -0.1582 -1.5552  0.5075
  464TMC3    H2 6913   1.084   3.456   2.003 -1.9156  0.6455 -0.5907
  464TMC3    C7 6914   1.184   3.468   2.255  0.6465 -0.5508 -0.4814
  464TMC3    C8 6915   1.108   3.626   1.790  0.3432  0.5724  1.1208
  464TMC3    O1 6916   1.268   3.445   2.342  0.2204 -0.1560  0.0772
  464TMC3    O2 6917   1.170   3.659   1.691  0.5764  0.2476 -0.4365
  465MPD2     C 6918   3.447   2.750  16.135  0.3189 -0.3757 -0.4045
  465MPD2    C1 6919   3.374   2.715  16.246 -0.2338  0.6743 -0.8108
  465MPD2    C2 6920   3.241   2.698  16.228  0.5740  0.5234 -0.6201
  465MPD2    C3 6921   3.175   2.714  16.109 -0.2139 -0.4205  0.2006
  465MPD2    C4 6922   3.254   2.757  15.997  0.4604 -0.2935  0.0898
  465MPD2    C5 6923   3.385   2.769  16.008 -0.6483 -0.2161  0.3688
  465MPD2     H 6924   3.180   2.667  16.312  2.0425 -0.3050  0.1446
  465MPD2    H1 6925   3.200   2.772  15.905 -2.2338 -2.1367  1.3974
  465MPD2    H2 6926   3.549   2.786  16.147  1.3052 -2.8279 -1.3734
  465MPD2    H3 6927   3.443   2.801  15.923  1.3994  1.2660  2.2991
  465MPD2     N 6928   3.044   2.676  16.103  0.4894 -0.0249  0.0334
  465MPD2    H5 6929   3.003   2.635  16.187 -0.9019  1.4172  0.0568
  465MPD2    N1 6930   3.428   2.691  16.368  0.8503 -0.0308 -0.3484
  465MPD2    H7 6931   3.361   2.659  16.437 -0.8405  1.7876 -1.1214
  466TMC3    C1 6932   2.703   2.582  16.210  0.1398 -0.2671 -0.1657
  466TMC3    C2 6933   2.601   2.661  16.174 -0.7755  0.3502  0.2073
  466TMC3    C3 6934   2.615   2.733  16.056 -0.0261 -0.3391  0.2151
  466TMC3    C4 6935   2.815   2.569  16.129 -0.1989  0.2178  0.2854
  466TMC3    C5 6936   2.834   2.647  16.022  0.3409 -0.1081 -0.0564
  466TMC3    C6 6937   2.725   2.723  15.974 -0.3709  0.1142 -0.0294
  466TMC3     C 6938   2.730   2.587  16.352  0.0395 -0.2185  0.5628
  466TMC3     O 6939   2.842   2.640  16.370  0.1565 -0.2296 -0.9420
  466TMC3     H 6940   2.523   2.681  16.247 -0.0773  1.8288  0.5555
  466TMC3    H1 6941   2.888   2.500  16.169 -0.0285 -0.0000 -0.4047
  466TMC3    H2 6942   2.748   2.783  15.886 -2.2870 -0.0319 -0.6419
  466TMC3    C7 6943   2.965   2.703  15.996 -0.3044 -0.6013 -1.1691
  466TMC3    C8 6944   2.550   2.864  16.042 -0.2388  0.4593 -0.2127
  466TMC3    O1 6945   2.982   2.780  15.902 -0.5907  0.0081  0.8196
  466TMC3    O2 6946   2.543   2.906  15.930  0.6839  0.0856  0.3584
  467TMC3    C1 6947   4.273   1.268  13.688  0.2068 -0.0411  0.3240
  467TMC3    C2 6948   4.187   1.263  13.583  0.1128  0.4325 -0.6325
  467TMC3    C3 6949   4.053   1.274  13.601  0.6429  0.4326 -0.1914
  467TMC3    C4 6950   4.226   1.263  13.819  0.0352 -0.8237 -0.2107
  467TMC3    C5 6951   4.083   1.275  13.836 -0.3615  0.4816 -0.2376
  467TMC3    C6 6952   4.002   1.271  13.729 -0.0722 -0.1789 -0.9916
  467TMC3     C 6953   4.404   1.320  13.667  0.1690 -0.4533 -1.3419
  467TMC3     O 6954   4.470   1.347  13.770  0.0967  0.1885  0.2623
  467TMC3     H 6955   4.232   1.293  13.489  1.6890 -0.5897 -0.1985
  467TMC3    H1 6956   4.300   1.266  13.899 -0.1315 -1.0282 -0.0504
  467TMC3    H2 6957   3.895   1.288  13.740  0.1850  2.8500 -3.1006
  467TMC3    C7 6958   4.046   1.214  13.964 -0.1756  0.6689  0.1169
  467TMC3    C8 6959   3.980   1.347  13.504 -0.5023  0.7878 -0.8132
  467TMC3    O1 6960   4.142   1.177  14.030  0.1997  0.6574 -0.7636
  467TMC3    O2 6961   3.912   1.446  13.537 -0.2045  0.2745  0.4005
  468MPD2     C 6962   3.702   4.482  11.274 -0.3622  1.0244 -0.0650
  468MPD2    C1 6963   3.716   4.456  11.138 -0.1483  0.2205  0.4829
  468MPD2    C2 6964   3.708   4.323  11.092  0.2598 -0.1003 -0.3170
  468MPD2    C3 6965   3.669   4.222  11.181 -0.2957 -0.3847 -1.0513
  468MPD2    C4 6966   3.639   4.259  11.309 -0.1230 -0.6934 -0.0275
  468MPD2    C5 6967   3.669   4.382  11.360  0.5566 -0.1034  0.5385
  468MPD2     H 6968   3.729   4.308  10.987  0.2198 -0.1410 -0.3191
  468MPD2    H1 6969   3.607   4.178  11.375  0.5402  0.5337  1.7951
  468MPD2    H2 6970   3.708   4.576  11.326  0.0162  1.2877 -0.5828
  468MPD2    H3 6971   3.662   4.400  11.467 -1.6971  1.7559  0.0764
  468MPD2     N 6972   3.639   4.085  11.146  0.2144 -0.2363  0.6008
  468MPD2    H5 6973   3.592   4.030  11.217 -1.2735  1.6755  1.0691
  468MPD2    N1 6974   3.744   4.558  11.037 -0.1670  0.0540  0.9005
  468MPD2    H7 6975   3.767   4.518  10.947  3.9642  0.9530  1.5749
  469TMC3    C1 6976   3.716   0.051  10.939 -0.0086  0.2767  0.0589
  469TMC3    C2 6977   3.651   0.168  10.949 -0.3784 -0.0824 -0.8336
  469TMC3    C3 6978   3.625   0.239  10.835 -0.4383 -0.0374  0.0640
  469TMC3    C4 6979   3.744   4.723  10.815 -0.0534  0.0280 -0.0363
  469TMC3    C5 6980   3.720   0.066  10.702  0.0591 -0.8618 -0.2218
  469TMC3    C6 6981   3.662   0.193  10.708  0.1773 -0.2118  0.0585
  469TMC3     C 6982   3.718   4.691  11.052  0.1207 -0.1990  0.5291
  469TMC3     O 6983   3.683   0.023  11.153 -0.3301  0.0225 -0.6763
  469TMC3     H 6984   3.632   0.213  11.047  1.0500  1.1089 -1.1038
  469TMC3    H1 6985   3.792   4.627  10.802 -1.2989 -0.6031  0.0360
  469TMC3    H2 6986   3.639   0.250  10.619  1.4306  0.0415 -0.0940
  469TMC3    C7 6987   3.747   4.718  10.579 -0.5023  0.5627  0.8686
  469TMC3    C8 6988   3.551   0.363  10.840 -0.3663 -0.3592 -0.9715
  469TMC3    O1 6989   3.855   4.663  10.565  0.1052  0.1343 -0.3461
  469TMC3    O2 6990   3.535   0.426  10.734 -0.6013 -0.1592 -0.1100
  470TMC3    C1 6991   0.704   4.539   1.048  0.6590  0.3875 -0.1819
  470TMC3    C2 6992   0.679   4.665   1.011 -0.3760  0.7024  0.3916
  470TMC3    C3 6993   0.572   0.005   1.070 -0.5473 -0.0152  0.0627
  470TMC3    C4 6994   0.621   4.462   1.129  0.6458  0.2884 -0.1466
  470TMC3    C5 6995   0.514   4.533   1.172  0.4100  0.0112 -0.1289
  470TMC3    C6 6996   0.493   4.668   1.159 -0.2843 -0.3548  0.1571
  470TMC3     C 6997   0.842   4.508   1.037 -0.8457  0.4389 -0.1147
  470TMC3     O 6998   0.894   4.532   0.932 -0.8049  0.0488  0.1753
  470TMC3     H 6999   0.754   4.717   0.953  0.7537 -0.7634  0.5130
  470TMC3    H1 7000   0.636   4.363   1.170 -0.6388  0.0771 -0.1850
  470TMC3    H2 7001   0.399   4.717   1.181  0.4945  1.0408  0.3407
  470TMC3    C7 7002   0.411   4.468   1.243 -0.4901  0.7106  0.0717
  470TMC3    C8 7003   0.539   0.140   1.038 -0.2796  0.9182 -0.3633
  470TMC3    O1 7004   0.416   4.343   1.237 -0.3316  0.3510 -0.0384
  470TMC3    O2 7005   0.451   0.194   1.101 -0.3551  0.8206 -0.1868
  471MPD2     C 7006   0.953   1.853  16.730  0.6666  0.2320 -0.0313
  471MPD2    C1 7007   1.056   1.761  16.703 -0.1605 -0.5394 -0.2567
  471MPD2    C2 7008   1.151   1.732  16.797  0.2312  0.0828  1.0003
  471MPD2    C3 7009   1.159   1.820  16.904  0.2161  0.0528 -0.0564
  471MPD2    C4 7010   1.054   1.907  16.937 -0.1563 -0.1471  0.0590
  471MPD2    C5 7011   0.961   1.931  16.836 -0.3613  0.5608 -0.3686
  471MPD2     H 7012   1.226   1.655  16.782  0.5567 -0.2393  4.3537
  471MPD2    H1 7013   1.059   1.965  17.028  0.4142  0.7698 -0.5614
  471MPD2    H2 7014   0.874   1.880  16.660  0.6019 -0.3953 -0.2086
  471MPD2    H3 7015   0.889   2.010  16.847 -0.8651  0.1403 -0.6519
  471MPD2     N 7016   1.257   1.810  17.008 -0.1728 -0.2811 -0.0552
  471MPD2    H5 7017   1.242   1.850  17.100 -0.5446 -0.1840 -0.1587
  471MPD2    N1 7018   1.043   1.679  16.579 -0.0463  0.3504 -0.4176
  471MPD2    H7 7019   1.114   1.608  16.569  0.7756  1.0351  0.6714
  472TMC3    C1 7020   0.976   1.608  16.359 -0.2351  0.2272  0.5429
  472TMC3    C2 7021   0.929   1.648  16.236  0.0477 -0.1649 -0.0534
  472TMC3    C3 7022   0.908   1.545  16.153  0.4840 -0.3955 -0.1499
  472TMC3    C4 7023   1.013   1.480  16.383 -0.3530  0.0231 -0.4312
  472TMC3    C5 7024   0.992   1.383  16.289  0.0189 -1.0095 -0.5712
  472TMC3    C6 7025   0.946   1.416  16.168  0.0768  0.0832 -0.5172
  472TMC3     C 7026   0.969   1.710  16.462  1.0080  0.1495 -0.1303
  472TMC3     O 7027   0.903   1.807  16.425 -0.0145  0.4224  0.2275
  472TMC3     H 7028   0.897   1.749  16.215 -0.4910 -0.3803 -0.2602
  472TMC3    H1 7029   1.043   1.444  16.481  0.1501  2.4934  0.3195
  472TMC3    H2 7030   0.930   1.340  16.092  1.5544 -1.3423  0.5936
  472TMC3    C7 7031   0.945   1.258  16.342  0.7923  0.1010 -0.0930
  472TMC3    C8 7032   0.788   1.558  16.071 -0.1016  0.2665 -0.1817
  472TMC3    O1 7033   0.984   1.227  16.456 -0.2420 -0.7687 -0.3430
  472TMC3    O2 7034   0.791   1.587  15.949 -0.5114 -0.0038  0.0324
  473MPD2     C 7035   0.648   3.699  13.827  0.7041 -0.2752  0.8021
  473MPD2    C1 7036   0.594   3.805  13.755  0.5699 -0.0475 -0.1049
  473MPD2    C2 7037   0.642   3.936  13.773 -0.3227  0.1181 -0.6604
  473MPD2    C3 7038   0.717   3.974  13.886  0.1292 -0.3028 -0.1490
  473MPD2    C4 7039   0.748   3.872  13.970 -0.5063  0.0850  0.1323
  473MPD2    C5 7040   0.726   3.735  13.938 -0.0810  0.0540  0.4708
  473MPD2     H 7041   0.615   4.015  13.704  1.6124 -0.2336 -1.8216
  473MPD2    H1 7042   0.809   3.894  14.057  0.2455 -0.2062 -0.3213
  473MPD2    H2 7043   0.625   3.595  13.811 -0.8223  0.0971  0.5406
  473MPD2    H3 7044   0.758   3.655  14.004  1.1491 -0.9808 -1.3712
  473MPD2     N 7045   0.754   4.109  13.919  0.6081  0.0619 -0.0934
  473MPD2    H5 7046   0.822   4.113  13.995 -0.0092  3.0134  0.2785
  473MPD2    N1 7047   0.528   3.782  13.627  0.1781  0.0714 -0.4053
  473MPD2    H7 7048   0.504   3.867  13.577 -2.8710 -0.0792  0.8292
  474TMC3    C1 7049   0.764   4.349  13.908 -0.4564  0.3303  0.5685
  474TMC3    C2 7050   0.702   4.463  13.861  0.5083  0.2039 -0.3505
  474TMC3    C3 7051   0.750   4.582  13.910 -0.4233  0.7040 -0.6717
  474TMC3    C4 7052   0.870   4.356  13.989  0.3504 -0.0479 -0.1460
  474TMC3    C5 7053   0.908   4.479  14.038 -0.0114  0.5632 -0.4617
  474TMC3    C6 7054   0.848   4.593  14.001  0.5986 -0.6603  0.1491
  474TMC3     C 7055   0.715   4.224  13.855  1.2637  0.4743 -0.3988
  474TMC3     O 7056   0.635   4.252  13.770 -0.8066  0.2238 -0.0579
  474TMC3     H 7057   0.603   4.467  13.818 -0.5561  1.3962  2.2394
  474TMC3    H1 7058   0.931   4.269  14.014 -0.9852 -0.0446  3.1645
  474TMC3    H2 7059   0.873   4.680  14.061  1.2661 -1.0734  0.4779
  474TMC3    C7 7060   1.035   4.473  14.113 -0.3402  0.1108  0.5916
  474TMC3    C8 7061   0.687   4.700  13.858  0.1670 -0.1870 -0.1713
  474TMC3    O1 7062   1.121   4.388  14.092 -0.3643 -0.2577  0.1426
  474TMC3    O2 7063   0.583   4.677  13.793  1.0730  0.0547 -0.6393
  475MPD2     C 7064   4.577   2.369  10.063 -0.3201 -0.2285  0.0641
  475MPD2    C1 7065   4.627   2.485  10.121 -0.3213 -0.5995  0.3444
  475MPD2    C2 7066   4.543   2.566  10.197 -0.2197 -0.0611 -0.5680
  475MPD2    C3 7067   4.411   2.523  10.219 -0.2174  0.4969  0.2559
  475MPD2    C4 7068   4.365   2.404  10.163 -0.2896  0.3721  0.2126
  475MPD2    C5 7069   4.447   2.327  10.087 -0.2901 -0.0468 -0.0214
  475MPD2     H 7070   4.585   2.656  10.241  1.1327 -0.1789 -1.5959
  475MPD2    H1 7071   4.262   2.370  10.160 -1.1077  2.8016  0.9863
  475MPD2    H2 7072   4.640   2.310   9.997  1.1764 -0.6382  1.8642
  475MPD2    H3 7073   4.402   2.239  10.041  0.5599  0.5039 -1.8915
  475MPD2     N 7074   4.325   2.605  10.297  0.0847  0.0822 -0.0023
  475MPD2    H5 7075   4.359   2.695  10.326  1.7190  0.1840 -2.2544
  475MPD2    N1 7076   0.041   2.509  10.102  0.1221 -0.9814 -0.1708
  475MPD2    H7 7077   0.097   2.442  10.051 -1.0426 -2.0417 -0.0627
  476TMC3    C1 7078   0.242   2.633  10.102 -0.3967 -0.3936 -0.2749
  476TMC3    C2 7079   0.241   2.687   9.977  0.1780 -0.4622  0.0193
  476TMC3    C3 7080   0.285   2.816   9.956 -0.0983 -0.6702  0.6745
  476TMC3    C4 7081   0.313   2.697  10.199  0.2432 -0.6418  0.0767
  476TMC3    C5 7082   0.386   2.813  10.170  0.9459  0.6170 -0.1791
  476TMC3    C6 7083   0.363   2.877  10.055 -0.1289 -0.3430  0.1971
  476TMC3     C 7084   0.109   2.618  10.155  0.5382 -0.2135  0.1122
  476TMC3     O 7085   0.085   2.693  10.250  0.1999 -0.2524  0.3251
  476TMC3     H 7086   0.202   2.635   9.890 -3.1952  0.6023  0.8945
  476TMC3    H1 7087   0.314   2.656  10.299  0.2732  0.0413  0.3559
  476TMC3    H2 7088   0.382   2.984  10.057 -1.7039 -0.0261 -2.0442
  476TMC3    C7 7089   0.389   2.913  10.277 -0.5868 -0.1510  0.0830
  476TMC3    C8 7090   0.189   2.902   9.895  0.4602 -0.6224  0.5638
  476TMC3    O1 7091   0.470   3.006  10.280  0.7808  0.2305  0.3553
  476TMC3    O2 7092   0.219   3.022   9.871  0.4978 -0.1937 -0.6226
  477MPD2     C 7093   1.949   4.013  11.784 -0.0580  0.5463 -0.1869
  477MPD2    C1 7094   1.841   3.945  11.815 -0.0073  0.2246  0.1523
  477MPD2    C2 7095   1.858   3.828  11.896 -0.7227 -0.2507 -0.2786
  477MPD2    C3 7096   1.979   3.790  11.948 -0.3033 -0.0190  0.5663
  477MPD2    C4 7097   2.090   3.872  11.912  0.4729  0.3678 -0.2006
  477MPD2    C5 7098   2.070   3.976  11.827  0.0590  0.4601  0.2136
  477MPD2     H 7099   1.776   3.761  11.922 -1.2249 -0.9021 -3.5388
  477MPD2    H1 7100   2.188   3.855  11.955  1.1096  0.4967 -1.5998
  477MPD2    H2 7101   1.948   4.093  11.711  1.2491  0.9150  0.2086
  477MPD2    H3 7102   2.158   4.036  11.806  0.0702  0.4509  0.2354
  477MPD2     N 7103   1.987   3.672  12.022 -0.2497 -0.4188  0.1254
  477MPD2    H5 7104   1.901   3.621  12.040  0.5433 -0.6420  3.1602
  477MPD2    N1 7105   1.724   3.986  11.759 -0.0223 -0.1230 -0.3533
  477MPD2    H7 7106   1.710   4.066  11.698 -0.5949 -1.0893 -1.5031
  478TMC3    C1 7107   1.504   3.982  11.711  0.0518  0.0758  0.4200
  478TMC3    C2 7108   1.383   3.968  11.772  0.1829 -0.1597 -0.6732
  478TMC3    C3 7109   1.280   4.035  11.710 -0.1431  0.6118  0.0244
  478TMC3    C4 7110   1.522   4.041  11.585  0.1887  0.2915 -0.7500
  478TMC3    C5 7111   1.411   4.082  11.520 -0.8907 -0.4197  0.1699
  478TMC3    C6 7112   1.289   4.084  11.579 -0.6103  0.0235 -0.9474
  478TMC3     C 7113   1.608   3.922  11.788 -0.4191  0.2831 -0.5780
  478TMC3     O 7114   1.581   3.857  11.885 -0.1098  0.1276 -0.1736
  478TMC3     H 7115   1.369   3.926  11.871  1.6200  2.2075  0.5302
  478TMC3    H1 7116   1.616   4.038  11.532  0.7134 -1.4168  0.3086
  478TMC3    H2 7117   1.200   4.128  11.535  0.0681 -0.2954 -2.6409
  478TMC3    C7 7118   1.437   4.121  11.378 -0.4078 -0.2157 -0.3434
  478TMC3    C8 7119   1.153   4.058  11.783 -0.0442  0.0766  0.3428
  478TMC3    O1 7120   1.555   4.138  11.349 -0.2300 -0.4575  0.1657
  478TMC3    O2 7121   1.110   3.969  11.859  0.2283 -0.2128  0.2010
  479MPD2     C 7122   0.630   1.381  15.107 -0.4741  0.2507 -0.0380
  479MPD2    C1 7123   0.573   1.278  15.174  0.2210  0.2632 -0.5013
  479MPD2    C2 7124   0.604   1.254  15.310 -0.5294 -0.4708 -0.3739
  479MPD2    C3 7125   0.676   1.348  15.379 -0.2879 -0.6609  0.2495
  479MPD2    C4 7126   0.721   1.461  15.318  0.4035  0.2226  0.1595
  479MPD2    C5 7127   0.700   1.468  15.185 -0.7702  0.4163 -0.2183
  479MPD2     H 7128   0.558   1.164  15.351  2.5155 -1.8861 -0.1008
  479MPD2    H1 7129   0.787   1.532  15.367  1.1717  0.8234 -1.7305
  479MPD2    H2 7130   0.616   1.394  15.000 -1.0740  2.5274  0.3123
  479MPD2    H3 7131   0.751   1.544  15.127 -0.4562  0.7070  0.4346
  479MPD2     N 7132   0.709   1.330  15.517  0.0650 -0.4167  0.1777
  479MPD2    H5 7133   0.782   1.391  15.555 -1.4800  0.7434  1.3021
  479MPD2    N1 7134   0.486   1.195  15.097 -0.4991 -0.1810  0.0185
  479MPD2    H7 7135   0.466   1.230  15.004  0.5876  0.2364 -0.0527
  480TMC3    C1 7136   0.392   1.019  15.679  0.5061  0.2659  0.2627
  480TMC3    C2 7137   0.274   1.084  15.632  0.6428 -0.2714 -0.7076
  480TMC3    C3 7138   0.296   1.205  15.567 -0.4499 -0.3526  0.1833
  480TMC3    C4 7139   0.518   1.059  15.659  0.0301 -0.1600 -0.3099
  480TMC3    C5 7140   0.535   1.178  15.595  0.1087  0.2352 -0.8347
  480TMC3    C6 7141   0.428   1.251  15.550  0.1540 -0.2513 -0.6996
  480TMC3     C 7142   0.368   0.943  15.806 -0.2812 -0.4900 -0.0933
  480TMC3     O 7143   0.457   0.870  15.847 -0.1680  0.0822  0.0228
  480TMC3     H 7144   0.174   1.042  15.629  0.4708 -0.0926  2.1370
  480TMC3    H1 7145   0.602   1.016  15.712  1.8636  1.8166 -1.6239
  480TMC3    H2 7146   0.453   1.349  15.511  0.9105  0.5268  1.7327
  480TMC3    C7 7147   0.671   1.228  15.602 -0.0534 -0.3541 -0.3615
  480TMC3    C8 7148   0.190   1.230  15.466  0.2629  0.0853 -0.2034
  480TMC3    O1 7149   0.725   1.207  15.707  0.1859  0.4443 -0.2219
  480TMC3    O2 7150   0.082   1.171  15.474  0.1297 -0.1140 -0.3504
  481MPD2     C 7151   2.110   0.916  14.217 -0.5495  0.5343 -0.6229
  481MPD2    C1 7152   1.977   0.894  14.238 -0.3176 -0.2220  0.4334
  481MPD2    C2 7153   1.936   0.840  14.362 -0.1406 -0.4824  0.1912
  481MPD2    C3 7154   2.026   0.829  14.463 -1.0482  0.2507 -0.6867
  481MPD2    C4 7155   2.151   0.870  14.442 -0.6848  1.3500 -0.0621
  481MPD2    C5 7156   2.191   0.918  14.323 -0.0607  0.3949 -0.3150
  481MPD2     H 7157   1.837   0.807  14.388 -0.5241  1.1744  0.8228
  481MPD2    H1 7158   2.231   0.861  14.515 -1.0546  2.7775  0.5110
  481MPD2    H2 7159   2.145   0.936  14.116 -0.6260 -1.0222 -0.9451
  481MPD2    H3 7160   2.294   0.944  14.305  0.2550  0.7715  2.0319
  481MPD2     N 7161   2.001   0.775  14.590  0.0875  0.2810 -0.0225
  481MPD2    H5 7162   2.082   0.760  14.648  0.4711 -1.9577 -1.1366
  481MPD2    N1 7163   1.881   0.912  14.135  0.0012  0.1577 -0.5156
  481MPD2    H7 7164   1.908   0.974  14.059  0.2303 -0.8388 -1.2598
  482TMC3    C1 7165   1.667   0.891  14.035 -0.0584 -0.9642 -0.4389
  482TMC3    C2 7166   1.565   0.805  14.002 -0.3080  0.1151 -0.1555
  482TMC3    C3 7167   1.498   0.825  13.883 -0.4091  0.1419  0.7224
  482TMC3    C4 7168   1.702   0.994  13.951  0.9355 -0.1419 -0.2246
  482TMC3    C5 7169   1.629   1.013  13.839  0.6915 -0.2736 -0.7617
  482TMC3    C6 7170   1.534   0.924  13.800 -0.9300 -0.2594  0.2115
  482TMC3     C 7171   1.759   0.843  14.133 -0.4212  0.1566 -0.1072
  482TMC3     O 7172   1.731   0.746  14.198  0.1744 -0.0091  0.0566
  482TMC3     H 7173   1.535   0.734  14.077  1.0846  2.9074  3.0653
  482TMC3    H1 7174   1.790   1.057  13.961  0.0574  1.1034 -0.2084
  482TMC3    H2 7175   1.478   0.941  13.708 -0.2064 -0.3687 -0.2476
  482TMC3    C7 7176   1.690   1.082  13.734  0.4611 -0.2876 -0.4425
  482TMC3    C8 7177   1.408   0.715  13.847 -0.3275 -0.4304 -1.3094
  482TMC3    O1 7178   1.696   1.014  13.632 -0.0910  0.0729 -0.2746
  482TMC3    O2 7179   1.436   0.600  13.877 -0.0640 -0.1272  0.3642
  483TMC3    C1 7180   4.302   3.820   0.615 -0.1286  0.0174  0.0672
  483TMC3    C2 7181   4.340   3.948   0.636 -0.0188 -0.0891 -0.1524
  483TMC3    C3 7182   4.393   3.974   0.755  0.2707  0.2929 -0.0567
  483TMC3    C4 7183   4.296   3.724   0.711  0.2741 -0.8994 -0.3359
  483TMC3    C5 7184   4.364   3.759   0.827  0.2224  0.0775  0.2658
  483TMC3    C6 7185   4.419   3.881   0.846 -0.0823  0.2458  0.2753
  483TMC3     C 7186   4.247   3.785   0.479 -0.4055  0.0505 -0.1459
  483TMC3     O 7187   4.210   3.875   0.410  0.0854  0.1981  0.3758
  483TMC3     H 7188   4.334   4.024   0.559  4.5238 -0.9715 -1.3720
  483TMC3    H1 7189   4.254   3.626   0.693 -0.2650 -1.0705  1.8052
  483TMC3    H2 7190   4.498   3.892   0.920  0.1808  0.7457 -0.0748
  483TMC3    C7 7191   4.406   3.664   0.930  0.3226 -0.1646 -0.4704
  483TMC3    C8 7192   4.500   4.079   0.752 -0.2711  0.7484 -0.0059
  483TMC3    O1 7193   4.415   3.704   1.045  0.6607  0.0588 -0.2835
  483TMC3    O2 7194   4.546   4.105   0.640 -0.1431  0.3514  0.1622
  484MPD2     C 7195   2.634   2.459  12.324 -0.0989  0.0256 -0.0815
  484MPD2    C1 7196   2.675   2.434  12.451 -0.0924  0.5944 -0.1820
  484MPD2    C2 7197   2.797   2.489  12.506 -1.0059  0.2360  0.1134
  484MPD2    C3 7198   2.876   2.583  12.432 -0.8124 -0.6572 -0.2742
  484MPD2    C4 7199   2.825   2.612  12.305 -0.1160 -0.2492 -0.0327
  484MPD2    C5 7200   2.714   2.549  12.252 -0.3064 -0.4515 -0.1786
  484MPD2     H 7201   2.843   2.456  12.599  1.1296 -1.5212 -1.5838
  484MPD2    H1 7202   2.878   2.686  12.246 -0.5335 -1.3081 -1.7441
  484MPD2    H2 7203   2.541   2.416  12.291 -1.4195  1.7463  1.3919
  484MPD2    H3 7204   2.684   2.583  12.153 -0.5935  0.8779  0.3594
  484MPD2     N 7205   2.985   2.655  12.479  0.2919 -0.1883 -0.1490
  484MPD2    H5 7206   3.032   2.718  12.415 -1.4470  3.2842  1.9558
  484MPD2    N1 7207   2.586   2.354  12.518 -0.4884 -0.1466 -0.0102
  484MPD2    H7 7208   2.506   2.325  12.462 -1.7101  1.6282  0.8251
  485TMC3    C1 7209   3.173   2.721  12.604  0.4200  1.0128  0.7183
  485TMC3    C2 7210   3.268   2.667  12.686 -0.4484  0.1198  0.1855
  485TMC3    C3 7211   3.393   2.728  12.703  0.0579 -0.0462  0.7214
  485TMC3    C4 7212   3.196   2.822  12.520  1.1220  0.4612 -0.2564
  485TMC3    C5 7213   3.306   2.892  12.547  0.0627  0.2049 -0.1126
  485TMC3    C6 7214   3.408   2.843  12.630 -0.2916  0.0276  0.2197
  485TMC3     C 7215   3.046   2.650  12.600  0.2339 -0.1110  0.4354
  485TMC3     O 7216   3.021   2.580  12.698  0.2646 -0.2472 -0.3846
  485TMC3     H 7217   3.242   2.583  12.749 -0.8729  0.2665  0.2014
  485TMC3    H1 7218   3.124   2.872  12.456 -0.2522 -2.3847 -0.9184
  485TMC3    H2 7219   3.507   2.885  12.643 -0.1970 -1.0643  2.9983
  485TMC3    C7 7220   3.346   2.970  12.432 -0.0506  0.9541 -0.5193
  485TMC3    C8 7221   3.500   2.633  12.695  0.6537  0.1370 -0.2815
  485TMC3    O1 7222   3.387   3.084  12.454 -0.5877 -0.2249  0.5724
  485TMC3    O2 7223   3.597   2.680  12.639  0.1243 -0.1825  0.4202
  486MPD2     C 7224   0.091   1.630  12.570  0.0258 -0.5449 -0.1416
  486MPD2    C1 7225   4.714   1.578  12.500 -0.5273 -0.9703  1.2949
  486MPD2    C2 7226   4.646   1.664  12.413 -0.5207  0.1876  0.7770
  486MPD2    C3 7227   4.678   1.791  12.401 -0.6958 -0.6135 -0.2267
  486MPD2    C4 7228   0.059   1.839  12.467  0.2340 -0.4838  0.4884
  486MPD2    C5 7229   0.130   1.757  12.552 -1.0307  0.0062  0.6397
  486MPD2     H 7230   4.567   1.626  12.348 -0.4283 -1.9064  1.8847
  486MPD2    H1 7231   0.088   1.943  12.469 -0.9202 -0.1473 -0.6999
  486MPD2    H2 7232   0.153   1.561  12.626  0.1634 -1.7385 -1.7474
  486MPD2    H3 7233   0.219   1.787  12.606 -0.2395 -0.7713 -0.2167
  486MPD2     N 7234   4.601   1.873  12.317  0.2778  0.3411 -0.4554
  486MPD2    H5 7235   4.518   1.833  12.275  0.8811 -0.7313 -0.6356
  486MPD2    N1 7236   4.685   1.436  12.519  0.3111 -0.5400 -0.1624
  486MPD2    H7 7237   0.013   1.387  12.592 -0.1133  0.5073  0.8446
  487TMC3    C1 7238   4.546   1.247  12.501  0.4685  0.6573 -0.2714
  487TMC3    C2 7239   4.490   1.158  12.421 -0.5268 -0.1456  0.0607
  487TMC3    C3 7240   4.489   1.028  12.456 -0.1095 -0.4994 -0.3092
  487TMC3    C4 7241   4.593   1.209  12.621 -0.3818  0.3420  0.3449
  487TMC3    C5 7242   4.588   1.077  12.660  0.2368 -0.2281 -0.5326
  487TMC3    C6 7243   4.541   0.982  12.572  0.8308  0.1614 -0.2901
  487TMC3     C 7244   4.595   1.368  12.442 -0.6427  0.1899  0.0971
  487TMC3     O 7245   4.548   1.405  12.340  0.1414 -0.3168  0.1475
  487TMC3     H 7246   4.434   1.184  12.331 -1.9335 -3.0953  0.0583
  487TMC3    H1 7247   4.606   1.278  12.703 -1.6532 -1.9207  2.4131
  487TMC3    H2 7248   4.580   0.881  12.569 -3.3427 -1.5259  1.3242
  487TMC3    C7 7249   4.630   1.036  12.795  0.1139 -0.1564 -1.6909
  487TMC3    C8 7250   4.455   0.936  12.350 -0.5564  0.3729  0.3694
  487TMC3    O1 7251   4.673   1.126  12.868 -0.4664 -0.0092  0.2702
  487TMC3    O2 7252   4.483   0.974  12.238 -0.0517 -0.1602  0.0674
  488MPD2     C 7253   0.979   2.830  16.328 -0.0681 -0.1865  0.1945
  488MPD2    C1 7254   0.898   2.943  16.362 -0.1557 -0.4233 -0.1091
  488MPD2    C2 7255   0.759   2.925  16.380  0.4917 -0.3902 -0.3751
  488MPD2    C3 7256   0.701   2.801  16.368  0.7015  0.0608  0.1692
  488MPD2    C4 7257   0.773   2.689  16.332 -0.5567  0.1699  0.1023
  488MPD2    C5 7258   0.912   2.711  16.321 -0.0093  0.8580  0.3073
  488MPD2     H 7259   0.700   3.011  16.411 -1.0444 -1.1094 -1.3080
  488MPD2    H1 7260   0.738   2.587  16.324  4.7560 -1.7805  1.4435
  488MPD2    H2 7261   1.087   2.822  16.321 -0.0949  0.4703 -0.8825
  488MPD2    H3 7262   0.975   2.623  16.316  0.2673  0.9565  1.7943
  488MPD2     N 7263   0.561   2.788  16.386  0.5005  0.0497 -0.5089
  488MPD2    H5 7264   0.509   2.871  16.411 -0.4624 -1.0104  1.0411
  488MPD2    N1 7265   0.950   3.068  16.389  0.7017 -1.1554 -0.0664
  488MPD2    H7 7266   0.887   3.140  16.422 -1.2585 -2.5039 -0.9061
  489TMC3    C1 7267   0.354   2.684  16.429 -0.1286 -0.3862 -0.0544
  489TMC3    C2 7268   0.284   2.798  16.405  0.1624 -0.2092 -0.9242
  489TMC3    C3 7269   0.156   2.806  16.459  0.3986  0.3362 -0.8629
  489TMC3    C4 7270   0.302   2.581  16.498  0.3722  0.1051 -0.2020
  489TMC3    C5 7271   0.177   2.588  16.555  0.4298  0.3010  0.5801
  489TMC3    C6 7272   0.102   2.703  16.534 -0.1504 -0.3717 -0.0076
  489TMC3     C 7273   0.495   2.668  16.387 -0.3469  0.2640  1.0700
  489TMC3     O 7274   0.532   2.555  16.379 -0.2581  0.1832  0.5621
  489TMC3     H 7275   0.327   2.888  16.363  1.3838 -0.8226 -0.9882
  489TMC3    H1 7276   0.369   2.500  16.525 -2.8136 -2.0034  1.2907
  489TMC3    H2 7277   0.010   2.725  16.588 -0.5165  0.6639 -1.0495
  489TMC3    C7 7278   0.163   2.527  16.684 -0.5810  0.5516  0.0405
  489TMC3    C8 7279   0.082   2.931  16.464  0.1038  0.1570 -0.8917
  489TMC3    O1 7280   0.264   2.480  16.734 -0.1991  0.3750  0.0127
  489TMC3    O2 7281   4.711   2.945  16.535 -0.5665 -0.2079  0.4088
  490MPD2     C 7282   1.060   2.218  17.595  0.0853  0.2481  0.3469
  490MPD2    C1 7283   1.007   2.144  17.698  0.3163 -0.0024  0.1611
  490MPD2    C2 7284   1.090   2.106   0.101  0.0263 -0.3283 -0.5363
  490MPD2    C3 7285   1.221   2.147   0.114 -0.8843  0.4628  0.0697
  490MPD2    C4 7286   1.278   2.230   0.016 -0.3637 -0.2720  0.5206
  490MPD2    C5 7287   1.193   2.259  17.607 -0.1644 -0.0032 -0.3022
  490MPD2     H 7288   1.043   2.048   0.179 -2.7926  0.6643 -1.4907
  490MPD2    H1 7289   1.381   2.263   0.016 -1.0653  1.9071 -0.6986
  490MPD2    H2 7290   1.000   2.236  17.507  1.3050 -1.6973 -0.9039
  490MPD2    H3 7291   1.232   2.323  17.529  0.0477 -0.2052 -0.3635
  490MPD2     N 7292   1.301   2.095   0.216  0.1021 -0.6760 -0.4854
  490MPD2    H5 7293   1.401   2.108   0.211  0.0917 -0.7759 -0.8929
  490MPD2    N1 7294   0.877   2.086  17.691 -0.3898 -0.0886  0.1430
  490MPD2    H7 7295   0.859   2.021   0.069  2.3239 -0.0954  0.7582
  491TMC3    C1 7296   0.666   2.033  17.609  0.7723 -0.3918  0.1409
  491TMC3    C2 7297   0.645   1.956   0.021  0.7068  0.5552 -0.4928
  491TMC3    C3 7298   0.532   1.877   0.010  0.7876 -0.4221 -0.4055
  491TMC3    C4 7299   0.600   2.025  17.491  0.0835  0.1769  0.2107
  491TMC3    C5 7300   0.488   1.950  17.490  0.1522 -0.4513  0.6453
  491TMC3    C6 7301   0.460   1.868  17.595  0.0715 -0.0238 -0.3137
  491TMC3     C 7302   0.776   2.120  17.600  0.6659 -0.7195 -0.2580
  491TMC3     O 7303   0.784   2.204  17.514  0.5493  0.3908  0.6326
  491TMC3     H 7304   0.685   1.971   0.121  0.1443 -1.2647  0.0040
  491TMC3    H1 7305   0.611   2.100  17.414  0.2860 -0.0028  0.0659
  491TMC3    H2 7306   0.392   1.785  17.584  1.8274 -1.6470  1.1641
  491TMC3    C7 7307   0.435   1.916  17.361 -0.4998 -0.1673  0.2229
  491TMC3    C8 7308   0.494   1.802   0.132 -0.0164 -0.2830  0.1707
  491TMC3    O1 7309   0.405   1.802  17.345 -0.2696  0.6502 -0.4287
  491TMC3    O2 7310   0.377   1.799   0.171 -0.1726  0.2574  0.5485
  492MPD2     C 7311   1.529   2.837  11.742 -0.0368 -0.3660  0.5136
  492MPD2    C1 7312   1.460   2.797  11.627  0.1553  0.0894 -0.7256
  492MPD2    C2 7313   1.366   2.698  11.632  0.1655  0.3936 -0.6720
  492MPD2    C3 7314   1.331   2.634  11.761  0.0835 -0.2541 -0.3281
  492MPD2    C4 7315   1.396   2.684  11.866  0.5003  0.2383  0.6912
  492MPD2    C5 7316   1.497   2.772  11.860 -0.7668 -0.5932 -0.6953
  492MPD2     H 7317   1.313   2.665  11.544 -1.3303 -1.2595  0.8707
  492MPD2    H1 7318   1.386   2.629  11.959  1.1890 -3.1839 -1.2581
  492MPD2    H2 7319   1.613   2.905  11.743  1.0728 -1.7267 -0.2614
  492MPD2    H3 7320   1.556   2.793  11.949 -1.9324 -2.3889  0.4932
  492MPD2     N 7321   1.236   2.529  11.782  0.4174 -0.3527 -0.2754
  492MPD2    H5 7322   1.216   2.500  11.877 -1.6801  1.3392 -0.1954
  492MPD2    N1 7323   1.506   2.853  11.500  0.5297 -0.2584 -0.4101
  492MPD2    H7 7324   1.597   2.898  11.501  0.9989 -1.2382  0.6780
  493TMC3    C1 7325   1.519   2.876  11.262 -0.1535 -0.3351 -0.3873
  493TMC3    C2 7326   1.613   2.972  11.271  0.3962 -0.3338 -0.0925
  493TMC3    C3 7327   1.671   3.016  11.148 -0.3281  0.1995 -0.4782
  493TMC3    C4 7328   1.491   2.816  11.140  0.0643 -0.1109  0.0286
  493TMC3    C5 7329   1.557   2.852  11.030 -0.1616  0.6107 -0.5236
  493TMC3    C6 7330   1.646   2.953  11.028  0.2449  0.2525 -0.4004
  493TMC3     C 7331   1.453   2.823  11.377  0.2712  0.6485 -0.2209
  493TMC3     O 7332   1.342   2.777  11.354  0.2358 -0.2888 -0.4367
  493TMC3     H 7333   1.645   3.025  11.360 -3.2691  0.2190  0.8901
  493TMC3    H1 7334   1.414   2.740  11.134 -1.1925  1.1927 -0.3722
  493TMC3    H2 7335   1.714   2.961  10.945  0.5341  0.0872 -0.1806
  493TMC3    C7 7336   1.503   2.809  10.902 -0.1770  0.2709  0.3187
  493TMC3    C8 7337   1.790   3.101  11.158 -0.0251  0.2012  0.2437
  493TMC3    O1 7338   1.487   2.889  10.810 -0.4190 -0.4125 -0.0365
  493TMC3    O2 7339   1.831   3.124  11.269  0.3255 -0.0547  0.3834
  494TMC3    C1 7340   1.667   3.360   0.588 -0.8064  0.1420  0.0118
  494TMC3    C2 7341   1.707   3.230   0.555 -0.0618 -0.1858 -0.0137
  494TMC3    C3 7342   1.766   3.205   0.437  0.4594 -0.1712  0.5992
  494TMC3    C4 7343   1.687   3.461   0.499  0.1431  0.2430  0.3498
  494TMC3    C5 7344   1.756   3.434   0.384 -0.1480  0.1095  0.2713
  494TMC3    C6 7345   1.794   3.307   0.354 -0.3258  0.5537 -0.4510
  494TMC3     C 7346   1.563   3.392   0.682  0.4808  0.8564 -0.1745
  494TMC3     O 7347   1.492   3.485   0.653  0.5177 -0.1903 -0.2757
  494TMC3     H 7348   1.668   3.148   0.613 -1.3890  0.0727 -0.5447
  494TMC3    H1 7349   1.656   3.560   0.531  1.6479  0.1959  1.9586
  494TMC3    H2 7350   1.861   3.295   0.269 -0.2953  1.4881 -0.5681
  494TMC3    C7 7351   1.802   3.546   0.291 -0.6180 -0.1968 -0.4994
  494TMC3    C8 7352   1.783   3.066   0.402  0.6047 -0.2684 -0.0876
  494TMC3    O1 7353   1.839   3.507   0.182  0.1791 -0.5740  0.1377
  494TMC3    O2 7354   1.800   2.978   0.486 -0.0183  1.4618  0.1506
  495TMC3    C1 7355   0.546   1.748  14.714  0.0311 -0.5450  0.7635
  495TMC3    C2 7356   0.452   1.761  14.618  0.7035  0.6731 -0.5232
  495TMC3    C3 7357   0.315   1.756  14.644  0.4510  0.0132  0.4353
  495TMC3    C4 7358   0.503   1.750  14.845  0.2149  0.3881 -0.3008
  495TMC3    C5 7359   0.370   1.752  14.877 -0.0593 -0.6116  0.1626
  495TMC3    C6 7360   0.280   1.752  14.775  0.6325  0.6168 -0.1151
  495TMC3     C 7361   0.660   1.667  14.691 -0.5695  0.0648  0.0243
  495TMC3     O 7362   0.743   1.655  14.780  0.2531 -0.2174  0.3179
  495TMC3     H 7363   0.484   1.780  14.516 -0.3878 -0.1901 -1.0241
  495TMC3    H1 7364   0.579   1.732  14.920  0.5203  2.6505 -0.0460
  495TMC3    H2 7365   0.173   1.749  14.793  0.8526  3.1095  1.5007
  495TMC3    C7 7366   0.342   1.677  14.991  0.0530 -0.2596  0.2695
  495TMC3    C8 7367   0.221   1.706  14.539 -0.0479 -0.5208 -1.2246
  495TMC3    O1 7368   0.415   1.691  15.086 -0.4164 -0.5196 -0.4230
  495TMC3    O2 7369   0.114   1.672  14.576 -0.5047 -0.3219  0.0636
  496MPD2     C 7370   2.391   1.298  15.442  0.6125  0.1726  0.2895
  496MPD2    C1 7371   2.349   1.164  15.445  0.6279 -0.4555 -0.5662
  496MPD2    C2 7372   2.274   1.124  15.560  0.5729 -0.9676 -0.3316
  496MPD2    C3 7373   2.241   1.207  15.665  0.7030  0.3697 -0.1163
  496MPD2    C4 7374   2.289   1.338  15.657  0.5954 -0.2929  0.3651
  496MPD2    C5 7375   2.347   1.381  15.546  0.1472 -0.0188 -0.2254
  496MPD2     H 7376   2.232   1.025  15.576 -0.0204 -0.8853 -1.3486
  496MPD2    H1 7377   2.271   1.415  15.731  0.4413 -0.8341  0.8887
  496MPD2    H2 7378   2.446   1.345  15.361 -1.7623 -0.6449 -1.8082
  496MPD2    H3 7379   2.373   1.486  15.540  0.7861 -0.0111  2.4740
  496MPD2     N 7380   2.186   1.145  15.781 -0.4063  0.2385  0.6492
  496MPD2    H5 7381   2.134   1.060  15.766 -1.4371  0.9830  0.0190
  496MPD2    N1 7382   2.396   1.076  15.342  0.1250 -0.2306 -0.9889
  496MPD2    H7 7383   2.447   1.116  15.265 -0.0808 -0.2864 -1.1543
  497TMC3    C1 7384   2.109   1.130  15.999 -0.0338 -0.3665  0.7427
  497TMC3    C2 7385   2.002   1.058  15.959 -0.0112 -0.6246 -0.4934
  497TMC3    C3 7386   1.924   0.990  16.051 -0.0559 -0.0145 -0.3249
  497TMC3    C4 7387   2.147   1.134  16.128 -0.2489  0.3684 -0.1222
  497TMC3    C5 7388   2.072   1.071  16.219 -0.7962  0.0650  0.0554
  497TMC3    C6 7389   1.958   0.994  16.183 -0.2043 -0.4331 -0.2194
  497TMC3     C 7390   2.181   1.206  15.904 -0.1774  0.3278  0.5275
  497TMC3     O 7391   2.273   1.275  15.945  0.3110  0.3390  0.1052
  497TMC3     H 7392   1.963   1.075  15.860  0.5042 -0.6748 -0.7042
  497TMC3    H1 7393   2.230   1.199  16.155 -0.1377  0.3152 -0.3322
  497TMC3    H2 7394   1.896   0.953  16.261 -0.7840 -0.3707 -0.6447
  497TMC3    C7 7395   2.096   1.077  16.364  0.6253  0.1507  0.5798
  497TMC3    C8 7396   1.802   0.931  16.007  0.4699  0.0558 -0.5283
  497TMC3    O1 7397   1.999   1.071  16.436  0.2131  0.2071  0.6294
  497TMC3    O2 7398   1.708   0.916  16.081 -0.1965 -0.0501  0.2524
  498MPD2     C 7399   2.869   2.715   9.581 -0.6894  0.5059 -0.4765
  498MPD2    C1 7400   2.904   2.696   9.712  0.3886  0.2238 -0.3628
  498MPD2    C2 7401   2.816   2.622   9.790  0.3037 -0.3092 -0.4591
  498MPD2    C3 7402   2.714   2.551   9.741  0.0060  0.3203  0.0719
  498MPD2    C4 7403   2.691   2.553   9.604 -0.1530  0.5016  0.6101
  498MPD2    C5 7404   2.772   2.633   9.526 -0.1707 -1.4086 -0.0498
  498MPD2     H 7405   2.836   2.621   9.897  1.2537  0.4461 -0.6349
  498MPD2    H1 7406   2.609   2.500   9.558 -0.8964  1.3720  0.9485
  498MPD2    H2 7407   2.923   2.782   9.515  1.0371 -0.7783 -0.3535
  498MPD2    H3 7408   2.758   2.635   9.419  0.9223  0.4128 -0.1676
  498MPD2     N 7409   2.647   2.469   9.835 -0.1894 -0.6424  0.6273
  498MPD2    H5 7410   2.672   2.462   9.933 -0.9937  0.7195  0.9313
  498MPD2    N1 7411   3.020   2.746   9.772 -0.1710  0.1945  0.1980
  498MPD2    H7 7412   3.045   2.715   9.865  1.6691 -1.6226 -0.9100
  499TMC3    C1 7413   3.244   2.797   9.787 -0.1338  0.9779  0.1101
  499TMC3    C2 7414   3.283   2.679   9.839  0.5782  0.3464  0.0196
  499TMC3    C3 7415   3.405   2.670   9.896 -0.1353  0.1554  0.3752
  499TMC3    C4 7416   3.332   2.902   9.782 -0.4081  0.5082 -0.3039
  499TMC3    C5 7417   3.447   2.898   9.858  0.0451 -0.5019 -0.5266
  499TMC3    C6 7418   3.490   2.778   9.912  0.6047  0.9687  0.8858
  499TMC3     C 7419   3.126   2.807   9.704 -0.1769  0.0790 -0.3115
  499TMC3     O 7420   3.139   2.873   9.601  0.7728  0.4174 -0.5512
  499TMC3     H 7421   3.231   2.591   9.803  0.6559  0.2628  0.1102
  499TMC3    H1 7422   3.308   2.993   9.728 -0.8227  0.9429  0.6030
  499TMC3    H2 7423   3.585   2.768   9.962  1.3345 -1.1087 -0.9359
  499TMC3    C7 7424   3.538   3.008   9.841 -0.2666  0.0923  0.2357
  499TMC3    C8 7425   3.480   2.543   9.903 -0.9213 -0.4831 -0.6252
  499TMC3    O1 7426   3.517   3.098   9.758  0.6983 -0.2331  0.6052
  499TMC3    O2 7427   3.599   2.545   9.875  0.0403 -0.2889 -0.8022
  500MPD2     C 7428   0.526   3.825  10.599  0.3127 -0.2822  1.3707
  500MPD2    C1 7429   0.586   3.800  10.479  0.2020 -0.0859  0.2346
  500MPD2    C2 7430   0.500   3.801  10.370 -0.6223  0.2095  0.1712
  500MPD2    C3 7431   0.362   3.783  10.382 -1.0049 -0.2084  0.8605
  500MPD2    C4 7432   0.308   3.786  10.507  0.2347  0.4031  0.3791
  500MPD2    C5 7433   0.390   3.822  10.614  0.8273  0.0981 -0.3632
  500MPD2     H 7434   0.543   3.802  10.270 -1.0580 -0.7915 -0.0251
  500MPD2    H1 7435   0.201   3.785  10.525  0.4831 -1.5647  1.7485
  500MPD2    H2 7436   0.582   3.838  10.691 -1.0063  0.4228  2.0662
  500MPD2    H3 7437   0.340   3.836  10.709  2.3305 -0.8719  0.5625
  500MPD2     N 7438   0.270   3.764  10.279  0.1186 -0.2496  0.1225
  500MPD2    H5 7439   0.170   3.761  10.293  0.1873 -0.2853  0.5986
  500MPD2    N1 7440   0.727   3.794  10.456 -0.2223 -0.4231 -0.0008
  500MPD2    H7 7441   0.765   3.789  10.362  1.0042  2.1482  0.3581
  501TMC3    C1 7442   0.958   3.763  10.525  0.1373 -0.1072  1.0170
  501TMC3    C2 7443   0.998   3.778  10.393 -0.1525  0.2830  0.4684
  501TMC3    C3 7444   1.124   3.836  10.370 -0.4524  0.1530 -0.0344
  501TMC3    C4 7445   1.046   3.778  10.624 -0.3312  0.1331  0.4602
  501TMC3    C5 7446   1.175   3.822  10.596  0.1393  0.0276 -0.0317
  501TMC3    C6 7447   1.214   3.856  10.470  0.2345  0.1108 -0.0881
  501TMC3     C 7448   0.810   3.782  10.562 -0.1589 -0.7252  0.8111
  501TMC3     O 7449   0.794   3.794  10.681 -0.0438  0.7619  0.4287
  501TMC3     H 7450   0.922   3.768  10.317  1.3711  1.0443 -1.1364
  501TMC3    H1 7451   1.022   3.751  10.726 -0.7770  0.6731  0.5018
  501TMC3    H2 7452   1.315   3.887  10.444 -1.0784  3.0422 -1.6168
  501TMC3    C7 7453   1.282   3.829  10.695 -0.0745  0.7412 -0.5872
  501TMC3    C8 7454   1.170   3.879  10.235  0.2077  0.3058 -0.3288
  501TMC3    O1 7455   1.238   3.801  10.808 -0.2388  0.2820 -0.7966
  501TMC3    O2 7456   1.285   3.865  10.204 -0.0951  0.4039 -0.1526
  502TMC3    C1 7457   0.082   2.630  15.145  0.1777 -0.4089 -0.8367
  502TMC3    C2 7458   0.037   2.742  15.215 -0.5728 -0.3926 -0.1547
  502TMC3    C3 7459   4.626   2.746  15.258  0.2054  0.4517 -0.6778
  502TMC3    C4 7460   4.718   2.525  15.116 -0.0084  0.3913 -0.0648
  502TMC3    C5 7461   4.585   2.541  15.154  0.1839 -0.2591 -0.9598
  502TMC3    C6 7462   4.537   2.644  15.231  0.5840 -0.0406  0.2444
  502TMC3     C 7463   0.206   2.590  15.203  0.3381  0.0051 -0.1018
  502TMC3     O 7464   0.297   2.673  15.211  0.0711 -0.0653  0.0649
  502TMC3     H 7465   0.111   2.810  15.256 -1.5018  0.0516  0.8019
  502TMC3    H1 7466   0.025   2.443  15.053 -0.9323  0.0574 -0.0903
  502TMC3    H2 7467   4.432   2.650  15.256  0.6049 -0.4836  0.4445
  502TMC3    C7 7468   4.509   2.419  15.152 -1.2282 -0.4562 -0.1603
  502TMC3    C8 7469   4.577   2.880  15.274  0.1766 -0.3701  0.2525
  502TMC3    O1 7470   4.572   2.319  15.144 -0.4868  0.5169  0.2072
  502TMC3    O2 7471   4.657   2.969  15.250  0.5401  0.2966 -0.3927
  503MPD2     C 7472   2.146   2.756  16.874 -0.5584  0.3405 -0.2684
  503MPD2    C1 7473   2.102   2.718  16.997 -0.1580 -0.2992  0.1465
  503MPD2    C2 7474   2.158   2.601  17.048 -0.1608 -0.2701  0.5294
  503MPD2    C3 7475   2.237   2.516  16.965 -0.2506  0.9932  0.8430
  503MPD2    C4 7476   2.269   2.565  16.840  0.1197  0.0727 -1.2541
  503MPD2    C5 7477   2.223   2.684  16.798 -0.2985  0.3194  0.2922
  503MPD2     H 7478   2.117   2.577  17.146  0.8319 -0.5377  0.8898
  503MPD2    H1 7479   2.331   2.510  16.770  0.7623  0.0403 -0.6561
  503MPD2    H2 7480   2.106   2.846  16.829  0.0331 -1.2026 -3.8762
  503MPD2    H3 7481   2.248   2.725  16.701  0.4515  0.3963  0.5171
  503MPD2     N 7482   2.276   2.388  17.010 -0.4435  0.1003 -0.3768
  503MPD2    H5 7483   2.245   2.368  17.105  1.2189  0.2744  0.2025
  503MPD2    N1 7484   2.002   2.783  17.075  0.1679 -0.9583  0.1393
  503MPD2    H7 7485   1.988   2.747  17.168 -0.0623 -2.7449 -0.5849
  504TMC3    C1 7486   2.366   2.171  17.016  0.3104  0.3665 -0.7242
  504TMC3    C2 7487   2.295   2.159  17.133 -0.0264  0.2444  0.4956
  504TMC3    C3 7488   2.358   2.084  17.223 -0.4509 -0.0083  0.1353
  504TMC3    C4 7489   2.499   2.136  17.009  0.5127 -0.5542  0.1272
  504TMC3    C5 7490   2.554   2.062  17.109  0.0307  0.0642  0.0678
  504TMC3    C6 7491   2.490   2.038  17.230  0.0728 -0.2952 -0.8837
  504TMC3     C 7492   2.334   2.294  16.937 -0.4245  0.5677  0.1254
  504TMC3     O 7493   2.369   2.290  16.818 -0.2154  0.2257 -1.5904
  504TMC3     H 7494   2.198   2.204  17.152 -0.5987 -1.0552  0.5900
  504TMC3    H1 7495   2.551   2.178  16.923 -0.0766 -1.2354 -0.5654
  504TMC3    H2 7496   2.517   1.967  17.306 -0.5336  1.0298  0.5700
  504TMC3    C7 7497   2.680   2.005  17.070  0.5367 -0.0996 -0.2453
  504TMC3    C8 7498   2.268   2.044  17.328  0.1317  0.5444  0.6668
  504TMC3    O1 7499   2.708   2.016  16.954  0.6502 -0.0259  0.1321
  504TMC3    O2 7500   2.156   2.013  17.290  0.3655  0.0797  0.6075
  505MPD2     C 7501   2.221   1.598  10.864  0.3387  0.4178  0.4696
  505MPD2    C1 7502   2.276   1.514  10.767  0.1074  0.4007 -0.9970
  505MPD2    C2 7503   2.411   1.497  10.756  1.2087 -0.5928 -0.8377
  505MPD2    C3 7504   2.494   1.566  10.842 -0.3136 -0.4029  0.7774
  505MPD2    C4 7505   2.447   1.652  10.936 -0.0625  0.2201 -0.1841
  505MPD2    C5 7506   2.308   1.669  10.946  0.2687  0.1393 -0.5806
  505MPD2     H 7507   2.457   1.430  10.684  1.3494 -0.8009 -0.5503
  505MPD2    H1 7508   2.511   1.714  10.998  0.1855  0.0922 -0.3139
  505MPD2    H2 7509   2.115   1.617  10.869  0.1137 -0.7167 -0.0810
  505MPD2    H3 7510   2.269   1.742  11.016 -1.6198  1.4701 -2.9902
  505MPD2     N 7511   2.633   1.537  10.821 -0.0578 -0.2652  0.3204
  505MPD2    H5 7512   2.650   1.469  10.747  0.8912  0.9460 -0.5655
  505MPD2    N1 7513   2.183   1.451  10.676  0.2099 -0.3800  0.2396
  505MPD2    H7 7514   2.085   1.479  10.677  0.9802  2.2614  1.4172
  506TMC3    C1 7515   2.114   1.289  10.516 -0.3998 -1.3055  0.0539
  506TMC3    C2 7516   2.073   1.377  10.426 -0.1896  0.0002  0.5550
  506TMC3    C3 7517   2.025   1.320  10.310  0.1899  0.1296 -0.3273
  506TMC3    C4 7518   2.121   1.149  10.487 -0.5323  0.3554  0.0245
  506TMC3    C5 7519   2.088   1.104  10.366 -0.6920  0.6514  0.4171
  506TMC3    C6 7520   2.022   1.189  10.281  0.4975 -0.9012 -0.4326
  506TMC3     C 7521   2.213   1.343  10.603 -0.5220 -1.1235 -0.6081
  506TMC3     O 7522   2.314   1.269  10.618  0.0011  0.3698  0.1958
  506TMC3     H 7523   2.081   1.484  10.438  0.4202  0.2620 -2.2079
  506TMC3    H1 7524   2.153   1.077  10.562 -0.7895  0.5087  0.2829
  506TMC3    H2 7525   1.977   1.156  10.187  0.2860 -3.8778  0.7074
  506TMC3    C7 7526   2.208   1.040  10.307  1.7194 -0.4289  0.0182
  506TMC3    C8 7527   1.971   1.405  10.203 -1.7610 -0.6218  0.4925
  506TMC3    O1 7528   2.193   0.985  10.203 -0.3579  0.4640 -0.0279
  506TMC3    O2 7529   1.886   1.356  10.126  0.0884  0.3502  0.4698
  507TMC3    C1 7530   2.968   2.364  14.729  0.1185  0.1961 -0.4792
  507TMC3    C2 7531   2.927   2.244  14.683 -0.4598 -0.3680 -0.1729
  507TMC3    C3 7532   2.955   2.211  14.553 -0.3024  0.4257  0.1720
  507TMC3    C4 7533   3.041   2.456  14.655 -0.3165 -0.3610  0.5720
  507TMC3    C5 7534   3.066   2.416  14.524 -0.4097 -0.3690  0.4563
  507TMC3    C6 7535   3.034   2.290  14.476 -0.1778 -0.4664 -0.6730
  507TMC3     C 7536   2.998   2.368  14.873 -0.0830  0.6217  0.0610
  507TMC3     O 7537   3.040   2.478  14.911 -0.0060  0.2751 -0.4518
  507TMC3     H 7538   2.869   2.167  14.733  0.6527  0.5544  2.5685
  507TMC3    H1 7539   3.089   2.539  14.706 -0.1861 -0.6618  0.9385
  507TMC3    H2 7540   3.047   2.253  14.375  1.9585  1.4364 -1.0998
  507TMC3    C7 7541   3.021   2.519  14.428  0.5283 -0.5629  0.7547
  507TMC3    C8 7542   2.830   2.187  14.493  0.1866 -0.2740  0.1288
  507TMC3    O1 7543   2.987   2.474  14.315  0.2467  0.0162 -0.1619
  507TMC3    O2 7544   2.748   2.116  14.555 -0.6884  0.2493  0.6493
  508MPD2     C 7545   3.627   0.084  16.122  0.5998 -0.0711 -0.1664
  508MPD2    C1 7546   3.724   0.178  16.130 -0.0648  0.0896  0.1814
  508MPD2    C2 7547   3.732   0.276  16.027 -0.1144 -0.1376 -0.0403
  508MPD2    C3 7548   3.635   0.274  15.924  0.1223  1.1591 -0.3756
  508MPD2    C4 7549   3.546   0.165  15.917 -0.3605 -0.8038 -0.2421
  508MPD2    C5 7550   3.545   0.069  16.019 -0.4259  1.0110 -0.1266
  508MPD2     H 7551   3.803   0.357  16.035 -0.3308 -0.0424  0.9626
  508MPD2    H1 7552   3.476   0.145  15.836 -1.8460 -0.1360  0.8659
  508MPD2    H2 7553   3.610   0.003  16.193 -0.0809  0.7497  0.5992
  508MPD2    H3 7554   3.486   4.702  16.010  1.6100 -0.3243  0.0095
  508MPD2     N 7555   3.650   0.370  15.821  0.1777 -0.7924  0.4594
  508MPD2    H5 7556   3.725   0.438  15.828  1.2223 -1.8467 -0.3958
  508MPD2    N1 7557   3.794   0.178  16.259  0.7045 -0.0812  0.3635
  508MPD2    H7 7558   3.765   0.106  16.324  0.6725  0.9798  1.5432
  509TMC3    C1 7559   3.569   0.647  15.480  0.0814 -0.5064 -0.2396
  509TMC3    C2 7560   3.699   0.688  15.487 -0.2739 -0.5058 -0.7716
  509TMC3    C3 7561   3.791   0.615  15.555 -0.4379 -0.4049 -0.1537
  509TMC3    C4 7562   3.525   0.536  15.544  0.1664 -0.0405  0.2963
  509TMC3    C5 7563   3.620   0.469  15.618  0.2438 -0.1259 -0.6097
  509TMC3    C6 7564   3.755   0.502  15.625  0.2826  0.3186 -0.0004
  509TMC3     C 7565   3.483   0.696  15.379  0.3607 -0.3991 -0.2729
  509TMC3     O 7566   3.365   0.671  15.384 -0.1158 -0.7049  0.6292
  509TMC3     H 7567   3.732   0.776  15.434 -2.1901 -0.4494 -1.8944
  509TMC3    H1 7568   3.427   0.496  15.521  0.3379 -0.3647  0.1270
  509TMC3    H2 7569   3.830   0.446  15.679  0.7890  0.4076 -0.6090
  509TMC3    C7 7570   3.566   0.375  15.708  0.2735  0.7447 -0.3364
  509TMC3    C8 7571   3.931   0.641  15.525  0.3571  0.6514 -0.4085
  509TMC3    O1 7572   3.463   0.319  15.674  0.2880 -0.1872  0.2025
  509TMC3    O2 7573   4.000   0.542  15.499 -0.2140 -0.4324 -0.0427
  510MPD2     C 7574   2.253   1.914  14.685 -0.3471  0.4337  0.9382
  510MPD2    C1 7575   2.224   1.781  14.683 -0.4050 -0.2905 -0.2732
  510MPD2    C2 7576   2.319   1.699  14.618 -0.6612  0.2072  0.0040
  510MPD2    C3 7577   2.408   1.758  14.536  0.8455 -0.5833  0.0170
  510MPD2    C4 7578   2.439   1.890  14.539 -0.0137 -0.2454  0.5692
  510MPD2    C5 7579   2.361   1.968  14.616  0.1511  0.1463 -0.4292
  510MPD2     H 7580   2.327   1.592  14.634  1.7616  0.5259  1.0362
  510MPD2    H1 7581   2.509   1.929  14.466  0.4187 -1.2163  0.4778
  510MPD2    H2 7582   2.174   1.978  14.724 -0.3587  1.5862 -0.9856
  510MPD2    H3 7583   2.396   2.069  14.600  0.8084 -0.3294 -2.0035
  510MPD2     N 7584   2.489   1.678  14.454  0.2787  0.3072  0.1800
  510MPD2    H5 7585   2.490   1.579  14.475  1.0272  0.2989  0.1228
  510MPD2    N1 7586   2.105   1.735  14.738  0.2854 -0.4994  0.3660
  510MPD2    H7 7587   2.058   1.800  14.801 -1.1419  1.8629 -3.1286
  511TMC3    C1 7588   1.901   1.618  14.746  0.6433 -0.3369  0.1693
  511TMC3    C2 7589   1.870   1.661  14.870  0.1587 -0.2576 -0.1641
  511TMC3    C3 7590   1.748   1.622  14.919  0.3378 -0.5154  0.1637
  511TMC3    C4 7591   1.816   1.533  14.674  0.3877  0.1243 -0.2741
  511TMC3    C5 7592   1.702   1.491  14.730 -0.6397 -0.4438 -0.5963
  511TMC3    C6 7593   1.666   1.526  14.861  0.2592  0.5673 -0.4056
  511TMC3     C 7594   2.042   1.616  14.709 -0.0344  0.3999 -0.7317
  511TMC3     O 7595   2.076   1.533  14.626  0.0845  0.0503  0.3049
  511TMC3     H 7596   1.939   1.713  14.935 -0.5528 -0.6498  0.9282
  511TMC3    H1 7597   1.832   1.520  14.568 -0.3173  0.3817 -0.4108
  511TMC3    H2 7598   1.570   1.503  14.906 -1.4914  1.9849 -3.4764
  511TMC3    C7 7599   1.598   1.432  14.639 -0.3029  0.1880 -0.0239
  511TMC3    C8 7600   1.734   1.647  15.060  0.1859  0.3600 -0.5205
  511TMC3    O1 7601   1.616   1.466  14.523  0.4546 -0.6168  0.2060
  511TMC3    O2 7602   1.787   1.743  15.116  0.6044  0.5540  0.4134
  512TMC3    C1 7603   1.364   1.574  12.941 -0.3413  0.2976  0.0190
  512TMC3    C2 7604   1.387   1.527  13.070 -0.0600 -0.0108 -0.7973
  512TMC3    C3 7605   1.325   1.410  13.100  0.0684 -0.9435 -0.3331
  512TMC3    C4 7606   1.263   1.519  12.868 -0.1756 -1.3747 -0.5636
  512TMC3    C5 7607   1.187   1.419  12.923  0.0296  0.5353 -0.7392
  512TMC3    C6 7608   1.213   1.362  13.043  0.0508 -0.4145 -0.2470
  512TMC3     C 7609   1.476   1.640  12.880 -0.3114  0.7473  0.2404
  512TMC3     O 7610   1.562   1.694  12.947 -0.1088  0.3234 -0.8281
  512TMC3     H 7611   1.475   1.561  13.123  1.2919 -1.3094 -2.2174
  512TMC3    H1 7612   1.242   1.551  12.766 -0.4806 -3.1523 -1.0569
  512TMC3    H2 7613   1.162   1.272  13.078  1.0058 -0.3100  1.4387
  512TMC3    C7 7614   1.080   1.361  12.846  0.4102 -0.7006  1.3443
  512TMC3    C8 7615   1.355   1.343  13.237 -0.9115  0.0178  0.6969
  512TMC3    O1 7616   1.021   1.433  12.761 -0.6703  0.3235  0.3496
  512TMC3    O2 7617   1.346   1.220  13.236  0.0061  0.1865 -0.1502
  513MPD2     C 7618   3.187   1.256  13.159  0.1346 -0.1101 -0.6420
  513MPD2    C1 7619   3.086   1.187  13.226 -0.4342  0.3563  0.6108
  513MPD2    C2 7620   3.087   1.186  13.363 -0.4426 -0.4251  0.1730
  513MPD2    C3 7621   3.196   1.230  13.435 -0.4121  0.1159 -0.1090
  513MPD2    C4 7622   3.304   1.281  13.363  0.6670 -0.2566  0.3978
  513MPD2    C5 7623   3.297   1.299  13.231 -0.4518 -0.0091  0.6725
  513MPD2     H 7624   3.004   1.134  13.410 -0.1158 -1.6617 -0.6080
  513MPD2    H1 7625   3.398   1.312  13.408 -0.6389  2.2054  1.3831
  513MPD2    H2 7626   3.179   1.267  13.052 -1.1029  0.3556 -0.5037
  513MPD2    H3 7627   3.392   1.325  13.186  0.2546  0.3193  2.3602
  513MPD2     N 7628   3.201   1.195  13.574 -0.4152 -0.1848 -0.3337
  513MPD2    H5 7629   3.123   1.134  13.595 -1.3114  0.3808 -2.0388
  513MPD2    N1 7630   2.981   1.138  13.144 -0.0407  0.7858  0.1977
  513MPD2    H7 7631   2.988   1.155  13.045 -0.5037  0.9503  0.1909
  514TMC3    C1 7632   2.763   1.033  13.099  0.2976  0.6386  0.7742
  514TMC3    C2 7633   2.801   0.960  12.989  0.0550  0.0616 -0.2398
  514TMC3    C3 7634   2.714   0.868  12.944  0.3001 -1.7005  0.2310
  514TMC3    C4 7635   2.655   0.999  13.168  1.1713 -0.2901  0.6462
  514TMC3    C5 7636   2.585   0.888  13.141  0.0194 -0.5148  0.1728
  514TMC3    C6 7637   2.610   0.826  13.022  0.3252 -0.6678  0.6091
  514TMC3     C 7638   2.874   1.074  13.192 -0.7171 -0.5844 -0.1118
  514TMC3     O 7639   2.845   1.046  13.308 -0.1062  0.3920  0.4290
  514TMC3     H 7640   2.893   0.988  12.939  0.9948 -1.1725  0.8026
  514TMC3    H1 7641   2.627   1.066  13.248 -2.0393 -0.0068 -0.6917
  514TMC3    H2 7642   2.535   0.754  12.992  0.6135 -1.7171  2.4088
  514TMC3    C7 7643   2.568   0.794  13.249 -0.4128  0.1891  0.2185
  514TMC3    C8 7644   2.706   0.837  12.802  0.6610 -0.8293  0.5425
  514TMC3    O1 7645   2.478   0.712  13.257 -0.5135  0.0459  0.3669
  514TMC3    O2 7646   2.651   0.733  12.775  0.1366 -0.5013  0.0319
  515MPD2     C 7647   0.646   3.393  14.907 -0.0450 -0.0511 -0.4704
  515MPD2    C1 7648   0.681   3.259  14.879  0.4052  0.4890  0.4050
  515MPD2    C2 7649   0.810   3.216  14.916  0.0331  0.7139 -0.0140
  515MPD2    C3 7650   0.901   3.298  14.977  0.3368  0.3939  0.0200
  515MPD2    C4 7651   0.858   3.420  15.020 -0.4427  0.0046 -0.4997
  515MPD2    C5 7652   0.730   3.469  14.980  0.5712 -0.5499 -0.1954
  515MPD2     H 7653   0.837   3.113  14.899 -1.5122  0.3103  0.0369
  515MPD2    H1 7654   0.928   3.486  15.070  1.6962 -1.0730 -2.1004
  515MPD2    H2 7655   0.551   3.440  14.883  0.3031  1.0612  0.3282
  515MPD2    H3 7656   0.694   3.564  15.018 -0.8729 -1.0335 -0.3567
  515MPD2     N 7657   1.028   3.255  15.016  0.0437  0.4539 -0.0028
  515MPD2    H5 7658   1.083   3.306  15.084  0.5577  1.1573 -0.9277
  515MPD2    N1 7659   0.585   3.170  14.823 -0.1351 -0.5905 -0.3431
  515MPD2    H7 7660   0.628   3.084  14.790  1.5737  0.8570 -1.8299
  516TMC3    C1 7661   0.387   3.090  14.726 -0.2510 -0.7025  0.2552
  516TMC3    C2 7662   0.278   3.123  14.648 -0.0288 -0.4278 -0.1551
  516TMC3    C3 7663   0.205   3.021  14.598  0.5038  0.1067  0.6704
  516TMC3    C4 7664   0.414   2.961  14.774 -0.2156 -0.3850 -0.5698
  516TMC3    C5 7665   0.333   2.860  14.724 -1.0815 -0.5101  0.1534
  516TMC3    C6 7666   0.233   2.890  14.631  0.2428  0.6051 -0.1577
  516TMC3     C 7667   0.452   3.194  14.799 -0.0532  0.6643 -0.6388
  516TMC3     O 7668   0.383   3.296  14.811  0.2805  0.3777  0.4996
  516TMC3     H 7669   0.274   3.226  14.613 -0.5443 -0.0491  1.0319
  516TMC3    H1 7670   0.492   2.936  14.845 -0.9984 -0.2160  0.3549
  516TMC3    H2 7671   0.162   2.822  14.586  2.9407 -1.4898 -1.2405
  516TMC3    C7 7672   0.341   2.727  14.776  0.5151  0.0461 -0.3894
  516TMC3    C8 7673   0.133   3.048  14.476 -1.1445 -0.1793 -0.1480
  516TMC3    O1 7674   0.447   2.691  14.829  0.3324  0.0020 -0.2646
  516TMC3    O2 7675   0.121   2.952  14.397 -0.7565  0.2853  0.0868
  517MPD2     C 7676   0.112   4.071  17.693  0.2012  0.4619 -0.1624
  517MPD2    C1 7677   0.248   4.065   0.027  0.3010  0.2348 -0.4245
  517MPD2    C2 7678   0.296   4.152   0.126  0.1696 -1.2567 -0.5560
  517MPD2    C3 7679   0.211   4.237   0.196 -0.4601 -0.1633  0.4121
  517MPD2    C4 7680   0.082   4.237   0.159  0.0589  0.5869  0.2948
  517MPD2    C5 7681   0.030   4.154   0.059 -0.7123 -0.3396 -0.6102
  517MPD2     H 7682   0.399   4.150   0.160  0.3054  1.7658 -0.8002
  517MPD2    H1 7683   0.019   4.313   0.201 -0.9241 -0.2668  0.3630
  517MPD2    H2 7684   0.072   4.010  17.613 -2.0397  1.8870 -0.1427
  517MPD2    H3 7685   4.650   4.169   0.031 -0.9065  0.9021  0.7671
  517MPD2     N 7686   0.257   4.323   0.301  0.2696  0.0524  0.5579
  517MPD2    H5 7687   0.198   4.391   0.347  1.3869  2.5124 -1.6171
  517MPD2    N1 7688   0.344   3.993  17.651  0.3592  0.2276  0.7678
  517MPD2    H7 7689   0.443   4.009  17.665  0.6938 -0.6053 -0.5570
  518TMC3    C1 7690   0.427   3.833  17.491 -0.2903 -0.1804 -0.2529
  518TMC3    C2 7691   0.395   3.712  17.440 -0.1393 -0.3090 -0.0634
  518TMC3    C3 7692   0.501   3.637  17.382 -0.4596 -0.1314  0.1185
  518TMC3    C4 7693   0.552   3.878  17.512 -0.2090 -0.4153  0.0233
  518TMC3    C5 7694   0.650   3.798  17.461 -0.1912  0.4316  1.0500
  518TMC3    C6 7695   0.628   3.683  17.384  0.1722  0.0373  0.5483
  518TMC3     C 7696   0.307   3.893  17.552 -0.1638 -0.5172  0.0638
  518TMC3     O 7697   0.200   3.844  17.520 -0.2035  0.1112  0.8183
  518TMC3     H 7698   0.300   3.660  17.446 -0.7809  0.9752  0.7206
  518TMC3    H1 7699   0.579   3.970  17.563 -0.5515 -0.4963  0.3513
  518TMC3    H2 7700   0.708   3.616  17.354 -0.3400 -0.9134  1.2764
  518TMC3    C7 7701   0.786   3.844  17.476 -0.0086  0.0083  0.0174
  518TMC3    C8 7702   0.494   3.490  17.361  0.3241 -0.2464  0.6081
  518TMC3    O1 7703   0.814   3.962  17.477 -0.1236 -0.4187  0.3402
  518TMC3    O2 7704   0.596   3.425  17.384 -0.1717 -0.3099 -0.5569
  519MPD2     C 7705   1.764   2.595  14.177  1.2418  0.5989  0.3507
  519MPD2    C1 7706   1.764   2.596  14.038  0.0988  0.0800  0.2867
  519MPD2    C2 7707   1.849   2.508  13.971  0.6277  0.1676 -0.1838
  519MPD2    C3 7708   1.928   2.415  14.037 -1.1507  0.0331 -0.6997
  519MPD2    C4 7709   1.925   2.419  14.183  0.0369  0.1117  0.2850
  519MPD2    C5 7710   1.851   2.511  14.247  0.3637 -0.1576 -0.0259
  519MPD2     H 7711   1.852   2.504  13.863  0.6951  1.6214 -0.2359
  519MPD2    H1 7712   1.976   2.347  14.247 -0.4815 -1.2380 -0.8195
  519MPD2    H2 7713   1.715   2.670  14.238 -1.1028  1.3457 -2.4490
  519MPD2    H3 7714   1.866   2.524  14.353  2.2553 -1.8550 -0.0754
  519MPD2     N 7715   2.008   2.330  13.962 -0.7905  0.0755  0.4850
  519MPD2    H5 7716   2.006   2.331  13.860 -2.2763  0.9729  0.5068
  519MPD2    N1 7717   1.680   2.689  13.970 -0.6475  0.8055 -0.5945
  519MPD2    H7 7718   1.596   2.723  14.015  1.5005  1.6789  2.7266
  520TMC3    C1 7719   2.127   2.145  13.912 -0.0308 -0.1963 -0.8557
  520TMC3    C2 7720   2.072   2.168  13.794 -0.5219  0.1334  0.0990
  520TMC3    C3 7721   2.149   2.170  13.683  0.0825  0.2877 -0.6696
  520TMC3    C4 7722   2.259   2.105  13.925  0.7091  0.1609 -0.2649
  520TMC3    C5 7723   2.339   2.109  13.813 -0.1875  0.3818 -0.1341
  520TMC3    C6 7724   2.283   2.142  13.696  0.4225 -0.3030 -0.5052
  520TMC3     C 7725   2.086   2.238  14.011  0.0657  0.2854 -0.5456
  520TMC3     O 7726   2.106   2.207  14.128 -0.1047  0.2403  0.3492
  520TMC3     H 7727   1.965   2.177  13.785 -0.4752  3.9979  3.3089
  520TMC3    H1 7728   2.295   2.071  14.022 -2.2348 -0.7250  0.5215
  520TMC3    H2 7729   2.339   2.135  13.604 -0.7671 -1.2328 -1.1572
  520TMC3    C7 7730   2.486   2.105  13.833  0.1923 -0.3041 -0.4188
  520TMC3    C8 7731   2.093   2.166  13.546 -0.1063  1.0068 -0.2020
  520TMC3    O1 7732   2.529   2.032  13.920  0.3042  0.0886  0.0359
  520TMC3    O2 7733   2.180   2.160  13.457  0.2137  0.0483  0.3648
  521MPD2     C 7734   2.770   0.359   0.160  0.1049  0.4479  0.4728
  521MPD2    C1 7735   2.732   0.336   0.031 -0.2072 -0.1594 -0.7559
  521MPD2    C2 7736   2.821   0.358  17.623 -0.2738  0.2614  0.0262
  521MPD2    C3 7737   2.938   0.418  17.647 -0.4808 -0.9100 -0.4777
  521MPD2    C4 7738   2.972   0.454   0.078 -0.0547 -0.5515  0.3915
  521MPD2    C5 7739   2.890   0.419   0.184 -0.4655  0.3935  0.4959
  521MPD2     H 7740   2.797   0.342  17.519  0.6649 -1.4939  0.0769
  521MPD2    H1 7741   3.066   0.503   0.099 -0.0056 -0.0407 -0.9996
  521MPD2    H2 7742   2.705   0.332   0.242  2.5045 -0.9692  1.9229
  521MPD2    H3 7743   2.918   0.446   0.285 -0.8193  2.7305 -0.0406
  521MPD2     N 7744   3.019   0.454  17.542  0.1033 -0.5259 -0.2349
  521MPD2    H5 7745   2.988   0.419  17.452  1.3147  0.3772 -0.9951
  521MPD2    N1 7746   2.592   0.302   0.013 -0.0736 -0.0567 -0.0837
  521MPD2    H7 7747   2.552   0.274   0.101 -0.6118  1.5572  0.1832
  522TMC3    C1 7748   3.214   0.519  17.424  0.4694  0.0991  0.2896
  522TMC3    C2 7749   3.340   0.469  17.430  0.1914  0.6015 -0.4083
  522TMC3    C3 7750   3.392   0.416  17.312  0.2682 -0.0070 -0.3074
  522TMC3    C4 7751   3.134   0.519  17.317  0.5679 -0.4305 -0.1916
  522TMC3    C5 7752   3.199   0.481  17.200  0.5359  0.1909  0.0985
  522TMC3    C6 7753   3.327   0.440  17.194 -0.0055  0.1624  0.3587
  522TMC3     C 7754   3.143   0.518  17.547  0.2690 -0.2980 -0.9238
  522TMC3     O 7755   3.200   0.574  17.638 -0.4608  0.1931 -0.5701
  522TMC3     H 7756   3.389   0.449  17.525 -0.1917  0.2420 -0.2852
  522TMC3    H1 7757   3.036   0.565  17.320  0.0773 -1.3868 -1.6969
  522TMC3    H2 7758   3.352   0.382  17.106 -1.1621 -0.1598  0.2436
  522TMC3    C7 7759   3.121   0.482  17.079  0.0243 -0.4294 -0.4287
  522TMC3    C8 7760   3.517   0.341  17.320  0.4126  0.1729  0.4839
  522TMC3    O1 7761   3.001   0.470  17.097  0.1776  0.1168  0.5948
  522TMC3    O2 7762   3.568   0.317  17.424  0.3754 -0.3319  0.6252
  523MPD2     C 7763   0.443   0.145  10.460 -0.0100  0.2284 -0.6481
  523MPD2    C1 7764   0.498   0.124  10.331  0.4807  0.0482  0.4409
  523MPD2    C2 7765   0.545   0.230  10.256 -0.1561 -0.4382 -0.4504
  523MPD2    C3 7766   0.529   0.357  10.307  0.1046  0.5057  0.0599
  523MPD2    C4 7767   0.465   0.379  10.435  0.3405  0.1524 -0.5147
  523MPD2    C5 7768   0.424   0.270  10.509  0.1630  0.1552 -0.0062
  523MPD2     H 7769   0.593   0.220  10.160 -1.6451  0.6993 -1.3088
  523MPD2    H1 7770   0.444   0.474  10.482 -0.0227  0.0293 -0.4327
  523MPD2    H2 7771   0.415   0.059  10.520 -0.9871  2.0088  1.4473
  523MPD2    H3 7772   0.390   0.272  10.612 -1.0268 -0.8281 -0.3781
  523MPD2     N 7773   0.576   0.460  10.225  0.6502  0.0902  0.0417
  523MPD2    H5 7774   0.629   0.431  10.143  4.1547  1.4771  1.8657
  523MPD2    N1 7775   0.514   4.720  10.283  0.5646 -0.2460 -0.2559
  523MPD2    H7 7776   0.483   4.639  10.336  0.1629 -0.7556 -1.2634
  524TMC3    C1 7777   0.654   0.662  10.149  0.0202  0.3592 -0.5277
  524TMC3    C2 7778   0.650   0.617  10.017  0.1110 -0.3848 -0.0694
  524TMC3    C3 7779   0.711   0.699   9.936 -0.5038  0.1886 -0.4560
  524TMC3    C4 7780   0.710   0.781  10.181 -0.9728 -0.2040  0.9848
  524TMC3    C5 7781   0.760   0.868  10.085  0.6806  0.0920 -1.0875
  524TMC3    C6 7782   0.760   0.822   9.957 -0.5801  0.0860  0.0915
  524TMC3     C 7783   0.583   0.595  10.249  0.5537  0.0134 -0.3649
  524TMC3     O 7784   0.577   0.652  10.360  0.0242  0.0290  0.2156
  524TMC3     H 7785   0.598   0.527   9.987 -2.5241  1.7271 -1.8255
  524TMC3    H1 7786   0.701   0.822  10.281  2.0407  2.9063 -0.0102
  524TMC3    H2 7787   0.809   0.880   9.879 -1.2232  1.8487  0.9882
  524TMC3    C7 7788   0.739   1.010  10.114 -0.4554 -0.0501  0.0208
  524TMC3    C8 7789   0.732   0.631   9.811  0.7972  0.3708  0.2109
  524TMC3    O1 7790   0.754   1.045  10.233  0.3155 -0.5449 -0.1663
  524TMC3    O2 7791   0.750   0.509   9.815 -0.3977 -0.0294 -0.4793
  525MPD2     C 7792   3.377   2.309  14.283 -0.0045  0.4165 -0.1628
  525MPD2    C1 7793   3.511   2.339  14.309  0.1328 -0.8366  0.4034
  525MPD2    C2 7794   3.539   2.470  14.280  0.4631  0.2169  0.5308
  525MPD2    C3 7795   3.446   2.571  14.242  0.3686 -0.0266 -0.1052
  525MPD2    C4 7796   3.319   2.529  14.221 -0.2077  0.3360  0.1186
  525MPD2    C5 7797   3.289   2.395  14.230  0.6656  0.0700  0.4493
  525MPD2     H 7798   3.645   2.496  14.284  0.9653 -1.4447 -2.2920
  525MPD2    H1 7799   3.242   2.603  14.198 -1.0606 -0.9079 -1.0206
  525MPD2    H2 7800   3.335   2.209  14.281 -2.2128  1.3427 -0.8736
  525MPD2    H3 7801   3.188   2.371  14.199  1.3848 -1.8449 -0.3951
  525MPD2     N 7802   3.483   2.707  14.241  0.0926  0.5612 -0.2750
  525MPD2    H5 7803   3.409   2.774  14.222  0.0492  0.5213 -0.2488
  525MPD2    N1 7804   3.605   2.248  14.367  0.1170 -0.0290  0.3567
  525MPD2    H7 7805   3.696   2.292  14.377 -0.3443  1.3938 -1.8096
  526TMC3    C1 7806   3.698   2.070  14.465  0.3563 -0.2499 -0.4644
  526TMC3    C2 7807   3.678   1.966  14.553  0.6745 -0.4043 -0.1126
  526TMC3    C3 7808   3.782   1.884  14.583  0.1586  0.5402 -1.0000
  526TMC3    C4 7809   3.814   2.090  14.393 -0.4063  0.1010 -0.2142
  526TMC3    C5 7810   3.909   1.998  14.422  0.1368 -0.8713 -0.7030
  526TMC3    C6 7811   3.900   1.897  14.517 -0.3926  0.0597  0.5902
  526TMC3     C 7812   3.582   2.123  14.414 -0.3272  0.5906  0.2082
  526TMC3     O 7813   3.475   2.063  14.424  0.1167  0.3365  0.0846
  526TMC3     H 7814   3.573   1.953  14.576  1.3155  1.7161  3.8381
  526TMC3    H1 7815   3.834   2.158  14.311 -0.7207  2.2281  1.5007
  526TMC3    H2 7816   3.987   1.839  14.547  1.9452  2.2642 -1.8793
  526TMC3    C7 7817   4.024   2.001  14.337  0.0042 -0.2339 -0.1597
  526TMC3    C8 7818   3.775   1.785  14.685  0.1908  0.2887 -0.1610
  526TMC3    O1 7819   4.050   2.109  14.280  0.8264 -0.5459  0.3413
  526TMC3    O2 7820   3.865   1.704  14.684  0.0607  0.4792 -0.2330
  527MPD2     C 7821   1.107   3.854   0.986  0.2108 -0.2308  0.1224
  527MPD2    C1 7822   1.148   3.849   1.109 -1.0070 -0.2293  0.4430
  527MPD2    C2 7823   1.280   3.815   1.134  0.1959  0.1054  0.7237
  527MPD2    C3 7824   1.373   3.802   1.033  0.4798  0.2164  0.4333
  527MPD2    C4 7825   1.329   3.827   0.906  0.0689 -0.0362  1.1172
  527MPD2    C5 7826   1.193   3.841   0.883  1.0329 -0.1066 -0.2892
  527MPD2     H 7827   1.312   3.794   1.236 -0.7849  0.9111  1.1916
  527MPD2    H1 7828   1.391   3.806   0.820  0.6224  1.8934  1.0646
  527MPD2    H2 7829   1.003   3.877   0.966 -0.0557 -0.0531  1.7137
  527MPD2    H3 7830   1.151   3.850   0.783  1.7903 -1.0463 -0.6944
  527MPD2     N 7831   1.504   3.760   1.067  0.0742 -0.4681  0.9949
  527MPD2    H5 7832   1.504   3.732   1.164  0.3671  2.5448  1.8816
  527MPD2    N1 7833   1.058   3.872   1.222 -0.5195 -0.2361 -0.1617
  527MPD2    H7 7834   1.100   3.876   1.314 -0.0156  0.9562 -0.4357
  528TMC3    C1 7835   0.871   3.942   1.341 -0.6902 -0.1889 -0.5824
  528TMC3    C2 7836   0.956   3.971   1.437 -0.0544 -0.3384 -0.2393
  528TMC3    C3 7837   0.918   3.955   1.563 -0.3014 -0.1024  0.1304
  528TMC3    C4 7838   0.743   3.901   1.367 -0.3069  0.0905 -0.4784
  528TMC3    C5 7839   0.697   3.904   1.496  0.3982  0.4602  0.3162
  528TMC3    C6 7840   0.785   3.921   1.591 -0.1173  0.4738  0.7942
  528TMC3     C 7841   0.928   3.922   1.212  0.8792 -0.1534  1.0090
  528TMC3     O 7842   0.852   3.922   1.113  0.3539  0.0730  0.1083
  528TMC3     H 7843   1.055   3.999   1.402  0.3272  1.6330  2.4170
  528TMC3    H1 7844   0.674   3.872   1.288 -1.4907  2.0487 -0.1601
  528TMC3    H2 7845   0.745   3.915   1.692 -1.0259  0.9795  0.4656
  528TMC3    C7 7846   0.565   3.859   1.540 -0.9050  0.4673  0.5846
  528TMC3    C8 7847   1.015   3.991   1.666  0.4395 -0.4250  0.8282
  528TMC3    O1 7848   0.538   3.883   1.656 -0.1137 -0.6533 -0.5768
  528TMC3    O2 7849   1.119   4.042   1.630 -0.0088  0.9006 -0.2943
  529MPD2     C 7850   3.818   2.959   0.271 -0.3023  0.1078  0.2103
  529MPD2    C1 7851   3.908   2.856   0.265  0.7585  0.0970  0.4720
  529MPD2    C2 7852   3.976   2.843   0.146 -0.1867  0.6812  0.3689
  529MPD2    C3 7853   3.963   2.935   0.040 -0.0915  0.0727 -0.6459
  529MPD2    C4 7854   3.871   3.031   0.053 -0.0007  0.3988 -0.1341
  529MPD2    C5 7855   3.793   3.039   0.167  0.5518  0.3982  0.1888
  529MPD2     H 7856   4.049   2.763   0.137  0.4004  1.3954 -1.3095
  529MPD2    H1 7857   3.853   3.104  17.674 -0.3932 -1.1844 -1.5420
  529MPD2    H2 7858   3.762   2.988   0.359  0.3312  1.8752  0.0129
  529MPD2    H3 7859   3.706   3.103   0.176  0.9686  0.6148  2.6747
  529MPD2     N 7860   4.036   2.933  17.620 -0.0883  0.6468  0.0852
  529MPD2    H5 7861   4.029   3.010  17.556 -0.3402 -0.8777 -1.7211
  529MPD2    N1 7862   3.924   2.761   0.367 -0.0528  0.0847 -0.7575
  529MPD2    H7 7863   3.981   2.679   0.347  0.5852  0.7260 -1.5150
  530TMC3    C1 7864   3.895   2.657   0.574 -0.0713  0.4200 -0.1486
  530TMC3    C2 7865   3.914   2.680   0.707  0.3208  0.2114  0.1021
  530TMC3    C3 7866   3.921   2.569   0.789  0.1601  0.4275  0.9337
  530TMC3    C4 7867   3.853   2.529   0.531 -0.5403  0.5888  0.5242
  530TMC3    C5 7868   3.878   2.428   0.615 -0.3847 -0.8205 -0.3935
  530TMC3    C6 7869   3.901   2.444   0.746  0.6020 -0.1623  0.0605
  530TMC3     C 7870   3.860   2.766   0.487  0.6560  1.0743  0.3336
  530TMC3     O 7871   3.788   2.852   0.536  0.3071 -0.0807 -0.0144
  530TMC3     H 7872   3.924   2.781   0.744 -1.5876  0.6427 -0.5722
  530TMC3    H1 7873   3.820   2.516   0.429  2.1420 -1.1089 -0.1302
  530TMC3    H2 7874   3.907   2.368   0.823  1.5034  0.2582  0.4137
  530TMC3    C7 7875   3.842   2.299   0.562 -0.4288 -0.8475 -0.2408
  530TMC3    C8 7876   3.926   2.603   0.929 -0.0354 -0.4113 -0.2321
  530TMC3    O1 7877   3.812   2.293   0.445 -0.2611  0.2084 -0.6329
  530TMC3    O2 7878   3.845   2.683   0.971  0.9059  0.2186 -0.2990
  531MPD2     C 7879   2.823   0.587  13.643 -1.0797  0.3790 -0.4250
  531MPD2    C1 7880   2.867   0.711  13.631  0.5327 -0.3467 -0.8358
  531MPD2    C2 7881   2.794   0.795  13.548 -0.1100  0.2905  0.4358
  531MPD2    C3 7882   2.708   0.737  13.451 -0.2527 -0.6113  0.0405
  531MPD2    C4 7883   2.671   0.605  13.467  0.3604  0.0414  0.0528
  531MPD2    C5 7884   2.729   0.529  13.565 -0.7069  0.2752 -0.0164
  531MPD2     H 7885   2.795   0.903  13.542  0.0642  0.3293  1.1395
  531MPD2    H1 7886   2.596   0.565  13.400  0.6937  0.1131 -0.3633
  531MPD2    H2 7887   2.867   0.526  13.722 -0.5491 -1.4439 -2.1403
  531MPD2    H3 7888   2.692   0.432  13.596 -1.6556  0.4166 -0.7000
  531MPD2     N 7889   2.669   0.811  13.337 -0.5010  0.2359  0.6865
  531MPD2    H5 7890   2.710   0.904  13.329  1.4097 -0.6582  0.2214
  531MPD2    N1 7891   2.969   0.769  13.714 -0.4716  0.1179  0.1003
  531MPD2    H7 7892   3.021   0.708  13.776  0.8055 -0.7263 -1.8149
  532TMC3    C1 7893   3.132   0.933  13.778 -0.1931  0.8506 -0.1352
  532TMC3    C2 7894   3.162   1.064  13.782  0.0246  0.5478 -0.2598
  532TMC3    C3 7895   3.290   1.106  13.778  0.1282  0.6786 -0.5345
  532TMC3    C4 7896   3.226   0.839  13.796  0.2944  0.2238 -0.1154
  532TMC3    C5 7897   3.353   0.880  13.804  0.1115  0.5018 -0.1709
  532TMC3    C6 7898   3.388   1.011  13.795 -0.6061 -0.9448  0.0415
  532TMC3     C 7899   3.021   0.899  13.693  0.2618  0.1892  0.1061
  532TMC3     O 7900   3.014   0.975  13.600 -0.3445 -0.4264  0.0036
  532TMC3     H 7901   3.080   1.134  13.769 -0.9041 -0.0686  2.4504
  532TMC3    H1 7902   3.193   0.736  13.807  2.1679 -0.4899 -1.1619
  532TMC3    H2 7903   3.490   1.046  13.808 -0.6538 -0.9437  0.4147
  532TMC3    C7 7904   3.451   0.778  13.837 -0.5454  0.5207  0.7427
  532TMC3    C8 7905   3.314   1.185  13.661  0.0615  0.3578  0.2090
  532TMC3    O1 7906   3.542   0.810  13.913  0.9529 -0.9036 -0.9197
  532TMC3    O2 7907   3.431   1.215  13.635 -0.4301  0.2249 -0.4744
  533TMC3    C1 7908   3.598   2.894  14.321  0.6878 -0.9339  0.5832
  533TMC3    C2 7909   3.718   2.958  14.329  0.0561 -0.2821 -0.7339
  533TMC3    C3 7910   3.718   3.077  14.396 -0.1735  0.5841  0.2737
  533TMC3    C4 7911   3.483   2.939  14.379  0.8629 -0.4444  0.3915
  533TMC3    C5 7912   3.495   3.053  14.460  0.3365  0.2166  0.7697
  533TMC3    C6 7913   3.613   3.125  14.467 -0.2046 -0.0684 -1.1106
  533TMC3     C 7914   3.604   2.752  14.287  0.3584  0.1522  0.4484
  533TMC3     O 7915   3.711   2.703  14.313 -0.6801 -0.2384 -0.0002
  533TMC3     H 7916   3.807   2.912  14.288  0.7089 -0.2280  0.6346
  533TMC3    H1 7917   3.387   2.889  14.379 -1.1961  3.5126  4.5559
  533TMC3    H2 7918   3.594   3.228  14.495 -1.6293  0.1229 -2.7625
  533TMC3    C7 7919   3.432   3.040  14.589  0.7664 -0.4571 -0.3798
  533TMC3    C8 7920   3.846   3.125  14.438  0.0565 -0.2030  0.2126
  533TMC3    O1 7921   3.353   2.946  14.608  0.6175  0.8329  0.4519
  533TMC3    O2 7922   3.836   3.191  14.542  0.5202  0.5243  0.4199
  534MPD2     C 7923   1.067   3.253   2.428  0.5177 -0.0287 -0.4985
  534MPD2    C1 7924   1.010   3.305   2.314 -0.0550 -0.4699  0.5234
  534MPD2    C2 7925   0.911   3.235   2.249  0.5445 -0.2518 -0.3496
  534MPD2    C3 7926   0.865   3.114   2.293 -1.1052  0.2523 -0.5439
  534MPD2    C4 7927   0.922   3.059   2.404 -0.2251  0.2834 -0.2975
  534MPD2    C5 7928   1.014   3.129   2.470 -0.3340 -0.7360  0.5252
  534MPD2     H 7929   0.863   3.286   2.167 -1.4855  0.2528  1.1520
  534MPD2    H1 7930   0.891   2.959   2.433 -0.0530  1.0906  2.6100
  534MPD2    H2 7931   1.145   3.307   2.481 -0.2349  0.5898 -0.0238
  534MPD2    H3 7932   1.044   3.071   2.557  1.6274 -0.4757  0.0335
  534MPD2     N 7933   0.775   3.030   2.221 -0.6993 -0.4618 -0.0670
  534MPD2    H5 7934   0.747   2.936   2.248 -1.6211 -0.4316 -0.8759
  534MPD2    N1 7935   1.048   3.428   2.251  0.4359  0.2265 -0.3807
  534MPD2    H7 7936   0.986   3.448   2.173  0.4862 -1.3914 -0.8366
  535TMC3    C1 7937   0.624   2.974   2.046  0.3674 -0.1340  0.5521
  535TMC3    C2 7938   0.519   3.027   1.969  0.1965 -0.2297 -0.1546
  535TMC3    C3 7939   0.469   2.954   1.873 -0.0423 -0.0701 -0.2329
  535TMC3    C4 7940   0.697   2.860   2.013  0.4456 -0.2200 -0.0556
  535TMC3    C5 7941   0.642   2.788   1.910 -0.5024  0.3508 -0.1594
  535TMC3    C6 7942   0.524   2.826   1.848 -0.0965 -0.1706  0.6551
  535TMC3     C 7943   0.700   3.079   2.112 -0.2573  0.0599  0.4515
  535TMC3     O 7944   0.697   3.188   2.055  0.1814  0.0677  0.4724
  535TMC3     H 7945   0.478   3.122   2.001  1.3197  0.7429 -1.5736
  535TMC3    H1 7946   0.795   2.839   2.055  0.8366 -0.0759 -0.8865
  535TMC3    H2 7947   0.483   2.756   1.776  0.6754 -0.2561  0.3024
  535TMC3    C7 7948   0.705   2.666   1.859 -0.0346  0.0154  0.4281
  535TMC3    C8 7949   0.343   2.977   1.810  0.5933  1.0122 -0.4730
  535TMC3    O1 7950   0.659   2.616   1.755 -0.1059  0.0830  0.3728
  535TMC3    O2 7951   0.329   2.919   1.701  0.6068 -0.6016 -0.3438
  536MPD2     C 7952   0.588   1.836  16.313 -0.6397 -0.5571  0.3049
  536MPD2    C1 7953   0.480   1.748  16.307 -0.3353 -0.4494 -0.0057
  536MPD2    C2 7954   0.400   1.751  16.190 -0.5188  0.1566  0.1922
  536MPD2    C3 7955   0.444   1.831  16.084 -0.2992 -0.5525 -0.0358
  536MPD2    C4 7956   0.560   1.907  16.094 -0.3718  0.7733 -0.3647
  536MPD2    C5 7957   0.632   1.913  16.208  0.7922  0.5048  0.4410
  536MPD2     H 7958   0.311   1.690  16.182 -2.0791  2.6290 -1.3373
  536MPD2    H1 7959   0.607   1.962  16.013 -0.9825  2.3213  0.3347
  536MPD2    H2 7960   0.646   1.846  16.403 -0.6567 -0.6716  0.3288
  536MPD2    H3 7961   0.716   1.981  16.207 -0.2397  1.7760 -0.0744
  536MPD2     N 7962   0.369   1.841  15.964  0.3285  1.0350  0.1006
  536MPD2    H5 7963   0.392   1.915  15.898  2.2587  0.4244  0.0719
  536MPD2    N1 7964   0.456   1.660  16.418 -0.5503 -0.1413  0.0235
  536MPD2    H7 7965   0.528   1.664  16.489 -0.5542  0.6889 -0.0281
  537TMC3    C1 7966   0.354   1.509  16.563  0.1928  0.0990 -0.3735
  537TMC3    C2 7967   0.386   1.587  16.670 -0.4030 -0.2161  0.2171
  537TMC3    C3 7968   0.340   1.553  16.798 -0.5882 -1.0562  0.0058
  537TMC3    C4 7969   0.269   1.403  16.578  0.3894  0.5472 -0.7634
  537TMC3    C5 7970   0.236   1.368  16.708 -0.0386  0.1456 -0.4462
  537TMC3    C6 7971   0.273   1.436  16.816  0.4403 -0.3016  0.2657
  537TMC3     C 7972   0.348   1.576  16.437  0.3464 -0.3526 -0.2061
  537TMC3     O 7973   0.262   1.530  16.361  0.4557 -0.6269  0.3643
  537TMC3     H 7974   0.467   1.659  16.664 -1.0781  0.4821 -0.4436
  537TMC3    H1 7975   0.230   1.353  16.490  0.1940 -0.7416  0.0543
  537TMC3    H2 7976   0.243   1.423  16.919 -2.4890  1.0897 -0.4051
  537TMC3    C7 7977   0.121   1.278  16.716 -0.2776  0.5884  0.5753
  537TMC3    C8 7978   0.354   1.651  16.902  0.6959  0.6549  0.1509
  537TMC3    O1 7979   0.067   1.253  16.608 -0.2957 -0.5137 -0.1492
  537TMC3    O2 7980   0.374   1.620  17.015  0.4819  0.3351 -0.0528
  538TMC3    C1 7981   1.025   0.248  11.109 -0.0667  0.5783  0.1334
  538TMC3    C2 7982   1.030   0.184  10.988 -0.7009 -0.4634  0.2714
  538TMC3    C3 7983   1.017   0.254  10.873 -0.3446 -0.4896 -0.4009
  538TMC3    C4 7984   0.981   0.379  11.113  0.3856  0.0461  0.1535
  538TMC3    C5 7985   0.979   0.446  10.997 -0.1112 -0.4314 -0.6635
  538TMC3    C6 7986   1.002   0.388  10.872 -0.4408  0.0793 -0.1929
  538TMC3     C 7987   1.038   0.166  11.230  0.2186 -0.7400  0.1591
  538TMC3     O 7988   1.006   0.049  11.227 -0.3342  0.4921 -0.1730
  538TMC3     H 7989   1.062   0.081  10.989 -0.5322 -0.4277 -1.6595
  538TMC3    H1 7990   0.969   0.433  11.207  0.3166  1.1209 -0.4725
  538TMC3    H2 7991   0.993   0.435  10.774  2.3943 -0.7850 -0.8628
  538TMC3    C7 7992   0.955   0.586  11.001  0.0953 -0.0213 -0.7493
  538TMC3    C8 7993   1.065   0.185  10.751  0.4112 -0.4795  0.3425
  538TMC3    O1 7994   0.900   0.640  11.101 -0.0353  0.4148  0.0540
  538TMC3    O2 7995   1.036   0.063  10.730 -0.7680  0.7298 -0.3196
  539MPD2     C 7996   0.888   4.181  11.883  0.0088  0.0073 -0.1077
  539MPD2    C1 7997   0.973   4.235  11.793 -0.0786  0.1274  0.1101
  539MPD2    C2 7998   0.942   4.357  11.741 -0.2340 -0.4406 -0.2641
  539MPD2    C3 7999   0.821   4.415  11.770 -0.6170 -0.1307 -0.5113
  539MPD2    C4 8000   0.734   4.354  11.864 -0.2026 -0.2134 -1.2439
  539MPD2    C5 8001   0.779   4.244  11.927 -0.1566  0.3315 -0.2754
  539MPD2     H 8002   1.008   4.413  11.675 -0.3127 -0.8951 -0.7312
  539MPD2    H1 8003   0.632   4.379  11.890 -0.3529 -0.2952 -1.7563
  539MPD2    H2 8004   0.906   4.083  11.926 -1.3821  0.4369  1.4700
  539MPD2    H3 8005   0.711   4.180  11.982 -0.4208  0.7739 -0.0873
  539MPD2     N 8006   0.786   4.547  11.725  0.0793  0.4303  0.4809
  539MPD2    H5 8007   0.701   4.584  11.767  0.1438  0.6073  0.4536
  539MPD2    N1 8008   1.102   4.180  11.753 -0.7064 -0.1593  0.2622
  539MPD2    H7 8009   1.167   4.237  11.700 -0.0834  0.7501  2.0113
  540TMC3    C1 8010   0.805   0.031  11.617 -0.4008 -0.1939  0.1324
  540TMC3    C2 8011   0.800   0.085  11.493  0.3846 -0.1464  0.1838
  540TMC3    C3 8012   0.749   0.211  11.473 -0.2235  0.5054  0.3637
  540TMC3    C4 8013   0.730   0.091  11.718  1.1558 -0.9220 -0.1620
  540TMC3    C5 8014   0.678   0.215  11.691  0.3210  0.6498 -0.2760
  540TMC3    C6 8015   0.679   0.280  11.572 -0.1823 -0.6142 -0.3077
  540TMC3     C 8016   0.848   4.616  11.623  0.3471  0.5510 -0.0391
  540TMC3     O 8017   0.930   4.575  11.538  0.1379 -0.2851 -0.2690
  540TMC3     H 8018   0.856   0.032  11.417  0.3154 -0.5787  0.4378
  540TMC3    H1 8019   0.715   0.034  11.809 -0.6170  1.8496  1.2693
  540TMC3    H2 8020   0.640   0.380  11.557  1.3295  0.0049 -0.1246
  540TMC3    C7 8021   0.575   0.265  11.782 -0.0527 -0.0579 -0.1265
  540TMC3    C8 8022   0.720   0.253  11.336  0.7259 -0.0267  0.1134
  540TMC3    O1 8023   0.475   0.299  11.727  0.5061  0.3070  0.0181
  540TMC3    O2 8024   0.678   0.371  11.311 -0.1067 -0.0392  0.0004
  541MPD2     C 8025   4.367   1.396  13.207  0.2027  0.1054  0.0661
  541MPD2    C1 8026   4.388   1.297  13.108 -0.5434 -0.7096  0.4531
  541MPD2    C2 8027   4.424   1.349  12.982  0.0328 -0.3558  0.2245
  541MPD2    C3 8028   4.438   1.483  12.963 -0.2705  0.2728  0.0022
  541MPD2    C4 8029   4.435   1.570  13.065 -0.2813  1.1902  0.3353
  541MPD2    C5 8030   4.391   1.526  13.187  0.2605 -0.3820  0.3221
  541MPD2     H 8031   4.440   1.277  12.902  0.8871  2.7081 -2.3571
  541MPD2    H1 8032   4.446   1.677  13.053  1.6267  0.5200 -3.7012
  541MPD2    H2 8033   4.329   1.367  13.305  0.1262  0.4007  0.1237
  541MPD2    H3 8034   4.392   1.593  13.272  0.5395  1.6906 -1.3311
  541MPD2     N 8035   4.441   1.537  12.832  0.0524  0.1685 -0.3636
  541MPD2    H5 8036   4.437   1.638  12.829  0.8107  0.1796 -1.0199
  541MPD2    N1 8037   4.354   1.162  13.116 -0.1049 -0.0636 -0.0072
  541MPD2    H7 8038   4.342   1.104  13.034  0.6942  0.8433 -0.7514
  542TMC3    C1 8039   4.324   1.548  12.625 -0.1549 -0.4480  0.0157
  542TMC3    C2 8040   4.243   1.485  12.527  0.5049 -0.0153  0.1327
  542TMC3    C3 8041   4.193   1.559  12.424  1.0328  0.1861 -0.3923
  542TMC3    C4 8042   4.351   1.680  12.611  0.5731  0.4574  0.4890
  542TMC3    C5 8043   4.296   1.755  12.505 -0.3959  0.2660  0.0551
  542TMC3    C6 8044   4.210   1.698  12.416  0.2515  0.6768 -0.7344
  542TMC3     C 8045   4.385   1.465  12.727  0.1138 -0.8783  0.3656
  542TMC3     O 8046   4.351   1.349  12.712 -0.0858 -0.4354 -0.3595
  542TMC3     H 8047   4.216   1.382  12.547  0.9270 -0.3904 -1.2815
  542TMC3    H1 8048   4.429   1.720  12.674  1.3992  0.7036 -0.7001
  542TMC3    H2 8049   4.161   1.751  12.336 -2.6369  0.1080  0.6366
  542TMC3    C7 8050   4.301   1.902  12.500  0.3312  0.0028  0.7030
  542TMC3    C8 8051   4.157   1.494  12.300 -0.4245 -0.3058 -0.4125
  542TMC3    O1 8052   4.200   1.956  12.465  0.5650  0.5197  0.0193
  542TMC3    O2 8053   4.141   1.559  12.201 -0.1680 -0.7451  0.1992
  543TMC3    C1 8054   3.377   2.219  17.024  0.2249 -0.2464 -0.4368
  543TMC3    C2 8055   3.441   2.172  17.136 -0.5181 -0.3831 -0.1575
  543TMC3    C3 8056   3.372   2.160  17.250 -0.8324 -0.2291 -0.6200
  543TMC3    C4 8057   3.249   2.263  17.031  0.1911  0.3916  0.3856
  543TMC3    C5 8058   3.184   2.255  17.152  0.6617  0.1142  0.3790
  543TMC3    C6 8059   3.244   2.209  17.262 -0.1791  0.0019 -0.2183
  543TMC3     C 8060   3.460   2.224  16.902  0.5591  0.2128 -0.1839
  543TMC3     O 8061   3.581   2.212  16.922 -0.0694 -0.1911  0.3487
  543TMC3     H 8062   3.539   2.127  17.132 -0.3002  0.1852 -1.2524
  543TMC3    H1 8063   3.196   2.302  16.945  1.4492  0.0563 -0.5414
  543TMC3    H2 8064   3.200   2.208  17.360 -2.2603  1.1279 -1.1359
  543TMC3    C7 8065   3.039   2.282  17.145  0.1009  0.0377 -0.8254
  543TMC3    C8 8066   3.433   2.065  17.344  0.1361  0.6449 -0.3936
  543TMC3    O1 8067   3.000   2.342  17.046  0.1728  0.5680  0.7146
  543TMC3    O2 8068   3.548   2.037  17.321 -0.2068  0.2691 -0.8862
  544MPD2     C 8069   3.423   1.696   0.011  0.4541 -0.3666  0.0217
  544MPD2    C1 8070   3.495   1.710  17.590  0.9989  0.7893  0.1095
  544MPD2    C2 8071   3.474   1.827  17.522 -0.3987 -0.3831 -0.2574
  544MPD2    C3 8072   3.374   1.916  17.536 -0.1641  0.9018  0.8540
  544MPD2    C4 8073   3.300   1.897  17.652 -0.1413 -0.0625 -0.5399
  544MPD2    C5 8074   3.327   1.794   0.041 -0.8252 -0.5148  0.2118
  544MPD2     H 8075   3.539   1.847  17.437  1.7410 -0.8187  1.2628
  544MPD2    H1 8076   3.212   1.958  17.672 -0.7708 -0.1108 -3.2047
  544MPD2    H2 8077   3.441   1.607   0.070 -3.8184 -1.4063 -0.2403
  544MPD2    H3 8078   3.268   1.783   0.131 -0.7792 -1.1800  0.1632
  544MPD2     N 8079   3.347   2.015  17.439 -0.4796 -0.1727 -0.5071
  544MPD2    H5 8080   3.259   2.066  17.450 -1.6270 -2.0506 -0.9522
  544MPD2    N1 8081   3.588   1.604  17.556 -0.2774 -0.1863 -0.2460
  544MPD2    H7 8082   3.585   1.531  17.626 -0.5298  0.4957  0.4532
  545TMC3    C1 8083   3.766   1.495  17.446  0.4686 -0.3005 -0.4942
  545TMC3    C2 8084   3.841   1.498  17.329 -0.2862 -0.4463  0.1373
  545TMC3    C3 8085   3.906   1.383  17.295  0.2886  0.3626 -0.2477
  545TMC3    C4 8086   3.754   1.383  17.524 -0.0190 -0.4579  0.2898
  545TMC3    C5 8087   3.823   1.274  17.480 -0.3752  0.4625  0.3645
  545TMC3    C6 8088   3.895   1.264  17.368  0.2005 -0.5505  0.3000
  545TMC3     C 8089   3.672   1.607  17.449 -0.3005 -0.2419  0.7816
  545TMC3     O 8090   3.690   1.696  17.365  0.1360  0.6495 -0.0883
  545TMC3     H 8091   3.849   1.588  17.268 -4.6246 -0.1938 -0.0440
  545TMC3    H1 8092   3.710   1.397  17.622  0.2110 -0.7256  0.4308
  545TMC3    H2 8093   3.943   1.176  17.326  0.3068 -0.1608 -0.3935
  545TMC3    C7 8094   3.837   1.170  17.579 -0.3627 -0.7841  0.1882
  545TMC3    C8 8095   3.986   1.388  17.170 -0.3005 -0.0860  0.1729
  545TMC3    O1 8096   3.771   1.187  17.681  0.1886  0.0210  0.2849
  545TMC3    O2 8097   3.946   1.474  17.090  0.6694 -0.3678 -0.1711
  546MPD2     C 8098   0.229   2.132   0.041 -0.8520  0.0532  0.5654
  546MPD2    C1 8099   0.200   2.151  17.602  0.1328  0.6266  0.2745
  546MPD2    C2 8100   0.282   2.238  17.534 -0.2384 -0.0780  0.6332
  546MPD2    C3 8101   0.363   2.328  17.605  0.0798 -0.1791 -0.2419
  546MPD2    C4 8102   0.369   2.331   0.044 -0.3741 -0.0874  0.6026
  546MPD2    C5 8103   0.305   2.230   0.106 -0.8594  0.2048 -0.1125
  546MPD2     H 8104   0.271   2.248  17.427  1.3488 -0.6198  0.4138
  546MPD2    H1 8105   0.430   2.401   0.100 -0.1523 -0.1364  0.4263
  546MPD2    H2 8106   0.182   2.056   0.102  0.9860 -0.1344  1.7526
  546MPD2    H3 8107   0.317   2.220   0.213 -1.1071  1.9049  0.0770
  546MPD2     N 8108   0.454   2.407  17.529 -0.1508  0.0558 -0.3312
  546MPD2    H5 8109   0.501   2.485  17.575  2.1899 -0.6761 -1.4931
  546MPD2    N1 8110   0.116   2.056  17.539  0.4151  0.2110 -0.2376
  546MPD2    H7 8111   0.090   1.969  17.585 -0.1425 -1.4502 -3.6940
  547TMC3    C1 8112   4.702   1.978  17.356  0.1773  0.3743  0.1204
  547TMC3    C2 8113   4.625   2.012  17.252  0.3044  0.2946  0.1752
  547TMC3    C3 8114   4.536   1.919  17.198 -0.3015 -0.3379 -0.0202
  547TMC3    C4 8115   4.693   1.856  17.414  0.5669  0.2510  0.4514
  547TMC3    C5 8116   4.610   1.764  17.360  0.4086 -0.4233  0.2434
  547TMC3    C6 8117   4.531   1.795  17.248  0.4567  0.2593 -0.3747
  547TMC3     C 8118   0.063   2.078  17.416  0.2748  0.2227  0.6071
  547TMC3     O 8119   0.053   2.186  17.359  0.1421 -0.0794 -0.0788
  547TMC3     H 8120   4.616   2.108  17.203 -0.1057  0.7815  1.2069
  547TMC3    H1 8121   0.040   1.827  17.491  1.1625  1.6855  0.4365
  547TMC3    H2 8122   4.470   1.723  17.195  0.4734  0.3289 -0.4890
  547TMC3    C7 8123   4.620   1.624  17.415  0.3417 -0.4907 -0.0655
  547TMC3    C8 8124   4.483   1.936  17.067 -0.7137 -0.1526 -0.7714
  547TMC3    O1 8125   4.665   1.606  17.529  0.5446  0.4969 -0.0277
  547TMC3    O2 8126   4.385   1.869  17.040  0.1191 -0.2478  0.0894
  548MPD2     C 8127   0.173   3.267  12.147  0.1729  0.1067 -0.1766
  548MPD2    C1 8128   0.141   3.216  12.269  0.1477 -0.6063 -1.0124
  548MPD2    C2 8129   0.244   3.168  12.344  0.2825 -0.6029 -0.1422
  548MPD2    C3 8130   0.379   3.183  12.314  1.1883  0.1166 -0.2742
  548MPD2    C4 8131   0.400   3.251  12.191 -0.1028  0.3343 -0.2096
  548MPD2    C5 8132   0.296   3.278  12.103 -0.3219  0.1066 -0.2410
  548MPD2     H 8133   0.217   3.116  12.435  1.3699 -0.0858  0.4743
  548MPD2    H1 8134   0.500   3.284  12.166  0.0067 -2.0976 -2.8938
  548MPD2    H2 8135   0.096   3.300  12.077  0.2352 -0.0142 -0.3033
  548MPD2    H3 8136   0.309   3.312  12.001  0.1730  0.3436 -0.0968
  548MPD2     N 8137   0.485   3.163  12.398  0.1385 -0.3982  0.5143
  548MPD2    H5 8138   0.576   3.177  12.354 -1.2147  1.5087 -1.6714
  548MPD2    N1 8139   0.007   3.233  12.303 -0.7000 -0.4557  0.7037
  548MPD2    H7 8140   4.669   3.270  12.231  0.6679 -2.3124 -1.4575
  549TMC3    C1 8141   4.542   3.212  12.434  0.4097 -0.3759  0.2330
  549TMC3    C2 8142   4.486   3.332  12.390  0.1888  0.0052 -0.7946
  549TMC3    C3 8143   4.350   3.332  12.399  0.2222  0.4031  0.1667
  549TMC3    C4 8144   4.468   3.111  12.489  0.1088  0.0400 -0.1048
  549TMC3    C5 8145   4.331   3.123  12.503 -0.0078  1.0672 -0.7150
  549TMC3    C6 8146   4.270   3.232  12.447  0.1407  0.1761  0.2042
  549TMC3     C 8147   4.682   3.197  12.431 -0.6528  1.2164  0.5341
  549TMC3     O 8148   0.008   3.129  12.516  0.2948  0.2180  0.0791
  549TMC3     H 8149   4.550   3.400  12.335 -2.5879  1.2756 -2.4341
  549TMC3    H1 8150   4.517   3.017  12.512  0.2029  0.6259  2.1631
  549TMC3    H2 8151   4.162   3.234  12.447  0.1214 -0.8794  0.4716
  549TMC3    C7 8152   4.241   3.010  12.539  0.7800  0.5066 -0.2898
  549TMC3    C8 8153   4.282   3.442  12.332 -0.2313 -0.4813 -0.1111
  549TMC3    O1 8154   4.131   3.038  12.578  0.4400  0.2305  0.1423
  549TMC3    O2 8155   4.168   3.415  12.300 -0.3060  0.5015  0.0599
  550TMC3    C1 8156   3.746   1.076  11.907 -0.1897  0.5822 -0.7717
  550TMC3    C2 8157   3.782   1.054  12.035  0.6972  1.3272 -0.2051
  550TMC3    C3 8158   3.775   1.154  12.132  0.4518  0.1267 -0.3800
  550TMC3    C4 8159   3.688   1.193  11.867  0.0566  0.2367 -0.2838
  550TMC3    C5 8160   3.685   1.297  11.959 -0.2354 -0.5697  0.7311
  550TMC3    C6 8161   3.731   1.275  12.092 -0.8147 -0.1711  0.3875
  550TMC3     C 8162   3.820   0.995  11.808 -0.4741  0.1946  0.4933
  550TMC3     O 8163   3.908   0.918  11.846 -0.8263 -0.7817  0.7212
  550TMC3     H 8164   3.813   0.953  12.058  1.3577  1.5258 -0.2310
  550TMC3    H1 8165   3.655   1.221  11.768 -2.3262  0.2297  0.4956
  550TMC3    H2 8166   3.711   1.352  12.164 -1.7225 -0.1707  0.1283
  550TMC3    C7 8167   3.572   1.385  11.957 -0.3572 -0.1713 -0.3044
  550TMC3    C8 8168   3.774   1.115  12.275  0.0518 -0.7346  0.3516
  550TMC3    O1 8169   3.464   1.325  11.941 -0.3712  1.0240  0.2264
  550TMC3    O2 8170   3.786   1.215  12.345  0.3065 -0.5009  0.1159
  551TMC3    C1 8171   1.024   3.388  12.996  0.9133 -0.1798  0.1393
  551TMC3    C2 8172   1.165   3.388  12.964  0.6264  1.0171 -0.5703
  551TMC3    C3 8173   1.259   3.413  13.054  0.2631  0.0895 -0.0008
  551TMC3    C4 8174   0.988   3.391  13.130 -0.1953 -0.6265  1.0892
  551TMC3    C5 8175   1.089   3.413  13.220  0.5864  0.5024  1.2833
  551TMC3    C6 8176   1.218   3.442  13.183  0.1619 -0.0236  0.0228
  551TMC3     C 8177   0.918   3.412  12.902 -1.0167 -0.4102  0.9523
  551TMC3     O 8178   0.809   3.381  12.940  0.1051  0.4727  0.8137
  551TMC3     H 8179   1.185   3.401  12.858 -1.4382 -0.2349 -1.1242
  551TMC3    H1 8180   0.889   3.385  13.174  0.2160 -0.6419  2.0165
  551TMC3    H2 8181   1.285   3.474  13.263 -0.6377 -0.7055  0.9734
  551TMC3    C7 8182   1.044   3.475  13.348  0.0494  0.6513  0.5723
  551TMC3    C8 8183   1.383   3.471  13.003  0.4437 -0.4689  0.6901
  551TMC3    O1 8184   1.110   3.453  13.449 -0.2321  0.1482  1.0063
  551TMC3    O2 8185   1.425   3.422  12.896  0.0638  0.1597  0.1092
  552MPD2     C 8186   3.130   0.693  14.090 -0.3473 -0.3297  0.3521
  552MPD2    C1 8187   3.176   0.562  14.130 -0.9193  0.8165 -0.1908
  552MPD2    C2 8188   3.268   0.553  14.234 -0.1311  0.1287  0.0585
  552MPD2    C3 8189   3.319   0.665  14.292  0.3290 -0.2533  0.0249
  552MPD2    C4 8190   3.278   0.787  14.248  0.2203  0.0650 -0.2914
  552MPD2    C5 8191   3.183   0.798  14.151  0.1402  0.0983  0.3353
  552MPD2     H 8192   3.298   0.450  14.250 -0.6185  0.3289  2.2457
  552MPD2    H1 8193   3.316   0.880  14.288 -0.5729 -0.4267  1.6071
  552MPD2    H2 8194   3.050   0.705  14.018 -0.0205  2.0416  0.3888
  552MPD2    H3 8195   3.138   0.893  14.121  2.6475  0.7237 -1.3930
  552MPD2     N 8196   3.415   0.666  14.404 -0.5450 -0.4478 -0.3331
  552MPD2    H5 8197   3.444   0.759  14.436 -4.4761  0.0935  1.6943
  552MPD2    N1 8198   3.143   0.444  14.052 -0.5550  0.2132  0.3761
  552MPD2    H7 8199   3.187   0.354  14.073 -0.4256  0.4023  0.9101
  553TMC3    C1 8200   3.050   0.323  13.871  0.7888 -0.0631 -0.3604
  553TMC3    C2 8201   3.052   0.317  13.731 -0.1806  0.2045  0.4658
  553TMC3    C3 8202   3.063   0.193  13.685  0.0700  0.0651  0.6587
  553TMC3    C4 8203   3.024   0.221  13.960  0.6365 -0.3899 -0.0989
  553TMC3    C5 8204   3.024   0.104  13.895 -0.2655  0.0442  1.3681
  553TMC3    C6 8205   3.057   0.081  13.767  1.2517  0.8996  0.3024
  553TMC3     C 8206   3.089   0.450  13.933  0.0602  0.1967 -0.4961
  553TMC3     O 8207   3.060   0.543  13.864 -0.2583  0.6387  0.1557
  553TMC3     H 8208   3.074   0.407  13.675 -0.5405  0.0936  0.1442
  553TMC3    H1 8209   3.020   0.231  14.068  1.1619  0.9703 -0.2086
  553TMC3    H2 8210   3.062   4.706  13.723 -0.2005  0.3793  1.3182
  553TMC3    C7 8211   3.067   4.719  13.981 -0.2757  0.0370  0.2173
  553TMC3    C8 8212   3.114   0.168  13.548 -0.1651 -0.2518 -0.1941
  553TMC3    O1 8213   3.028   4.711  14.097  0.3388  0.6855 -0.1241
  553TMC3    O2 8214   3.173   0.065  13.528 -0.1504  0.5701  0.5189
  554TMC3    C1 8215   0.097   0.116  11.223 -0.3366  0.1994 -0.8468
  554TMC3    C2 8216   0.127   0.055  11.107  0.4236 -0.1522  0.4130
  554TMC3    C3 8217   0.229   0.091  11.027  0.1853 -0.7399  0.3266
  554TMC3    C4 8218   0.187   0.216  11.268  0.0993 -0.3330  0.5113
  554TMC3    C5 8219   0.298   0.253  11.190 -0.2596 -0.6897  0.1064
  554TMC3    C6 8220   0.319   0.184  11.076 -0.2396  0.5267  0.1536
  554TMC3     C 8221   0.029   0.036  11.328 -0.0376  0.2076 -0.2874
  554TMC3     O 8222   4.684   4.663  11.292  0.6124  0.2648  0.1605
  554TMC3     H 8223   0.057   4.708  11.066  2.3856 -1.4206 -0.7211
  554TMC3    H1 8224   0.152   0.269  11.356  1.3774  2.0454 -0.3981
  554TMC3    H2 8225   0.399   0.212  11.008  0.1039  1.0254  0.7620
  554TMC3    C7 8226   0.326   0.394  11.176  0.1115  0.4762  0.3016
  554TMC3    C8 8227   0.218   0.087  10.884 -0.1216  0.0706  0.1290
  554TMC3    O1 8228   0.356   0.439  11.066 -0.0454 -0.2076 -0.5075
  554TMC3    O2 8229   0.236   0.190  10.817 -0.3296  0.0075 -0.0027
  555TMC3    C1 8230   3.426   4.127  15.561 -0.1861  0.3966 -0.4787
  555TMC3    C2 8231   3.452   4.183  15.684  0.0294 -0.8572 -0.5411
  555TMC3    C3 8232   3.576   4.163  15.735 -0.3510 -0.4521 -0.1058
  555TMC3    C4 8233   3.510   4.038  15.505  0.7033  0.0859 -0.6810
  555TMC3    C5 8234   3.628   4.008  15.570 -0.4625  0.5048 -1.0530
  555TMC3    C6 8235   3.670   4.074  15.680  0.0885  0.0302  0.3954
  555TMC3     C 8236   3.288   4.123  15.510  0.2673 -0.6554  0.2971
  555TMC3     O 8237   3.201   4.151  15.594 -0.2470  0.1872  0.0319
  555TMC3     H 8238   3.388   4.250  15.740  0.0189  0.5095 -2.2267
  555TMC3    H1 8239   3.482   3.986  15.414 -1.1241 -1.5652  0.8252
  555TMC3    H2 8240   3.772   4.065  15.715  1.4659 -1.3808 -4.0744
  555TMC3    C7 8241   3.695   3.886  15.531  0.8926  0.0343 -0.8111
  555TMC3    C8 8242   3.622   4.276  15.807 -0.1156 -0.3937  0.2644
  555TMC3    O1 8243   3.654   3.837  15.426  0.1194 -0.3519  0.6621
  555TMC3    O2 8244   3.559   4.322  15.897 -0.1492 -0.9740 -0.0375
  556MPD2     C 8245   1.722   1.353  10.541  0.3716  0.5864 -0.1731
  556MPD2    C1 8246   1.738   1.228  10.600  0.2878 -0.4786  0.6075
  556MPD2    C2 8247   1.711   1.120  10.519  0.1014 -0.0386  0.1670
  556MPD2    C3 8248   1.656   1.132  10.396 -0.4720 -0.1940  0.4309
  556MPD2    C4 8249   1.645   1.255  10.339 -0.4309 -0.2809 -0.1366
  556MPD2    C5 8250   1.680   1.364  10.411 -0.1543 -1.1719  0.7033
  556MPD2     H 8251   1.734   1.021  10.558 -1.2641 -0.0274  0.9924
  556MPD2    H1 8252   1.597   1.267  10.243  2.6553 -0.3451 -1.6914
  556MPD2    H2 8253   1.735   1.440  10.605  1.4066 -1.4108  2.3326
  556MPD2    H3 8254   1.648   1.462  10.377 -1.9622 -1.8341  0.4786
  556MPD2     N 8255   1.607   1.016  10.331  0.5328 -0.0277  1.0646
  556MPD2    H5 8256   1.607   0.928  10.381 -0.6549 -0.8719 -0.4206
  556MPD2    N1 8257   1.804   1.205  10.723  0.4073 -0.8424  0.5543
  556MPD2    H7 8258   1.812   1.111  10.761 -0.0871 -0.6977  1.0173
  557TMC3    C1 8259   1.526   0.870  10.169  0.1760  0.4548  0.3169
  557TMC3    C2 8260   1.521   0.834  10.039 -0.3973  0.5089 -0.2803
  557TMC3    C3 8261   1.506   0.708  10.007 -0.4827  0.2566 -0.0819
  557TMC3    C4 8262   1.479   0.785  10.269  0.2622 -0.1970 -0.2212
  557TMC3    C5 8263   1.450   0.655  10.232 -0.3195  0.0611  1.1026
  557TMC3    C6 8264   1.477   0.617  10.100 -0.5602  0.3216 -1.0007
  557TMC3     C 8265   1.574   1.003  10.200 -0.4434  0.1211  0.1532
  557TMC3     O 8266   1.592   1.084  10.113 -0.0753 -0.0794  0.5838
  557TMC3     H 8267   1.548   0.898   9.956  1.8605 -1.0692 -0.7593
  557TMC3    H1 8268   1.473   0.818  10.372 -0.1388  0.7998 -0.5701
  557TMC3    H2 8269   1.456   0.517  10.062  0.0526  0.1915 -0.9996
  557TMC3    C7 8270   1.394   0.560  10.329  0.4554 -0.1639  0.7511
  557TMC3    C8 8271   1.507   0.664   9.868 -0.1834  0.4276  0.1124
  557TMC3    O1 8272   1.383   0.596  10.444  0.0592  0.3176  0.2043
  557TMC3    O2 8273   1.461   0.729   9.776  0.1316  0.3122 -1.1185
  558TMC3    C1 8274   0.178   3.773  10.058  0.4370  0.4058  0.7811
  558TMC3    C2 8275   0.060   3.823  10.115  0.0895  0.3033  0.2101
  558TMC3    C3 8276   4.673   3.844  10.037  0.0684  0.9820  0.2627
  558TMC3    C4 8277   0.191   3.766   9.924  0.1936 -0.4149 -0.1449
  558TMC3    C5 8278   0.081   3.789   9.844 -0.1998 -0.7952  0.3183
  558TMC3    C6 8279   4.682   3.836   9.904 -0.3519 -0.2487 -0.0824
  558TMC3     C 8280   0.301   3.767  10.145  0.0138  0.4518  0.0281
  558TMC3     O 8281   0.408   3.767  10.085  0.0542  0.1106  0.7510
  558TMC3     H 8282   0.053   3.834  10.222  1.2322 -3.3280  0.6664
  558TMC3    H1 8283   0.291   3.758   9.881  0.0127 -2.3409 -0.1950
  558TMC3    H2 8284   4.593   3.840   9.843 -0.0732 -0.2431 -0.4899
  558TMC3    C7 8285   0.093   3.759   9.711 -0.8807  0.7259 -0.4308
  558TMC3    C8 8286   4.533   3.842  10.085  0.2182  0.6192  0.1920
  558TMC3    O1 8287   0.194   3.798   9.652 -0.5385  0.2773  0.3014
  558TMC3    O2 8288   4.449   3.903  10.022 -0.1109 -0.5993 -0.3795
  559MPD2     C 8289   0.144   4.130  10.386 -0.3841  0.6221 -0.3346
  559MPD2    C1 8290   0.026   4.114  10.442  0.0875 -0.3822  0.2744
  559MPD2    C2 8291   0.015   4.106  10.576  0.1400  0.1470 -0.3402
  559MPD2    C3 8292   0.131   4.110  10.657 -0.1672 -0.1604 -0.9651
  559MPD2    C4 8293   0.253   4.131  10.597  0.2682 -0.3357  0.3021
  559MPD2    C5 8294   0.263   4.141  10.460  0.2171 -0.3346 -0.0501
  559MPD2     H 8295   4.641   4.110  10.622  1.0885  0.9484  1.6218
  559MPD2    H1 8296   0.347   4.147  10.648  0.9571  0.2910 -1.1471
  559MPD2    H2 8297   0.148   4.140  10.278 -0.7774 -2.1988 -0.6166
  559MPD2    H3 8298   0.358   4.161  10.414  0.1007 -0.3898 -0.3136
  559MPD2     N 8299   0.119   4.097  10.800 -0.2309 -0.3619 -0.5498
  559MPD2    H5 8300   0.024   4.076  10.830  0.2188 -0.8736  0.4906
  559MPD2    N1 8301   4.639   4.111  10.358 -0.3892  0.6508  0.1275
  559MPD2    H7 8302   4.655   4.124  10.258  1.0810 -2.6423 -0.0587
  560TMC3    C1 8303   0.175   4.057  11.026  0.0307  0.2678  0.6232
  560TMC3    C2 8304   0.069   3.979  11.043  0.0729 -0.5737  0.8259
  560TMC3    C3 8305   0.041   3.925  11.169  0.1580 -0.2070  0.4605
  560TMC3    C4 8306   0.248   4.095  11.139  0.3226 -1.0577 -1.1439
  560TMC3    C5 8307   0.225   4.045  11.263  0.2747 -0.0199  0.3049
  560TMC3    C6 8308   0.119   3.960  11.282 -0.5018  0.5291 -0.2971
  560TMC3     C 8309   0.215   4.102  10.897  0.2320 -0.7537 -0.7180
  560TMC3     O 8310   0.326   4.154  10.888  0.2091 -0.3228 -0.6404
  560TMC3     H 8311   0.019   3.936  10.957 -0.3880  0.3312  0.6467
  560TMC3    H1 8312   0.339   4.151  11.121  1.5063 -2.2026  1.2651
  560TMC3    H2 8313   0.086   3.931  11.381  1.6871 -0.4159  0.1608
  560TMC3    C7 8314   0.306   4.083  11.382  0.3082  0.7447 -0.1455
  560TMC3    C8 8315   4.690   3.798  11.162  0.9107 -0.6071  0.6227
  560TMC3    O1 8316   0.297   4.010  11.478  0.3561  0.4281 -0.3593
  560TMC3    O2 8317   4.716   3.738  11.061  0.3086  0.9413 -0.7442
  561TMC3    C1 8318   2.692   3.123  11.154  0.2243 -0.4131 -0.1859
  561TMC3    C2 8319   2.630   3.050  11.255  0.9405 -0.0996 -0.2072
  561TMC3    C3 8320   2.644   3.098  11.386  0.5955 -0.1437  0.3296
  561TMC3    C4 8321   2.767   3.235  11.185  0.7598  0.2885  0.0583
  561TMC3    C5 8322   2.773   3.269  11.318 -0.2435 -0.4641  0.3395
  561TMC3    C6 8323   2.713   3.208  11.418  0.1322 -0.0004  0.3648
  561TMC3     C 8324   2.650   3.085  11.020 -0.6792  0.2604  0.5164
  561TMC3     O 8325   2.562   3.000  11.009 -0.5089 -0.1606  0.1108
  561TMC3     H 8326   2.585   2.953  11.236  0.5118  0.2898 -1.1653
  561TMC3    H1 8327   2.771   3.320  11.117 -0.7906 -0.5609 -1.0927
  561TMC3    H2 8328   2.755   3.232  11.515 -0.5955 -2.7366  1.3581
  561TMC3    C7 8329   2.812   3.403  11.346  0.1139  0.3076 -0.1309
  561TMC3    C8 8330   2.600   3.011  11.493 -0.3365 -0.8608  0.1806
  561TMC3    O1 8331   2.768   3.449  11.452  0.6353 -0.0749 -0.0790
  561TMC3    O2 8332   2.584   2.891  11.464  0.4078 -0.5001  0.0036
  562TMC3    C1 8333   3.733   4.327  16.168 -0.8596  0.0529 -0.3821
  562TMC3    C2 8334   3.610   4.337  16.219  0.6674  1.2829 -0.5857
  562TMC3    C3 8335   3.536   4.221  16.234  0.7119  0.5900 -0.0963
  562TMC3    C4 8336   3.796   4.207  16.138 -0.4257 -1.0275  0.4595
  562TMC3    C5 8337   3.715   4.095  16.157 -0.4380 -0.0970 -0.2965
  562TMC3    C6 8338   3.584   4.098  16.191 -0.6952  0.6710 -0.5209
  562TMC3     C 8339   3.824   4.435  16.202  0.6911  0.9209 -0.4043
  562TMC3     O 8340   3.771   4.539  16.239  0.5236  0.5792  0.4851
  562TMC3     H 8341   3.576   4.438  16.236 -2.1329  0.2833 -0.2304
  562TMC3    H1 8342   3.893   4.205  16.090 -0.4206  1.8762  0.3016
  562TMC3    H2 8343   3.534   4.003  16.177 -0.4058  0.8286 -2.6703
  562TMC3    C7 8344   3.769   3.957  16.133 -0.2550  0.4073  0.8686
  562TMC3    C8 8345   3.395   4.236  16.225 -0.0484  0.2992 -0.2610
  562TMC3    O1 8346   3.694   3.868  16.096 -0.4647  0.2721 -0.0311
  562TMC3    O2 8347   3.326   4.187  16.315  0.1683 -0.1141  0.1261
  563MPD2     C 8348   0.988   0.601  15.641 -0.3208 -0.0861 -0.4211
  563MPD2    C1 8349   1.006   0.702  15.722  0.4112 -0.0496 -0.1208
  563MPD2    C2 8350   1.109   0.693  15.820 -0.0662  0.1986 -0.1385
  563MPD2    C3 8351   1.204   0.588  15.807 -0.0438 -0.1002  0.0479
  563MPD2    C4 8352   1.185   0.499  15.703  0.3986 -0.6442 -0.5901
  563MPD2    C5 8353   1.075   0.503  15.622  0.3047  0.2901 -0.2488
  563MPD2     H 8354   1.124   0.763  15.901 -1.3921 -1.0550  1.1841
  563MPD2    H1 8355   1.240   0.406  15.697 -1.1704 -1.6650  0.6335
  563MPD2    H2 8356   0.911   0.618  15.566  0.8091  0.5171 -1.4442
  563MPD2    H3 8357   1.059   0.426  15.547  3.7208  0.2405 -0.9468
  563MPD2     N 8358   1.297   0.574  15.912  0.0699 -0.5351 -0.2530
  563MPD2    H5 8359   1.287   0.642  15.987  2.2035  1.8996 -2.1779
  563MPD2    N1 8360   0.914   0.801  15.722  0.4207 -0.0768 -1.0759
  563MPD2    H7 8361   0.824   0.776  15.682 -0.9062  2.3609  0.3683
  564TMC3    C1 8362   0.826   0.849  15.926 -0.3349  0.0836  0.3344
  564TMC3    C2 8363   0.724   0.775  15.889 -0.2136  0.0594 -0.4591
  564TMC3    C3 8364   0.679   0.681  15.978 -0.0993 -0.0134  0.9295
  564TMC3    C4 8365   0.899   0.834  16.046  0.0535  0.1072 -0.2716
  564TMC3    C5 8366   0.857   0.727  16.127  0.0929  0.6362 -0.2847
  564TMC3    C6 8367   0.736   0.664  16.101  0.1076  0.1044 -0.9202
  564TMC3     C 8368   0.907   0.898  15.816 -0.7653  0.6172  0.2168
  564TMC3     O 8369   1.000   0.975  15.838  0.9134  0.4967  0.2065
  564TMC3     H 8370   0.671   0.792  15.796  1.5122 -1.0744 -1.6666
  564TMC3    H1 8371   0.996   0.881  16.055  0.0607  0.4894 -2.2280
  564TMC3    H2 8372   0.691   0.591  16.167 -3.2262  2.4358 -0.6478
  564TMC3    C7 8373   0.962   0.631  16.154 -0.6211  0.6378  0.5260
  564TMC3    C8 8374   0.588   0.572  15.936  0.2463 -0.8950 -0.1217
  564TMC3    O1 8375   1.063   0.668  16.211 -0.3788 -0.4616 -0.6696
  564TMC3    O2 8376   0.509   0.534  16.021 -0.2246 -0.3332 -0.1014
  565TMC3    C1 8377   1.842   2.733   9.955  0.1754  0.2977 -0.4651
  565TMC3    C2 8378   1.818   2.648  10.060  0.4036 -0.0706 -0.0053
  565TMC3    C3 8379   1.723   2.552  10.042 -0.4904  0.3941  0.2310
  565TMC3    C4 8380   1.783   2.721   9.833  0.1281  0.6499  0.4037
  565TMC3    C5 8381   1.699   2.616   9.816  0.3411 -0.1539  0.7594
  565TMC3    C6 8382   1.663   2.540   9.918  0.0664  0.2583 -0.2043
  565TMC3     C 8383   1.962   2.811   9.958 -0.1658 -0.1652  0.3422
  565TMC3     O 8384   2.006   2.850   9.849 -0.1711 -0.3737  0.4237
  565TMC3     H 8385   1.852   2.656  10.163 -0.4279 -1.5501  0.3809
  565TMC3    H1 8386   1.817   2.771   9.743  0.7736 -0.4720  0.0227
  565TMC3    H2 8387   1.596   2.456   9.901  1.0288 -0.3314 -1.0772
  565TMC3    C7 8388   1.623   2.591   9.695  0.7743 -0.2219 -0.0116
  565TMC3    C8 8389   1.711   2.450  10.140 -0.2713  0.3656 -0.5395
  565TMC3    O1 8390   1.580   2.473   9.680 -0.0013 -0.0915 -0.6410
  565TMC3    O2 8391   1.797   2.449  10.226 -0.4455  0.1794  0.2640
  566MPD2     C 8392   2.896   3.871  14.046 -0.1182  0.3744 -0.2795
  566MPD2    C1 8393   3.001   3.890  13.961 -0.5634 -0.1580 -0.1165
  566MPD2    C2 8394   3.006   3.825  13.833  0.0393 -0.0739  0.6554
  566MPD2    C3 8395   2.890   3.779  13.787 -1.1739 -0.3172 -0.4616
  566MPD2    C4 8396   2.777   3.772  13.871  0.2206 -0.0119 -0.1953
  566MPD2    C5 8397   2.787   3.803  13.999 -0.6328 -0.5380 -0.1626
  566MPD2     H 8398   3.100   3.814  13.779 -0.0299  1.8294  0.1309
  566MPD2    H1 8399   2.690   3.718  13.837 -0.7661  1.5589 -0.1686
  566MPD2    H2 8400   2.890   3.917  14.144  0.8977  0.6871 -0.3617
  566MPD2    H3 8401   2.697   3.788  14.058  0.2942  0.5106  1.5335
  566MPD2     N 8402   2.888   3.707  13.671  0.5370  0.0173  0.3885
  566MPD2    H5 8403   2.977   3.701  13.623 -0.4082  2.0345 -1.6676
  566MPD2    N1 8404   3.110   3.969  13.990 -0.7378 -0.2690  0.0293
  566MPD2    H7 8405   3.187   3.946  13.927 -0.2095 -1.4939  1.1059
  567TMC3    C1 8406   3.244   4.127  14.107 -0.0415  0.2487 -0.2418
  567TMC3    C2 8407   3.316   4.141  13.991 -0.5090 -0.1776  0.6668
  567TMC3    C3 8408   3.450   4.149  13.998 -0.3780 -0.3067 -0.4246
  567TMC3    C4 8409   3.302   4.129  14.230 -0.2280 -0.1451  0.1123
  567TMC3    C5 8410   3.437   4.144  14.234 -0.2563  0.1838  0.2463
  567TMC3    C6 8411   3.512   4.144  14.118  0.5046  0.0198 -0.3237
  567TMC3     C 8412   3.115   4.055  14.096 -0.6174 -0.1773  0.2927
  567TMC3     O 8413   3.034   4.085  14.180  0.4445  0.8599 -0.0788
  567TMC3     H 8414   3.265   4.136  13.896 -0.6678 -1.5000  0.8078
  567TMC3    H1 8415   3.246   4.123  14.323  0.9509  1.7514  0.9409
  567TMC3    H2 8416   3.618   4.120  14.126  0.3275 -0.0861  1.6951
  567TMC3    C7 8417   3.497   4.177  14.361 -1.0311  0.5879 -0.1240
  567TMC3    C8 8418   3.534   4.164  13.881 -0.2274  0.8297 -0.9506
  567TMC3    O1 8419   3.582   4.262  14.366 -0.6943  0.2093 -0.6479
  567TMC3    O2 8420   3.486   4.142  13.772  0.0459  0.7113  1.0623
  568MPD2     C 8421   1.296   4.143  16.479 -0.0606 -0.3969  0.3252
  568MPD2    C1 8422   1.179   4.150  16.557  0.2549  0.8546  0.4754
  568MPD2    C2 8423   1.076   4.229  16.513  1.0394 -0.4656  0.4545
  568MPD2    C3 8424   1.084   4.289  16.392  0.0919  0.1416  0.2898
  568MPD2    C4 8425   1.192   4.259  16.311 -0.1937  0.9444  0.4392
  568MPD2    C5 8426   1.293   4.188  16.351  0.2469  0.9447 -0.0235
  568MPD2     H 8427   0.991   4.243  16.578  1.0341  3.2357 -0.3546
  568MPD2    H1 8428   1.200   4.280  16.205  0.6104 -2.5182 -0.1690
  568MPD2    H2 8429   1.383   4.088  16.514  0.5618  1.4092  1.5842
  568MPD2    H3 8430   1.380   4.166  16.290  0.0329 -1.9651  0.6879
  568MPD2     N 8431   0.983   4.377  16.347 -1.1889  0.0733 -0.0364
  568MPD2    H5 8432   0.912   4.404  16.415 -0.4429  0.2962  0.6581
  568MPD2    N1 8433   1.178   4.082  16.681 -0.0428  0.1560 -0.0271
  568MPD2    H7 8434   1.257   4.026  16.711  0.1902  0.7751  0.5097
  569TMC3    C1 8435   0.852   4.514  16.203 -0.4560 -0.1595  0.3104
  569TMC3    C2 8436   0.803   4.594  16.307 -0.0820 -0.1423 -0.2323
  569TMC3    C3 8437   0.698   4.673  16.274  0.6532 -0.7558  0.4607
  569TMC3    C4 8438   0.802   4.523  16.070  0.4146  0.4179  0.3564
  569TMC3    C5 8439   0.674   4.592  16.062  0.2393 -0.3231  0.7228
  569TMC3    C6 8440   0.625   4.673  16.158 -0.0047 -0.8404  0.4599
  569TMC3     C 8441   0.975   4.441  16.224  0.2009 -0.6402  0.2239
  569TMC3     O 8442   1.030   4.417  16.119 -0.4088  0.4903  0.2198
  569TMC3     H 8443   0.850   4.603  16.404 -0.5346 -0.7663  0.0411
  569TMC3    H1 8444   0.845   4.465  15.990  1.4569  0.2578  1.0324
  569TMC3    H2 8445   0.525   4.714  16.149 -0.7022 -1.7941  3.8613
  569TMC3    C7 8446   0.655   4.661  15.933  0.0672  0.2002  0.6215
  569TMC3    C8 8447   0.695   0.089  16.318 -0.3200 -0.2905 -0.2043
  569TMC3    O1 8448   0.677   4.591  15.833 -0.1408  0.6474  0.3601
  569TMC3    O2 8449   0.609   0.151  16.258  0.1634 -0.5278  0.5456
  570TMC3    C1 8450   1.075   3.257  16.370  0.1648 -0.0781 -0.3313
  570TMC3    C2 8451   1.143   3.320  16.270  0.7132 -0.4701  0.1332
  570TMC3    C3 8452   1.102   3.443  16.247 -0.1975 -0.5841 -0.2485
  570TMC3    C4 8453   0.995   3.310  16.466 -0.2693 -1.1896  0.1409
  570TMC3    C5 8454   0.969   3.439  16.447  0.5443  0.6125 -0.1753
  570TMC3    C6 8455   1.018   3.506  16.340  0.0555 -0.2155  0.2495
  570TMC3     C 8456   1.076   3.119  16.350  0.2814  0.2047 -0.2177
  570TMC3     O 8457   1.161   3.065  16.284  0.3488 -0.0827 -0.3361
  570TMC3     H 8458   1.199   3.262  16.198  0.2968 -1.9443  1.0076
  570TMC3    H1 8459   0.965   3.248  16.549  2.8145  0.6582  2.6115
  570TMC3    H2 8460   0.970   3.603  16.329  1.4338  0.5515  1.0803
  570TMC3    C7 8461   0.897   3.506  16.558  0.6092  0.0572  0.0486
  570TMC3    C8 8462   1.142   3.510  16.129 -0.2003 -0.0513 -0.2661
  570TMC3    O1 8463   0.862   3.433  16.649 -0.2055  0.1540  0.3353
  570TMC3    O2 8464   1.053   3.577  16.072  0.1172 -0.0715 -0.2163
  571MPD2     C 8465   3.524   0.031  16.836  0.1939 -0.7243  0.1411
  571MPD2    C1 8466   3.556   4.665  16.940 -0.0695 -0.3640  0.1923
  571MPD2    C2 8467   3.485   4.675  17.052  0.1780  0.6869 -0.3214
  571MPD2    C3 8468   3.380   0.043  17.066 -0.1044 -1.3232 -0.7673
  571MPD2    C4 8469   3.336   0.123  16.963  0.2649  0.3019 -0.2208
  571MPD2    C5 8470   3.419   0.121  16.851  0.0581 -0.6275  0.4401
  571MPD2     H 8471   3.524   4.629  17.143  1.0008 -1.1812 -1.6291
  571MPD2    H1 8472   3.255   0.194  16.971 -0.9390 -0.7863 -2.4699
  571MPD2    H2 8473   3.587   0.044  16.748 -1.9565 -1.0825 -1.4398
  571MPD2    H3 8474   3.405   0.190  16.768  1.1131 -1.7926 -0.7062
  571MPD2     N 8475   3.310   0.051  17.191  0.2120  0.0383  0.0184
  571MPD2    H5 8476   3.218   0.093  17.197  0.4889  0.5862  0.4945
  571MPD2    N1 8477   3.667   4.579  16.920 -0.0143  0.1993 -0.5468
  571MPD2    H7 8478   3.727   4.584  16.838 -2.9822  0.3467 -2.7033
  572TMC3    C1 8479   3.276   0.036  17.419  0.4078  0.2133  0.7711
  572TMC3    C2 8480   3.147   0.022  17.385 -0.4956 -0.3432  0.1259
  572TMC3    C3 8481   3.052   0.062  17.472 -0.1018  0.0143  0.1342
  572TMC3    C4 8482   3.321   0.085  17.535  0.3214 -0.5367 -1.1352
  572TMC3    C5 8483   3.226   0.115  17.628 -0.3990  0.2416  0.2884
  572TMC3    C6 8484   3.090   0.107  17.595  0.9020 -0.3604 -0.7736
  572TMC3     C 8485   3.369   0.016  17.310 -0.5863  0.5908 -0.0404
  572TMC3     O 8486   3.484   4.715  17.343 -0.4089 -0.2313  0.1063
  572TMC3     H 8487   3.118   4.679  17.305 -0.5243 -0.3297  0.1249
  572TMC3    H1 8488   3.428   0.095  17.549 -0.0301  3.2532 -1.1221
  572TMC3    H2 8489   3.018   0.141  17.669  1.3296 -2.1211  0.4567
  572TMC3    C7 8490   3.260   0.191   0.049  0.6637  0.4273 -0.4254
  572TMC3    C8 8491   2.912   0.022  17.441 -0.0303 -0.2279  0.1790
  572TMC3    O1 8492   3.169   0.250   0.104  0.0684 -0.5205 -0.1213
  572TMC3    O2 8493   2.898   4.688  17.337  0.0652 -0.1036 -0.0744
  573MPD2     C 8494   4.401   0.276   0.604  0.1290 -0.4502 -0.3945
  573MPD2    C1 8495   4.499   0.372   0.559  0.7824  0.3120  0.6704
  573MPD2    C2 8496   4.549   0.365   0.425 -0.4163  0.6206 -0.8361
  573MPD2    C3 8497   4.496   0.266   0.342  0.0389  0.1566  0.3428
  573MPD2    C4 8498   4.400   0.180   0.392  0.2223 -0.0803 -0.5835
  573MPD2    C5 8499   4.357   0.178   0.520 -0.3744 -0.3448 -0.3654
  573MPD2     H 8500   4.622   0.439   0.393  0.3307  0.8714  1.4348
  573MPD2    H1 8501   4.352   0.112   0.322 -0.8449  1.5868 -1.4580
  573MPD2    H2 8502   4.368   0.277   0.708  0.4867  1.1485 -0.3042
  573MPD2    H3 8503   4.280   0.109   0.552 -0.0641 -0.4274  0.2162
  573MPD2     N 8504   4.524   0.267   0.204  0.2422  0.8686  0.7543
  573MPD2    H5 8505   4.458   0.222   0.141  0.8971  0.2103  0.5417
  573MPD2    N1 8506   4.541   0.478   0.643  0.2704 -0.1644  0.7619
  573MPD2    H7 8507   4.498   0.465   0.734 -0.8100 -0.4067  0.2248
  574TMC3    C1 8508   4.556   0.415   0.026  0.0979 -0.2768 -0.4044
  574TMC3    C2 8509   4.421   0.415  17.697 -0.5627 -0.2621  0.4342
  574TMC3    C3 8510   4.366   0.518  17.627 -0.7506  0.5842 -0.1841
  574TMC3    C4 8511   4.641   0.520  17.683 -0.0640  0.1398 -0.5388
  574TMC3    C5 8512   4.581   0.617  17.613 -0.3281 -0.0729  0.5159
  574TMC3    C6 8513   4.449   0.620  17.583  0.2506  0.1382 -0.5761
  574TMC3     C 8514   4.613   0.358   0.148  0.3518  0.8536  0.0513
  574TMC3     O 8515   4.716   0.411   0.193 -0.0641 -0.5072  0.0893
  574TMC3     H 8516   4.347   0.344   0.035  1.0540 -1.4035  1.4754
  574TMC3    H1 8517   0.024   0.524   0.004 -0.3879  0.2346  1.2862
  574TMC3    H2 8518   4.417   0.718  17.549  1.7904  0.3618 -1.3806
  574TMC3    C7 8519   4.657   0.745  17.601 -0.7931  0.1537 -0.0905
  574TMC3    C8 8520   4.236   0.554  17.686 -0.6360 -0.5279  0.1074
  574TMC3    O1 8521   4.624   0.832  17.527  0.4836 -0.1646  0.4752
  574TMC3    O2 8522   4.192   0.487   0.080  0.3172 -0.1115 -0.1737
  575TMC3    C1 8523   1.970   1.935  10.819 -0.4035 -0.3782 -0.4131
  575TMC3    C2 8524   1.901   1.826  10.871 -0.6206  0.6519 -0.1588
  575TMC3    C3 8525   1.776   1.813  10.821 -1.2277  0.0907  0.4690
  575TMC3    C4 8526   1.915   2.024  10.731  0.3553  0.5042  0.2355
  575TMC3    C5 8527   1.789   2.007  10.682  0.2289 -0.0525 -0.4230
  575TMC3    C6 8528   1.718   1.892  10.726  0.0715 -0.1370  0.1294
  575TMC3     C 8529   2.094   1.961  10.888 -0.0915 -0.0719  0.0456
  575TMC3     O 8530   2.093   1.911  10.998 -0.5675 -0.7195 -0.3807
  575TMC3     H 8531   1.945   1.769  10.952 -0.0614  1.0149 -0.2043
  575TMC3    H1 8532   1.975   2.108  10.698 -0.2601  0.8431 -0.0002
  575TMC3    H2 8533   1.613   1.869  10.714  0.1077  0.0811 -0.6571
  575TMC3    C7 8534   1.743   2.090  10.575  0.0294 -0.3152 -0.5787
  575TMC3    C8 8535   1.713   1.689  10.831 -0.5782  0.0362  0.1466
  575TMC3    O1 8536   1.828   2.163  10.526 -0.3343 -0.3361  0.2365
  575TMC3    O2 8537   1.633   1.649  10.748  0.4821 -0.0149  0.3217
  576MPD2     C 8538   1.560   3.335  12.412  0.5356 -0.3844  0.1814
  576MPD2    C1 8539   1.649   3.431  12.449 -0.2650 -0.5660  0.4482
  576MPD2    C2 8540   1.616   3.537  12.528 -0.0724 -0.1421 -0.3632
  576MPD2    C3 8541   1.487   3.541  12.583  0.0746 -0.4100  0.3415
  576MPD2    C4 8542   1.399   3.443  12.545  0.2928 -0.4802 -0.0509
  576MPD2    C5 8543   1.433   3.344  12.454  0.5653 -0.2044 -0.6289
  576MPD2     H 8544   1.699   3.607  12.538  0.7904 -1.2395  0.0886
  576MPD2    H1 8545   1.295   3.440  12.573  0.0556  2.2493 -0.6204
  576MPD2    H2 8546   1.584   3.247  12.352  0.2449 -0.2655 -0.1070
  576MPD2    H3 8547   1.365   3.269  12.414 -0.6769  2.4689 -3.5537
  576MPD2     N 8548   1.455   3.655  12.658 -0.5292 -0.2228 -0.2935
  576MPD2    H5 8549   1.527   3.724  12.675 -2.1638  0.7435  2.7219
  576MPD2    N1 8550   1.780   3.432  12.394  0.0963 -0.2554  0.1958
  576MPD2    H7 8551   1.833   3.518  12.403  0.4387 -0.6595  2.1162
  577TMC3    C1 8552   1.964   3.342  12.276  0.0104 -0.5986  1.1104
  577TMC3    C2 8553   2.044   3.242  12.244  0.7398  0.3006 -0.1279
  577TMC3    C3 8554   2.146   3.261  12.152 -0.2303  0.0689 -0.1851
  577TMC3    C4 8555   1.969   3.464  12.201  1.0193  0.1121 -0.1270
  577TMC3    C5 8556   2.083   3.483  12.120 -0.1109  0.0548 -0.5185
  577TMC3    C6 8557   2.176   3.384  12.102  0.4388  0.4275  0.1125
  577TMC3     C 8558   1.848   3.315  12.355 -0.3094  0.0539 -0.4698
  577TMC3     O 8559   1.818   3.198  12.382  0.4390  0.0137  0.0398
  577TMC3     H 8560   2.036   3.150  12.301 -1.1612 -0.3916 -1.5119
  577TMC3    H1 8561   1.920   3.554  12.238 -0.2979 -0.6428 -0.0634
  577TMC3    H2 8562   2.266   3.407  12.045  0.0182  0.9599 -0.3444
  577TMC3    C7 8563   2.105   3.610  12.051  0.3319 -0.2519  0.2059
  577TMC3    C8 8564   2.214   3.149  12.098 -0.0203 -0.3321 -0.6026
  577TMC3    O1 8565   2.218   3.631  12.007  0.6263  0.0125  0.9191
  577TMC3    O2 8566   2.187   3.039  12.148 -0.2449 -0.0855  0.5397
  578MPD2     C 8567   3.997   3.046   0.709 -0.9340  0.3938 -0.0982
  578MPD2    C1 8568   4.100   2.962   0.692 -0.3765 -0.7923 -0.2628
  578MPD2    C2 8569   4.188   2.916   0.797 -0.5720  0.1951 -0.5357
  578MPD2    C3 8570   4.145   2.959   0.924  0.1562 -0.4640  0.0181
  578MPD2    C4 8571   4.036   3.041   0.942 -0.5220  0.5171 -1.1131
  578MPD2    C5 8572   3.966   3.081   0.838 -0.0495 -0.0320  0.0114
  578MPD2     H 8573   4.282   2.864   0.786 -1.7941 -2.1110 -0.0505
  578MPD2    H1 8574   4.007   3.079   1.039 -1.6782  2.0087 -2.0354
  578MPD2    H2 8575   3.944   3.081   0.621  0.0233 -0.2730 -0.9315
  578MPD2    H3 8576   3.879   3.145   0.852  0.9844  1.9592 -2.6360
  578MPD2     N 8577   4.221   2.921   1.037 -0.8031  0.5850  0.2465
  578MPD2    H5 8578   4.303   2.866   1.015  0.1424  0.8205  3.1887
  578MPD2    N1 8579   4.131   2.936   0.557 -0.9339  0.0466  0.2762
  578MPD2    H7 8580   4.085   2.996   0.489  0.1299  0.5514  0.0092
  579TMC3    C1 8581   4.315   2.927   1.251 -0.1982 -0.2716 -0.6859
  579TMC3    C2 8582   4.352   3.007   1.354  0.2222  0.4109  0.0758
  579TMC3    C3 8583   4.441   2.959   1.444  0.3344  0.6275  0.0476
  579TMC3    C4 8584   4.376   2.809   1.230  0.0374  0.0001  0.2592
  579TMC3    C5 8585   4.480   2.770   1.314  0.1555  0.4973 -0.3260
  579TMC3    C6 8586   4.515   2.845   1.427 -0.5983 -0.4469 -0.1562
  579TMC3     C 8587   4.215   2.983   1.159 -0.7748  0.0718 -0.2316
  579TMC3     O 8588   4.142   3.065   1.213 -0.0888  0.1559 -0.5608
  579TMC3     H 8589   4.286   3.090   1.377 -2.0607 -1.2662 -0.4317
  579TMC3    H1 8590   4.328   2.739   1.162  0.6097 -0.8340  0.7226
  579TMC3    H2 8591   4.587   2.801   1.495 -0.6085  1.1493  0.8851
  579TMC3    C7 8592   4.557   2.653   1.284  0.3207 -0.4447 -0.2145
  579TMC3    C8 8593   4.471   3.053   1.558 -0.2882  0.0499  1.0566
  579TMC3    O1 8594   4.652   2.626   1.355 -0.1648  0.5140  0.5360
  579TMC3    O2 8595   4.385   3.122   1.611  0.5575  0.8075  0.1980
  580TMC3    C1 8596   3.976   2.737  11.477  0.1611  0.6512  0.3317
  580TMC3    C2 8597   4.061   2.695  11.376 -1.0833 -0.0145 -0.0125
  580TMC3    C3 8598   4.059   2.567  11.336 -0.8568  0.0111  0.1605
  580TMC3    C4 8599   3.900   2.641  11.545  0.0849  0.0950 -0.1069
  580TMC3    C5 8600   3.906   2.513  11.513  0.1259 -0.2215 -0.7954
  580TMC3    C6 8601   3.979   2.474  11.403  0.2889 -0.4173 -0.3700
  580TMC3     C 8602   3.990   2.874  11.517  0.4261 -0.3507 -0.1293
  580TMC3     O 8603   4.060   2.948  11.454 -0.2652  0.8471 -0.5663
  580TMC3     H 8604   4.126   2.768  11.328  0.3124 -1.4748 -0.3451
  580TMC3    H1 8605   3.859   2.664  11.642  1.4909 -2.7136  1.1566
  580TMC3    H2 8606   4.019   2.373  11.397  0.9228 -0.2373  0.9080
  580TMC3    C7 8607   3.912   2.428  11.624 -0.1698 -0.3587 -0.2523
  580TMC3    C8 8608   4.165   2.515  11.259  0.6998  0.1208 -0.4946
  580TMC3    O1 8609   3.921   2.474  11.738 -0.6439 -0.0369 -0.2361
  580TMC3    O2 8610   4.157   2.399  11.218  0.1265  0.4666  0.1442
  581MPD2     C 8611   2.002   2.624  15.351  0.2001  0.1149  0.0109
  581MPD2    C1 8612   2.050   2.548  15.244 -0.7082 -0.5957  0.2311
  581MPD2    C2 8613   1.970   2.549  15.129  0.1568  0.6337 -0.1808
  581MPD2    C3 8614   1.847   2.622  15.126 -0.0483 -0.5863  0.0033
  581MPD2    C4 8615   1.807   2.695  15.235 -1.2036  0.1319  0.2098
  581MPD2    C5 8616   1.882   2.689  15.349 -0.1005  0.2470 -0.0443
  581MPD2     H 8617   1.999   2.487  15.045  0.0755 -0.3216  0.4857
  581MPD2    H1 8618   1.711   2.744  15.247 -1.9506 -0.9628 -1.2353
  581MPD2    H2 8619   2.059   2.625  15.443  1.0512  2.9482 -0.5450
  581MPD2    H3 8620   1.846   2.728  15.444  3.0542  0.0720  1.2315
  581MPD2     N 8621   1.765   2.642  15.013  0.0755 -0.8119  0.3867
  581MPD2    H5 8622   1.687   2.705  15.028  0.6070 -0.5286  2.0093
  581MPD2    N1 8623   2.166   2.463  15.253  0.8218  0.2504 -0.0876
  581MPD2    H7 8624   2.222   2.467  15.337  1.0205 -0.9251 -0.1627
  582TMC3    C1 8625   2.342   2.306  15.201 -0.1887 -0.2964  0.1146
  582TMC3    C2 8626   2.336   2.255  15.328 -0.1197  0.2574 -0.3516
  582TMC3    C3 8627   2.398   2.136  15.348 -0.0059  0.5170 -0.0016
  582TMC3    C4 8628   2.417   2.253  15.099 -1.2371  0.2977  0.0869
  582TMC3    C5 8629   2.469   2.128  15.119 -0.2976  0.1042 -0.2331
  582TMC3    C6 8630   2.472   2.071  15.245 -0.0795 -0.5226  0.4417
  582TMC3     C 8631   2.227   2.387  15.153  0.7869  0.2490 -0.1441
  582TMC3     O 8632   2.205   2.387  15.033  0.2252  0.2056 -0.0671
  582TMC3     H 8633   2.293   2.312  15.410  0.9414 -0.9100  1.0151
  582TMC3    H1 8634   2.416   2.305  15.004  1.4735 -0.0068 -0.0877
  582TMC3    H2 8635   2.507   1.971  15.267 -1.1904 -1.0460 -0.1667
  582TMC3    C7 8636   2.537   2.067  15.007 -0.1319  0.6164  1.6487
  582TMC3    C8 8637   2.436   2.106  15.482  0.0229  0.5348 -0.0459
  582TMC3    O1 8638   2.611   2.145  14.949 -0.0629  0.5019  0.5710
  582TMC3    O2 8639   2.370   2.169  15.566  0.6438 -0.3540  0.1592
  583MPD2     C 8640   1.823   3.454  16.704  0.6996  0.2460  0.0576
  583MPD2    C1 8641   1.871   3.578  16.675 -0.1981 -0.1537  0.1625
  583MPD2    C2 8642   1.881   3.667  16.785 -0.1930 -0.0833 -0.0314
  583MPD2    C3 8643   1.843   3.633  16.916  0.0677  0.2949 -0.0953
  583MPD2    C4 8644   1.793   3.508  16.932  0.6019 -0.2586 -0.0043
  583MPD2    C5 8645   1.788   3.416  16.829 -0.4758  0.2682 -0.1891
  583MPD2     H 8646   1.918   3.768  16.773 -0.0787  0.0653  1.6075
  583MPD2    H1 8647   1.773   3.473  17.033 -0.2222 -3.4825 -1.2786
  583MPD2    H2 8648   1.809   3.371  16.635 -1.9187  1.0312 -0.3474
  583MPD2    H3 8649   1.757   3.314  16.844  2.9766 -0.9441 -1.1734
  583MPD2     N 8650   1.842   3.723  17.019  0.2306  0.0157 -0.3059
  583MPD2    H5 8651   1.872   3.814  16.987 -0.5648  0.5140  0.3846
  583MPD2    N1 8652   1.912   3.625  16.545  0.5595 -0.0533  0.4424
  583MPD2    H7 8653   1.939   3.722  16.536  0.4875 -0.0739 -0.0154
  584TMC3    C1 8654   1.828   3.814  17.230  0.5760  0.8541 -0.2607
  584TMC3    C2 8655   1.834   3.935  17.173  0.0579 -0.0760  0.1446
  584TMC3    C3 8656   1.889   4.031  17.252 -0.7063  0.0793 -0.5177
  584TMC3    C4 8657   1.888   3.777  17.351  0.0728 -0.1181 -0.5870
  584TMC3    C5 8658   1.936   3.877  17.416 -0.2206 -0.1995  0.6249
  584TMC3    C6 8659   1.939   4.009  17.377  0.0154 -0.5131  0.0846
  584TMC3     C 8660   1.795   3.703  17.144 -0.3605  0.3172  0.0336
  584TMC3     O 8661   1.749   3.603  17.201 -0.5206 -1.0288 -0.0177
  584TMC3     H 8662   1.776   3.956  17.084  1.7820 -3.5308 -1.7999
  584TMC3    H1 8663   1.891   3.675  17.388  0.6780 -0.3205 -1.1944
  584TMC3    H2 8664   2.005   4.076  17.431  0.5084 -1.7032  0.9570
  584TMC3    C7 8665   1.959   3.843  17.557 -0.0749 -0.0159  0.4863
  584TMC3    C8 8666   1.902   4.162  17.189  0.4225 -0.5007 -0.7909
  584TMC3    O1 8667   1.977   3.726  17.577 -0.2287  0.0786 -0.1003
  584TMC3    O2 8668   1.854   4.168  17.077  0.4880 -0.0254  0.5886
  585MPD2     C 8669   1.419   1.806   1.269  0.2261 -0.4504 -0.1532
  585MPD2    C1 8670   1.303   1.808   1.192 -0.0792 -0.1971 -0.7844
  585MPD2    C2 8671   1.313   1.795   1.060 -0.0777  0.3376 -0.1090
  585MPD2    C3 8672   1.433   1.802   0.996  0.6652 -0.4721  0.5677
  585MPD2    C4 8673   1.543   1.788   1.071  0.4292 -0.0790  0.9014
  585MPD2    C5 8674   1.538   1.797   1.204 -0.1595 -0.0267 -0.7319
  585MPD2     H 8675   1.220   1.805   1.006  0.5738  2.1282 -0.8829
  585MPD2    H1 8676   1.641   1.774   1.025 -0.1430 -0.6730 -0.1393
  585MPD2    H2 8677   1.423   1.802   1.377  0.0144 -1.5742 -0.1873
  585MPD2    H3 8678   1.628   1.785   1.263 -0.4234  2.2521  0.1295
  585MPD2     N 8679   1.445   1.803   0.855  0.1637  0.3104  0.0533
  585MPD2    H5 8680   1.538   1.785   0.819 -0.4789  0.3795 -1.6573
  585MPD2    N1 8681   1.178   1.824   1.261 -0.9359  0.5392  0.6914
  585MPD2    H7 8682   1.184   1.844   1.360 -1.0683 -0.2287  0.8496
  586TMC3    C1 8683   1.391   1.877   0.636  0.4196 -0.1802 -0.0583
  586TMC3    C2 8684   1.487   1.799   0.580  0.5988 -0.1982 -0.4148
  586TMC3    C3 8685   1.504   1.811   0.447 -0.3891  0.0778 -0.1626
  586TMC3    C4 8686   1.327   1.975   0.562  0.0201 -0.3704 -0.3861
  586TMC3    C5 8687   1.350   1.987   0.428 -0.5582  0.5376  0.8449
  586TMC3    C6 8688   1.438   1.900   0.365  0.8140 -0.1773 -0.0869
  586TMC3     C 8689   1.348   1.860   0.770  0.1121  0.1714 -0.1780
  586TMC3     O 8690   1.255   1.929   0.803  0.2259  0.5310  0.2191
  586TMC3     H 8691   1.543   1.719   0.628 -0.4710 -0.3556  0.5781
  586TMC3    H1 8692   1.256   2.040   0.612  0.5782  1.6003 -2.1672
  586TMC3    H2 8693   1.440   1.893   0.257  1.2826  0.0012 -0.0920
  586TMC3    C7 8694   1.258   2.055   0.345  0.7770  0.1558 -0.3142
  586TMC3    C8 8695   1.604   1.738   0.365  0.0646  0.0936 -0.2552
  586TMC3    O1 8696   1.147   2.057   0.395  0.4249 -0.5983  0.5277
  586TMC3    O2 8697   1.567   1.707   0.255  0.2030  0.1432 -0.1652
  587TMC3    C1 8698   3.857   1.108  16.124 -0.0265  0.2241  0.6438
  587TMC3    C2 8699   3.902   1.214  16.212  0.4550  0.1182  0.0658
  587TMC3    C3 8700   4.031   1.258  16.210 -0.4096 -0.2160 -0.5912
  587TMC3    C4 8701   3.953   1.061  16.039  0.0230 -0.5341  0.5267
  587TMC3    C5 8702   4.087   1.111  16.043  1.0657  0.1946 -0.8569
  587TMC3    C6 8703   4.126   1.206  16.134  0.4234  0.1563 -0.2032
  587TMC3     C 8704   3.717   1.073  16.101  0.4609 -0.4550 -0.0037
  587TMC3     O 8705   3.693   1.032  15.989 -0.2212 -0.4159 -0.1087
  587TMC3     H 8706   3.825   1.247  16.281  0.8395  0.0759  0.5149
  587TMC3    H1 8707   3.924   0.985  15.967 -0.4703  0.7403 -0.6206
  587TMC3    H2 8708   4.222   1.256  16.134  0.1472  0.6838  0.7136
  587TMC3    C7 8709   4.171   1.077  15.935 -0.6215  0.6286  0.5147
  587TMC3    C8 8710   4.055   1.391  16.259  0.4449 -0.2250  0.1551
  587TMC3    O1 8711   4.123   0.997  15.855  0.0159  0.2022 -0.4593
  587TMC3    O2 8712   4.172   1.427  16.274  0.3608 -0.6836 -0.2351
  588TMC3    C1 8713   1.126   4.109   9.782  0.4829  0.2412 -0.0798
  588TMC3    C2 8714   1.176   3.986   9.766  0.3861  0.1981 -0.1748
  588TMC3    C3 8715   1.282   3.944   9.848  0.1984 -0.4698  0.8560
  588TMC3    C4 8716   1.173   4.190   9.879 -0.3503  0.5128  0.1791
  588TMC3    C5 8717   1.281   4.153   9.950 -0.8186 -0.2623 -0.0977
  588TMC3    C6 8718   1.344   4.031   9.934  0.3135 -0.3734  0.2691
  588TMC3     C 8719   1.039   4.165   9.681 -0.6294 -0.2625  0.1557
  588TMC3     O 8720   1.049   4.112   9.571 -0.9266 -0.6076 -0.5688
  588TMC3     H 8721   1.136   3.916   9.694  1.5452  0.8747 -1.4704
  588TMC3    H1 8722   1.113   4.273   9.915 -0.7186  0.2981  0.0618
  588TMC3    H2 8723   1.431   4.018   9.997  0.2388 -1.8274  0.0699
  588TMC3    C7 8724   1.368   4.254  10.012 -0.2011 -0.0232 -0.1432
  588TMC3    C8 8725   1.319   3.801   9.854 -0.5062  0.7668 -0.1709
  588TMC3    O1 8726   1.446   4.220  10.100 -0.3194  0.2279  0.2863
  588TMC3    O2 8727   1.250   3.724   9.793 -0.2726  0.1816  0.0691
  589TMC3    C1 8728   0.451   1.015   1.128 -0.3530 -0.1091  0.5738
  589TMC3    C2 8729   0.542   1.074   1.211 -0.4878 -0.0650  0.2457
  589TMC3    C3 8730   0.652   0.998   1.241  0.2774 -0.3474 -0.8335
  589TMC3    C4 8731   0.476   0.887   1.078  0.0628  0.2624 -0.2913
  589TMC3    C5 8732   0.587   0.818   1.100 -0.4409 -0.7659 -0.2181
  589TMC3    C6 8733   0.674   0.868   1.195  0.1313  0.0976 -0.5796
  589TMC3     C 8734   0.319   1.061   1.115 -0.7619 -0.5577  0.2643
  589TMC3     O 8735   0.238   1.001   1.044  0.2095  0.6233 -0.1528
  589TMC3     H 8736   0.530   1.179   1.236  0.8991 -0.0920  1.0699
  589TMC3    H1 8737   0.398   0.836   1.022  1.0398 -0.5413 -0.9012
  589TMC3    H2 8738   0.764   0.812   1.218  0.3473 -0.4175 -2.7051
  589TMC3    C7 8739   0.580   0.678   1.068  0.8455 -0.5049 -0.1699
  589TMC3    C8 8740   0.761   1.059   1.313  0.2357 -0.3938  0.8768
  589TMC3    O1 8741   0.638   0.597   1.137  0.2772  0.5298 -0.0278
  589TMC3    O2 8742   0.875   1.010   1.292 -0.6617  0.1284 -0.4389
  590MPD2     C 8743   4.508   0.081  16.740  0.1707 -0.1823  0.2592
  590MPD2    C1 8744   4.461   0.141  16.627  0.0355 -0.0192 -0.4515
  590MPD2    C2 8745   4.557   0.158  16.532  0.0674  0.6221  0.2513
  590MPD2    C3 8746   4.687   0.111  16.545  0.3099  1.2709  0.2782
  590MPD2    C4 8747   0.004   0.042  16.659  0.1103  0.2268  0.4483
  590MPD2    C5 8748   4.631   0.028  16.756 -0.6182  0.7990 -1.0543
  590MPD2     H 8749   4.535   0.213  16.441  0.9549  1.3822  0.4969
  590MPD2    H1 8750   0.100   4.715  16.659  0.0108  0.0399  0.5736
  590MPD2    H2 8751   4.457   0.073  16.836 -0.7321  0.0024 -0.1984
  590MPD2    H3 8752   4.652   4.702  16.850 -2.0436  0.9122 -0.6713
  590MPD2     N 8753   0.061   0.135  16.439 -0.0878 -0.8199 -0.3088
  590MPD2    H5 8754   0.025   0.201  16.370 -0.6537  0.7631  1.5033
  590MPD2    N1 8755   4.337   0.200  16.627 -0.3080 -0.4030  0.2441
  590MPD2    H7 8756   4.286   0.198  16.715  1.1661  0.6011  1.1355
  591TMC3    C1 8757   0.259   0.137  16.323 -0.1919  0.9478  0.3294
  591TMC3    C2 8758   0.259   0.072  16.201 -0.0303  0.9281  0.0828
  591TMC3    C3 8759   0.271   0.151  16.091  0.5812 -0.1461 -0.2192
  591TMC3    C4 8760   0.257   0.275  16.335 -0.4697 -0.1427  0.8166
  591TMC3    C5 8761   0.287   0.352  16.227  0.5813  0.2569 -0.0147
  591TMC3    C6 8762   0.285   0.288  16.104  0.0895  0.3683 -0.5576
  591TMC3     C 8763   0.185   0.068  16.421 -0.0662 -0.2145 -0.1102
  591TMC3     O 8764   0.215   4.682  16.460  0.0391  0.2899  0.3423
  591TMC3     H 8765   0.241   4.690  16.194 -1.0050  1.1500 -0.7366
  591TMC3    H1 8766   0.250   0.320  16.433  0.3308  2.8456 -0.4931
  591TMC3    H2 8767   0.269   0.351  16.017 -0.6149  1.6421  0.4950
  591TMC3    C7 8768   0.218   0.477  16.232 -1.3089 -0.2002  0.0368
  591TMC3    C8 8769   0.279   0.083  15.966 -0.2512  0.3011 -0.3956
  591TMC3    O1 8770   0.111   0.472  16.292 -0.1539  0.0506 -0.2558
  591TMC3    O2 8771   0.328   4.695  15.974  0.0633  0.3642  0.5131
  592MPD2     C 8772   0.594   2.658  11.628  0.0414 -0.3775 -0.4789
  592MPD2    C1 8773   0.596   2.712  11.756 -0.0510 -0.5046 -0.3375
  592MPD2    C2 8774   0.557   2.634  11.868  0.8587  0.6249 -0.6400
  592MPD2    C3 8775   0.517   2.499  11.838  0.0937  0.9640 -0.6102
  592MPD2    C4 8776   0.518   2.456  11.709 -0.0452  0.5955 -0.1323
  592MPD2    C5 8777   0.543   2.537  11.605 -0.1246 -0.2559  0.2178
  592MPD2     H 8778   0.541   2.662  11.972  1.5490  1.6210 -0.7966
  592MPD2    H1 8779   0.498   2.356  11.674  0.9296 -0.9839  3.7508
  592MPD2    H2 8780   0.640   2.713  11.546  2.1175 -0.4970  0.6039
  592MPD2    H3 8781   0.558   2.506  11.502  0.8738 -0.9052  0.5616
  592MPD2     N 8782   0.488   2.407  11.948  0.2874  0.3079 -0.4078
  592MPD2    H5 8783   0.468   2.444  12.040  0.4332 -0.4620 -0.0685
  592MPD2    N1 8784   0.649   2.834  11.771 -0.1229  0.0005 -0.8541
  592MPD2    H7 8785   0.679   2.882  11.687 -2.2679  0.4315 -1.3868
  593TMC3    C1 8786   0.710   3.032  11.883  0.5842  0.5582 -0.3662
  593TMC3    C2 8787   0.694   3.114  11.990  0.0073 -0.0406 -0.1495
  593TMC3    C3 8788   0.770   3.229  12.002  0.7349  0.6236 -0.2259
  593TMC3    C4 8789   0.815   3.054  11.794  0.4201 -0.5027  0.7069
  593TMC3    C5 8790   0.886   3.168  11.806  0.0995 -0.3572  0.5502
  593TMC3    C6 8791   0.866   3.265  11.903  0.3683  0.1027 -0.7340
  593TMC3     C 8792   0.657   2.902  11.895 -0.5909  0.0251 -0.0845
  593TMC3     O 8793   0.635   2.868  12.007 -0.0364 -0.2003  0.1210
  593TMC3     H 8794   0.633   3.081  12.073 -0.2975 -0.5569 -0.5839
  593TMC3    H1 8795   0.843   2.981  11.719  1.7530  1.1250 -0.3635
  593TMC3    H2 8796   0.932   3.349  11.923  1.3089 -1.3991  2.4166
  593TMC3    C7 8797   1.024   3.139  11.789 -0.3792  0.4438  0.5498
  593TMC3    C8 8798   0.809   3.239  12.138 -0.3284 -0.2812  0.2881
  593TMC3    O1 8799   1.057   3.021  11.810  0.3837 -0.3756  0.6023
  593TMC3    O2 8800   0.725   3.229  12.226  0.8837  0.5711  0.1265
  594MPD2     C 8801   4.128   0.765  14.848  0.8437 -0.0952 -0.6461
  594MPD2    C1 8802   4.038   0.810  14.755  0.1657 -0.2361 -0.6282
  594MPD2    C2 8803   4.092   0.889  14.658 -0.5404 -0.5654 -0.2473
  594MPD2    C3 8804   4.228   0.919  14.647 -0.9291  0.3122 -1.4177
  594MPD2    C4 8805   4.314   0.869  14.739 -0.0319  0.1527 -0.0016
  594MPD2    C5 8806   4.261   0.802  14.845 -0.3938 -0.0695  0.5557
  594MPD2     H 8807   4.037   0.935  14.576 -0.2103  0.0060 -0.1413
  594MPD2    H1 8808   4.420   0.890  14.749 -0.2681  0.6797  1.3933
  594MPD2    H2 8809   4.099   0.704  14.933 -0.8150  1.0224 -0.3982
  594MPD2    H3 8810   4.334   0.767  14.917 -0.6054 -1.7437 -0.0493
  594MPD2     N 8811   4.280   1.000  14.539 -0.0324 -0.3803 -0.4402
  594MPD2    H5 8812   4.207   1.049  14.489 -1.7206 -1.9346  0.5287
  594MPD2    N1 8813   3.905   0.770  14.763 -0.5085 -0.2008  0.0833
  594MPD2    H7 8814   3.874   0.698  14.828 -0.1957  0.0234  0.4790
  595TMC3    C1 8815   4.587   1.204  14.271  0.4570 -0.3106  0.5440
  595TMC3    C2 8816   4.562   1.122  14.377  0.3947 -0.6965 -1.1854
  595TMC3    C3 8817   4.436   1.114  14.425  0.4954  0.5891 -0.1217
  595TMC3    C4 8818   4.486   1.278  14.216 -0.4674 -0.2068 -0.1755
  595TMC3    C5 8819   4.362   1.272  14.268 -0.6530 -0.0862  0.6974
  595TMC3    C6 8820   4.336   1.195  14.380 -0.2782  0.3538 -0.0291
  595TMC3     C 8821   4.706   1.277  14.296  0.7782  0.3067  0.0856
  595TMC3     O 8822   0.038   1.259  14.405  0.2443 -0.0287  0.6968
  595TMC3     H 8823   4.645   1.071  14.425  0.2880 -0.7802 -1.0885
  595TMC3    H1 8824   4.504   1.347  14.134 -0.5454  0.9493  0.7874
  595TMC3    H2 8825   4.249   1.215  14.442  0.8367  0.5882  1.4380
  595TMC3    C7 8826   4.283   1.401  14.259 -0.0796  0.1913  0.3529
  595TMC3    C8 8827   4.415   1.008  14.517 -0.0731 -0.1531 -0.1971
  595TMC3    O1 8828   4.180   1.400  14.329  0.1001  0.1682 -0.3576
  595TMC3    O2 8829   4.498   0.919  14.534 -0.3526  0.2275  0.1666
  596MPD2     C 8830   2.690   3.445  16.519 -0.3261  0.2071  0.4418
  596MPD2    C1 8831   2.704   3.579  16.492  0.5000  0.0131 -0.0018
  596MPD2    C2 8832   2.740   3.613  16.365 -0.9363 -0.4851 -0.1642
  596MPD2    C3 8833   2.780   3.512  16.273 -0.4480  0.0013 -0.0767
  596MPD2    C4 8834   2.766   3.379  16.307 -0.0033  0.3347 -0.1943
  596MPD2    C5 8835   2.716   3.351  16.430  0.3027 -0.4990 -0.6261
  596MPD2     H 8836   2.749   3.717  16.333  1.5642 -0.1968  1.4505
  596MPD2    H1 8837   2.795   3.294  16.247  1.1868  0.3825  0.3277
  596MPD2    H2 8838   2.656   3.401  16.612  1.8038 -1.7781  0.2883
  596MPD2    H3 8839   2.697   3.247  16.456 -0.0101 -0.8105 -2.0992
  596MPD2     N 8840   2.815   3.540  16.141 -0.2673  0.1732 -0.0241
  596MPD2    H5 8841   2.830   3.460  16.080  2.7079 -0.2775  1.3312
  596MPD2    N1 8842   2.670   3.679  16.585 -0.5367  0.3564  0.5811
  596MPD2    H7 8843   2.673   3.774  16.548 -2.9154  1.1500  2.4624
  597TMC3    C1 8844   2.651   3.777  16.800  0.7326  0.3360  0.4509
  597TMC3    C2 8845   2.733   3.875  16.753  0.0999 -0.1830 -0.6209
  597TMC3    C3 8846   2.717   3.994  16.818  0.3999 -0.1434 -0.1528
  597TMC3    C4 8847   2.595   3.780  16.926 -0.0327 -0.2250  0.1939
  597TMC3    C5 8848   2.595   3.900  16.987 -1.2420  0.6198  0.1504
  597TMC3    C6 8849   2.644   4.012  16.933 -0.0579 -0.4184 -0.8076
  597TMC3     C 8850   2.632   3.655  16.717 -0.5157 -0.0272 -0.1065
  597TMC3     O 8851   2.583   3.557  16.772 -0.3103  0.1541 -0.1274
  597TMC3     H 8852   2.795   3.868  16.664  0.2999 -0.2608 -0.4758
  597TMC3    H1 8853   2.547   3.697  16.976  0.5298 -1.7962 -1.8829
  597TMC3    H2 8854   2.670   4.096  16.996 -1.1178 -0.4828 -0.2920
  597TMC3    C7 8855   2.530   3.912  17.113 -0.1999 -1.0787 -0.0757
  597TMC3    C8 8856   2.790   4.100  16.767 -0.0972  0.1677 -0.4549
  597TMC3    O1 8857   2.523   3.805  17.174 -0.0731  0.3710 -0.0507
  597TMC3    O2 8858   2.906   4.072  16.736 -0.2812 -0.1235  0.2178
  598TMC3    C1 8859   1.058   0.715  14.963 -0.3139 -0.0448  0.2260
  598TMC3    C2 8860   0.982   0.610  14.919 -0.3002  0.3899 -0.6061
  598TMC3    C3 8861   0.966   0.589  14.786 -0.1924  0.4101  0.6547
  598TMC3    C4 8862   1.095   0.813  14.877 -0.3264 -0.1444 -0.9030
  598TMC3    C5 8863   1.077   0.787  14.746 -0.7893 -0.2090  0.3930
  598TMC3    C6 8864   1.010   0.681  14.694 -0.2556  0.0187 -0.7861
  598TMC3     C 8865   1.073   0.741  15.105  0.2564 -0.5719  0.0659
  598TMC3     O 8866   0.991   0.692  15.182  0.1937 -0.6500  0.0343
  598TMC3     H 8867   0.952   0.536  14.991 -0.8875 -0.0045 -1.2491
  598TMC3    H1 8868   1.145   0.903  14.910 -0.3719 -0.3921 -0.1515
  598TMC3    H2 8869   1.004   0.666  14.587 -4.0200 -2.9327 -0.1465
  598TMC3    C7 8870   1.108   0.893  14.652 -0.5119  0.4037 -1.2404
  598TMC3    C8 8871   0.875   0.493  14.731  0.5682  0.2857 -0.0727
  598TMC3    O1 8872   1.033   0.911  14.557  0.4084  0.0446  0.1618
  598TMC3    O2 8873   0.858   0.494  14.610 -0.2431 -0.2190 -0.2657
  599MPD2     C 8874   1.502   2.955  16.482  0.0250 -0.7702 -0.1430
  599MPD2    C1 8875   1.474   2.821  16.477  0.1800 -0.7387 -0.9624
  599MPD2    C2 8876   1.355   2.772  16.526  0.4276 -0.1213  0.1647
  599MPD2    C3 8877   1.265   2.861  16.583  0.1340 -0.4233 -0.6733
  599MPD2    C4 8878   1.295   2.999  16.584 -0.9803 -0.3777  0.8057
  599MPD2    C5 8879   1.420   3.043  16.540  0.0183  0.0758 -0.1415
  599MPD2     H 8880   1.338   2.665  16.515 -0.8309 -0.0620  1.5010
  599MPD2    H1 8881   1.220   3.065  16.625  0.5709  2.9442 -1.7239
  599MPD2    H2 8882   1.602   2.988  16.459  0.6430 -2.9287 -0.5067
  599MPD2    H3 8883   1.452   3.146  16.529  2.4079 -0.6089  0.3727
  599MPD2     N 8884   1.136   2.812  16.628  0.2072  0.2865  0.0251
  599MPD2    H5 8885   1.071   2.882  16.660 -2.2672 -2.9167  2.0221
  599MPD2    N1 8886   1.580   2.746  16.427 -0.4529  0.2816 -0.2724
  599MPD2    H7 8887   1.670   2.791  16.414 -0.7078 -0.0164 -3.2370
  600TMC3    C1 8888   0.952   2.662  16.684  0.4475  0.3542  0.1900
  600TMC3    C2 8889   0.903   2.537  16.662 -0.5854 -0.3396 -0.0658
  600TMC3    C3 8890   0.769   2.528  16.644 -0.2881 -0.0875  0.8892
  600TMC3    C4 8891   0.866   2.769  16.701  0.2728  0.7353 -0.2657
  600TMC3    C5 8892   0.730   2.739  16.705  0.3134 -0.2001  0.2530
  600TMC3    C6 8893   0.675   2.622  16.666  0.2605  0.0432 -0.1919
  600TMC3     C 8894   1.098   2.680  16.658 -0.3456 -0.4318  0.2952
  600TMC3     O 8895   1.166   2.577  16.664  0.0004 -0.0967  0.3746
  600TMC3     H 8896   0.964   2.447  16.657 -0.6310 -0.3220 -1.0767
  600TMC3    H1 8897   0.888   2.870  16.734  0.3470  0.5920  0.1207
  600TMC3    H2 8898   0.569   2.599  16.659  0.2205 -0.1333  0.9970
  600TMC3    C7 8899   0.633   2.834  16.766 -0.6199  0.6028  0.4892
  600TMC3    C8 8900   0.727   2.389  16.641 -0.2430  0.2029  0.2132
  600TMC3    O1 8901   0.662   2.952  16.755  0.1038  0.2473  0.1385
  600TMC3    O2 8902   0.771   2.317  16.730 -0.0780  0.3526  0.5010
  601MPD2     C 8903   3.587   0.542   0.211 -0.1471 -0.4733 -0.1004
  601MPD2    C1 8904   3.461   0.555   0.162  0.3058  0.7780  0.2300
  601MPD2    C2 8905   3.397   0.438   0.135 -0.4868 -0.4824  0.0572
  601MPD2    C3 8906   3.460   0.316   0.126 -0.0836 -0.4241 -0.0668
  601MPD2    C4 8907   3.594   0.318   0.153 -0.2230  0.7251 -0.0197
  601MPD2    C5 8908   3.660   0.428   0.199  0.1712  0.0272 -0.1346
  601MPD2     H 8909   3.292   0.441   0.110 -0.2473  0.5996 -0.7994
  601MPD2    H1 8910   3.651   0.227   0.137 -0.6392  0.4496  0.0803
  601MPD2    H2 8911   3.644   0.630   0.237 -2.5909  1.0741  0.0748
  601MPD2    H3 8912   3.765   0.413   0.219  0.3717 -0.2370 -1.3781
  601MPD2     N 8913   3.394   0.194   0.081 -0.7327  0.4181  1.0561
  601MPD2    H5 8914   3.453   0.113   0.066 -0.0420  1.4820 -2.0248
  601MPD2    N1 8915   3.392   0.681   0.139  0.1441  0.7527  0.4855
  601MPD2    H7 8916   3.306   0.678   0.086 -0.0428 -3.4758  0.9628
  602TMC3    C1 8917   3.355   0.904   0.117 -0.5893  0.3434 -0.4387
  602TMC3    C2 8918   3.414   1.022   0.057  0.1833 -0.9301 -0.4627
  602TMC3    C3 8919   3.335   1.074  17.655 -0.0399  0.9292  0.1009
  602TMC3    C4 8920   3.227   0.864   0.091  0.3602  0.1211  0.1041
  602TMC3    C5 8921   3.153   0.938  17.696  0.7012 -0.0269 -0.1071
  602TMC3    C6 8922   3.215   1.037  17.618 -0.0540  0.3750  0.8386
  602TMC3     C 8923   3.454   0.805   0.154  0.2663  0.2211  0.4137
  602TMC3     O 8924   3.565   0.843   0.196  0.4826  0.2265  0.0319
  602TMC3     H 8925   3.520   1.045   0.062 -0.2560  1.0518 -0.5420
  602TMC3    H1 8926   3.175   0.785   0.145  0.2128  0.4723  0.4696
  602TMC3    H2 8927   3.177   1.064  17.520 -0.0797  2.2065  1.3452
  602TMC3    C7 8928   3.013   0.908  17.655  0.0730 -0.3405 -0.1707
  602TMC3    C8 8929   3.392   1.183  17.576 -0.2190  0.1512  0.5039
  602TMC3    O1 8930   2.983   0.794  17.681  0.0009  0.2043  0.5373
  602TMC3    O2 8931   3.505   1.169  17.531  0.4835 -0.2532 -0.0942
  603TMC3    C1 8932   1.269   1.703  11.134  0.2069 -0.1447  0.1964
  603TMC3    C2 8933   1.277   1.653  11.262 -0.4249 -0.6188 -0.8087
  603TMC3    C3 8934   1.346   1.728  11.360  0.2058 -0.4632  0.2597
  603TMC3    C4 8935   1.343   1.810  11.086 -0.0204  0.5329 -0.0157
  603TMC3    C5 8936   1.413   1.873  11.180  0.2328  0.1593 -0.2471
  603TMC3    C6 8937   1.423   1.836  11.317  0.2463 -0.2401  0.0924
  603TMC3     C 8938   1.209   1.603  11.038  0.1417  0.5717  0.0936
  603TMC3     O 8939   1.229   1.614  10.916 -0.5253  0.0879 -0.0676
  603TMC3     H 8940   1.243   1.555  11.296  0.0018 -0.3742  0.2964
  603TMC3    H1 8941   1.356   1.828  10.980 -0.1093  3.1185  0.4039
  603TMC3    H2 8942   1.503   1.881  11.374  0.6168 -0.0585 -0.5598
  603TMC3    C7 8943   1.510   1.976  11.148  0.2075 -0.2892 -0.2641
  603TMC3    C8 8944   1.375   1.666  11.485  0.6879  0.6549  0.1471
  603TMC3    O1 8945   1.609   1.989  11.221 -0.8015 -0.0242  0.4987
  603TMC3    O2 8946   1.343   1.546  11.502  0.2246 -0.6412  0.5922
  604MPD2     C 8947   1.989   0.092  16.020 -0.2103 -0.3912  0.2979
  604MPD2    C1 8948   1.916   4.718  16.072  1.2475 -0.0043 -0.1158
  604MPD2    C2 8949   1.894   4.615  15.991 -0.5441  0.9745 -0.5742
  604MPD2    C3 8950   1.963   4.590  15.877  0.8831  0.7467 -0.9828
  604MPD2    C4 8951   2.036   4.696  15.820 -0.1134 -0.6580  0.3548
  604MPD2    C5 8952   2.040   0.086  15.893 -0.4824 -0.1056  0.1909
  604MPD2     H 8953   1.839   4.530  16.030  1.1136  1.3058  2.4688
  604MPD2    H1 8954   2.081   4.701  15.722  0.4162 -0.9555  0.5884
  604MPD2    H2 8955   1.999   0.185  16.075  0.6152 -1.2064  1.5016
  604MPD2    H3 8956   2.106   0.166  15.861 -1.2579  0.7337  0.6823
  604MPD2     N 8957   1.937   4.476  15.798 -0.0944  0.2942 -0.1858
  604MPD2    H5 8958   1.857   4.421  15.826  0.4320 -2.0878 -3.3231
  604MPD2    N1 8959   1.852   0.023  16.197 -0.6170  0.0645  0.9561
  604MPD2    H7 8960   1.879   0.113  16.236 -0.4196 -0.1807  1.3723
  605TMC3    C1 8961   1.661   0.053  16.334 -1.0006 -0.0748 -0.0405
  605TMC3    C2 8962   1.745   0.118  16.415  0.0540  0.3887 -0.3970
  605TMC3    C3 8963   1.690   0.235  16.460 -0.1691 -0.3467  0.3648
  605TMC3    C4 8964   1.534   0.099  16.292  0.1514 -0.9670 -0.3933
  605TMC3    C5 8965   1.492   0.223  16.341  0.3942 -0.0327  0.0090
  605TMC3    C6 8966   1.571   0.292  16.428 -0.2992 -0.4035 -0.5229
  605TMC3     C 8967   1.729   4.694  16.230  0.0521 -0.2076  0.5089
  605TMC3     O 8968   1.673   4.601  16.174 -0.4143  0.1189  0.3529
  605TMC3     H 8969   1.843   0.078  16.439  0.2386  2.3134  2.0958
  605TMC3    H1 8970   1.476   0.054  16.213  1.4617 -2.0542 -0.7432
  605TMC3    H2 8971   1.536   0.386  16.470  0.9320  0.2699 -0.9864
  605TMC3    C7 8972   1.359   0.273  16.310  1.0209 -0.5225 -0.1848
  605TMC3    C8 8973   1.765   0.305  16.559 -0.4052 -0.8445  0.2795
  605TMC3    O1 8974   1.311   0.367  16.370  0.1482  0.2581  0.2861
  605TMC3    O2 8975   1.761   0.429  16.566 -0.4599  0.1000  0.4629
  606TMC3    C1 8976   3.676   3.613  16.588  0.3756  1.2851  0.3371
  606TMC3    C2 8977   3.752   3.517  16.657 -0.0046 -0.2961  0.6051
  606TMC3    C3 8978   3.698   3.384  16.653  0.1235  0.3220  0.8329
  606TMC3    C4 8979   3.550   3.596  16.554 -0.2535 -0.1060  0.3988
  606TMC3    C5 8980   3.500   3.471  16.576  0.0948  0.5290 -0.7822
  606TMC3    C6 8981   3.566   3.361  16.628 -0.0885  0.3813  0.2540
  606TMC3     C 8982   3.747   3.739  16.565  0.2551 -0.6851  0.0229
  606TMC3     O 8983   3.870   3.750  16.563  0.1218  0.0910  0.5080
  606TMC3     H 8984   3.859   3.524  16.676  0.1032  1.2405 -0.5908
  606TMC3    H1 8985   3.488   3.673  16.509  0.5456  1.1897  1.5057
  606TMC3    H2 8986   3.534   3.258  16.632  1.2673 -0.0197  0.9161
  606TMC3    C7 8987   3.351   3.467  16.609  0.0600 -0.2363  0.4197
  606TMC3    C8 8988   3.776   3.282  16.723 -0.3243  0.5295  0.1859
  606TMC3    O1 8989   3.286   3.560  16.563  0.1945 -0.4005  0.8737
  606TMC3    O2 8990   3.853   3.324  16.808  0.2951 -0.5454 -0.5553
  607MPD2     C 8991   0.698   1.967  11.437  0.5055  0.1188 -0.5669
  607MPD2    C1 8992   0.661   2.004  11.566  0.3317  0.3658 -0.3647
  607MPD2    C2 8993   0.595   1.907  11.643 -0.3996 -0.0215  0.1259
  607MPD2    C3 8994   0.573   1.782  11.597  0.1999 -0.0533 -0.1721
  607MPD2    C4 8995   0.602   1.748  11.468  0.0012 -0.0737 -0.6751
  607MPD2    C5 8996   0.667   1.839  11.396  0.1106  0.4637 -0.4567
  607MPD2     H 8997   0.585   1.915  11.751  1.6034  1.1014  0.2326
  607MPD2    H1 8998   0.581   1.650  11.427  0.4422 -1.0995  1.5324
  607MPD2    H2 8999   0.741   2.033  11.363  0.6833  0.0463 -0.5287
  607MPD2    H3 9000   0.700   1.813  11.297  0.7929  1.3281 -0.4494
  607MPD2     N 9001   0.516   1.691  11.685  0.5978  0.1165  0.2898
  607MPD2    H5 9002   0.493   1.729  11.776  1.7278  2.2347 -0.3162
  607MPD2    N1 9003   0.697   2.123  11.626  0.1251 -0.3811  0.3688
  607MPD2    H7 9004   0.662   2.132  11.721  1.0970  2.2748  0.4691
  608TMC3    C1 9005   0.862   2.279  11.674  0.0605 -0.0900  0.1923
  608TMC3    C2 9006   0.848   2.246  11.809  0.2480 -0.0457  0.2653
  608TMC3    C3 9007   0.956   2.256  11.894 -0.2804  0.2037 -1.0432
  608TMC3    C4 9008   0.971   2.337  11.635 -0.3266  0.0101  0.8167
  608TMC3    C5 9009   1.075   2.362  11.721 -0.0210  0.1053  0.3294
  608TMC3    C6 9010   1.071   2.320  11.856 -0.6173  0.3043 -0.2269
  608TMC3     C 9011   0.792   2.207  11.569  0.2935 -0.4111  0.3063
  608TMC3     O 9012   0.826   2.222  11.453  0.4210 -0.7654  0.1957
  608TMC3     H 9013   0.758   2.196  11.843  0.8202 -0.6350  0.8959
  608TMC3    H1 9014   0.979   2.367  11.531 -0.4270 -0.1241  0.7712
  608TMC3    H2 9015   1.146   2.339  11.932  1.3176 -1.2049 -1.7610
  608TMC3    C7 9016   1.177   2.457  11.681 -0.2493 -0.1509  0.1397
  608TMC3    C8 9017   0.937   2.207  12.028 -0.2034 -0.2952  0.6008
  608TMC3    O1 9018   1.201   2.463  11.561  0.1067  0.6717 -0.0306
  608TMC3    O2 9019   0.966   2.278  12.130  0.4272 -0.1932  0.2602
  609TMC3    C1 9020   4.083   1.222   9.135 -0.0506 -0.4776 -0.3826
  609TMC3    C2 9021   4.030   1.224   9.014  0.0710  0.0288  0.8700
  609TMC3    C3 9022   4.108   1.168   8.914  0.1292 -0.2640 -0.0751
  609TMC3    C4 9023   4.210   1.171   9.161  0.8222  0.6083  0.4054
  609TMC3    C5 9024   4.285   1.111   9.053 -0.2891  1.2473 -0.0754
  609TMC3    C6 9025   4.231   1.112   8.927  0.2174 -0.2219  0.1099
  609TMC3     C 9026   4.014   1.288   9.251 -0.0273  0.3513  0.5266
  609TMC3     O 9027   4.067   1.268   9.361  0.3221  0.6144 -0.3901
  609TMC3     H 9028   3.932   1.266   8.996  1.0439  1.3074 -1.4096
  609TMC3    H1 9029   4.254   1.181   9.259  1.8725  1.6358 -0.1601
  609TMC3    H2 9030   4.295   1.072   8.848  2.0119  0.9440  0.9648
  609TMC3    C7 9031   4.401   1.039   9.082 -0.4442 -0.3917  0.3552
  609TMC3    C8 9032   4.050   1.168   8.780  0.2733  0.4173  0.0267
  609TMC3    O1 9033   4.463   1.083   9.177 -0.0218 -0.1364  0.2773
  609TMC3    O2 9034   3.970   1.259   8.748  0.4372 -0.0083 -0.3632
  610TMC3    C1 9035   0.871   1.446  12.382  0.7406  0.4576 -0.1279
  610TMC3    C2 9036   0.890   1.523  12.266 -1.0243  1.1230 -0.2758
  610TMC3    C3 9037   1.017   1.567  12.244 -0.3703 -0.1262  0.3996
  610TMC3    C4 9038   0.978   1.395  12.453 -0.3157  0.2897  0.2256
  610TMC3    C5 9039   1.099   1.438  12.419  0.1787 -0.0035  0.7425
  610TMC3    C6 9040   1.124   1.533  12.317 -0.4647  0.4804  1.1159
  610TMC3     C 9041   0.754   1.474  12.455 -0.2568 -0.1859 -0.2828
  610TMC3     O 9042   0.661   1.524  12.395 -0.7127 -0.2011  0.2633
  610TMC3     H 9043   0.808   1.568  12.210  0.2262  0.3770 -2.7343
  610TMC3    H1 9044   0.955   1.321  12.529 -0.3051  0.1988  0.1402
  610TMC3    H2 9045   1.223   1.564  12.286 -0.2890 -1.4447 -0.2506
  610TMC3    C7 9046   1.204   1.402  12.511 -0.0863 -0.2070  1.1215
  610TMC3    C8 9047   1.030   1.636  12.121  0.6143  0.5774  0.3644
  610TMC3    O1 9048   1.287   1.482  12.546  0.0731 -0.0696  0.8057
  610TMC3    O2 9049   0.944   1.608  12.037 -0.2949  0.2439  0.3932
  611MPD2     C 9050   0.798   2.219  10.058 -0.1164  0.2749  0.0825
  611MPD2    C1 9051   0.814   2.202  10.192 -0.5027  0.0032 -1.2156
  611MPD2    C2 9052   0.937   2.242  10.250  0.1235  1.0396 -0.3650
  611MPD2    C3 9053   1.036   2.294  10.165 -0.1233 -0.3868  0.2377
  611MPD2    C4 9054   1.021   2.297  10.027  0.1363  0.1608 -0.8065
  611MPD2    C5 9055   0.898   2.267   9.981 -0.3103  1.2509  0.6475
  611MPD2     H 9056   0.955   2.248  10.357 -3.4189  1.7237  0.2023
  611MPD2    H1 9057   1.098   2.335   9.960  1.0824  2.0323  1.3595
  611MPD2    H2 9058   0.707   2.194  10.005 -0.4376 -0.8053  1.1243
  611MPD2    H3 9059   0.879   2.263   9.874  2.9907  1.8900  0.0321
  611MPD2     N 9060   1.152   2.350  10.209  0.6937  0.4980  0.3717
  611MPD2    H5 9061   1.208   2.395  10.137 -2.9314  1.3631 -1.9157
  611MPD2    N1 9062   0.711   2.141  10.259 -0.4718  0.0034  0.4424
  611MPD2    H7 9063   0.649   2.088  10.200  1.5384 -0.2650 -1.4144
  612TMC3    C1 9064   1.306   2.430  10.360 -0.4756  0.4649  0.1888
  612TMC3    C2 9065   1.394   2.397  10.457 -0.2270 -0.0992  0.0940
  612TMC3    C3 9066   1.494   2.490  10.481 -0.7188  0.3805 -0.7346
  612TMC3    C4 9067   1.326   2.539  10.278 -0.1034  0.0119 -0.4387
  612TMC3    C5 9068   1.430   2.628  10.298  0.3193 -0.4017  0.3217
  612TMC3    C6 9069   1.520   2.601  10.396  0.0842 -0.1655  0.7152
  612TMC3     C 9070   1.203   2.339  10.340 -0.0932  0.3989 -0.5617
  612TMC3     O 9071   1.174   2.242  10.412  0.3679  0.0116 -0.1043
  612TMC3     H 9072   1.372   2.298  10.496  1.8331  0.0566  1.6482
  612TMC3    H1 9073   1.247   2.567  10.210 -1.0690 -2.1427 -0.2039
  612TMC3    H2 9074   1.620   2.642  10.386 -0.4052  0.0320 -3.5395
  612TMC3    C7 9075   1.447   2.742  10.205  0.4374 -0.1507  0.5887
  612TMC3    C8 9076   1.585   2.464  10.592 -0.0987  0.3208  0.3257
  612TMC3    O1 9077   1.553   2.799  10.219 -0.1672 -0.1546 -0.3125
  612TMC3    O2 9078   1.693   2.516  10.590 -0.5486 -0.0965  0.0379
  613MPD2     C 9079   4.638   4.534  16.366 -1.0160 -0.4310  0.2376
  613MPD2    C1 9080   4.675   4.462  16.244 -0.7416 -0.3064  0.0156
  613MPD2    C2 9081   4.707   4.325  16.264 -0.1229 -0.1530 -0.0731
  613MPD2    C3 9082   4.674   4.254  16.376 -0.5684  0.1351  0.5226
  613MPD2    C4 9083   4.637   4.323  16.492 -0.2105 -0.3095  0.1519
  613MPD2    C5 9084   4.623   4.462  16.486  0.4284 -0.2753 -0.6737
  613MPD2     H 9085   0.030   4.278  16.179  2.3724 -0.0700  1.2645
  613MPD2    H1 9086   4.601   4.270  16.579 -1.0948 -0.1236 -0.0983
  613MPD2    H2 9087   4.595   4.633  16.362  1.4492  0.5486 -2.2099
  613MPD2    H3 9088   4.598   4.504  16.582 -0.5438 -3.1142  0.3198
  613MPD2     N 9089   4.688   4.109  16.361 -0.1553  0.2432  0.0716
  613MPD2    H5 9090   0.007   4.082  16.273 -1.4891 -0.8996 -0.2271
  613MPD2    N1 9091   4.670   4.532  16.116 -0.3307  0.1111  0.2363
  613MPD2    H7 9092   4.645   4.630  16.118  0.1575  0.2187  1.1627
  614TMC3    C1 9093   4.627   4.531  15.878  0.3406  0.0085  0.8429
  614TMC3    C2 9094   4.662   4.476  15.758  0.1845  0.0914 -0.2114
  614TMC3    C3 9095   4.572   4.446  15.662 -0.0826  0.1339 -0.6277
  614TMC3    C4 9096   4.496   4.563  15.899  0.3572 -0.5472 -0.8904
  614TMC3    C5 9097   4.409   4.549  15.800 -0.0852 -0.3323  0.1282
  614TMC3    C6 9098   4.443   4.487  15.685 -0.2210 -0.1321  0.1694
  614TMC3     C 9099   4.689   4.468  15.993  0.1109 -0.5787 -0.8221
  614TMC3     O 9100   0.004   4.353  15.966 -0.2146  0.1679  0.0867
  614TMC3     H 9101   0.040   4.441  15.744 -0.4927 -1.4381 -1.2447
  614TMC3    H1 9102   4.463   4.590  15.999  0.5730  1.5911 -1.3825
  614TMC3    H2 9103   4.369   4.482  15.606  1.2149 -1.0970 -1.1377
  614TMC3    C7 9104   4.274   4.582  15.839 -0.6986 -0.1517  1.2999
  614TMC3    C8 9105   4.577   4.309  15.626  0.4158 -0.5232 -0.7108
  614TMC3    O1 9106   4.270   4.682  15.919 -0.5327 -0.5002  0.2164
  614TMC3    O2 9107   4.500   4.270  15.544 -0.4178  0.7656  0.1244
  615MPD2     C 9108   3.518   0.306  16.557  0.4365  0.5775  0.0399
  615MPD2    C1 9109   3.576   0.409  16.484  0.0323 -0.3357 -0.1078
  615MPD2    C2 9110   3.523   0.431  16.360 -0.3436 -0.1083 -0.2096
  615MPD2    C3 9111   3.412   0.364  16.303 -0.6184 -0.8807  0.0007
  615MPD2    C4 9112   3.363   0.260  16.386  0.1668  0.5107  0.2067
  615MPD2    C5 9113   3.417   0.231  16.507 -0.0860  0.1278  0.1844
  615MPD2     H 9114   3.562   0.510  16.297  1.8604  0.2370  1.5706
  615MPD2    H1 9115   3.272   0.211  16.354 -0.1515  0.7937  0.6763
  615MPD2    H2 9116   3.562   0.257  16.643 -0.2952  0.2758  0.2463
  615MPD2    H3 9117   3.383   0.143  16.559  0.0315 -0.5513 -0.8741
  615MPD2     N 9118   3.366   0.402  16.174  0.2004 -0.5017 -0.3936
  615MPD2    H5 9119   3.402   0.487  16.132 -0.8253 -0.6572 -1.5909
  615MPD2    N1 9120   3.678   0.483  16.541 -0.0312 -0.0715 -0.2731
  615MPD2    H7 9121   3.734   0.438  16.612 -2.7710 -2.7117  0.2182
  616TMC3    C1 9122   3.854   0.648  16.538  0.3438 -0.0295  0.3941
  616TMC3    C2 9123   3.910   0.761  16.476 -0.3128  0.6267 -0.1363
  616TMC3    C3 9124   4.027   0.810  16.523 -0.2991 -0.3911  0.2108
  616TMC3    C4 9125   3.923   0.588  16.641 -0.0124  0.1393 -0.6456
  616TMC3    C5 9126   4.041   0.646  16.684  0.1309  0.3807 -0.2060
  616TMC3    C6 9127   4.096   0.755  16.627 -0.4352 -0.1385  0.0602
  616TMC3     C 9128   3.727   0.598  16.488  0.0125  0.0028  0.6131
  616TMC3     O 9129   3.680   0.667  16.396  0.5475  0.0326  0.1822
  616TMC3     H 9130   3.861   0.810  16.392  0.1688  0.5945 -0.4345
  616TMC3    H1 9131   3.885   0.495  16.682  0.7732  0.8884  1.7739
  616TMC3    H2 9132   4.181   0.805  16.672  1.4378 -0.7204 -2.8114
  616TMC3    C7 9133   4.095   0.579  16.796  0.2761  0.2151 -0.3056
  616TMC3    C8 9134   4.094   0.915  16.452 -0.3355 -0.4312  0.6823
  616TMC3    O1 9135   4.013   0.526  16.871 -0.4255 -0.4641  0.0552
  616TMC3    O2 9136   4.033   1.006  16.398  0.0230 -0.1172  0.4601
  617MPD2     C 9137   1.557   3.714  13.436  0.0522 -0.0781  0.7041
  617MPD2    C1 9138   1.613   3.613  13.518  0.1939 -0.9273  0.1066
  617MPD2    C2 9139   1.523   3.545  13.602 -0.1680  0.3447  0.1571
  617MPD2    C3 9140   1.386   3.571  13.599  0.0812 -0.8722 -0.7223
  617MPD2    C4 9141   1.339   3.658  13.502  0.1442 -0.3214  0.0719
  617MPD2    C5 9142   1.422   3.736  13.432  0.0675 -0.0600 -0.0805
  617MPD2     H 9143   1.553   3.461  13.664 -0.7958 -0.4088 -0.5538
  617MPD2    H1 9144   1.232   3.676  13.498  0.0978 -0.5338  0.3594
  617MPD2    H2 9145   1.622   3.785  13.386  0.1906 -0.0148  0.9787
  617MPD2    H3 9146   1.388   3.818  13.370  1.2065 -0.2206 -0.9107
  617MPD2     N 9147   1.298   3.494  13.676  0.4149 -0.1278  0.2225
  617MPD2    H5 9148   1.200   3.501  13.649  0.0672 -0.3944  1.4160
  617MPD2    N1 9149   1.747   3.571  13.500  0.0828 -0.0548  0.5379
  617MPD2    H7 9150   1.808   3.610  13.429  2.2698 -0.3009  2.2856
  618TMC3    C1 9151   1.930   3.414  13.501  0.3963  0.4040 -0.4987
  618TMC3    C2 9152   1.946   3.281  13.528 -0.4850 -0.0066 -0.4037
  618TMC3    C3 9153   2.070   3.238  13.496  0.1380 -0.8290  0.0495
  618TMC3    C4 9154   2.023   3.501  13.445  0.3355  0.0409  0.5406
  618TMC3    C5 9155   2.148   3.447  13.421  0.3821 -0.3296 -0.0088
  618TMC3    C6 9156   2.168   3.314  13.441 -0.5500  0.0793 -0.0154
  618TMC3     C 9157   1.802   3.461  13.555 -0.2571  0.7430 -0.0293
  618TMC3     O 9158   1.759   3.403  13.651  0.0877 -0.2597  0.1594
  618TMC3     H 9159   1.873   3.210  13.565  0.1177 -1.0514 -1.2373
  618TMC3    H1 9160   1.997   3.604  13.426 -2.1471 -0.9207 -1.2742
  618TMC3    H2 9161   2.264   3.276  13.410 -0.2944  0.0983  0.7437
  618TMC3    C7 9162   2.227   3.512  13.318  0.2671  0.2529  0.0996
  618TMC3    C8 9163   2.087   3.096  13.500 -0.4944  0.4285 -0.9100
  618TMC3    O1 9164   2.325   3.449  13.273  0.1058 -0.3190  0.1143
  618TMC3    O2 9165   1.992   3.024  13.523 -0.0868  0.4502  0.2714
  619MPD2     C 9166   3.208   4.196  13.556 -0.6235 -0.0802 -0.1124
  619MPD2    C1 9167   3.200   4.333  13.569  0.2085  0.6133  0.5445
  619MPD2    C2 9168   3.092   4.391  13.629 -0.2380  0.3498  0.8786
  619MPD2    C3 9169   2.996   4.312  13.686  0.0070 -0.0034 -0.6395
  619MPD2    C4 9170   3.018   4.174  13.694  0.4393 -0.2258  0.2165
  619MPD2    C5 9171   3.116   4.113  13.619  0.2122 -0.1610  0.0925
  619MPD2     H 9172   3.079   4.498  13.645  0.1603  0.8428 -2.1328
  619MPD2    H1 9173   2.940   4.112  13.737 -0.7871  0.7942 -0.5452
  619MPD2    H2 9174   3.289   4.144  13.505 -2.3618 -1.6913 -1.2282
  619MPD2    H3 9175   3.123   4.005  13.606 -3.1780 -0.2037 -1.1780
  619MPD2     N 9176   2.878   4.355  13.749 -0.4708 -0.1210  0.2398
  619MPD2    H5 9177   2.814   4.285  13.785  0.8161 -0.2503  2.2647
  619MPD2    N1 9178   3.288   4.424  13.510 -0.3301  0.0330 -0.0121
  619MPD2    H7 9179   3.268   4.521  13.529  0.6317  0.2766 -0.2444
  620TMC3    C1 9180   3.470   4.522  13.409  0.1568 -0.1590  0.3322
  620TMC3    C2 9181   3.437   4.585  13.293 -0.8295 -0.7167 -0.2873
  620TMC3    C3 9182   3.441   4.720  13.275  0.5355  0.0558  0.2088
  620TMC3    C4 9183   3.508   4.596  13.516  0.6676 -0.0335  0.4497
  620TMC3    C5 9184   3.514   0.005  13.490  0.1556  0.4497 -0.4135
  620TMC3    C6 9185   3.487   0.071  13.374  0.1844  0.8247  0.1291
  620TMC3     C 9186   3.411   4.398  13.447 -0.1669 -0.1092  0.1081
  620TMC3     O 9187   3.471   4.298  13.416 -0.0612 -0.5777  0.8926
  620TMC3     H 9188   3.415   4.523  13.208  0.3560  0.0933 -1.1831
  620TMC3    H1 9189   3.524   4.549  13.613  0.2702 -0.5813  0.2477
  620TMC3    H2 9190   3.514   0.174  13.353 -0.8437  1.2982  1.1110
  620TMC3    C7 9191   3.539   0.093  13.607 -0.2620  0.2301  0.6022
  620TMC3    C8 9192   3.447   0.045  13.134  0.0024  0.4685 -0.2151
  620TMC3    O1 9193   3.580   0.035  13.702 -0.3441 -0.4466 -0.3390
  620TMC3    O2 9194   3.487   4.689  13.051 -0.1565 -0.0350 -0.0257
  621MPD2     C 9195   4.313   0.441   9.209  0.5733  0.2505  0.7221
  621MPD2    C1 9196   4.323   0.430   9.346 -0.2529  0.2816  0.5522
  621MPD2    C2 9197   4.334   0.550   9.419 -0.4127  0.1559 -0.0091
  621MPD2    C3 9198   4.332   0.672   9.356 -0.3896 -0.3934  0.2784
  621MPD2    C4 9199   4.308   0.676   9.223  0.2124 -0.3750  0.0259
  621MPD2    C5 9200   4.305   0.560   9.147 -0.1698 -0.4415  0.5546
  621MPD2     H 9201   4.342   0.551   9.527 -1.2006  2.2455  0.0154
  621MPD2    H1 9202   4.305   0.768   9.166  1.6734  0.6802  1.6870
  621MPD2    H2 9203   4.322   0.352   9.147 -0.8337  0.1640  0.6379
  621MPD2    H3 9204   4.314   0.562   9.039  2.7022  0.9711  0.8219
  621MPD2     N 9205   4.345   0.783   9.443  0.0335 -0.2636 -0.3785
  621MPD2    H5 9206   4.401   0.770   9.527  0.8861  2.2711 -0.5529
  621MPD2    N1 9207   4.328   0.309   9.415 -0.1892  0.2694 -0.1991
  621MPD2    H7 9208   4.335   0.316   9.516 -1.9597  0.9635 -0.1175
  622TMC3    C1 9209   4.347   0.085   9.472  0.3627  0.1338  0.1572
  622TMC3    C2 9210   4.404   0.134   9.584  0.1252  0.2461  0.4626
  622TMC3    C3 9211   4.354   0.112   9.708 -0.5474  0.2326  0.3269
  622TMC3    C4 9212   4.251   4.712   9.482 -0.1670  0.2679 -1.1853
  622TMC3    C5 9213   4.218   4.666   9.611  0.3869  0.1582 -0.5033
  622TMC3    C6 9214   4.266   0.007   9.729  0.2613  0.4633  0.6428
  622TMC3     C 9215   4.317   0.183   9.365 -0.7386 -0.3450 -0.0961
  622TMC3     O 9216   4.306   0.140   9.252  0.0069 -0.3509 -0.0891
  622TMC3     H 9217   4.479   0.211   9.574  0.4665 -0.3113 -1.2266
  622TMC3    H1 9218   4.208   4.678   9.389 -0.1134  1.3031 -1.5920
  622TMC3    H2 9219   4.225   4.698   9.823  2.1261 -2.0230  0.5510
  622TMC3    C7 9220   4.094   4.586   9.628  0.2206 -0.5513 -0.1055
  622TMC3    C8 9221   4.300   0.239   9.760  0.4511 -0.0293 -0.4119
  622TMC3    O1 9222   4.041   4.565   9.738 -0.3451  0.6266 -0.3680
  622TMC3    O2 9223   4.333   0.335   9.695  0.7675  0.0028  0.4019
  623MPD2     C 9224   2.109   0.670  16.038  0.1836  0.3554  0.1692
  623MPD2    C1 9225   2.041   0.649  16.156  0.1095  0.3766 -0.4080
  623MPD2    C2 9226   2.111   0.679  16.272 -0.0490 -0.8731 -0.8281
  623MPD2    C3 9227   2.241   0.719  16.279 -0.1919 -0.1670  0.2184
  623MPD2    C4 9228   2.309   0.734  16.160  0.0727 -0.0733 -0.1701
  623MPD2    C5 9229   2.243   0.711  16.045  0.3642  0.8375 -0.0209
  623MPD2     H 9230   2.062   0.673  16.368 -2.0838 -0.1986 -1.8375
  623MPD2    H1 9231   2.417   0.743  16.154  0.2257 -0.4857  2.0124
  623MPD2    H2 9232   2.063   0.653  15.941 -0.0693  0.8465  0.2006
  623MPD2    H3 9233   2.291   0.719  15.948  1.9944 -2.5133  0.5035
  623MPD2     N 9234   2.305   0.743  16.409 -0.0405 -0.2271  0.9248
  623MPD2    H5 9235   2.258   0.709  16.492 -1.8559  2.8646  1.1468
  623MPD2    N1 9236   1.907   0.605  16.163  0.7957 -0.2778  0.3695
  623MPD2    H7 9237   1.862   0.613  16.254 -0.1644  0.4053 -0.1703
  624TMC3    C1 9238   2.579   0.589  16.674 -0.1460 -0.3158 -0.2814
  624TMC3    C2 9239   2.466   0.566  16.749  0.3032 -0.6897 -0.3724
  624TMC3    C3 9240   2.349   0.636  16.732 -0.9159  0.3990  0.4895
  624TMC3    C4 9241   2.587   0.684  16.577  0.1146 -0.7870  0.8025
  624TMC3    C5 9242   2.467   0.759  16.567  0.6662  0.4069 -0.0243
  624TMC3    C6 9243   2.350   0.735  16.639 -0.9619 -0.8539  0.4015
  624TMC3     C 9244   2.704   0.554  16.745 -0.2991 -1.1494  0.1730
  624TMC3     O 9245   2.698   0.511  16.857 -0.2694 -0.2249  0.0205
  624TMC3     H 9246   2.475   0.481  16.816 -1.9906 -0.2431  0.5188
  624TMC3    H1 9247   2.666   0.696  16.504  0.2028 -0.1063  1.0096
  624TMC3    H2 9248   2.274   0.811  16.640  0.3302  0.4381 -0.4631
  624TMC3    C7 9249   2.433   0.789  16.431  0.3285  0.2654 -0.6891
  624TMC3    C8 9250   2.232   0.557  16.712  0.6608 -0.3544  0.1848
  624TMC3    O1 9251   2.521   0.824  16.352  0.7199  0.1384  0.1990
  624TMC3    O2 9252   2.178   0.572  16.603 -0.0701  0.1199 -0.2504
  625MPD2     C 9253   2.448   1.118   0.404 -0.8149 -0.0316 -0.3415
  625MPD2    C1 9254   2.536   1.204   0.466 -1.3689 -0.0283 -0.6345
  625MPD2    C2 9255   2.633   1.151   0.550  0.2859 -0.0322 -0.1520
  625MPD2    C3 9256   2.651   1.018   0.566 -0.0412  0.5073  0.3746
  625MPD2    C4 9257   2.561   0.931   0.508 -0.1490 -0.0973 -0.0567
  625MPD2    C5 9258   2.463   0.978   0.429 -0.3814  0.0374  0.1130
  625MPD2     H 9259   2.706   1.216   0.598  1.8268 -0.5861 -1.7188
  625MPD2    H1 9260   2.573   0.823   0.515  0.2985  0.0034  0.8100
  625MPD2    H2 9261   2.357   1.155   0.360 -1.6263  0.0165  1.3645
  625MPD2    H3 9262   2.389   0.906   0.395 -1.2745  0.2458  1.6148
  625MPD2     N 9263   2.764   0.978   0.641 -0.1719  0.3253 -0.3105
  625MPD2    H5 9264   2.832   1.049   0.668 -0.1623 -0.4857  1.7672
  625MPD2    N1 9265   2.530   1.341   0.469  0.3715 -0.3182  0.0379
  625MPD2    H7 9266   2.610   1.379   0.519  0.9321 -1.8545  0.3338
  626TMC3    C1 9267   2.453   1.557   0.433 -0.4608  0.0063  0.2938
  626TMC3    C2 9268   2.420   1.634   0.323 -0.5271  0.9283 -0.4194
  626TMC3    C3 9269   2.477   1.757   0.318  0.7484 -0.1468 -1.3042
  626TMC3    C4 9270   2.543   1.606   0.528 -0.4538  0.0083 -0.4238
  626TMC3    C5 9271   2.596   1.732   0.512 -0.3153  0.2489  0.0468
  626TMC3    C6 9272   2.567   1.809   0.405  0.6423  0.2711 -0.2978
  626TMC3     C 9273   2.431   1.417   0.418 -0.2261 -0.3268  0.1458
  626TMC3     O 9274   2.343   1.382   0.336  0.0808 -0.2606  0.0238
  626TMC3     H 9275   2.346   1.607   0.248  1.7153  0.0254 -2.3235
  626TMC3    H1 9276   2.554   1.544   0.616 -2.4452 -0.5807 -0.5822
  626TMC3    H2 9277   2.622   1.902   0.390  1.1714  0.3840  2.4766
  626TMC3    C7 9278   2.702   1.769   0.601 -0.2236  0.4726  0.2021
  626TMC3    C8 9279   2.446   1.829   0.204 -0.0730 -0.6639  0.2152
  626TMC3    O1 9280   2.818   1.768   0.564 -0.8152 -0.8310 -0.2953
  626TMC3    O2 9281   2.538   1.868   0.133  0.1458  0.2410  0.1328
  627MPD2     C 9282   1.661   2.208  14.361 -0.1173  0.3348  0.1261
  627MPD2    C1 9283   1.561   2.288  14.425 -0.3490 -0.2848 -0.5003
  627MPD2    C2 9284   1.426   2.246  14.410  0.2518  0.3508  0.0677
  627MPD2    C3 9285   1.394   2.126  14.341  0.2117  0.2824 -0.2064
  627MPD2    C4 9286   1.489   2.049  14.284 -0.0419 -0.4532 -0.4337
  627MPD2    C5 9287   1.619   2.099  14.294  0.3983  0.2681 -0.3785
  627MPD2     H 9288   1.347   2.307  14.453  0.0962 -1.3271  2.1631
  627MPD2    H1 9289   1.462   1.965  14.220  0.5421 -1.3067  0.4505
  627MPD2    H2 9290   1.767   2.226  14.376  0.3350 -2.3837  0.2102
  627MPD2    H3 9291   1.703   2.048  14.249 -0.6860 -0.5117 -1.5193
  627MPD2     N 9292   1.252   2.105  14.329  0.0650  1.1540  0.2122
  627MPD2    H5 9293   1.199   2.188  14.353 -2.3557  0.0546 -1.3614
  627MPD2    N1 9294   1.603   2.401  14.489 -0.0831 -0.1475  0.4432
  627MPD2    H7 9295   1.695   2.390  14.530  0.5232 -1.4980 -1.2869
  628TMC3    C1 9296   1.593   2.609  14.582  0.4999  0.3705  0.3339
  628TMC3    C2 9297   1.670   2.566  14.681 -0.0399 -0.1148 -0.4255
  628TMC3    C3 9298   1.695   2.646  14.786 -0.0721  0.8331 -0.0786
  628TMC3    C4 9299   1.540   2.734  14.574  0.6972  0.7320  0.7322
  628TMC3    C5 9300   1.570   2.817  14.681  0.7355 -1.0506 -0.2024
  628TMC3    C6 9301   1.642   2.776  14.788  0.7812  0.2042 -0.2071
  628TMC3     C 9302   1.530   2.511  14.499  0.1839  0.2743  0.5288
  628TMC3     O 9303   1.425   2.535  14.438  0.0980 -0.6380 -0.0758
  628TMC3     H 9304   1.694   2.462  14.700 -1.5259 -0.7248 -1.9455
  628TMC3    H1 9305   1.480   2.761  14.488 -1.2428  2.3600  2.6001
  628TMC3    H2 9306   1.684   2.850  14.855  0.0877  0.6956 -0.3131
  628TMC3    C7 9307   1.510   2.953  14.693  0.7022 -0.1869 -0.2071
  628TMC3    C8 9308   1.798   2.601  14.885  0.8189 -0.6346  0.2359
  628TMC3    O1 9309   1.550   3.022  14.785 -0.5653  0.2922  0.0659
  628TMC3    O2 9310   1.894   2.540  14.841 -0.2181  0.1193 -0.7989
  629MPD2     C 9311   4.529   1.198  16.430 -0.2277 -0.8169  0.2829
  629MPD2    C1 9312   4.558   1.063  16.431  1.0089  0.2651 -0.0687
  629MPD2    C2 9313   4.453   0.969  16.433  0.0325 -0.0648 -1.1091
  629MPD2    C3 9314   4.326   1.003  16.452  0.1723  0.7698  0.0277
  629MPD2    C4 9315   4.291   1.137  16.447 -0.2047 -0.3585 -0.6567
  629MPD2    C5 9316   4.393   1.225  16.431  0.2500  0.2650  0.5587
  629MPD2     H 9317   4.483   0.864  16.434 -1.0922 -0.3505  1.5760
  629MPD2    H1 9318   4.187   1.167  16.446  0.5541  2.3054  2.5432
  629MPD2    H2 9319   4.607   1.270  16.412 -1.1107 -0.0020 -0.3076
  629MPD2    H3 9320   4.377   1.329  16.407  0.7503  0.4041  0.8526
  629MPD2     N 9321   4.229   0.900  16.457  0.5625 -0.3715 -0.1211
  629MPD2    H5 9322   4.259   0.805  16.480  2.3055  0.2212  0.0404
  629MPD2    N1 9323   4.694   1.031  16.438 -0.1176  0.0410 -0.8871
  629MPD2    H7 9324   0.033   1.110  16.426 -1.6892  0.9300 -3.3500
  630TMC3    C1 9325   0.164   0.915  16.493  0.0718  0.5750  0.1508
  630TMC3    C2 9326   0.234   1.001  16.413 -0.2562  0.9067 -0.1056
  630TMC3    C3 9327   0.351   1.055  16.463  0.2524 -0.4670 -0.2792
  630TMC3    C4 9328   0.198   0.888  16.625  0.1608  0.1848  0.1161
  630TMC3    C5 9329   0.304   0.954  16.671  0.6472  0.3339  0.1697
  630TMC3    C6 9330   0.385   1.035  16.594  0.1889 -0.2310  0.0463
  630TMC3     C 9331   0.017   0.907  16.474 -0.3415  0.0891 -0.3140
  630TMC3     O 9332   4.691   0.809  16.520 -0.3088  0.1952  0.0268
  630TMC3     H 9333   0.181   1.029  16.322 -2.0324 -1.2466  0.2592
  630TMC3    H1 9334   0.119   0.847  16.687 -2.5985  2.2405 -2.0647
  630TMC3    H2 9335   0.484   1.066  16.625 -0.2802  2.5408 -1.1798
  630TMC3    C7 9336   0.342   0.927  16.806  0.4839  0.1481  0.4454
  630TMC3    C8 9337   0.413   1.173  16.398  0.2248  0.2905 -0.0931
  630TMC3    O1 9338   0.295   0.827  16.858  0.3596  0.5093  0.1461
  630TMC3    O2 9339   0.492   1.238  16.466  0.6739  0.4310 -0.0556
  631MPD2     C 9340   2.586   0.333  15.480  0.3880  0.1468 -0.1055
  631MPD2    C1 9341   2.661   0.431  15.420 -0.0777  0.3031  0.6182
  631MPD2    C2 9342   2.795   0.443  15.459 -0.2528 -0.5884 -0.2408
  631MPD2    C3 9343   2.849   0.352  15.544 -0.3995  0.1142  0.0126
  631MPD2    C4 9344   2.776   0.251  15.601 -0.1689  0.0728  0.3250
  631MPD2    C5 9345   2.643   0.249  15.574  0.1010  0.1855  0.7216
  631MPD2     H 9346   2.861   0.528  15.443 -0.7535 -0.0507  0.5209
  631MPD2    H1 9347   2.799   0.171  15.671 -1.9391 -0.8083 -0.1040
  631MPD2    H2 9348   2.480   0.317  15.461  0.8992 -1.7176 -1.4915
  631MPD2    H3 9349   2.589   0.165  15.616  0.8762 -1.0765 -0.8406
  631MPD2     N 9350   2.983   0.373  15.596 -0.2383 -0.4370 -0.1359
  631MPD2    H5 9351   3.028   0.458  15.564 -1.6056  0.0501 -0.7414
  631MPD2    N1 9352   2.596   0.533  15.341 -0.0156  0.3523 -0.1434
  631MPD2    H7 9353   2.496   0.530  15.355 -0.1009 -0.9407 -0.9919
  632TMC3    C1 9354   2.589   0.732  15.208 -0.3630  0.3466  0.1987
  632TMC3    C2 9355   2.474   0.773  15.257  0.0183 -0.3831  0.0489
  632TMC3    C3 9356   2.414   0.888  15.211 -0.2710  0.0556 -0.2407
  632TMC3    C4 9357   2.649   0.804  15.109  0.2710  0.7557  0.5794
  632TMC3    C5 9358   2.590   0.919  15.056  0.2479  0.8458  0.1110
  632TMC3    C6 9359   2.472   0.957  15.109 -0.1479  0.3163  0.3113
  632TMC3     C 9360   2.666   0.630  15.270  0.7035  0.1273 -0.2716
  632TMC3     O 9361   2.787   0.638  15.243  0.2704 -0.1454  0.1894
  632TMC3     H 9362   2.420   0.694  15.307 -1.0265  0.7045  0.6167
  632TMC3    H1 9363   2.736   0.756  15.067  0.9465  1.2476  1.4174
  632TMC3    H2 9364   2.434   1.047  15.063 -2.2528 -0.5334  0.3948
  632TMC3    C7 9365   2.675   1.018  14.990 -0.8089  0.0636 -1.1122
  632TMC3    C8 9366   2.348   0.948  15.322  0.1523 -0.2634  0.4460
  632TMC3    O1 9367   2.621   1.095  14.915 -0.6400  0.0000  1.0764
  632TMC3    O2 9368   2.293   0.879  15.405  0.2084 -0.3802  0.0727
  633MPD2     C 9369   2.193   3.113  17.256  0.1733  0.5934  0.1782
  633MPD2    C1 9370   2.244   3.079  17.128 -0.3546 -0.7393  0.3097
  633MPD2    C2 9371   2.350   2.990  17.132 -0.2958  0.5338  0.0280
  633MPD2    C3 9372   2.404   2.938  17.251 -0.1607  0.2318  0.3554
  633MPD2    C4 9373   2.337   2.969  17.368 -0.2074  0.6814  0.9036
  633MPD2    C5 9374   2.240   3.060  17.373  0.6954 -0.1161 -0.5217
  633MPD2     H 9375   2.393   2.977  17.033 -1.1124  3.3052 -0.6800
  633MPD2    H1 9376   2.384   2.922  17.454  2.2104 -0.4485 -1.0197
  633MPD2    H2 9377   2.119   3.191  17.273 -0.4692  0.4653 -2.0866
  633MPD2    H3 9378   2.208   3.087  17.473  0.1135 -1.4882 -0.3406
  633MPD2     N 9379   2.528   2.857  17.249 -0.0180 -0.3750 -0.7043
  633MPD2    H5 9380   2.578   2.846  17.337 -2.2144 -2.4966  0.2496
  633MPD2    N1 9381   2.207   3.133  17.010 -0.3019 -0.7495 -0.3030
  633MPD2    H7 9382   2.259   3.123  16.923  0.5464 -1.4999  0.2934
  634TMC3    C1 9383   2.100   3.267  16.857  0.3040  0.5743 -0.0653
  634TMC3    C2 9384   2.145   3.187  16.758 -0.7536  0.6650  0.2677
  634TMC3    C3 9385   2.224   3.244  16.660 -0.3187 -0.2888  0.4275
  634TMC3    C4 9386   2.129   3.400  16.860 -0.6848  0.7345  0.0973
  634TMC3    C5 9387   2.215   3.450  16.766 -0.5028 -0.4450  0.1306
  634TMC3    C6 9388   2.271   3.369  16.671 -0.2314 -0.1139  0.4418
  634TMC3     C 9389   2.099   3.218  16.994  0.0158  0.0751 -0.6327
  634TMC3     O 9390   2.011   3.256  17.072 -0.5246  0.3227 -0.3948
  634TMC3     H 9391   2.126   3.080  16.759 -0.8265  0.6742 -0.7084
  634TMC3    H1 9392   2.078   3.456  16.938  0.7339  0.3171  1.3385
  634TMC3    H2 9393   2.351   3.419  16.617  0.8744 -1.3740  0.9008
  634TMC3    C7 9394   2.234   3.590  16.744 -0.6137 -0.0022 -1.1337
  634TMC3    C8 9395   2.279   3.160  16.556 -0.2329 -0.0290  0.2648
  634TMC3    O1 9396   2.251   3.637  16.634  0.0562 -0.0330 -0.4116
  634TMC3    O2 9397   2.281   3.038  16.570 -0.3279 -0.4389 -0.1242
  635TMC3    C1 9398   3.797   4.381  16.949 -0.1442 -0.2407 -0.3064
  635TMC3    C2 9399   3.919   4.434  16.952  0.9905 -0.4218 -0.3451
  635TMC3    C3 9400   4.026   4.347  16.974 -0.0074  0.9304  0.1145
  635TMC3    C4 9401   3.762   4.251  16.955 -0.3987 -0.2651  0.6489
  635TMC3    C5 9402   3.872   4.165  16.963  0.3713  0.3540  1.1275
  635TMC3    C6 9403   4.003   4.212  16.978  0.0493  0.0169 -0.0053
  635TMC3     C 9404   3.700   4.471  17.005  0.3426 -0.1072  0.7505
  635TMC3     O 9405   3.643   4.431  17.106 -0.0324  0.6383  0.0069
  635TMC3     H 9406   3.929   4.542  16.952 -1.8793 -0.1616  0.4581
  635TMC3    H1 9407   3.658   4.223  16.963 -1.2641  2.3848 -1.3897
  635TMC3    H2 9408   4.080   4.137  16.995 -1.1141 -0.8872  1.3132
  635TMC3    C7 9409   3.855   4.021  16.940  0.1970 -0.2428 -0.5541
  635TMC3    C8 9410   4.145   4.409  17.012 -0.1821 -0.2867  0.6695
  635TMC3    O1 9411   3.952   3.950  16.949 -0.8047  0.2420 -0.4185
  635TMC3    O2 9412   4.151   4.533  17.016 -0.3309 -0.1615  0.4658
  636MPD2     C 9413   3.958   3.727  16.085  0.3251  0.4481  0.1074
  636MPD2    C1 9414   3.978   3.833  16.164  0.4492 -0.2491  0.3332
  636MPD2    C2 9415   4.103   3.833  16.215 -0.1961 -0.5749  0.3789
  636MPD2    C3 9416   4.196   3.737  16.184  0.6202  0.9575  0.3614
  636MPD2    C4 9417   4.167   3.622  16.115  0.7919  0.0649 -1.0485
  636MPD2    C5 9418   4.044   3.627  16.058  0.0083 -0.9362  0.8940
  636MPD2     H 9419   4.133   3.921  16.271 -0.1061  0.2048 -0.9017
  636MPD2    H1 9420   4.224   3.531  16.105  3.9007  1.8050  0.8206
  636MPD2    H2 9421   3.869   3.734  16.023 -0.0553 -1.0444  0.4972
  636MPD2    H3 9422   4.003   3.541  16.006 -0.7929 -0.4406  0.7103
  636MPD2     N 9423   4.329   3.752  16.232  0.1634 -0.2009  0.0045
  636MPD2    H5 9424   4.351   3.840  16.277 -1.7228  0.7485 -0.9300
  636MPD2    N1 9425   3.900   3.951  16.170 -0.2808 -0.2853  0.4244
  636MPD2    H7 9426   3.931   4.030  16.225 -2.3418  0.0916  1.0239
  637TMC3    C1 9427   4.557   3.721  16.261 -0.2412  0.2400  0.2032
  637TMC3    C2 9428   4.556   3.803  16.372 -0.1329  0.1061 -0.3322
  637TMC3    C3 9429   4.673   3.876  16.397  0.5982  0.2942  0.1932
  637TMC3    C4 9430   4.669   3.716  16.175 -0.6135 -0.5831 -0.4746
  637TMC3    C5 9431   0.045   3.803  16.204  0.5793  0.1352  0.5162
  637TMC3    C6 9432   0.057   3.880  16.316 -0.3786  0.8462  0.8981
  637TMC3     C 9433   4.435   3.665  16.214  0.9600 -0.3525 -0.1974
  637TMC3     O 9434   4.441   3.554  16.158 -0.1398  0.4816 -0.2393
  637TMC3     H 9435   4.473   3.808  16.441 -0.2760 -0.6630 -0.4544
  637TMC3    H1 9436   4.687   3.646  16.094 -1.2119 -2.2737  0.8519
  637TMC3    H2 9437   0.140   3.948  16.328  0.3295  0.2787 -0.7934
  637TMC3    C7 9438   0.060   3.899  16.093 -0.0565 -0.1304  0.0660
  637TMC3    C8 9439   4.646   4.010  16.444 -0.7752  0.0100  0.5200
  637TMC3    O1 9440   0.051   4.019  16.119  0.9296  0.0652  0.7808
  637TMC3    O2 9441   4.593   4.014  16.552 -0.2539 -0.0527  0.7559
  638MPD2     C 9442   3.587   3.126  14.905 -0.4524  0.1708  0.0485
  638MPD2    C1 9443   3.526   3.047  14.808  0.1257  0.3870 -0.4326
  638MPD2    C2 9444   3.511   2.908  14.833 -0.1967 -0.0534 -0.2491
  638MPD2    C3 9445   3.541   2.862  14.959  0.4841 -0.3521  0.0801
  638MPD2    C4 9446   3.588   2.944  15.063 -0.0338 -0.2062  0.2227
  638MPD2    C5 9447   3.610   3.076  15.032  0.4479  0.1318  0.2064
  638MPD2     H 9448   3.473   2.834  14.764  0.2584 -0.2409 -0.2963
  638MPD2    H1 9449   3.596   2.907  15.165 -0.5749  0.1661  0.3994
  638MPD2    H2 9450   3.611   3.229  14.882 -0.5164  0.5233  1.5736
  638MPD2    H3 9451   3.653   3.134  15.112  1.4164 -0.7614  0.3220
  638MPD2     N 9452   3.541   2.723  14.970 -0.3684  0.4520  0.1620
  638MPD2    H5 9453   3.505   2.669  14.893 -1.7125  1.5637  0.0029
  638MPD2    N1 9454   3.504   3.104  14.682 -0.5773 -0.3960  0.2889
  638MPD2    H7 9455   3.552   3.189  14.653 -0.6335 -1.3056 -2.4136
  639TMC3    C1 9456   3.579   2.513  15.077  0.0542 -0.4558 -0.8317
  639TMC3    C2 9457   3.493   2.458  14.987 -0.2217 -0.5196  0.6121
  639TMC3    C3 9458   3.489   2.320  14.977 -0.3150  0.5481 -0.0192
  639TMC3    C4 9459   3.682   2.443  15.131 -0.5608 -0.1260 -0.1359
  639TMC3    C5 9460   3.678   2.305  15.120  1.0733  0.0556 -0.2199
  639TMC3    C6 9461   3.578   2.246  15.044 -0.0894 -0.2007 -1.0916
  639TMC3     C 9462   3.598   2.656  15.080  0.2029 -0.2940 -0.1423
  639TMC3     O 9463   3.679   2.702  15.160 -0.6720  0.8575  0.3800
  639TMC3     H 9464   3.402   2.503  14.948  1.8564  0.2656 -3.2633
  639TMC3    H1 9465   3.736   2.487  15.214  1.5321 -2.9782  0.0345
  639TMC3    H2 9466   3.581   2.139  15.025 -1.4882 -0.4121 -0.0852
  639TMC3    C7 9467   3.802   2.229  15.145  0.2486 -0.4156 -0.5287
  639TMC3    C8 9468   3.399   2.256  14.885 -0.6065 -1.1887 -0.3829
  639TMC3    O1 9469   3.800   2.106  15.151 -0.5855 -0.3979  0.5823
  639TMC3    O2 9470   3.352   2.321  14.798  0.7026  0.4016  0.4524
  640MPD2     C 9471   4.243   1.827  10.004 -0.4254  0.4964  1.2158
  640MPD2    C1 9472   4.262   1.906   9.885  0.3385 -0.3804  0.3680
  640MPD2    C2 9473   4.209   2.036   9.895  0.1736 -1.5494 -0.1039
  640MPD2    C3 9474   4.137   2.091   9.999  0.5235  0.1201 -0.0218
  640MPD2    C4 9475   4.134   2.015  10.111 -0.3703 -0.6922 -0.0682
  640MPD2    C5 9476   4.170   1.882  10.106 -0.2393  0.4336 -1.1815
  640MPD2     H 9477   4.232   2.098   9.810  0.0924 -0.5642  0.5893
  640MPD2    H1 9478   4.078   2.051  10.196  0.0859  0.3830 -0.2213
  640MPD2    H2 9479   4.281   1.725  10.015 -0.2959  0.1027 -2.7452
  640MPD2    H3 9480   4.153   1.821  10.193 -2.7841 -0.1780 -2.1094
  640MPD2     N 9481   4.079   2.226  10.004  0.1584  0.3601  0.0511
  640MPD2    H5 9482   4.036   2.254  10.091  1.0466 -0.2852  0.6953
  640MPD2    N1 9483   4.331   1.853   9.771  0.3801 -0.3536 -0.0452
  640MPD2    H7 9484   4.381   1.768   9.793  2.4037  1.5132  2.6147
  641TMC3    C1 9485   4.371   1.822   9.537 -0.7250 -0.5609  0.2781
  641TMC3    C2 9486   4.468   1.731   9.572 -0.0266 -0.4094 -0.5649
  641TMC3    C3 9487   4.485   1.626   9.484 -0.0362  0.1588  0.2673
  641TMC3    C4 9488   4.302   1.818   9.423  0.0031  0.0371 -0.5512
  641TMC3    C5 9489   4.328   1.715   9.338  0.2497  0.2137  0.2676
  641TMC3    C6 9490   4.422   1.615   9.358  0.5919  0.3245  0.7569
  641TMC3     C 9491   4.314   1.902   9.645  0.0149  0.6749  0.1622
  641TMC3     O 9492   4.240   1.990   9.609  0.4779 -0.5681 -0.1344
  641TMC3     H 9493   4.532   1.745   9.659 -0.1365 -0.7354 -0.4308
  641TMC3    H1 9494   4.226   1.891   9.396 -1.5026 -1.0734  0.6575
  641TMC3    H2 9495   4.442   1.528   9.298 -1.0390  1.0104 -0.7693
  641TMC3    C7 9496   4.237   1.695   9.225 -0.3366  0.7439 -0.0569
  641TMC3    C8 9497   4.592   1.532   9.513 -0.1065  0.6145 -0.4459
  641TMC3    O1 9498   4.276   1.607   9.149 -0.1110 -0.3131  0.0441
  641TMC3    O2 9499   4.605   1.434   9.448  0.9127 -0.3085 -0.6272
  642TMC3    C1 9500   0.619   3.109  12.586 -0.8121  0.0591 -0.1812
  642TMC3    C2 9501   0.624   3.111  12.721  0.2315 -0.4213  0.4350
  642TMC3    C3 9502   0.701   3.019  12.785 -0.1572 -1.0191  0.8817
  642TMC3    C4 9503   0.691   3.018  12.511 -0.6492 -0.3195 -0.5063
  642TMC3    C5 9504   0.771   2.926  12.576  0.3894 -0.4749  0.0752
  642TMC3    C6 9505   0.786   2.935  12.709 -0.5057 -0.4206  0.0875
  642TMC3     C 9506   0.484   3.140  12.533  0.3227  0.2107  0.3591
  642TMC3     O 9507   0.384   3.128  12.605 -0.2472  0.6304 -0.6561
  642TMC3     H 9508   0.559   3.181  12.773  0.7735  0.4212 -0.0247
  642TMC3    H1 9509   0.659   3.002  12.409  1.3842 -2.4280 -0.8135
  642TMC3    H2 9510   0.856   2.866  12.753  2.0107  1.2189 -1.3375
  642TMC3    C7 9511   0.735   2.791  12.538  0.1490  0.0990 -0.4420
  642TMC3    C8 9512   0.677   2.976  12.923  0.2565 -0.6214 -0.5468
  642TMC3    O1 9513   0.707   2.777  12.419 -0.3004  0.8619 -0.2852
  642TMC3    O2 9514   0.710   2.856  12.942 -0.3480  0.3836  0.7467
  643TMC3    C1 9515   4.434   1.407   0.191 -0.0122 -0.5690  0.7110
  643TMC3    C2 9516   4.320   1.433   0.119 -0.3350  0.2838 -0.9318
  643TMC3    C3 9517   4.297   1.354   0.012  0.4070 -0.5365 -0.0597
  643TMC3    C4 9518   4.531   1.324   0.141 -0.4956  0.2254  0.5291
  643TMC3    C5 9519   4.515   1.257   0.024 -0.4749 -0.3028 -0.7273
  643TMC3    C6 9520   4.390   1.263  17.662  0.1334 -0.3535 -0.6229
  643TMC3     C 9521   4.448   1.483   0.313 -0.2909 -0.8236  0.6258
  643TMC3     O 9522   4.362   1.566   0.335 -0.5078 -0.0177 -0.3409
  643TMC3     H 9523   4.244   1.499   0.160  0.1959  0.9075 -0.9525
  643TMC3    H1 9524   4.632   1.323   0.181 -0.4851 -1.4038  0.4342
  643TMC3    H2 9525   4.359   1.195  17.583 -0.3660  0.2597 -0.9485
  643TMC3    C7 9526   4.597   1.140  17.697 -0.4401  0.6070 -0.1972
  643TMC3    C8 9527   4.241   1.424  17.602 -0.2654 -0.0223 -0.3177
  643TMC3    O1 9528   4.647   1.086   0.097  0.0994 -0.0271 -0.1560
  643TMC3    O2 9529   4.183   1.345  17.522  0.3345  0.2279 -0.7717
  644MPD2     C 9530   4.670   1.817   9.165 -0.3491  0.6019 -0.3834
  644MPD2    C1 9531   0.021   1.852   9.277 -0.5327 -0.2799 -0.0834
  644MPD2    C2 9532   0.003   1.978   9.338  0.1692 -0.2626 -0.2490
  644MPD2    C3 9533   4.632   2.063   9.294 -0.1279  0.4767  0.5874
  644MPD2    C4 9534   4.547   2.024   9.192  0.5147  0.2421 -1.0950
  644MPD2    C5 9535   4.568   1.904   9.128  0.1802 -0.0661  0.1368
  644MPD2     H 9536   0.055   2.016   9.425  1.2321 -0.4262 -0.8147
  644MPD2    H1 9537   4.459   2.082   9.166 -1.2307 -0.8905  2.3746
  644MPD2    H2 9538   4.690   1.726   9.109 -0.5432 -0.2841  1.0030
  644MPD2    H3 9539   4.492   1.863   9.063  1.4135  0.6793 -1.7789
  644MPD2     N 9540   4.619   2.195   9.348  0.2600 -0.3733 -0.3463
  644MPD2    H5 9541   4.684   2.232   9.417 -0.6836 -0.0488  0.3727
  644MPD2    N1 9542   0.123   1.758   9.317  0.3074 -0.1471  0.8376
  644MPD2    H7 9543   0.132   1.680   9.253 -0.0806  0.0438  0.5507
  645TMC3    C1 9544   4.550   2.409   9.375  0.5594  0.3385 -0.1922
  645TMC3    C2 9545   4.680   2.463   9.411  0.5109  0.2011 -0.4089
  645TMC3    C3 9546   4.685   2.579   9.471 -0.2588 -0.1531  0.3863
  645TMC3    C4 9547   4.435   2.482   9.400  0.5684 -0.6618  0.4843
  645TMC3    C5 9548   4.449   2.602   9.469  0.1371  0.2835  0.4035
  645TMC3    C6 9549   4.573   2.649   9.502  0.0648  0.1832 -0.1707
  645TMC3     C 9550   4.535   2.290   9.303  0.1065 -0.0879  0.2975
  645TMC3     O 9551   4.440   2.289   9.227 -0.2482 -0.1400 -0.4278
  645TMC3     H 9552   0.045   2.408   9.382  0.9686  1.1451 -0.7905
  645TMC3    H1 9553   4.338   2.442   9.375 -0.5621  1.1579  1.9853
  645TMC3    H2 9554   4.577   2.749   9.543 -3.9208 -0.1951  1.1383
  645TMC3    C7 9555   4.337   2.684   9.508  0.1092 -0.0525  0.0855
  645TMC3    C8 9556   0.080   2.641   9.523  0.3818 -0.1741 -0.4587
  645TMC3    O1 9557   4.354   2.801   9.539 -0.9758  0.6309  0.2077
  645TMC3    O2 9558   0.067   2.759   9.553 -0.2788  0.0706  1.1525
  646MPD2     C 9559   3.907   1.585  14.175 -0.3989 -0.7141 -0.3019
  646MPD2    C1 9560   3.808   1.558  14.267  0.8378  0.6512 -0.7967
  646MPD2    C2 9561   3.680   1.613  14.242 -0.7931  0.6376  0.2770
  646MPD2    C3 9562   3.663   1.716  14.153  0.1311  0.5387  0.6287
  646MPD2    C4 9563   3.765   1.752  14.065  0.4713  0.4629 -0.5966
  646MPD2    C5 9564   3.884   1.679  14.078 -0.1079 -0.5362  0.2719
  646MPD2     H 9565   3.598   1.597  14.311 -1.6275 -0.5642 -0.9783
  646MPD2    H1 9566   3.755   1.825  13.986  0.7284  0.0523 -1.0131
  646MPD2    H2 9567   4.004   1.540  14.185 -0.1058 -0.2668 -1.1157
  646MPD2    H3 9568   3.968   1.707  14.015  0.6463  0.0595  1.5254
  646MPD2     N 9569   3.530   1.766  14.150  0.0715  0.1529 -0.1152
  646MPD2    H5 9570   3.460   1.728  14.213 -0.3228 -1.3904 -1.4795
  646MPD2    N1 9571   3.837   1.467  14.373  0.2287  0.0362  0.1589
  646MPD2    H7 9572   3.925   1.417  14.367 -0.2589 -1.1658  3.1673
  647TMC3    C1 9573   3.804   1.342  14.567 -0.4126 -0.7038  0.0148
  647TMC3    C2 9574   3.710   1.270  14.638 -0.1415  0.0291 -0.2165
  647TMC3    C3 9575   3.762   1.183  14.733  0.0553 -0.2534  0.5746
  647TMC3    C4 9576   3.939   1.324  14.583 -0.3190  0.3392  0.5213
  647TMC3    C5 9577   3.985   1.246  14.684  0.6641  0.2374 -0.3391
  647TMC3    C6 9578   3.899   1.165  14.759  0.0462  0.1540  0.1519
  647TMC3     C 9579   3.752   1.449  14.477 -0.4744  0.6622  1.0823
  647TMC3     O 9580   3.638   1.494  14.490 -0.8053  0.1400 -0.2884
  647TMC3     H 9581   3.606   1.283  14.610  0.1543  0.0785 -1.2958
  647TMC3    H1 9582   4.002   1.400  14.538  0.6529  0.3521  1.9287
  647TMC3    H2 9583   3.946   1.089  14.820  1.3407  1.9276  1.3444
  647TMC3    C7 9584   4.132   1.239  14.726  0.4889  0.0363 -0.1474
  647TMC3    C8 9585   3.658   1.090  14.771 -0.3649 -0.1890 -0.2536
  647TMC3    O1 9586   4.165   1.169  14.820  0.2015 -0.0348  0.0427
  647TMC3    O2 9587   3.569   1.069  14.687  0.0043 -0.1509  0.4881
  648TMC3    C1 9588   2.797   3.640  15.930 -0.3676  0.2015 -0.0776
  648TMC3    C2 9589   2.805   3.503  15.883 -0.1660  0.8443 -0.6768
  648TMC3    C3 9590   2.718   3.456  15.795  0.3187  0.1897 -0.3368
  648TMC3    C4 9591   2.696   3.724  15.872  0.3398  0.2610  0.1814
  648TMC3    C5 9592   2.616   3.670  15.772  0.1608 -0.0923  1.0358
  648TMC3    C6 9593   2.621   3.535  15.745 -0.0746  0.0231  0.3261
  648TMC3     C 9594   2.805   3.657  16.071 -0.3213 -0.0540 -0.5882
  648TMC3     O 9595   2.765   3.770  16.100  0.8768 -0.2470 -0.1847
  648TMC3     H 9596   2.876   3.433  15.925  2.6564  2.2113 -3.1533
  648TMC3    H1 9597   2.698   3.832  15.884  0.2634  0.1263  1.4208
  648TMC3    H2 9598   2.555   3.497  15.668  1.2390  0.6012 -1.1072
  648TMC3    C7 9599   2.490   3.727  15.737  0.5339  0.5771 -0.8152
  648TMC3    C8 9600   2.737   3.322  15.740  0.5601  0.4681 -0.2281
  648TMC3    O1 9601   2.443   3.683  15.632  0.1106 -0.0081  0.1373
  648TMC3    O2 9602   2.638   3.256  15.727  0.1904 -0.1954  0.0674
  649TMC3    C1 9603   2.307   0.203  13.433  0.9400  0.0251 -0.0208
  649TMC3    C2 9604   2.416   0.127  13.431 -0.3606 -0.5388  0.0692
  649TMC3    C3 9605   2.402   4.723  13.486  0.1182 -0.4663  0.9976
  649TMC3    C4 9606   2.186   0.158  13.484 -0.0903 -1.1960 -0.9311
  649TMC3    C5 9607   2.173   0.034  13.538  0.7626  0.3883 -0.5549
  649TMC3    C6 9608   2.282   4.673  13.525  0.5367 -0.1756 -0.5364
  649TMC3     C 9609   2.304   0.312  13.329  0.1071  0.0732  0.3487
  649TMC3     O 9610   2.189   0.351  13.311 -0.6986 -0.1062 -0.2626
  649TMC3     H 9611   2.509   0.147  13.379 -0.0260 -1.6064  0.2519
  649TMC3    H1 9612   2.106   0.231  13.490  2.8460  1.9603 -0.1469
  649TMC3    H2 9613   2.275   4.570  13.559 -1.2310  1.0387  2.7334
  649TMC3    C7 9614   2.056   0.005  13.620  0.6086  0.4646 -0.0803
  649TMC3    C8 9615   2.496   4.620  13.442  0.2691 -0.0524 -0.3394
  649TMC3    O1 9616   1.993   0.103  13.640 -0.2488 -0.4648  0.5187
  649TMC3    O2 9617   2.442   4.513  13.422  0.4125  0.1665  0.2044
  650TMC3    C1 9618   4.508   2.071  12.244  0.9250 -0.0809  0.3643
  650TMC3    C2 9619   4.495   2.201  12.295  1.3842  0.0725  0.1526
  650TMC3    C3 9620   4.373   2.260  12.290 -0.5960  0.1641 -0.4381
  650TMC3    C4 9621   4.402   2.002  12.179 -0.2130  0.5994  0.3877
  650TMC3    C5 9622   4.295   2.081  12.153 -0.0814  0.0168 -1.1331
  650TMC3    C6 9623   4.280   2.208  12.205 -0.3486 -0.6086 -0.0301
  650TMC3     C 9624   4.626   2.004  12.287 -0.7429 -0.1604  0.2950
  650TMC3     O 9625   4.709   2.080  12.330  0.4157 -0.7840  0.2797
  650TMC3     H 9626   4.577   2.247  12.348 -0.7468  1.0745  2.5759
  650TMC3    H1 9627   4.410   1.906  12.131  1.5037  0.2687  1.3528
  650TMC3    H2 9628   4.181   2.251  12.194  0.0116 -0.0054 -0.9751
  650TMC3    C7 9629   4.194   2.021  12.068 -0.0954  1.1187 -0.2772
  650TMC3    C8 9630   4.357   2.396  12.326 -0.1093  0.4124  0.2609
  650TMC3    O1 9631   4.198   1.898  12.055  0.3134 -0.2303  0.4851
  650TMC3    O2 9632   4.447   2.475  12.295 -0.0557  0.1906  0.8435
  651MPD2     C 9633   3.743   3.700  10.464 -0.0839 -0.3545 -0.4154
  651MPD2    C1 9634   3.803   3.771  10.570  0.9219  0.5827 -1.2428
  651MPD2    C2 9635   3.897   3.871  10.531 -0.1976 -0.2697  0.2918
  651MPD2    C3 9636   3.919   3.894  10.394 -0.3025 -0.6838 -0.4556
  651MPD2    C4 9637   3.848   3.831  10.295  0.4509  0.2182  0.7113
  651MPD2    C5 9638   3.765   3.729  10.337  0.2355 -0.4813 -0.5216
  651MPD2     H 9639   3.948   3.921  10.612 -1.4181  0.5550  0.5375
  651MPD2    H1 9640   3.872   3.849  10.191  1.6605  2.3127  1.3487
  651MPD2    H2 9641   3.667   3.624  10.472 -0.4109  0.0513  0.4043
  651MPD2    H3 9642   3.713   3.674  10.259  1.6854 -1.9913 -0.4242
  651MPD2     N 9643   4.023   3.993  10.362  0.4364  0.2694 -0.1803
  651MPD2    H5 9644   4.073   4.042  10.435 -0.0744  1.4455 -0.6201
  651MPD2    N1 9645   3.775   3.756  10.707  0.4866 -0.1997 -0.1055
  651MPD2    H7 9646   3.817   3.815  10.778 -1.4508 -1.4667  2.1169
  652TMC3    C1 9647   4.408   4.099  10.293 -0.1171 -0.2706  0.3578
  652TMC3    C2 9648   4.281   4.060  10.322 -0.4291 -0.9287 -0.7298
  652TMC3    C3 9649   4.176   4.119  10.255 -0.3402 -0.5737 -0.5603
  652TMC3    C4 9650   4.432   4.197  10.204 -0.0243 -0.2416  0.2232
  652TMC3    C5 9651   4.326   4.247  10.132 -0.0036 -0.3816 -0.2709
  652TMC3    C6 9652   4.198   4.206  10.155  0.2698  0.7633 -0.0470
  652TMC3     C 9653   4.515   4.068  10.390 -0.7027  0.3707 -0.2767
  652TMC3     O 9654   4.479   4.008  10.492  0.8901 -0.4529 -0.0944
  652TMC3     H 9655   4.272   3.972  10.385 -1.4918 -1.3699 -1.4861
  652TMC3    H1 9656   4.524   4.253  10.195 -0.0229 -0.0634  1.3080
  652TMC3    H2 9657   4.124   4.248  10.088  1.7356 -0.4475 -2.4136
  652TMC3    C7 9658   4.333   4.379  10.078  0.6641 -0.1645 -0.0675
  652TMC3    C8 9659   4.059   4.035  10.237 -0.4536 -0.2832 -0.1674
  652TMC3    O1 9660   4.243   4.459  10.099  0.6751  0.1288 -0.1371
  652TMC3    O2 9661   3.998   4.030  10.131 -0.6632 -0.0632 -0.2600
  653MPD2     C 9662   2.111   3.186   0.222  0.6092 -0.8556  0.8514
  653MPD2    C1 9663   2.104   3.286   0.127 -0.7014 -0.0125  0.4052
  653MPD2    C2 9664   2.033   3.276   0.007 -0.2726 -0.2951 -0.2933
  653MPD2    C3 9665   2.000   3.146  17.675 -0.2745 -1.1337 -0.4109
  653MPD2    C4 9666   2.035   3.038   0.057 -0.3349  0.3413  0.1891
  653MPD2    C5 9667   2.097   3.056   0.178 -0.5296 -0.0028  0.5679
  653MPD2     H 9668   2.009   3.368  17.654 -0.0099  0.0228  0.1563
  653MPD2    H1 9669   2.015   2.935   0.031  0.9416  0.3603 -0.8832
  653MPD2    H2 9670   2.153   3.200   0.321  2.6139  1.6886 -0.3634
  653MPD2    H3 9671   2.117   2.970   0.240 -0.5077 -0.8082 -0.5671
  653MPD2     N 9672   1.933   3.135  17.549 -0.3424 -0.2336  0.8152
  653MPD2    H5 9673   1.905   3.214  17.491 -1.2603  0.7698  2.6105
  653MPD2    N1 9674   2.164   3.407   0.164  0.4412  0.0469  0.4122
  653MPD2    H7 9675   2.185   3.412   0.263 -2.3833  0.1682  1.0128
  654TMC3    C1 9676   1.874   3.038  17.363  0.3180  0.2261 -0.0435
  654TMC3    C2 9677   1.769   3.125  17.341 -0.8675  0.3134  0.2681
  654TMC3    C3 9678   1.717   3.128  17.215  0.1090 -0.6441 -0.3790
  654TMC3    C4 9679   1.912   2.940  17.269 -0.1405  0.2890  0.1265
  654TMC3    C5 9680   1.860   2.964  17.141 -0.0059 -0.0331 -0.1913
  654TMC3    C6 9681   1.762   3.061  17.109 -1.0860  0.0723 -0.5778
  654TMC3     C 9682   1.915   3.011  17.492  0.3259  0.3757 -0.7623
  654TMC3     O 9683   1.964   2.903  17.519 -0.0912  0.4404 -0.5417
  654TMC3     H 9684   1.719   3.169  17.426 -1.7344 -0.5996  0.2328
  654TMC3    H1 9685   1.993   2.871  17.287 -0.4311 -0.1376 -0.1704
  654TMC3    H2 9686   1.739   3.082  17.005 -1.7311 -1.6091 -0.7810
  654TMC3    C7 9687   1.931   2.893  17.033 -0.1849 -0.4166 -0.7198
  654TMC3    C8 9688   1.607   3.221  17.189 -0.4476 -0.1317 -0.2715
  654TMC3    O1 9689   1.923   2.938  16.921  0.4522  0.1956 -0.3257
  654TMC3    O2 9690   1.589   3.318  17.259  0.2816  0.0550  0.1449
  655MPD2     C 9691   3.443   3.809  15.867 -0.2919 -0.1760 -0.4304
  655MPD2    C1 9692   3.337   3.859  15.804 -0.5374  0.8965 -0.1387
  655MPD2    C2 9693   3.311   3.819  15.676 -0.4069 -0.1027  0.5756
  655MPD2    C3 9694   3.388   3.732  15.612 -0.0792 -0.6677 -0.9216
  655MPD2    C4 9695   3.498   3.683  15.673 -0.4592 -0.3693 -0.4247
  655MPD2    C5 9696   3.520   3.717  15.801  0.9446 -1.0690  0.8770
  655MPD2     H 9697   3.233   3.869  15.620  2.7684  0.1792 -3.5678
  655MPD2    H1 9698   3.567   3.616  15.622 -1.0057 -1.5851  0.4325
  655MPD2    H2 9699   3.488   3.846  15.958 -0.9877  1.2548 -0.6660
  655MPD2    H3 9700   3.613   3.684  15.845  1.6346  0.0823  0.2599
  655MPD2     N 9701   3.376   3.696  15.475 -0.3651  0.3036  0.0557
  655MPD2    H5 9702   3.455   3.653  15.429 -0.3949 -0.1051  0.3866
  655MPD2    N1 9703   3.246   3.949  15.861 -0.0931 -0.5985 -0.2419
  655MPD2    H7 9704   3.167   3.974  15.801 -0.8010 -0.4562  0.7555
  656TMC3    C1 9705   3.142   4.082  16.011 -0.0529  0.0512  0.1339
  656TMC3    C2 9706   3.085   4.066  16.127  0.0943 -0.0657  0.2722
  656TMC3    C3 9707   2.948   4.061  16.140  0.1572 -0.4806 -0.4865
  656TMC3    C4 9708   3.062   4.103  15.901  0.5594  0.5780  0.4146
  656TMC3    C5 9709   2.922   4.094  15.906 -0.6077  0.1445 -0.0258
  656TMC3    C6 9710   2.866   4.076  16.031  0.1312 -0.0436  0.4466
  656TMC3     C 9711   3.250   3.995  15.990  0.0212  0.1812  0.5975
  656TMC3     O 9712   3.317   3.959  16.086 -0.4921 -0.3653 -0.3197
  656TMC3     H 9713   3.146   4.045  16.214  0.4855 -2.4911 -0.6000
  656TMC3    H1 9714   3.102   4.114  15.800 -0.6446 -1.3422 -0.2814
  656TMC3    H2 9715   2.760   4.075  16.056 -0.0189  0.0775 -0.1926
  656TMC3    C7 9716   2.867   4.037  15.786 -0.7391 -0.3669 -0.4476
  656TMC3    C8 9717   2.887   4.058  16.275 -0.6053 -0.0331 -0.0395
  656TMC3    O1 9718   2.947   3.969  15.727 -0.0759  0.5995  0.1666
  656TMC3    O2 9719   2.942   4.112  16.366  0.9916 -0.5779  0.1913
  657TMC3    C1 9720   2.600   3.057  14.222 -0.4205 -0.3962  0.1660
  657TMC3    C2 9721   2.505   3.095  14.136 -0.4722 -0.6237 -0.1972
  657TMC3    C3 9722   2.530   3.210  14.069 -0.1233 -0.6156 -0.5898
  657TMC3    C4 9723   2.712   3.135  14.245 -0.0149  1.0455  0.3125
  657TMC3    C5 9724   2.728   3.259  14.194 -0.1354  0.1780  0.4998
  657TMC3    C6 9725   2.637   3.289  14.094 -0.1427  0.5504  0.2631
  657TMC3     C 9726   2.603   2.919  14.272 -0.0345 -1.6763  0.5561
  657TMC3     O 9727   2.542   2.833  14.212 -0.3304  0.4288  0.6572
  657TMC3     H 9728   2.425   3.029  14.107 -1.7310 -0.1627  2.2113
  657TMC3    H1 9729   2.780   3.082  14.311  0.8808  0.4585 -1.0712
  657TMC3    H2 9730   2.646   3.384  14.042  1.5100  0.1829 -0.1401
  657TMC3    C7 9731   2.846   3.339  14.226 -0.6215  0.0861  0.2108
  657TMC3    C8 9732   2.407   3.272  14.011  0.0374  0.4859  0.4339
  657TMC3    O1 9733   2.887   3.402  14.134  0.8719 -0.1278  0.0948
  657TMC3    O2 9734   2.303   3.243  14.074 -0.2344  0.8661 -0.1372
  658MPD2     C 9735   3.557   4.091  14.854  0.0617  0.3803 -0.1709
  658MPD2    C1 9736   3.462   3.996  14.806  0.6854 -0.0965 -0.8748
  658MPD2    C2 9737   3.429   4.003  14.676 -0.5066 -0.4800  0.1534
  658MPD2    C3 9738   3.486   4.102  14.598 -0.2284  0.1119  0.5210
  658MPD2    C4 9739   3.584   4.188  14.644  0.2110  0.2577 -0.2333
  658MPD2    C5 9740   3.612   4.187  14.774 -0.5248  0.4195 -0.7553
  658MPD2     H 9741   3.367   3.924  14.635 -0.8861  0.1792 -0.5319
  658MPD2    H1 9742   3.640   4.255  14.580  2.1262 -1.4801 -0.3493
  658MPD2    H2 9743   3.569   4.093  14.962  2.3996  0.7025 -0.4536
  658MPD2    H3 9744   3.690   4.247  14.820 -0.0166 -0.1934 -0.8230
  658MPD2     N 9745   3.443   4.102  14.458 -1.1582  0.4033 -0.3059
  658MPD2    H5 9746   3.374   4.035  14.426  0.1977 -1.2821  0.2877
  658MPD2    N1 9747   3.402   3.894  14.888 -0.0924  0.0130  0.4475
  658MPD2    H7 9748   3.337   3.835  14.836  1.1467 -0.7239 -0.2783
  659TMC3    C1 9749   3.316   3.790  15.079 -0.4366  0.4752 -0.3778
  659TMC3    C2 9750   3.350   3.732  15.195  0.2940 -0.2882  0.0642
  659TMC3    C3 9751   3.261   3.664  15.266 -0.1531  0.4298 -0.4640
  659TMC3    C4 9752   3.199   3.765  15.016  0.0444  0.2616 -0.5131
  659TMC3    C5 9753   3.117   3.678  15.082  0.1019 -0.7427 -0.0396
  659TMC3    C6 9754   3.143   3.626  15.207 -0.7293  0.1435 -0.1807
  659TMC3     C 9755   3.424   3.864  15.017  0.1675  0.0425  0.4860
  659TMC3     O 9756   3.526   3.889  15.081  0.3199  0.0676 -0.7142
  659TMC3     H 9757   3.446   3.748  15.244 -1.3025  0.6826  2.8981
  659TMC3    H1 9758   3.179   3.800  14.916 -1.2633  3.9861  1.0308
  659TMC3    H2 9759   3.069   3.574  15.267 -0.0024  0.4682  0.9895
  659TMC3    C7 9760   2.975   3.682  15.060 -0.2940 -0.1600 -0.1377
  659TMC3    C8 9761   3.254   3.690  15.410  0.0142  0.0100 -0.8308
  659TMC3    O1 9762   2.906   3.629  15.145 -0.2074  0.1156  0.2598
  659TMC3    O2 9763   3.143   3.704  15.460  0.6901 -0.3960  0.2271
  660MPD2     C 9764   1.875   2.353  12.564 -0.1597 -0.3790 -0.0524
  660MPD2    C1 9765   1.739   2.348  12.541 -0.7277  0.8821 -0.3502
  660MPD2    C2 9766   1.661   2.273  12.635 -0.1408  0.4968  0.6447
  660MPD2    C3 9767   1.718   2.197  12.735 -0.0263 -0.0486  0.3688
  660MPD2    C4 9768   1.854   2.210  12.754 -0.5722  0.2826 -0.2602
  660MPD2    C5 9769   1.928   2.287  12.670 -0.1052 -0.3539  1.4552
  660MPD2     H 9770   1.554   2.289  12.631 -0.4586 -0.6188  4.5616
  660MPD2    H1 9771   1.895   2.148  12.832 -1.3003  0.5141  0.3121
  660MPD2    H2 9772   1.939   2.414  12.501 -0.2493 -0.4638 -0.2250
  660MPD2    H3 9773   2.034   2.299  12.689 -0.3205 -1.1719  3.1238
  660MPD2     N 9774   1.646   2.109  12.826 -0.0574 -0.0380 -0.3828
  660MPD2    H5 9775   1.696   2.056  12.897 -1.4554 -0.2458  0.4385
  660MPD2    N1 9776   1.692   2.445  12.452  0.1870 -0.4293  0.3671
  660MPD2    H7 9777   1.757   2.486  12.386  0.3972  1.0906  1.5350
  661TMC3    C1 9778   1.545   2.613  12.370  0.1366  0.0374 -0.0042
  661TMC3    C2 9779   1.654   2.672  12.297 -0.1978  0.4654 -0.1365
  661TMC3    C3 9780   1.652   2.807  12.274 -1.0934 -0.1027 -0.3541
  661TMC3    C4 9781   1.451   2.698  12.431 -0.0225  0.0300  0.1936
  661TMC3    C5 9782   1.455   2.828  12.400  1.1048  0.0731  0.1498
  661TMC3    C6 9783   1.555   2.883  12.327 -0.1633  0.3228 -0.7163
  661TMC3     C 9784   1.561   2.487  12.441  0.1836  0.5935 -0.3721
  661TMC3     O 9785   1.458   2.435  12.489 -0.1180 -0.0389  0.5043
  661TMC3     H 9786   1.717   2.608  12.237 -1.0871  0.3059 -0.8962
  661TMC3    H1 9787   1.367   2.658  12.485 -0.7453  3.0821  1.3042
  661TMC3    H2 9788   1.562   2.991  12.320  0.8307  0.4098  1.7156
  661TMC3    C7 9789   1.359   2.923  12.463 -0.4253 -0.3853  0.1181
  661TMC3    C8 9790   1.746   2.850  12.165  0.0090  0.6140 -1.1080
  661TMC3    O1 9791   1.334   2.897  12.581  0.9918  0.0638 -0.3718
  661TMC3    O2 9792   1.836   2.774  12.141 -0.3626 -0.3206 -0.0146
  662MPD2     C 9793   2.058   1.565   0.276  0.3614  0.5151  0.4347
  662MPD2    C1 9794   1.970   1.623   0.186  0.6342  0.4285 -0.2876
  662MPD2    C2 9795   1.852   1.677   0.235  0.0790  0.3480  0.1282
  662MPD2    C3 9796   1.835   1.672   0.377  0.1841  0.0732  0.1023
  662MPD2    C4 9797   1.933   1.639   0.465 -0.6117 -0.9714  0.2859
  662MPD2    C5 9798   2.037   1.574   0.412 -0.8701  0.0675  0.0676
  662MPD2     H 9799   1.784   1.731   0.172  0.7654 -0.3198 -1.1857
  662MPD2    H1 9800   1.910   1.628   0.570 -1.4596  0.9201  0.2916
  662MPD2    H2 9801   2.147   1.514   0.239  1.4648  3.3661 -0.8817
  662MPD2    H3 9802   2.115   1.530   0.474 -2.3189 -0.6519  1.3596
  662MPD2     N 9803   1.718   1.709   0.433 -0.0137 -0.4682 -0.5816
  662MPD2    H5 9804   1.727   1.725   0.533 -2.8472  0.5659 -0.4962
  662MPD2    N1 9805   1.994   1.637   0.049 -1.0865 -0.0108  0.6342
  662MPD2    H7 9806   1.911   1.673   0.003  0.9269  2.4375 -1.0356
  663TMC3    C1 9807   2.078   1.665  17.545 -0.6516 -0.1689  0.6198
  663TMC3    C2 9808   1.975   1.752  17.515 -0.0587 -0.5504 -0.5765
  663TMC3    C3 9809   1.947   1.780  17.380 -0.5154 -0.4676 -0.0996
  663TMC3    C4 9810   2.136   1.591  17.448 -0.3969 -0.0270  0.5156
  663TMC3    C5 9811   2.109   1.619  17.317  0.0369  0.5078  0.2714
  663TMC3    C6 9812   2.015   1.712  17.280 -0.1211 -0.6885  0.6234
  663TMC3     C 9813   2.108   1.638  17.678  0.3182 -0.0404  0.6149
  663TMC3     O 9814   2.202   1.568  17.696 -0.0067  0.0864  1.0614
  663TMC3     H 9815   1.934   1.804  17.601  2.4164  0.3059  0.0741
  663TMC3    H1 9816   2.220   1.529  17.475 -0.4203 -0.0689  0.4922
  663TMC3    H2 9817   1.959   1.709  17.188 -0.4619 -1.1087  0.8479
  663TMC3    C7 9818   2.113   1.510  17.228  0.3316  0.6687 -0.4019
  663TMC3    C8 9819   1.812   1.802  17.338 -0.0320  0.6479 -0.2767
  663TMC3    O1 9820   2.110   1.546  17.110  0.0219  0.4145 -0.3343
  663TMC3    O2 9821   1.796   1.875  17.241 -0.1016 -0.0898  0.7185
  664MPD2     C 9822   0.060   0.154  17.444 -0.4538 -0.5224 -0.3043
  664MPD2    C1 9823   0.122   0.254  17.514 -0.5300  0.0379 -0.1389
  664MPD2    C2 9824   0.153   0.244  17.648 -0.1423  0.3677 -0.3173
  664MPD2    C3 9825   0.096   0.136   0.024  0.4452  0.3434 -0.2539
  664MPD2    C4 9826   0.042   0.038  17.646  0.2370  0.1561 -0.5661
  664MPD2    C5 9827   0.027   0.044  17.513  0.6161  0.2433 -0.3969
  664MPD2     H 9828   0.205   0.324   0.002  0.0158  1.2085 -1.7752
  664MPD2    H1 9829   0.022   4.666  17.693 -1.2488 -1.1993 -3.9525
  664MPD2    H2 9830   0.026   0.146  17.342  1.5459 -0.1425 -0.9994
  664MPD2    H3 9831   4.693   4.688  17.468 -0.9366  0.1948  1.6948
  664MPD2     N 9832   0.110   0.126   0.166 -0.3340 -0.0942 -0.3307
  664MPD2    H5 9833   0.139   0.206   0.222 -1.0714  1.4396 -2.1591
  664MPD2    N1 9834   0.161   0.367  17.439 -0.0332  0.3551  0.1727
  664MPD2    H7 9835   0.224   0.430  17.486  1.5701 -2.4747  1.8423
  665TMC3    C1 9836   0.084   0.053   0.384  0.1256 -0.0374  0.2333
  665TMC3    C2 9837   4.710   0.010   0.465 -0.1577  0.4115  0.3010
  665TMC3    C3 9838   4.704   0.061   0.590 -0.3894 -0.0338 -0.5836
  665TMC3    C4 9839   0.178   0.141   0.423  0.0627 -0.2174 -0.4306
  665TMC3    C5 9840   0.151   0.208   0.538  1.0386  0.0470 -0.0730
  665TMC3    C6 9841   0.072   0.154   0.637 -0.0466  0.0691 -0.1775
  665TMC3     C 9842   0.069   0.022   0.241  0.1429  0.3729  0.0872
  665TMC3     O 9843   4.719   4.651   0.209 -0.6122 -0.7012  0.2537
  665TMC3     H 9844   4.629   4.674   0.424 -0.7787  0.7186  1.0708
  665TMC3    H1 9845   0.254   0.173   0.352 -0.1535  0.7564 -0.2315
  665TMC3    H2 9846   0.060   0.192   0.737  2.3065 -1.2523  0.5940
  665TMC3    C7 9847   0.193   0.345   0.541  0.0969 -0.0190  0.3989
  665TMC3    C8 9848   4.597   0.025   0.690 -0.0223 -0.1728 -0.0160
  665TMC3    O1 9849   0.232   0.396   0.440 -0.2598 -0.0828 -0.0710
  665TMC3    O2 9850   4.591   0.104   0.783  0.8371  0.2929  0.3497
  666TMC3    C1 9851   4.367   1.005   9.500 -0.4842  0.6832  0.7410
  666TMC3    C2 9852   4.498   0.990   9.533  0.6125  0.6612  0.7736
  666TMC3    C3 9853   4.561   1.082   9.616 -0.9208  0.6584 -0.8517
  666TMC3    C4 9854   4.297   1.118   9.545  0.6679 -0.1793  0.0363
  666TMC3    C5 9855   4.367   1.211   9.609  0.1200  0.5947  0.6312
  666TMC3    C6 9856   4.493   1.197   9.655 -0.8544  0.6847  0.1492
  666TMC3     C 9857   4.301   0.910   9.417  0.1334 -0.1153  0.2166
  666TMC3     O 9858   4.219   0.952   9.333 -0.1312  0.1807  0.2308
  666TMC3     H 9859   4.552   0.900   9.503 -0.5235 -1.2416  4.5299
  666TMC3    H1 9860   4.192   1.134   9.523  0.8975  0.8947 -0.2665
  666TMC3    H2 9861   4.535   1.281   9.708 -1.3884  1.2434 -0.3090
  666TMC3    C7 9862   4.282   1.302   9.676  0.1026 -0.4230 -0.5294
  666TMC3    C8 9863   4.651   1.025   9.710 -0.1773  0.4570  0.0767
  666TMC3    O1 9864   4.325   1.328   9.790 -0.1415 -0.2164 -0.6962
  666TMC3    O2 9865   4.684   0.909   9.706  0.1804 -0.1805 -0.3271
  667MPD2     C 9866   0.728   0.854  14.729  0.3118 -0.1112 -0.9619
  667MPD2    C1 9867   0.646   0.834  14.839 -0.3575  0.9574 -0.1326
  667MPD2    C2 9868   0.531   0.767  14.816  0.9007 -0.6029  0.0951
  667MPD2    C3 9869   0.499   0.701  14.701  0.8062 -0.0653 -0.1172
  667MPD2    C4 9870   0.591   0.712  14.596  0.0123  0.4693  0.0188
  667MPD2    C5 9871   0.701   0.793  14.610  0.5143  0.5132  0.3380
  667MPD2     H 9872   0.476   0.760  14.909 -1.1710 -0.2965 -1.0873
  667MPD2    H1 9873   0.576   0.662  14.501  1.8421  0.7171 -0.4055
  667MPD2    H2 9874   0.811   0.922  14.743 -0.6824  1.1359 -1.1597
  667MPD2    H3 9875   0.770   0.798  14.527 -0.3055  2.4464 -0.2273
  667MPD2     N 9876   0.386   0.619  14.686 -0.9008 -0.0587 -0.0050
  667MPD2    H5 9877   0.370   0.560  14.605  1.6055 -1.0975  0.2417
  667MPD2    N1 9878   0.677   0.874  14.967  0.1451 -0.1166  0.4164
  667MPD2    H7 9879   0.617   0.837  15.041 -0.5059  2.3104  1.0856
  668TMC3    C1 9880   0.790   0.965  15.155 -0.3701  0.5381 -0.9351
  668TMC3    C2 9881   0.885   1.051  15.200  0.5831 -0.4033  0.0581
  668TMC3    C3 9882   0.909   1.046  15.332  0.9189  0.4346 -0.0812
  668TMC3    C4 9883   0.706   0.885  15.237 -0.0047  0.1795  0.0453
  668TMC3    C5 9884   0.727   0.898  15.368 -0.5722  0.6111 -0.1953
  668TMC3    C6 9885   0.832   0.969  15.417  0.6998  0.1474 -0.5179
  668TMC3     C 9886   0.783   0.951  15.010 -0.9851 -0.7332  0.1128
  668TMC3     O 9887   0.859   1.009  14.935  0.1081  0.5860  0.2635
  668TMC3     H 9888   0.957   1.099  15.134  1.0215  0.8647  1.4644
  668TMC3    H1 9889   0.641   0.806  15.202 -0.6990 -0.4618  2.7879
  668TMC3    H2 9890   0.855   0.962  15.523 -0.8939  0.5553 -0.1507
  668TMC3    C7 9891   0.653   0.809  15.454  0.1261 -0.3615 -0.5416
  668TMC3    C8 9892   0.983   1.153  15.392  0.4922  0.2043  0.0878
  668TMC3    O1 9893   0.703   0.769  15.558  0.3098  0.0491 -0.3406
  668TMC3    O2 9894   1.007   1.143  15.510 -0.9598 -0.3685 -0.4431
  669TMC3    C1 9895   3.578   0.567  14.814 -0.2692 -0.6507 -0.0181
  669TMC3    C2 9896   3.510   0.530  14.703 -0.2741 -1.0287  0.0992
  669TMC3    C3 9897   3.530   0.596  14.587  0.4397 -0.6541  0.4437
  669TMC3    C4 9898   3.675   0.666  14.814  0.0634  0.0804 -1.2238
  669TMC3    C5 9899   3.691   0.736  14.695 -0.6585 -0.2420 -0.0372
  669TMC3    C6 9900   3.619   0.705  14.580 -0.5212  0.1092  0.4393
  669TMC3     C 9901   3.540   0.498  14.936  0.0754  0.3000  0.1345
  669TMC3     O 9902   3.437   0.435  14.945 -0.0553 -0.2740  0.2503
  669TMC3     H 9903   3.451   0.440  14.711  0.8529 -1.8603 -1.0774
  669TMC3    H1 9904   3.715   0.700  14.909  1.1319 -2.1346 -0.8734
  669TMC3    H2 9905   3.640   0.761  14.489 -3.6653  0.6818  0.0596
  669TMC3    C7 9906   3.810   0.811  14.678  0.1084 -0.0539  0.0232
  669TMC3    C8 9907   3.443   0.553  14.479  0.0501  0.1047  0.9587
  669TMC3    O1 9908   3.818   0.881  14.580 -0.2831 -0.0469  0.5651
  669TMC3    O2 9909   3.398   0.441  14.482 -0.0289  0.2810 -0.2110
  670MPD2     C 9910   1.717   3.337  13.224  0.3562 -0.0533  0.2445
  670MPD2    C1 9911   1.792   3.220  13.223  0.0888 -0.0461 -0.5430
  670MPD2    C2 9912   1.741   3.114  13.293  0.0161  0.3069 -0.2030
  670MPD2    C3 9913   1.626   3.126  13.371 -0.1563  0.8906 -0.1868
  670MPD2    C4 9914   1.550   3.242  13.372 -0.6935 -0.2648 -0.8040
  670MPD2    C5 9915   1.593   3.344  13.290  0.3713 -0.2852 -0.1139
  670MPD2     H 9916   1.792   3.018  13.297 -1.0864 -0.2050  1.3544
  670MPD2    H1 9917   1.458   3.261  13.426  0.1928  0.8625  0.3101
  670MPD2    H2 9918   1.731   3.429  13.168 -1.2329 -1.2213 -2.0602
  670MPD2    H3 9919   1.545   3.441  13.286 -1.0065 -1.0134 -1.6875
  670MPD2     N 9920   1.584   3.023  13.459  0.0182  0.4198 -0.4990
  670MPD2    H5 9921   1.640   2.939  13.473 -0.3992  0.0478 -1.0893
  670MPD2    N1 9922   1.917   3.208  13.152 -0.9030 -0.1026  0.1986
  670MPD2    H7 9923   1.947   3.112  13.145  4.0029  1.4987 -0.8101
  671TMC3    C1 9924   1.478   2.904  13.621 -0.2834  0.3195  0.1812
  671TMC3    C2 9925   1.593   2.873  13.687 -0.4818  0.5021 -0.0884
  671TMC3    C3 9926   1.582   2.779  13.786  0.4779  0.1123 -0.0767
  671TMC3    C4 9927   1.361   2.838  13.649 -0.1928 -0.9435  0.4955
  671TMC3    C5 9928   1.355   2.745  13.744 -0.2226 -0.4785  0.8723
  671TMC3    C6 9929   1.467   2.705  13.805 -0.0453  0.0847 -0.2069
  671TMC3     C 9930   1.473   3.022  13.535  0.2329  0.5551 -0.5466
  671TMC3     O 9931   1.361   3.071  13.522  0.0188  0.4165  0.3796
  671TMC3     H 9932   1.683   2.933  13.686 -1.1801  1.5500 -0.1796
  671TMC3    H1 9933   1.272   2.864  13.593 -0.9630 -1.8248  1.3305
  671TMC3    H2 9934   1.469   2.619  13.870 -4.9707 -1.2197 -1.7548
  671TMC3    C7 9935   1.271   2.628  13.730 -0.1584  0.4645  0.3073
  671TMC3    C8 9936   1.707   2.733  13.848  0.0162  0.3074  0.5116
  671TMC3    O1 9937   1.332   2.525  13.701 -0.0609 -0.2799 -0.1341
  671TMC3    O2 9938   1.802   2.707  13.770 -0.8200  0.1421 -0.0514
  672MPD2     C 9939   1.624   2.510   0.792  0.5025  0.2317 -0.6904
  672MPD2    C1 9940   1.763   2.494   0.789  0.1740 -0.0928 -0.0094
  672MPD2    C2 9941   1.843   2.531   0.895 -0.2365  0.1722  0.2497
  672MPD2    C3 9942   1.784   2.578   1.011  0.0355  0.5312 -0.0548
  672MPD2    C4 9943   1.648   2.610   1.010 -0.0523  0.0266  0.2251
  672MPD2    C5 9944   1.567   2.574   0.903 -0.6404 -0.4635  0.1929
  672MPD2     H 9945   1.951   2.523   0.894 -0.3583 -1.5252  0.3333
  672MPD2    H1 9946   1.606   2.648   1.102 -0.2690  0.2801  0.0196
  672MPD2    H2 9947   1.560   2.486   0.708  1.5656 -2.5656 -0.6852
  672MPD2    H3 9948   1.459   2.574   0.915 -0.5501 -1.7789  1.0637
  672MPD2     N 9949   1.845   2.616   1.127  0.6729  0.3023  0.3297
  672MPD2    H5 9950   1.787   2.660   1.198 -1.2965 -2.2296  0.2718
  672MPD2    N1 9951   1.811   2.444   0.664 -0.0190 -0.0525  0.1768
  672MPD2    H7 9952   1.742   2.437   0.591  0.9579 -1.6564 -0.6044
  673TMC3    C1 9953   1.984   2.359   0.514 -0.2007 -0.2469  0.2829
  673TMC3    C2 9954   2.100   2.296   0.495  0.6375 -0.2799  0.4050
  673TMC3    C3 9955   2.150   2.261   0.373  0.2380 -0.0392  0.2527
  673TMC3    C4 9956   1.906   2.388   0.408  0.0637 -0.4615 -0.3097
  673TMC3    C5 9957   1.963   2.363   0.287  0.3294 -0.1047 -0.2649
  673TMC3    C6 9958   2.077   2.295   0.266  0.2833 -0.2576  0.2161
  673TMC3     C 9959   1.939   2.389   0.645 -0.1680  0.5662  0.0798
  673TMC3     O 9960   2.021   2.373   0.734 -0.5430 -0.1035 -0.6489
  673TMC3     H 9961   2.153   2.264   0.583 -0.3758 -0.7570  0.8373
  673TMC3    H1 9962   1.812   2.441   0.419  0.6410  0.0189  2.3455
  673TMC3    H2 9963   2.110   2.277   0.164 -2.1440 -2.3457 -0.1953
  673TMC3    C7 9964   1.921   2.454   0.183  0.0328  0.6031  0.2118
  673TMC3    C8 9965   2.287   2.225   0.341  0.0387 -0.3125  0.4672
  673TMC3    O1 9966   1.930   2.420   0.065  0.0427 -0.5485 -0.2668
  673TMC3    O2 9967   2.316   2.208   0.225  0.0708 -0.2452  0.2075
  674MPD2     C 9968   1.034   2.232   0.752 -0.2991  0.7886  0.4578
  674MPD2    C1 9969   1.066   2.238   0.888  0.8109  0.6700 -0.3288
  674MPD2    C2 9970   0.968   2.216   0.983  0.7362 -0.8015 -0.2660
  674MPD2    C3 9971   0.834   2.208   0.945  1.0570 -0.0410 -0.7607
  674MPD2    C4 9972   0.810   2.196   0.811 -0.8553 -0.8667  0.7334
  674MPD2    C5 9973   0.908   2.201   0.717  0.5356 -0.1112  0.1598
  674MPD2     H 9974   0.994   2.217   1.089 -3.2602 -1.4913  0.7131
  674MPD2    H1 9975   0.707   2.189   0.778 -1.4855 -0.4689  2.6066
  674MPD2    H2 9976   1.105   2.246   0.671 -0.8011 -1.2970 -0.3375
  674MPD2    H3 9977   0.890   2.214   0.611  0.6267  1.7442  0.3771
  674MPD2     N 9978   0.726   2.193   1.036 -0.0965  0.0163  0.1655
  674MPD2    H5 9979   0.638   2.225   0.996  0.7298  1.2409 -0.6700
  674MPD2    N1 9980   1.205   2.243   0.912  0.1547 -0.0856  0.0835
  674MPD2    H7 9981   1.260   2.250   0.828  0.5147 -0.4764  0.2853
  675TMC3    C1 9982   1.407   2.222   1.033 -0.6547  0.1364  0.0463
  675TMC3    C2 9983   1.474   2.255   1.148 -0.2021  0.0281  0.3325
  675TMC3    C3 9984   1.611   2.241   1.152 -0.3025 -0.3269 -0.5311
  675TMC3    C4 9985   1.469   2.188   0.924  0.1980 -0.3160  0.1936
  675TMC3    C5 9986   1.607   2.168   0.931  0.1909  0.3537 -0.1460
  675TMC3    C6 9987   1.680   2.203   1.038  0.2376 -0.3289 -0.1176
  675TMC3     C 9988   1.264   2.250   1.041 -0.6088  0.5206 -0.2867
  675TMC3     O 9989   1.213   2.274   1.147 -0.4703  0.9461 -0.4271
  675TMC3     H 9990   1.415   2.276   1.237 -0.9154 -0.2624 -0.0714
  675TMC3    H1 9991   1.414   2.141   0.843 -0.8799 -0.8587  1.2463
  675TMC3    H2 9992   1.788   2.204   1.029  0.2180 -1.1920 -0.4816
  675TMC3    C7 9993   1.679   2.120   0.814  0.2228  0.5668 -0.3352
  675TMC3    C8 9994   1.694   2.301   1.253  0.1953  0.1842  0.4045
  675TMC3    O1 9995   1.778   2.056   0.844 -0.0957  0.1184 -0.6892
  675TMC3    O2 9996   1.625   2.358   1.338  0.3012 -0.3112 -0.1868
  676MPD2     C 9997   4.677   1.881  11.141 -0.7347  0.0633 -0.0636
  676MPD2    C1 9998   4.606   1.783  11.209 -0.7585 -0.2096 -0.2045
  676MPD2    C2 9999   4.586   1.663  11.153  0.3844 -0.4390 -0.1564
  676MPD2    C310000   4.635   1.638  11.030 -0.3420 -0.7061  0.5044
  676MPD2    C410001   4.703   1.733  10.960  0.1344  0.1544 -0.3126
  676MPD2    C510002   0.001   1.856  11.015  0.5386 -0.5497 -0.7352
  676MPD2     H10003   4.529   1.588  11.206 -1.7351  1.8775  0.8705
  676MPD2    H110004   0.012   1.700  10.862  0.2211 -0.7154  0.0075
  676MPD2    H210005   4.677   1.983  11.179  0.6843  0.6652 -1.6669
  676MPD2    H310006   0.043   1.932  10.951  2.1102  0.6578  1.7144
  676MPD2     N10007   4.628   1.513  10.970 -0.4227 -0.2623  0.2537
  676MPD2    H510008   4.663   1.508  10.875 -1.7847  0.4056 -0.2847
  676MPD2    N110009   4.534   1.808  11.327 -0.3118  0.2660 -0.0924
  676MPD2    H710010   4.474   1.732  11.358 -1.1014  1.5132  1.4035
  677TMC3    C110011   4.460   1.906  11.530  0.9002  0.4626  0.1991
  677TMC3    C210012   4.443   1.776  11.580  0.2594  0.4962 -0.1469
  677TMC3    C310013   4.413   1.765  11.714 -0.0917 -0.6239  0.0723
  677TMC3    C410014   4.454   2.020  11.604  0.2048 -0.2388  0.7255
  677TMC3    C510015   4.422   2.000  11.739 -0.4593  0.0611 -0.8322
  677TMC3    C610016   4.405   1.874  11.789 -0.2309 -0.1738  0.0994
  677TMC3     C10017   4.534   1.920  11.408 -1.1222 -0.1317 -0.2864
  677TMC3     O10018   4.579   2.032  11.388  0.3538 -0.2179 -0.1056
  677TMC3     H10019   4.470   1.685  11.528 -2.4940 -0.2429 -0.2987
  677TMC3    H110020   4.450   2.117  11.556 -1.4676 -0.4198  0.4896
  677TMC3    H210021   4.373   1.859  11.892 -1.4690 -0.9995 -0.4048
  677TMC3    C710022   4.497   2.077  11.834  0.0765 -0.2959 -0.1777
  677TMC3    C810023   4.490   1.652  11.770  0.8790  0.1817  0.1642
  677TMC3    O110024   4.548   2.018  11.927 -0.2277 -0.0897  0.0485
  677TMC3    O210025   4.502   1.543  11.714 -0.2376 -0.2279 -0.3513
  678MPD2     C10026   0.984   1.449   1.524  0.3524 -0.2495 -0.7275
  678MPD2    C110027   1.028   1.352   1.438 -0.0469  0.7986  0.4519
  678MPD2    C210028   0.940   1.266   1.383  0.2276 -0.2095  0.5671
  678MPD2    C310029   0.808   1.261   1.432  0.6234  0.5270 -0.6096
  678MPD2    C410030   0.767   1.348   1.524 -0.1014 -0.7731 -0.1831
  678MPD2    C510031   0.857   1.447   1.567 -0.2164 -1.0380 -0.0142
  678MPD2     H10032   0.972   1.205   1.300  1.9550  2.0751 -0.4607
  678MPD2    H110033   0.667   1.339   1.566  0.4045 -2.9466  0.5761
  678MPD2    H210034   1.053   1.526   1.558  0.1080 -0.4140  0.1509
  678MPD2    H310035   0.829   1.520   1.642  1.2505 -1.8724  1.3532
  678MPD2     N10036   0.720   1.167   1.388 -0.2200  0.0069  0.4534
  678MPD2    H510037   0.622   1.179   1.414 -0.7744 -0.6161 -1.2879
  678MPD2    N110038   1.158   1.340   1.395  0.2634  0.3617 -0.8758
  678MPD2    H710039   1.175   1.264   1.329  1.4933  0.3416 -0.5207
  679TMC3    C110040   1.480   1.201   1.277 -0.7166  0.3145  0.8275
  679TMC3    C210041   1.402   1.256   1.371 -0.3260 -0.2671  0.1085
  679TMC3    C310042   1.361   1.381   1.339  0.2568 -0.1608 -0.8975
  679TMC3    C410043   1.528   1.268   1.160 -0.3090  0.4213 -0.0993
  679TMC3    C510044   1.466   1.385   1.127  0.3708 -0.5249 -0.3270
  679TMC3    C610045   1.382   1.441   1.218 -0.5545 -0.1336 -0.0153
  679TMC3     C10046   1.528   1.071   1.288 -0.1819  0.3895  0.2406
  679TMC3     O10047   1.589   1.019   1.196 -0.0930 -0.0306  0.2253
  679TMC3     H10048   1.374   1.219   1.469 -0.3882  1.9020  0.9045
  679TMC3    H110049   1.585   1.213   1.086 -0.0594 -2.5214  2.2936
  679TMC3    H210050   1.323   1.527   1.186 -0.0671  0.2349  0.0802
  679TMC3    C710051   1.450   1.414   0.986  0.1552 -0.1562  0.3091
  679TMC3    C810052   1.258   1.431   1.413  0.2966 -0.0707  0.3687
  679TMC3    O110053   1.336   1.441   0.952 -0.4545  0.2128 -0.3334
  679TMC3    O210054   1.248   1.548   1.458  0.0185  0.5868  0.1271
  680MPD2     C10055   1.038   0.519  13.557 -0.2930 -0.2314  0.1139
  680MPD2    C110056   1.142   0.460  13.622  0.0370 -0.4120  0.2979
  680MPD2    C210057   1.239   0.534  13.686 -0.0430  0.4885  0.1541
  680MPD2    C310058   1.226   0.673  13.690  0.1329 -0.3167  0.6577
  680MPD2    C410059   1.132   0.728  13.613 -0.2312 -0.1264  0.2468
  680MPD2    C510060   1.030   0.655  13.549 -0.1725  1.0886  0.6486
  680MPD2     H10061   1.319   0.484  13.739  0.4308  0.7043 -0.3589
  680MPD2    H110062   1.116   0.834  13.629 -1.0918 -0.1358 -0.5681
  680MPD2    H210063   0.968   0.452  13.508  2.0664 -2.2150 -0.5907
  680MPD2    H310064   0.942   0.702  13.507 -0.6718 -0.1426  0.3063
  680MPD2     N10065   1.316   0.755  13.758 -0.1388 -0.0120  0.5717
  680MPD2    H510066   1.302   0.855  13.750 -2.8346 -0.6193 -2.3809
  680MPD2    N110067   1.150   0.320  13.637 -0.8801 -0.4442 -0.0098
  680MPD2    H710068   1.066   0.269  13.613 -0.4843 -0.4940 -1.2914
  681TMC3    C110069   1.220   0.111  13.710 -0.3552  0.4938  0.0186
  681TMC3    C210070   1.132   0.132  13.813 -0.1568  0.7574  0.0688
  681TMC3    C310071   1.157   0.076  13.936  0.2469 -0.2976 -0.3360
  681TMC3    C410072   1.333   0.038  13.732 -0.3074 -0.5482  1.1555
  681TMC3    C510073   1.349   4.698  13.853  0.0232  0.3981  0.2471
  681TMC3    C610074   1.263   4.715  13.957  0.1986 -0.7438  0.4341
  681TMC3     C10075   1.263   0.240  13.665 -0.1328 -0.1190 -0.5733
  681TMC3     O10076   1.381   0.267  13.671  0.2869 -0.0962  0.3004
  681TMC3     H10077   1.040   0.188  13.803 -0.4572  0.1777 -0.4643
  681TMC3    H110078   1.390   0.015  13.643 -1.2774 -1.6965  0.8330
  681TMC3    H210079   1.280   4.663  14.051  0.3286  0.4286  1.0645
  681TMC3    C710080   1.470   4.630  13.887 -0.0118 -0.1598  0.2805
  681TMC3    C810081   1.096   0.136  14.055  0.0280  0.1946 -0.6889
  681TMC3    O110082   1.457   4.552  13.978 -0.0033  0.2909 -0.3339
  681TMC3    O210083   0.976   0.160  14.052 -0.3543 -0.1167 -0.7884
  682MPD2     C10084   3.641   2.213  10.508  0.2246  0.0874  1.3546
  682MPD2    C110085   3.595   2.085  10.542  0.2396  0.0737 -0.1507
  682MPD2    C210086   3.508   2.067  10.651  0.1095  0.7977  0.0769
  682MPD2    C310087   3.475   2.174  10.731  0.3050  1.0320  0.9300
  682MPD2    C410088   3.527   2.297  10.707  0.4982 -0.1195  0.1975
  682MPD2    C510089   3.601   2.318  10.594 -0.1831  0.0779  0.5935
  682MPD2     H10090   3.475   1.966  10.676  2.6692 -0.4484 -1.6393
  682MPD2    H110091   3.514   2.385  10.768  0.7757  1.8675 -2.6354
  682MPD2    H210092   3.705   2.241  10.425 -1.3590  0.9526  0.4190
  682MPD2    H310093   3.647   2.415  10.578  0.6289 -0.1475  1.5039
  682MPD2     N10094   3.394   2.170  10.846  0.6554  0.1339  0.0563
  682MPD2    H510095   3.403   2.249  10.909  1.3677 -0.8833  1.2207
  682MPD2    N110096   3.644   1.971  10.466  0.0749  0.0168  0.0986
  682MPD2    H710097   3.604   1.881  10.490  0.0327  0.2567  0.9380
  683TMC3    C110098   3.355   2.016  11.220 -0.6452 -0.4808  0.0810
  683TMC3    C210099   3.264   1.920  11.246 -0.0025  0.2747  0.0205
  683TMC3    C310100   3.171   1.892  11.150  0.8118 -0.5823 -0.0318
  683TMC3    C410101   3.361   2.081  11.102 -0.0427 -0.2503 -0.2013
  683TMC3    C510102   3.273   2.041  11.000  0.2890  0.1555  0.5698
  683TMC3    C610103   3.180   1.944  11.026  0.1936  0.5643  0.1239
  683TMC3     C10104   3.462   2.038  11.313  0.4885  0.0074  0.0730
  683TMC3     O10105   3.514   2.148  11.303  0.6507  0.0972 -1.0526
  683TMC3     H10106   3.261   1.886  11.349 -0.9680 -1.1309 -0.4716
  683TMC3    H110107   3.433   2.161  11.090  0.9803 -1.1150  0.1697
  683TMC3    H210108   3.110   1.905  10.952  0.4294 -0.8762  0.6508
  683TMC3    C710109   3.320   2.054  10.870  0.2750  0.1261 -0.6881
  683TMC3    C810110   3.140   1.755  11.150 -0.0964 -0.3313  0.4086
  683TMC3    O110111   3.267   1.976  10.793  0.1141  0.4080 -0.7913
  683TMC3    O210112   3.074   1.726  11.247  0.0850  0.0697  0.4143
  684MPD2     C10113   1.426   1.033  16.438 -0.1121 -0.0356  0.6165
  684MPD2    C110114   1.524   1.001  16.349 -0.1125 -0.1351  0.3946
  684MPD2    C210115   1.620   1.101  16.326 -0.7332  0.4906 -0.9251
  684MPD2    C310116   1.621   1.225  16.394  0.2627  0.2896  0.6042
  684MPD2    C410117   1.522   1.247  16.489 -0.1226  0.1531 -0.2118
  684MPD2    C510118   1.427   1.153  16.504 -0.0807  0.4784  0.1126
  684MPD2     H10119   1.707   1.078  16.264  2.3910  1.3035  3.2026
  684MPD2    H110120   1.516   1.341  16.544 -1.1327  1.6778 -2.9148
  684MPD2    H210121   1.342   0.973  16.471  0.3437 -0.2152  1.4483
  684MPD2    H310122   1.339   1.175  16.564 -0.5535  0.6356 -0.6482
  684MPD2     N10123   1.722   1.323  16.380 -0.5827 -0.2543  0.4232
  684MPD2    H510124   1.737   1.375  16.466 -0.2886  0.0650  0.1797
  684MPD2    N110125   1.551   0.874  16.291  0.3926  0.6409  0.3403
  684MPD2    H710126   1.623   0.863  16.220  1.6552  2.8991  1.2663
  685TMC3    C110127   1.522   0.656  16.220  0.5158 -0.1229  1.1069
  685TMC3    C210128   1.431   0.602  16.139  0.2596  0.4520  0.4480
  685TMC3    C310129   1.476   0.507  16.041  0.3664 -0.0556 -0.3800
  685TMC3    C410130   1.653   0.627  16.212 -0.3230 -0.1120 -0.4618
  685TMC3    C510131   1.694   0.534  16.117 -0.1192 -0.0381  0.5449
  685TMC3    C610132   1.609   0.469  16.037 -0.4802  0.5727  0.1060
  685TMC3     C10133   1.478   0.764  16.309  0.0191 -0.4111  0.5928
  685TMC3     O10134   1.364   0.751  16.357  0.3933  0.0170 -0.5263
  685TMC3     H10135   1.328   0.632  16.156 -0.4175 -0.6834 -1.6192
  685TMC3    H110136   1.722   0.687  16.269 -2.1145  2.0478 -0.5822
  685TMC3    H210137   1.634   0.390  15.968 -0.4579 -0.0737  0.8479
  685TMC3    C710138   1.833   0.537  16.069 -0.5307  0.1618 -0.2260
  685TMC3    C810139   1.396   0.484  15.920  0.2830 -0.2371 -0.1768
  685TMC3    O110140   1.868   0.497  15.960 -0.1097  0.3452  0.1305
  685TMC3    O210141   1.421   0.395  15.849 -0.4364 -0.6926  0.0812
  686MPD2     C10142   2.849   0.817  15.575  0.5561  0.1229 -0.7257
  686MPD2    C110143   2.872   0.732  15.682  1.2114 -0.4847  0.0491
  686MPD2    C210144   3.003   0.717  15.729  0.1436 -0.2516 -0.3577
  686MPD2    C310145   3.109   0.796  15.673 -0.4037 -0.0836  0.8286
  686MPD2    C410146   3.074   0.897  15.580 -0.0830  0.3503 -0.7351
  686MPD2    C510147   2.944   0.906  15.532  0.3395  0.3473 -0.4559
  686MPD2     H10148   3.024   0.649  15.811  1.7823  0.4670 -0.1814
  686MPD2    H110149   3.152   0.966  15.551 -1.9802  2.2938 -1.2031
  686MPD2    H210150   2.751   0.820  15.530  0.9038  0.6901 -1.4445
  686MPD2    H310151   2.931   0.973  15.447  3.1360  3.3698  1.4741
  686MPD2     N10152   3.244   0.793  15.718  0.2313  0.0445  0.6569
  686MPD2    H510153   3.295   0.880  15.704  2.2089 -1.5845 -2.2680
  686MPD2    N110154   2.765   0.651  15.737 -0.8132  0.0608  0.8983
  686MPD2    H710155   2.674   0.663  15.693 -1.0872  2.7461  2.2123
  687TMC3    C110156   3.267   0.565  15.808  0.9472  0.1887  0.1342
  687TMC3    C210157   3.206   0.491  15.715 -0.0132  0.7482  0.5827
  687TMC3    C310158   3.159   0.364  15.750  0.3731 -0.1880  0.2279
  687TMC3    C410159   3.304   0.513  15.929 -0.0295 -0.3972  0.1191
  687TMC3    C510160   3.252   0.388  15.962  0.0009  0.3995 -0.2118
  687TMC3    C610161   3.185   0.320  15.874  0.1359 -0.0570  0.6896
  687TMC3     C10162   3.319   0.697  15.777  0.6328 -0.4003  0.1017
  687TMC3     O10163   3.429   0.724  15.825  0.1465 -0.1748  0.3640
  687TMC3     H10164   3.185   0.518  15.612 -0.3753  0.5724  0.6102
  687TMC3    H110165   3.368   0.582  15.984  1.3761 -0.9422 -0.8427
  687TMC3    H210166   3.175   0.214  15.896 -1.4977 -0.0123  0.1670
  687TMC3    C710167   3.285   0.325  16.092  0.0876 -1.2453  0.0777
  687TMC3    C810168   3.056   0.294  15.685  0.1222  0.3122  0.0389
  687TMC3    O110169   3.230   0.216  16.112  0.7762  0.2559  0.1164
  687TMC3    O210170   3.029   0.192  15.738 -0.2500  0.2520  0.5649
  688MPD2     C10171   2.324   4.180  17.513  0.8223  0.3171  0.3384
  688MPD2    C110172   2.378   4.052  17.508 -0.5714  0.0183  0.6612
  688MPD2    C210173   2.429   4.007  17.382  0.4686 -0.0206 -0.7997
  688MPD2    C310174   2.437   4.091  17.272  1.1046 -0.2420 -0.4888
  688MPD2    C410175   2.384   4.213  17.286  0.5535  0.2114  0.0563
  688MPD2    C510176   2.326   4.257  17.399  0.3821 -0.6899 -0.1613
  688MPD2     H10177   2.461   3.904  17.372  1.9374  0.3734 -0.0675
  688MPD2    H110178   2.379   4.284  17.204  0.9808 -0.7446 -0.7987
  688MPD2    H210179   2.268   4.211  17.601  1.2362  0.4327  0.5641
  688MPD2    H310180   2.278   4.354  17.398  2.3435  0.2824 -0.6073
  688MPD2     N10181   2.494   4.046  17.148 -1.0941 -0.0520  0.3219
  688MPD2    H510182   2.504   4.121  17.080 -1.5216 -0.1492  0.1528
  688MPD2    N110183   2.353   3.957  17.612  0.4199  0.1187  0.1738
  688MPD2    H710184   2.389   3.863  17.594 -2.0887 -0.6065 -1.1065
  689TMC3    C110185   2.280   3.862   0.120  0.2040 -0.4590  0.3053
  689TMC3    C210186   2.261   3.886   0.257  0.6583  0.0768 -0.3524
  689TMC3    C310187   2.206   3.782   0.327  0.5268 -0.3867 -0.5877
  689TMC3    C410188   2.240   3.748   0.055 -0.3887 -0.4130 -0.4686
  689TMC3    C510189   2.217   3.635   0.139  0.0515 -0.8037  0.8481
  689TMC3    C610190   2.190   3.654   0.270 -0.0431 -0.2475  0.6573
  689TMC3     C10191   2.302   3.981   0.040 -0.4867  0.7349 -0.1438
  689TMC3     O10192   2.270   4.081   0.108 -0.1522  0.4524 -0.3417
  689TMC3     H10193   2.279   3.982   0.305 -0.1982  1.0531 -2.0043
  689TMC3    H110194   2.245   3.741  17.645  1.9329 -0.6407 -0.3566
  689TMC3    H210195   2.187   3.566   0.333  1.6748 -1.9149 -1.5515
  689TMC3    C710196   2.197   3.502   0.075  0.4742 -1.1666  0.0759
  689TMC3    C810197   2.205   3.766   0.472 -0.2773 -0.8766  0.4916
  689TMC3    O110198   2.219   3.499  17.653  0.1649 -0.4076 -0.3374
  689TMC3    O210199   2.112   3.693   0.508 -0.0989 -0.2104 -0.4856
  690MPD2     C10200   0.236   1.536  15.685  0.6309  0.2095  0.6574
  690MPD2    C110201   0.156   1.573  15.582  0.1128  0.5538  0.0796
  690MPD2    C210202   0.222   1.647  15.478  0.0059 -0.3483  0.6118
  690MPD2    C310203   0.351   1.690  15.486  1.0189 -0.1936 -0.0558
  690MPD2    C410204   0.427   1.638  15.588 -0.4442  0.0248 -0.1273
  690MPD2    C510205   0.366   1.563  15.680 -0.0463 -0.7370 -0.4447
  690MPD2     H10206   0.170   1.665  15.385 -0.1321 -3.5338  0.0590
  690MPD2    H110207   0.533   1.653  15.604  0.0972 -1.5009 -2.2738
  690MPD2    H210208   0.202   1.470  15.764 -0.4199 -2.0994 -1.6969
  690MPD2    H310209   0.426   1.542  15.767 -0.1943 -1.5675 -0.5422
  690MPD2     N10210   0.402   1.767  15.383 -0.5645 -0.1975  0.0492
  690MPD2    H510211   0.338   1.804  15.314 -1.0527  0.3064  0.7747
  690MPD2    N110212   0.016   1.545  15.568 -0.3757  1.1009  0.3951
  690MPD2    H710213   4.691   1.578  15.485 -0.4847  1.8893  0.7750
  691TMC3    C110214   4.515   1.489  15.634 -0.2967  0.2272  0.6003
  691TMC3    C210215   4.441   1.498  15.747 -0.7331 -0.1480  0.4273
  691TMC3    C310216   4.320   1.434  15.749  0.0080  0.4427  0.5887
  691TMC3    C410217   4.474   1.429  15.519  0.7452 -0.2161  0.1437
  691TMC3    C510218   4.353   1.363  15.523  0.1305  0.1932  1.0496
  691TMC3    C610219   4.278   1.362  15.643  0.0701  0.2067 -0.0515
  691TMC3     C10220   4.662   1.501  15.668  0.1540  0.5862 -0.8313
  691TMC3     O10221   4.692   1.484  15.789  0.0951  0.6174  0.2600
  691TMC3     H10222   4.472   1.558  15.832 -0.7828 -0.3204  0.5687
  691TMC3    H110223   4.551   1.409  15.445  0.9673  2.2146 -0.2692
  691TMC3    H210224   4.180   1.319  15.657  0.1717  0.2273  0.7170
  691TMC3    C710225   4.343   1.248  15.438 -0.5849 -0.4103  0.0226
  691TMC3    C810226   4.220   1.488  15.839  0.1112 -0.5262  0.0982
  691TMC3    O110227   4.421   1.230  15.350  0.4047  0.2222  0.0879
  691TMC3    O210228   4.257   1.490  15.956 -0.2669 -0.6087 -0.2043
  692TMC3    C110229   1.680   2.571  16.309 -0.8810 -0.0327  0.3032
  692TMC3    C210230   1.792   2.593  16.382  0.2469 -0.2183 -0.1575
  692TMC3    C310231   1.915   2.529  16.349  0.1505  0.1313 -0.3176
  692TMC3    C410232   1.682   2.516  16.179  0.2986 -0.3460 -0.1349
  692TMC3    C510233   1.806   2.467  16.146  0.2875  0.1410  0.6755
  692TMC3    C610234   1.912   2.459  16.230 -0.0497  0.1965 -0.4320
  692TMC3     C10235   1.554   2.624  16.365  0.1619  0.0880  0.0818
  692TMC3     O10236   1.449   2.568  16.333  0.5991  0.1817 -0.2232
  692TMC3     H10237   1.775   2.633  16.481  0.9820 -1.2147  0.3763
  692TMC3    H110238   1.594   2.491  16.121 -0.4695 -2.4264  1.9431
  692TMC3    H210239   2.013   2.440  16.195 -0.0062 -0.0834 -0.1509
  692TMC3    C710240   1.814   2.380  16.031 -0.0301 -0.1551  0.5766
  692TMC3    C810241   1.969   2.430  16.448  0.0913  0.4197 -0.5868
  692TMC3    O110242   1.722   2.390  15.949 -0.4825 -0.2189 -0.3328
  692TMC3    O210243   2.007   2.324  16.393 -0.4982 -0.0359  0.1763
  693MPD2     C10244   1.006   1.023  10.724 -0.1064  0.1859 -0.1643
  693MPD2    C110245   0.899   0.973  10.799  0.6258 -0.0740 -0.5293
  693MPD2    C210246   0.904   0.854  10.860  0.1913 -0.0751 -0.3054
  693MPD2    C310247   1.019   0.778  10.856 -0.4998  0.2024  0.0444
  693MPD2    C410248   1.125   0.830  10.785 -0.2787 -0.1484  0.6330
  693MPD2    C510249   1.114   0.945  10.705  0.0428  0.4486  0.3509
  693MPD2     H10250   0.815   0.817  10.911  0.2766 -1.8253 -1.4361
  693MPD2    H110251   1.217   0.774  10.769 -2.2798 -2.9157 -1.0771
  693MPD2    H210252   0.998   1.111  10.661 -2.7166  0.0887  0.0307
  693MPD2    H310253   1.195   0.974  10.640  0.8192 -2.0285  0.2132
  693MPD2     N10254   1.033   0.647  10.904 -0.5159 -0.1194 -0.2942
  693MPD2    H510255   1.114   0.596  10.871  0.4269  1.8824 -1.0615
  693MPD2    N110256   0.778   1.041  10.797  0.6256  0.1737 -0.2663
  693MPD2    H710257   0.766   1.106  10.720 -0.3800  0.1291 -0.1417
  694TMC3    C110258   0.559   1.091  10.842 -0.2251  0.0501  0.0082
  694TMC3    C210259   0.516   1.053  10.720  0.3021  0.6693  0.5530
  694TMC3    C310260   0.382   1.015  10.701 -0.1081 -0.2551  0.5621
  694TMC3    C410261   0.470   1.100  10.946  0.4084  0.2600 -0.5743
  694TMC3    C510262   0.340   1.061  10.919  0.5049 -0.5267  0.0491
  694TMC3    C610263   0.291   1.020  10.802 -1.4960  0.4090 -0.1273
  694TMC3     C10264   0.677   1.026  10.888  0.7703 -0.5919  0.4521
  694TMC3     O10265   0.693   0.996  11.005  0.6485  0.3629 -0.3423
  694TMC3     H10266   0.583   1.015  10.643  0.5344  1.3953  0.3979
  694TMC3    H110267   0.500   1.125  11.047 -3.9680  0.0650  0.7845
  694TMC3    H210268   0.188   0.987  10.791 -2.1101  2.5452 -0.8571
  694TMC3    C710269   0.277   1.015  11.037  0.2272 -0.0842 -0.0706
  694TMC3    C810270   0.353   0.922  10.592  0.1378  0.2838 -0.3025
  694TMC3    O110271   0.232   1.103  11.112  0.0938 -0.2499  0.2893
  694TMC3    O210272   0.266   0.840  10.615 -0.2450  0.3523  0.1764
  695MPD2     C10273   1.965   2.194  13.282  0.0365  0.1602 -0.4264
  695MPD2    C110274   1.893   2.198  13.404  1.0023  0.1234 -0.3745
  695MPD2    C210275   1.764   2.246  13.398  0.4659 -0.6169  0.6952
  695MPD2    C310276   1.695   2.272  13.277  0.3554 -0.4117 -0.6423
  695MPD2    C410277   1.768   2.265  13.160 -0.9009 -0.3148 -0.4179
  695MPD2    C510278   1.897   2.221  13.165 -0.2709  0.2016 -0.2602
  695MPD2     H10279   1.711   2.254  13.493  0.2457 -3.6058  0.8287
  695MPD2    H110280   1.728   2.302  13.066  2.0403 -0.9379 -1.9119
  695MPD2    H210281   2.065   2.155  13.272 -0.8717 -1.7130 -2.2527
  695MPD2    H310282   1.950   2.224  13.071 -2.0314  1.1211 -1.2252
  695MPD2     N10283   1.563   2.313  13.282 -0.2494  0.2663 -0.6964
  695MPD2    H510284   1.526   2.318  13.377 -0.4776  4.2458 -1.0029
  695MPD2    N110285   1.959   2.193  13.530 -0.6385 -0.4134 -0.1046
  695MPD2    H710286   1.901   2.208  13.612 -0.0490 -2.4231  0.6888
  696TMC3    C110287   1.351   2.386  13.230  0.2468  0.2500 -0.6175
  696TMC3    C210288   1.290   2.308  13.326 -0.0583 -0.3267  0.3277
  696TMC3    C310289   1.168   2.340  13.368  0.0383 -0.2053 -0.4089
  696TMC3    C410290   1.280   2.475  13.157 -0.4654  0.0079 -0.1391
  696TMC3    C510291   1.152   2.501  13.193  0.4140  0.4705  0.5163
  696TMC3    C610292   1.097   2.436  13.300  0.3765  0.3934  0.2220
  696TMC3     C10293   1.478   2.350  13.178  0.1450  0.0724  0.4885
  696TMC3     O10294   1.503   2.358  13.061  0.1931 -0.7850 -0.1833
  696TMC3     H10295   1.332   2.217  13.367  0.0562 -0.6389 -0.4668
  696TMC3    H110296   1.328   2.551  13.095 -0.9549 -0.8884 -1.6123
  696TMC3    H210297   0.996   2.456  13.333  1.2147  1.8508  1.8389
  696TMC3    C710298   1.119   2.637  13.178  0.1318 -0.2538 -0.2725
  696TMC3    C810299   1.096   2.241  13.441 -0.3794  0.0342  0.5709
  696TMC3    O110300   1.137   2.694  13.071 -0.1671 -0.4922 -0.0682
  696TMC3    O210301   1.133   2.127  13.420  0.0498  0.1233 -0.6834
  697MPD2     C10302   0.770   4.440  15.494 -0.7037  0.2859  0.8216
  697MPD2    C110303   0.833   4.371  15.389 -0.2070 -0.7761  0.0964
  697MPD2    C210304   0.823   4.431  15.260  0.6084  0.1409  0.0905
  697MPD2    C310305   0.755   4.546  15.241  0.5093 -0.2083 -0.0344
  697MPD2    C410306   0.694   4.609  15.344  0.3916  0.0084 -0.4033
  697MPD2    C510307   0.703   4.557  15.471  0.6550  0.6332 -0.0088
  697MPD2     H10308   0.888   4.387  15.185  0.1743  1.9999 -1.4046
  697MPD2    H110309   0.646   4.707  15.344  1.8624  0.7438  0.5015
  697MPD2    H210310   0.774   4.410  15.598  0.8160 -2.2536  0.0277
  697MPD2    H310311   0.653   4.610  15.551  1.7023 -0.2187  1.2016
  697MPD2     N10312   0.757   4.601  15.113  0.6695  0.2898 -0.2085
  697MPD2    H510313   0.830   4.563  15.054 -0.5386  0.4424 -1.8039
  697MPD2    N110314   0.916   4.258  15.403 -0.2483  0.5699 -0.1749
  697MPD2    H710315   0.947   4.214  15.316 -1.8999 -1.2597  0.1567
  698TMC3    C110316   0.785   0.069  14.985  0.2025  0.9643  0.2628
  698TMC3    C210317   0.842   0.180  15.040 -0.4298 -0.7190  0.3711
  698TMC3    C310318   0.965   0.213  15.000 -0.2976 -0.5182 -0.2429
  698TMC3    C410319   0.847   4.721  14.891 -0.1737 -1.3072  0.4046
  698TMC3    C510320   0.973   0.037  14.845  0.2823 -0.5225 -0.0304
  698TMC3    C610321   1.033   0.144  14.902 -0.0322 -0.5290 -0.3552
  698TMC3     C10322   0.698   0.002  15.078 -0.0708  0.1765  0.1883
  698TMC3     O10323   0.608   0.066  15.129 -0.5860 -0.0864  0.3017
  698TMC3     H10324   0.790   0.237  15.116  1.1745 -1.3397  1.9308
  698TMC3    H110325   0.789   4.639  14.851 -0.1420 -0.2925 -1.7285
  698TMC3    H210326   1.130   0.173  14.864 -0.8669  0.9175 -1.3275
  698TMC3    C710327   0.986   0.016  14.709  0.1087  0.7529 -0.2783
  698TMC3    C810328   1.034   0.301  15.096 -0.2596 -0.4949 -0.3692
  698TMC3    O110329   0.885   4.723  14.645 -0.3058  0.0729  0.7221
  698TMC3    O210330   0.983   0.327  15.201  0.1214 -0.1875 -0.0260
  699TMC3    C110331   1.457   2.012  12.914 -0.1126 -0.3476 -0.2642
  699TMC3    C210332   1.537   1.974  13.021 -0.4740 -0.4681  0.7336
  699TMC3    C310333   1.462   1.914  13.121  0.1788 -0.6445 -0.0050
  699TMC3    C410334   1.323   1.987  12.899 -0.0885 -0.3593 -0.4650
  699TMC3    C510335   1.264   1.925  13.002  0.3514 -0.4922 -0.3932
  699TMC3    C610336   1.333   1.877  13.112 -0.0177 -0.1375 -0.5205
  699TMC3     C10337   1.513   2.105  12.819  0.1860 -0.3702 -0.3035
  699TMC3     O10338   1.427   2.177  12.764 -0.5077  0.5628  0.7505
  699TMC3     H10339   1.641   2.005  13.027  0.0092 -1.7372 -1.1090
  699TMC3    H110340   1.274   2.003  12.803 -3.7271 -1.1264  1.2551
  699TMC3    H210341   1.280   1.825  13.191  1.1168  1.3533  1.2361
  699TMC3    C710342   1.138   1.983  13.031  0.8213 -0.1175  0.2235
  699TMC3    C810343   1.525   1.900  13.249  0.3076  0.2559 -0.0395
  699TMC3    O110344   1.061   1.923  13.110 -0.0220  0.8851 -0.0867
  699TMC3    O210345   1.448   1.869  13.342 -0.6657 -0.2981 -0.1328
  700TMC3    C110346   0.325   4.583  17.359 -0.1429  0.7501  0.5548
  700TMC3    C210347   0.326   4.446  17.356  0.4424 -0.9944 -0.0497
  700TMC3    C310348   0.382   4.378  17.464  0.3778  0.2767 -0.3155
  700TMC3    C410349   0.337   4.645  17.485  0.2724  0.3549 -0.4253
  700TMC3    C510350   0.379   4.570  17.594 -0.4644  0.5198 -0.2307
  700TMC3    C610351   0.404   4.438  17.584  0.1338  0.3135  0.1358
  700TMC3     C10352   0.269   4.661  17.244  0.1593 -0.4946 -0.7787
  700TMC3     O10353   0.181   4.600  17.186  0.1736 -0.5365 -0.5844
  700TMC3     H10354   0.296   4.402  17.262 -1.3237 -0.3412  0.2068
  700TMC3    H110355   0.321   0.027  17.495  2.2354  0.8028 -1.9752
  700TMC3    H210356   0.434   4.370  17.663  3.6431  1.4181 -0.2471
  700TMC3    C710357   0.432   4.637   0.013  0.4085 -0.9156 -0.6806
  700TMC3    C810358   0.458   4.257  17.429  0.4235  0.2409 -0.6765
  700TMC3    O110359   0.454   4.569   0.113 -0.3383 -0.2082 -0.1231
  700TMC3    O210360   0.562   4.234  17.492  0.2416  0.6779  0.3890
  701TMC3    C110361   0.773   3.120  15.427 -0.3874  0.0508 -0.6188
  701TMC3    C210362   0.709   3.067  15.322  0.8490  0.3208  0.3284
  701TMC3    C310363   0.643   3.149  15.240  0.2629  0.1010  0.4902
  701TMC3    C410364   0.769   3.251  15.470  0.7973  0.2863  0.2141
  701TMC3    C510365   0.686   3.330  15.395  0.1998  0.2947 -0.5204
  701TMC3    C610366   0.627   3.284  15.277  0.6842  0.4441  0.0254
  701TMC3     C10367   0.786   3.024  15.529  0.3298 -0.3475  0.8270
  701TMC3     O10368   0.704   2.932  15.541 -0.3735 -0.0609 -0.1114
  701TMC3     H10369   0.717   2.960  15.314 -2.3752  0.1778 -0.9132
  701TMC3    H110370   0.829   3.286  15.554 -0.0388  1.5570  0.2813
  701TMC3    H210371   0.569   3.345  15.209  0.1012 -0.3305 -0.1782
  701TMC3    C710372   0.672   3.477  15.415  0.1576  0.3305  0.2923
  701TMC3    C810373   0.536   3.088  15.159 -0.1372 -0.0661  0.3224
  701TMC3    O110374   0.615   3.528  15.319 -0.2871  0.2207  0.0204
  701TMC3    O210375   0.553   2.972  15.131  0.2377 -0.2630 -0.2858
  702MPD2     C10376   0.217   1.276  10.395  0.4913 -0.5750  0.1789
  702MPD2    C110377   0.178   1.359  10.497  0.0714 -0.2224 -0.1349
  702MPD2    C210378   0.225   1.489  10.508  0.2877 -0.0378  0.5851
  702MPD2    C310379   0.311   1.537  10.413  0.8149 -0.0140 -0.1036
  702MPD2    C410380   0.359   1.450  10.316 -0.0343 -0.0974 -0.8990
  702MPD2    C510381   0.310   1.323  10.307  0.6443  0.0942  0.1720
  702MPD2     H10382   0.185   1.553  10.586  0.5941 -0.7792  1.3624
  702MPD2    H110383   0.429   1.482  10.240  0.8600 -1.2245 -0.5505
  702MPD2    H210384   0.188   1.173  10.379  0.3109 -0.8272  2.1486
  702MPD2    H310385   0.353   1.261  10.230  1.3990 -2.5509  2.7119
  702MPD2     N10386   0.345   1.675  10.411  0.1024  0.0183  0.4302
  702MPD2    H510387   0.309   1.733  10.486  1.8642  1.5050  0.1142
  702MPD2    N110388   0.094   1.331  10.598  0.5407  0.5344  0.4906
  702MPD2    H710389   0.059   1.404  10.658 -2.7452 -2.1228  1.8060
  703TMC3    C110390   0.436   1.885  10.365  0.6944 -0.1156 -0.0951
  703TMC3    C210391   0.324   1.941  10.413  0.2840 -0.1247 -0.0033
  703TMC3    C310392   0.339   2.052  10.482  0.1346 -0.4463 -1.0879
  703TMC3    C410393   0.559   1.953  10.372 -0.1027 -0.2919 -0.0769
  703TMC3    C510394   0.557   2.079  10.411 -1.3105  0.0201 -0.1250
  703TMC3    C610395   0.452   2.135  10.483  0.0072 -0.1492 -0.1257
  703TMC3     C10396   0.438   1.741  10.334 -0.5232  0.2079  0.6811
  703TMC3     O10397   0.528   1.703  10.260  0.0990 -0.4243 -0.4860
  703TMC3     H10398   0.228   1.891  10.402  0.8723 -1.4171  0.6609
  703TMC3    H110399   0.646   1.913  10.321 -0.4159 -1.4108  0.2526
  703TMC3    H210400   0.444   2.235  10.523 -0.2124  0.6344 -2.1317
  703TMC3    C710401   0.678   2.151  10.390 -0.7681 -0.1999 -0.6581
  703TMC3    C810402   0.226   2.088  10.555  0.0114  0.3087  0.6487
  703TMC3    O110403   0.715   2.235  10.472  0.3189  0.3424  0.6885
  703TMC3    O210404   0.118   2.059  10.505 -0.3593 -0.3854 -0.1587
  704TMC3    C110405   2.318   4.066  12.078  0.1254 -0.0352 -0.1420
  704TMC3    C210406   2.420   4.043  11.996 -0.1326  0.2221 -0.1281
  704TMC3    C310407   2.516   3.951  12.039 -0.3103 -0.5346 -0.2815
  704TMC3    C410408   2.308   4.000  12.202  0.6196 -0.9121 -0.1092
  704TMC3    C510409   2.409   3.920  12.245 -0.2013  0.2773  0.1402
  704TMC3    C610410   2.511   3.904  12.164 -0.7065  0.5231  0.0205
  704TMC3     C10411   2.230   4.174  12.049 -0.3046  0.5872 -0.1377
  704TMC3     O10412   2.125   4.179  12.109  0.0765 -0.4235 -0.0788
  704TMC3     H10413   2.410   4.069  11.891  0.5557  0.5794 -0.1097
  704TMC3    H110414   2.221   4.030  12.259 -0.2152 -1.2254 -1.1938
  704TMC3    H210415   2.593   3.840  12.196  0.0634  2.7563  2.5645
  704TMC3    C710416   2.398   3.817  12.344  0.2762 -0.1202  0.2702
  704TMC3    C810417   2.637   3.927  11.956  0.1950 -0.5540  0.5124
  704TMC3    O110418   2.496   3.771  12.405 -0.1175  0.0022  0.6568
  704TMC3    O210419   2.722   3.854  12.006  0.0311  0.0955  0.5716
  705MPD2     C10420   2.137   1.830  16.783  0.4651  0.1160  0.2944
  705MPD2    C110421   2.073   1.823  16.664  0.5659 -0.1135 -0.0408
  705MPD2    C210422   1.931   1.826  16.664  0.9770  0.1033 -0.8685
  705MPD2    C310423   1.856   1.844  16.777  0.0105  0.3822 -0.3682
  705MPD2    C410424   1.936   1.859  16.896  0.1380  0.4875  0.3656
  705MPD2    C510425   2.071   1.852  16.898  0.2515  0.1588 -0.2142
  705MPD2     H10426   1.884   1.810  16.568 -1.5592  1.4540  0.1388
  705MPD2    H110427   1.887   1.881  16.990 -1.7679 -1.1363 -0.2528
  705MPD2    H210428   2.245   1.846  16.786  0.3519  0.6997  1.1755
  705MPD2    H310429   2.127   1.829  16.987  2.2191  2.4695 -0.8240
  705MPD2     N10430   1.715   1.866  16.778  0.3929  0.5568 -0.7777
  705MPD2    H510431   1.673   1.903  16.862  0.9751  2.7140 -1.4406
  705MPD2    N110432   2.139   1.841  16.539  0.7973 -0.1575 -0.3281
  705MPD2    H710433   2.078   1.860  16.460  1.7718  2.0657 -0.5563
  706TMC3    C110434   2.387   1.880  16.166 -0.5844  0.6185  0.4875
  706TMC3    C210435   2.331   2.001  16.137  0.8489 -0.0888 -0.9775
  706TMC3    C310436   2.277   2.074  16.237 -0.4704  0.5140 -0.4030
  706TMC3    C410437   2.388   1.840  16.298  0.5982  0.3649 -0.4644
  706TMC3    C510438   2.318   1.910  16.391  0.2615  0.6916  0.0827
  706TMC3    C610439   2.256   2.025  16.364  0.5689 -0.8923 -0.0868
  706TMC3     C10440   2.487   1.841  16.075 -0.0444 -0.7483  0.5392
  706TMC3     O10441   2.590   1.790  16.121  0.4399  0.8979  0.1992
  706TMC3     H10442   2.334   2.055  16.043  1.9988  0.4645 -0.6247
  706TMC3    H110443   2.457   1.759  16.320  0.9736  0.4767 -1.2289
  706TMC3    H210444   2.184   2.070  16.431  0.8377  0.5033 -0.7230
  706TMC3    C710445   2.275   1.849  16.516  0.0074  0.0359 -0.5453
  706TMC3    C810446   2.257   2.217  16.219 -0.5789  0.7000 -0.4473
  706TMC3    O110447   2.371   1.815  16.585  0.8509  0.5314  0.0186
  706TMC3    O210448   2.245   2.249  16.104  0.2247 -0.0637 -0.2191
  707TMC3    C110449   3.690   1.115   0.789 -0.2634  0.1407 -0.2612
  707TMC3    C210450   3.655   1.016   0.877 -0.3286  0.3117  0.0278
  707TMC3    C310451   3.521   1.000   0.902 -0.1938  0.3785 -0.2554
  707TMC3    C410452   3.598   1.191   0.716 -0.2373 -0.4988  0.4411
  707TMC3    C510453   3.465   1.174   0.751  0.5525 -0.5362  0.5294
  707TMC3    C610454   3.429   1.076   0.840 -0.0233 -0.3173 -0.2479
  707TMC3     C10455   3.830   1.106   0.754  0.3460  0.1156 -0.1203
  707TMC3     O10456   3.881   0.994   0.758  0.0598  0.4145  0.0927
  707TMC3     H10457   3.729   0.973   0.943 -0.8564  0.3292  0.6216
  707TMC3    H110458   3.628   1.274   0.652 -1.2410 -1.4945 -1.3039
  707TMC3    H210459   3.323   1.069   0.862  0.0459 -0.3762  0.0604
  707TMC3    C710460   3.365   1.214   0.648  0.4389 -0.3580 -0.3903
  707TMC3    C810461   3.475   0.896   1.000  0.3002 -0.8235  0.1100
  707TMC3    O110462   3.242   1.204   0.662 -0.2806 -0.2077  0.0104
  707TMC3    O210463   3.357   0.902   1.029  0.0385  0.6409 -0.0838
  708MPD2     C10464   0.339   0.681  13.610  0.1043  0.0231  0.7099
  708MPD2    C110465   0.325   0.803  13.673 -0.0246  0.7030 -0.2641
  708MPD2    C210466   0.355   0.814  13.809 -0.4402 -0.7087  0.5794
  708MPD2    C310467   0.405   0.706  13.884  0.5388 -0.5272  0.1436
  708MPD2    C410468   0.412   0.584  13.819 -0.0687 -0.9141 -0.0972
  708MPD2    C510469   0.389   0.576  13.682 -0.0358 -0.2659  0.8444
  708MPD2     H10470   0.346   0.914  13.851 -0.3865  0.1926 -1.5439
  708MPD2    H110471   0.447   0.501  13.879  0.0125  1.0419  2.5193
  708MPD2    H210472   0.324   0.670  13.503 -0.6485  1.4444  0.6619
  708MPD2    H310473   0.402   0.481  13.633 -1.3101 -0.1849  0.3454
  708MPD2     N10474   0.432   0.714  14.026  0.2546 -0.4799 -0.0866
  708MPD2    H510475   0.466   0.635  14.081  0.7631 -0.5590 -0.5075
  708MPD2    N110476   0.261   0.904  13.596 -0.0770 -0.0381  0.0237
  708MPD2    H710477   0.219   0.869  13.510  2.0231  0.5572 -1.2353
  709TMC3    C110478   0.122   1.098  13.592  0.6991 -0.3789 -0.3266
  709TMC3    C210479   0.061   1.020  13.503 -0.2637 -0.4326 -0.0687
  709TMC3    C310480   4.657   0.970  13.539 -0.1958 -0.4088  0.4958
  709TMC3    C410481   0.049   1.150  13.695 -0.1714 -0.5865 -0.1594
  709TMC3    C510482   4.654   1.092  13.737 -0.6807  0.0406  0.2213
  709TMC3    C610483   4.593   1.002  13.657  0.4438 -0.8212  0.1184
  709TMC3     C10484   0.244   1.034  13.641 -0.4143  0.1032  0.0444
  709TMC3     O10485   0.313   1.083  13.728 -0.7760  0.1088 -0.3437
  709TMC3     H10486   0.117   1.002  13.412  0.8818 -0.4036  0.6338
  709TMC3    H110487   0.100   1.225  13.754  0.8803 -3.0970  2.1267
  709TMC3    H210488   4.497   0.957  13.680 -0.2939 -0.0160 -1.3750
  709TMC3    C710489   4.649   1.091  13.880  0.1789 -1.0656  0.2767
  709TMC3    C810490   4.567   0.911  13.443  0.2088 -0.1878 -0.6033
  709TMC3    O110491   0.018   1.146  13.937 -0.2006 -0.1857 -1.1836
  709TMC3    O210492   4.463   0.857  13.479  0.0026  0.2474 -0.3867
  710TMC3    C110493   1.053   1.748   0.291  0.3230 -0.2217  0.0146
  710TMC3    C210494   1.109   1.744   0.166 -0.9865  0.0770  0.1728
  710TMC3    C310495   1.216   1.653   0.152  0.6621 -0.5729 -0.2925
  710TMC3    C410496   1.094   1.680   0.405  0.2312  1.0411  0.3958
  710TMC3    C510497   1.202   1.607   0.380 -0.4458  0.7308 -0.3129
  710TMC3    C610498   1.263   1.591   0.259 -0.4509 -0.8013 -0.3418
  710TMC3     C10499   0.927   1.820   0.297 -0.0205  0.5316 -0.3457
  710TMC3     O10500   0.884   1.878   0.199  0.1223  0.8302 -0.3583
  710TMC3     H10501   1.061   1.805   0.091 -0.9523  0.0492  0.1280
  710TMC3    H110502   1.063   1.715   0.503 -0.2848  0.0334  0.5914
  710TMC3    H210503   1.365   1.554   0.253 -0.2395 -0.2111 -0.4578
  710TMC3    C710504   1.265   1.546   0.492  0.2493  0.9185 -0.3170
  710TMC3    C810505   1.312   1.652   0.038  0.3743 -0.1738  0.3120
  710TMC3    O110506   1.230   1.586   0.599 -0.0661 -0.2929  0.2970
  710TMC3    O210507   1.389   1.558   0.033 -0.5835 -0.1467  0.0138
  711TMC3    C110508   1.193   3.093  15.053  0.3710 -0.5946  0.2133
  711TMC3    C210509   1.210   3.125  15.183 -0.8240 -0.8556 -0.1129
  711TMC3    C310510   1.327   3.078  15.239 -0.0260  0.3029  0.2493
  711TMC3    C410511   1.257   2.984  14.999 -0.5050  0.4118  0.1809
  711TMC3    C510512   1.360   2.929  15.067  0.9269  0.0805 -0.3966
  711TMC3    C610513   1.397   2.975  15.188 -0.6441 -0.0989 -0.5454
  711TMC3     C10514   1.083   3.141  14.973 -0.2173 -0.6540 -0.5333
  711TMC3     O10515   1.059   3.073  14.873 -0.3602  0.4339  0.0039
  711TMC3     H10516   1.172   3.222  15.212 -2.3329 -0.6267 -2.8301
  711TMC3    H110517   1.232   2.958  14.897 -0.8649  1.3756  0.0180
  711TMC3    H210518   1.466   2.923  15.254 -0.6246  0.3843 -0.1859
  711TMC3    C710519   1.404   2.801  15.022  0.0532 -0.7558  0.6783
  711TMC3    C810520   1.329   3.091  15.385 -0.4822 -0.4164 -1.1550
  711TMC3    O110521   1.511   2.764  15.076  0.3453 -0.2372 -0.3099
  711TMC3    O210522   1.224   3.131  15.434 -0.2122 -0.0547  0.6340
  712MPD2     C10523   2.129   3.910  13.853 -0.0604  0.0216  0.2194
  712MPD2    C110524   2.090   4.016  13.776 -0.2080 -0.1133 -0.5760
  712MPD2    C210525   2.170   4.127  13.757 -0.1076 -0.4344 -0.1913
  712MPD2    C310526   2.302   4.126  13.806  0.6785 -0.6490 -0.4429
  712MPD2    C410527   2.344   4.020  13.880 -1.0671 -0.0739  0.2494
  712MPD2    C510528   2.260   3.912  13.901  0.2196 -0.3216 -0.6613
  712MPD2     H10529   2.139   4.215  13.701 -1.2122  0.4187  1.7628
  712MPD2    H110530   2.442   4.013  13.925 -1.7400 -2.2729  1.3818
  712MPD2    H210531   2.074   3.820  13.878  0.1532 -0.7974 -2.2464
  712MPD2    H310532   2.302   3.819  13.938 -1.9217 -0.6024  1.0754
  712MPD2     N10533   2.392   4.230  13.797 -0.1464 -0.0135  0.1642
  712MPD2    H510534   2.485   4.209  13.832 -0.0061 -1.1943 -0.9101
  712MPD2    N110535   1.959   4.030  13.719  0.0519 -0.0736  0.2550
  712MPD2    H710536   1.941   4.112  13.663  2.4155 -0.3132 -0.8435
  713TMC3    C110537   2.477   4.465  13.789 -0.4285 -0.0473  0.1341
  713TMC3    C210538   2.601   4.418  13.765 -0.5054 -0.4320  0.3391
  713TMC3    C310539   2.704   4.497  13.812  0.3574 -1.1843 -0.5676
  713TMC3    C410540   2.446   4.591  13.833 -0.4804 -0.5371  0.3469
  713TMC3    C510541   2.548   4.665  13.879  0.6409  0.2853  0.2569
  713TMC3    C610542   2.680   4.620  13.870  0.3800 -0.2529  0.5822
  713TMC3     C10543   2.359   4.368  13.773 -0.0564  0.4732  0.3025
  713TMC3     O10544   2.252   4.418  13.752 -0.4328 -0.3199 -0.6747
  713TMC3     H10545   2.617   4.322  13.715 -1.5460 -0.5349  0.2047
  713TMC3    H110546   2.343   4.624  13.846 -0.6971 -1.8409  1.9930
  713TMC3    H210547   2.763   4.687  13.889  1.1988 -0.8612 -0.8368
  713TMC3    C710548   2.543   0.082  13.868  0.5179  0.4709 -0.0863
  713TMC3    C810549   2.825   4.487  13.741  0.0984 -0.1601  1.0036
  713TMC3    O110550   2.644   0.136  13.823  0.6819 -0.5351  0.0341
  713TMC3    O210551   2.867   4.584  13.676  0.2264 -0.2146 -0.5982
  714MPD2     C10552   4.150   2.551   1.395  0.3986  0.0221  0.0506
  714MPD2    C110553   4.202   2.460   1.305  0.5755 -0.1021 -0.1349
  714MPD2    C210554   4.157   2.454   1.167 -0.2378  0.0420  0.4649
  714MPD2    C310555   4.064   2.542   1.125  0.4527 -1.0467  0.1785
  714MPD2    C410556   4.021   2.641   1.211  0.4317 -0.0822  0.1510
  714MPD2    C510557   4.065   2.645   1.334  0.9518 -0.5058 -0.2788
  714MPD2     H10558   4.203   2.388   1.094 -2.1156  0.8875 -1.5333
  714MPD2    H110559   3.951   2.717   1.178 -0.0484 -1.1810 -1.3478
  714MPD2    H210560   4.195   2.569   1.492  0.6297  1.2552 -0.2831
  714MPD2    H310561   4.035   2.735   1.386 -0.0189 -2.2369  2.1534
  714MPD2     N10562   4.028   2.531   0.988 -0.1108 -0.1641  0.2402
  714MPD2    H510563   4.082   2.466   0.931 -2.0320 -0.7742 -0.9028
  714MPD2    N110564   4.303   2.378   1.359  1.0556 -0.0035  0.2114
  714MPD2    H710565   4.331   2.405   1.452  1.7424  1.1312 -0.3303
  715TMC3    C110566   4.446   2.190   1.398 -0.0941 -0.4530 -0.3239
  715TMC3    C210567   4.528   2.091   1.341  0.0374  0.2958 -0.6193
  715TMC3    C310568   4.619   2.024   1.415 -0.6519 -0.4264 -0.4469
  715TMC3    C410569   4.468   2.225   1.536  0.4638 -0.4048  0.2301
  715TMC3    C510570   4.557   2.151   1.611 -0.6213  0.1101  0.6427
  715TMC3    C610571   4.629   2.053   1.553 -0.4104  0.3298 -0.3428
  715TMC3     C10572   4.356   2.266   1.303  0.1182 -0.1260  0.5461
  715TMC3     O10573   4.332   2.220   1.191 -0.3900  0.4971 -0.2388
  715TMC3     H10574   4.514   2.045   1.244 -0.0417 -2.1630  0.5372
  715TMC3    H110575   4.405   2.300   1.583 -1.4836 -0.6553 -1.9534
  715TMC3    H210576   4.687   2.003   1.630 -0.3900  0.1711 -0.4606
  715TMC3    C710577   4.632   2.224   1.718 -0.1327 -0.4288  0.5161
  715TMC3    C810578   4.707   1.923   1.362  0.5115 -0.0048 -0.7212
  715TMC3    O110579   4.697   2.155   1.801 -0.4304  0.2147  0.5344
  715TMC3    O210580   4.706   1.894   1.244 -0.1325  0.1084 -0.0712
  716MPD2     C10581   0.124   1.540   9.781  0.0148  0.6353 -0.5722
  716MPD2    C110582   0.064   1.499   9.670  0.2129 -0.0494  0.6775
  716MPD2    C210583   0.105   1.379   9.616  0.5086 -0.7552  0.0624
  716MPD2    C310584   0.198   1.296   9.678  0.8044 -0.7273 -0.4574
  716MPD2    C410585   0.257   1.341   9.800 -0.2887  0.6182 -0.1108
  716MPD2    C510586   0.217   1.466   9.844  0.0316  0.0087  0.6817
  716MPD2     H10587   0.055   1.337   9.530  0.8801 -0.9445 -0.0594
  716MPD2    H110588   0.330   1.280   9.853 -1.9122 -2.5514 -1.4951
  716MPD2    H210589   0.094   1.627   9.838 -2.0562 -0.2887 -0.2350
  716MPD2    H310590   0.253   1.515   9.934 -0.6445  0.5326  0.6667
  716MPD2     N10591   0.229   1.168   9.633 -0.1108 -0.0823  0.4900
  716MPD2    H510592   0.183   1.133   9.549  0.8953 -1.8803  0.6842
  716MPD2    N110593   4.673   1.569   9.624 -0.0346  0.1653 -0.0479
  716MPD2    H710594   4.642   1.649   9.679 -0.8937  0.7312 -1.3563
  717TMC3    C110595   0.288   0.954   9.609  0.4510  0.0719  0.0185
  717TMC3    C210596   0.266   0.959   9.479 -0.5355 -0.3308  0.0494
  717TMC3    C310597   0.246   0.845   9.414 -0.0306 -0.0593  0.2628
  717TMC3    C410598   0.316   0.843   9.679  0.0807 -0.8594 -0.2373
  717TMC3    C510599   0.301   0.722   9.617 -0.6233  0.5784  0.1246
  717TMC3    C610600   0.263   0.725   9.484 -0.3567  0.3284  0.1958
  717TMC3     C10601   0.314   1.076   9.687  0.2767  0.4942 -0.3008
  717TMC3     O10602   0.394   1.064   9.778  0.0859  0.4895  0.0292
  717TMC3     H10603   0.264   1.048   9.417  0.3111  0.7936  1.6364
  717TMC3    H110604   0.333   0.841   9.786  2.8736 -4.3225 -0.7386
  717TMC3    H210605   0.240   0.635   9.427  0.9578  0.7539 -1.0321
  717TMC3    C710606   0.361   0.605   9.685  0.2273  0.5625 -0.0693
  717TMC3    C810607   0.145   0.865   9.321 -0.1146 -0.1918 -0.0957
  717TMC3    O110608   0.397   0.626   9.799  0.3412  0.3781 -0.5698
  717TMC3    O210609   0.080   0.964   9.347 -0.2009 -0.2694  0.2960
  718MPD2     C10610   3.573   4.244  11.996  0.2089  0.1804  0.7185
  718MPD2    C110611   3.505   4.346  11.938 -0.2740 -0.3434  0.7181
  718MPD2    C210612   3.387   4.381  11.998 -0.6908 -0.1491  0.0669
  718MPD2    C310613   3.342   4.314  12.112  0.0194  0.5260  1.1479
  718MPD2    C410614   3.419   4.215  12.172 -0.4653  0.5756 -0.6019
  718MPD2    C510615   3.535   4.180  12.111  0.2010 -0.1627 -0.1507
  718MPD2     H10616   3.326   4.464  11.963 -0.3641 -0.2141 -0.6606
  718MPD2    H110617   3.383   4.160  12.258 -1.3437  1.2542 -0.5381
  718MPD2    H210618   3.660   4.202  11.946  0.8152  1.3572  0.7712
  718MPD2    H310619   3.590   4.092  12.144 -0.7076 -0.9376 -0.7081
  718MPD2     N10620   3.221   4.360  12.165 -0.2284 -0.0182  0.4597
  718MPD2    H510621   3.167   4.425  12.109  0.0337 -0.7478 -0.6286
  718MPD2    N110622   3.548   4.408  11.822 -0.2279  0.6919  0.8021
  718MPD2    H710623   3.635   4.376  11.780 -2.4080 -1.0809 -2.4149
  719TMC3    C110624   3.532   4.590  11.679 -0.9220 -0.4879 -0.9976
  719TMC3    C210625   3.437   4.686  11.665  0.0792  0.1289  1.1281
  719TMC3    C310626   3.443   0.071  11.745 -0.2444 -0.1086 -0.1128
  719TMC3    C410627   3.647   4.611  11.752  0.4281 -0.4457 -0.6981
  719TMC3    C510628   3.663   0.012  11.812  0.8857  0.1767 -0.5049
  719TMC3    C610629   3.560   0.107  11.813  0.1604  0.2192 -0.8150
  719TMC3     C10630   3.464   4.483  11.743  0.8667  0.1995 -0.3047
  719TMC3     O10631   3.340   4.488  11.744  0.4807  0.4828 -0.3410
  719TMC3     H10632   3.346   4.666  11.608  0.6884  2.6572 -0.7365
  719TMC3    H110633   3.739   4.559  11.728  0.1037 -0.5444 -1.7241
  719TMC3    H210634   3.568   0.194  11.877  0.1251 -1.2013  1.1582
  719TMC3    C710635   3.787   0.056  11.869  0.6293 -0.5170 -0.1365
  719TMC3    C810636   3.319   0.125  11.809  0.0299  0.1880  0.6887
  719TMC3    O110637   3.889   0.016  11.817 -0.6154  0.7024  0.2645
  719TMC3    O210638   3.331   0.193  11.908 -0.2867 -0.0318  0.4255
  720MPD2     C10639   2.677   0.954  13.840  0.2342  0.9303 -0.3576
  720MPD2    C110640   2.674   1.091  13.833  0.1550 -0.4657  0.8754
  720MPD2    C210641   2.759   1.162  13.916 -1.1846  0.2005 -0.6753
  720MPD2    C310642   2.844   1.100  14.007 -0.3483  0.1653  0.1000
  720MPD2    C410643   2.847   0.960  14.012  0.0241 -0.1340  0.6673
  720MPD2    C510644   2.768   0.893  13.928 -0.3174  0.4783 -0.2921
  720MPD2     H10645   2.753   1.270  13.918 -0.0506  0.2451  0.0253
  720MPD2    H110646   2.921   0.906  14.069  0.2171 -0.5963 -0.0241
  720MPD2    H210647   2.603   0.889  13.794 -0.1806  0.1228  1.4476
  720MPD2    H310648   2.778   0.785  13.925 -0.2732  0.4303  1.2306
  720MPD2     N10649   2.917   1.190  14.094  0.2000  0.2143 -0.5186
  720MPD2    H510650   2.941   1.285  14.065  0.7669  0.4319  0.6477
  720MPD2    N110651   2.578   1.152  13.749 -0.5455 -0.1490  0.5555
  720MPD2    H710652   2.522   1.092  13.690 -2.0542  1.8211 -0.0058
  721TMC3    C110653   3.068   1.243  14.281  0.2938  0.0163  0.3061
  721TMC3    C210654   3.071   1.233  14.415 -0.1582 -0.5609 -0.2079
  721TMC3    C310655   3.188   1.253  14.487  0.4415 -0.1360  0.0087
  721TMC3    C410656   3.182   1.271  14.212 -0.3034  0.7822 -0.1144
  721TMC3    C510657   3.303   1.274  14.281  0.1971  0.7899 -0.6946
  721TMC3    C610658   3.305   1.288  14.417  0.4842 -0.3022 -0.0061
  721TMC3     C10659   2.981   1.154  14.210  0.2577  0.3140 -0.0162
  721TMC3     O10660   2.989   1.043  14.265  0.4568  0.9647  0.1354
  721TMC3     H10661   2.977   1.218  14.467 -1.0762  1.5613 -1.2530
  721TMC3    H110662   3.188   1.277  14.104  2.2595 -0.4610 -0.0417
  721TMC3    H210663   3.394   1.305  14.477  1.5125  2.8446 -2.4503
  721TMC3    C710664   3.423   1.257  14.208  0.2651 -0.0821  0.3021
  721TMC3    C810665   3.201   1.234  14.628 -0.4520 -0.3838 -0.1857
  721TMC3    O110666   3.438   1.310  14.099  0.0614 -0.6757 -0.2690
  721TMC3    O210667   3.312   1.227  14.672  0.4461 -0.4032 -0.1620
  722MPD2     C10668   1.614   0.282  13.122  0.4946  0.0167 -0.6865
  722MPD2    C110669   1.522   0.287  13.224  0.1459  0.1639 -0.0379
  722MPD2    C210670   1.390   0.272  13.187 -0.2002 -0.4647  0.1170
  722MPD2    C310671   1.351   0.288  13.048  0.5179 -0.0696  0.1325
  722MPD2    C410672   1.448   0.290  12.957 -0.6318 -0.6044  0.3211
  722MPD2    C510673   1.577   0.287  12.993  0.2767 -0.1921  0.3217
  722MPD2     H10674   1.313   0.261  13.262 -0.5152 -1.9911 -0.4440
  722MPD2    H110675   1.435   0.299  12.850  2.5623 -1.2615 -0.1123
  722MPD2    H210676   1.721   0.288  13.137  0.1619  2.0555  0.8222
  722MPD2    H310677   1.653   0.304  12.917  0.5157 -3.1298 -0.1035
  722MPD2     N10678   1.213   0.310  13.012  0.0984 -0.1133  0.6943
  722MPD2    H510679   1.143   0.324  13.084  0.4085  0.2774  0.9214
  722MPD2    N110680   1.560   0.302  13.360 -0.8446 -0.3654 -0.3973
  722MPD2    H710681   1.488   0.291  13.430  0.6719 -3.3027  0.6804
  723TMC3    C110682   1.036   0.389  12.867  0.9114  0.8093 -0.2867
  723TMC3    C210683   0.939   0.302  12.916  0.0028  0.2681  0.5008
  723TMC3    C310684   0.809   0.343  12.923  0.0420 -0.5011  1.1636
  723TMC3    C410685   1.000   0.508  12.804  0.4808  0.4202 -0.3366
  723TMC3    C510686   0.865   0.546  12.814  1.0870 -0.2973  1.1695
  723TMC3    C610687   0.769   0.464  12.871 -0.8054 -0.1289  0.3597
  723TMC3     C10688   1.177   0.359  12.888 -0.2013 -0.1378 -0.0938
  723TMC3     O10689   1.244   0.395  12.792  0.2143 -0.0777  0.1540
  723TMC3     H10690   0.967   0.200  12.939  1.5055  0.2400 -1.4212
  723TMC3    H110691   1.081   0.572  12.774  2.2616 -2.3351 -1.4429
  723TMC3    H210692   0.666   0.500  12.871 -1.2086 -1.2645 -0.5661
  723TMC3    C710693   0.823   0.682  12.793  0.1289  0.1843 -0.6054
  723TMC3    C810694   0.698   0.248  12.951 -0.1719 -0.7084  0.0623
  723TMC3    O110695   0.701   0.701  12.787  0.6009  0.4400  0.2151
  723TMC3    O210696   0.591   0.299  12.978  0.1965 -1.1543  0.1736
  724TMC3    C110697   2.136   2.964  10.868  0.6759  0.0520  0.0494
  724TMC3    C210698   2.067   2.963  10.753 -0.0778  0.2348  0.2535
  724TMC3    C310699   2.093   3.049  10.654 -0.2190 -0.6519 -0.0618
  724TMC3    C410700   2.230   3.056  10.890  0.1778  0.0592  0.2073
  724TMC3    C510701   2.257   3.148  10.793  0.0355 -0.4972 -0.5361
  724TMC3    C610702   2.181   3.150  10.675 -0.2732 -0.1060 -0.1320
  724TMC3     C10703   2.087   2.894  10.986 -0.4088  0.4220 -0.4145
  724TMC3     O10704   2.147   2.920  11.088 -0.3002  0.1948 -0.2899
  724TMC3     H10705   2.013   2.873  10.723 -1.6067  0.5357  2.1111
  724TMC3    H110706   2.306   3.042  10.966 -1.4623  1.7867  2.1650
  724TMC3    H210707   2.189   3.233  10.605  1.2493  0.3005  0.5222
  724TMC3    C710708   2.361   3.249  10.797  0.1042  0.4299  0.1240
  724TMC3    C810709   2.013   3.054  10.532  0.0546 -0.1256 -0.5738
  724TMC3    O110710   2.393   3.309  10.693  0.2737 -0.3707 -0.1851
  724TMC3    O210711   1.901   3.009  10.544  0.2206  0.3958 -0.8744
  725TMC3    C110712   3.600   1.505  12.989 -0.0147  0.7304 -0.2356
  725TMC3    C210713   3.469   1.511  12.977  0.2368  0.0452  0.4072
  725TMC3    C310714   3.401   1.412  12.915  0.1727  0.2661  0.1770
  725TMC3    C410715   3.667   1.397  12.937 -0.4373  0.1721 -0.4765
  725TMC3    C510716   3.604   1.294  12.876  0.3889  0.1563  0.0759
  725TMC3    C610717   3.469   1.300  12.868  0.4015 -0.6067  0.1189
  725TMC3     C10718   3.654   1.638  12.988  0.1225 -0.2682  0.3132
  725TMC3     O10719   3.601   1.727  13.052  0.2513  1.0928 -0.5345
  725TMC3     H10720   3.410   1.598  13.003 -1.4751 -1.9375  3.1006
  725TMC3    H110721   3.773   1.395  12.959 -0.2043 -0.3136 -1.6608
  725TMC3    H210722   3.406   1.220  12.830 -1.0832  0.6546 -0.0930
  725TMC3    C710723   3.659   1.213  12.772  0.1716 -0.3695  0.8904
  725TMC3    C810724   3.288   1.449  12.836 -0.3573 -0.1079  0.2849
  725TMC3    O110725   3.749   1.262  12.702 -0.1654  0.1314 -0.3772
  725TMC3    O210726   3.181   1.390  12.846  0.5617  0.0802  0.3569
  726MPD2     C10727   1.502   3.287  11.372 -0.2576 -0.5013  0.4564
  726MPD2    C110728   1.478   3.401  11.290 -0.7186  0.3046  0.4333
  726MPD2    C210729   1.349   3.441  11.279  0.0221 -0.1436 -0.8849
  726MPD2    C310730   1.236   3.385  11.339  0.4577 -0.5321  0.1700
  726MPD2    C410731   1.262   3.276  11.416  0.4769 -0.1423  0.1882
  726MPD2    C510732   1.390   3.230  11.429 -0.0907 -0.3723 -0.3566
  726MPD2     H10733   1.332   3.528  11.217 -0.9803  0.5240  0.3429
  726MPD2    H110734   1.184   3.227  11.474  1.6068  0.7402  2.4538
  726MPD2    H210735   1.600   3.244  11.390 -0.7051 -0.5304  2.7525
  726MPD2    H310736   1.403   3.143  11.493  0.4237  0.7393  1.0666
  726MPD2     N10737   1.111   3.436  11.333  0.2095 -0.0982  1.2598
  726MPD2    H510738   1.033   3.387  11.375 -0.9705  0.7898  0.1234
  726MPD2    N110739   1.579   3.466  11.216 -0.5166  0.3440 -0.3015
  726MPD2    H710740   1.551   3.518  11.134 -1.4480 -1.3932 -1.0882
  727TMC3    C110741   1.787   3.539  11.142  0.6028 -0.2385  0.2232
  727TMC3    C210742   1.905   3.596  11.176  0.0167  0.2603  0.0020
  727TMC3    C310743   1.956   3.674  11.081 -0.1419  0.3880 -0.6426
  727TMC3    C410744   1.721   3.560  11.021  0.2914 -0.2712 -0.0410
  727TMC3    C510745   1.788   3.640  10.925 -0.1895  0.0424  0.4415
  727TMC3    C610746   1.897   3.710  10.960  0.0172  0.0011 -0.6415
  727TMC3     C10747   1.718   3.455  11.238 -0.3837  0.2323 -0.2837
  727TMC3     O10748   1.781   3.421  11.334 -0.1843  0.1139  0.1538
  727TMC3     H10749   1.959   3.576  11.268  1.7247  1.0169 -0.8400
  727TMC3    H110750   1.649   3.487  10.986 -1.3822  1.5072 -0.2582
  727TMC3    H210751   1.939   3.781  10.890  0.5970 -0.1972 -0.4897
  727TMC3    C710752   1.740   3.632  10.788  0.4045  0.2832 -0.9248
  727TMC3    C810753   2.083   3.742  11.100 -0.0137 -0.4211  0.6616
  727TMC3    O110754   1.644   3.559  10.775 -0.3318  0.2100 -0.4338
  727TMC3    O210755   2.099   3.838  11.025 -0.1099 -0.0793 -0.2826
  728TMC3    C110756   0.553   1.926  15.273  0.3962  0.2235 -0.3155
  728TMC3    C210757   0.658   2.004  15.293  0.1514  0.2774  0.7977
  728TMC3    C310758   0.656   2.128  15.241  0.6871  0.2741 -0.0115
  728TMC3    C410759   0.443   1.972  15.210  0.4194 -0.4792  0.0530
  728TMC3    C510760   0.443   2.107  15.161  0.3775  0.0441  0.2229
  728TMC3    C610761   0.551   2.185  15.175 -0.0800 -0.5785  0.2784
  728TMC3     C10762   0.541   1.804  15.363  0.0695 -0.0044 -0.1387
  728TMC3     O10763   0.636   1.777  15.430  0.1915 -0.3261 -0.4020
  728TMC3     H10764   0.737   1.967  15.357  1.1302  0.0243 -0.5567
  728TMC3    H110765   0.358   1.908  15.189 -1.6936  2.5244 -0.6864
  728TMC3    H210766   0.547   2.293  15.165 -0.2281 -0.5405  0.7613
  728TMC3    C710767   0.332   2.142  15.074  0.2193  0.6175 -0.2182
  728TMC3    C810768   0.766   2.214  15.291  0.8246  0.0168 -0.5626
  728TMC3    O110769   0.225   2.085  15.084  0.1873 -0.2277  0.4072
  728TMC3    O210770   0.832   2.180  15.390 -0.0855  0.3457  0.1864
  729MPD2     C10771   2.664   2.306  16.578  0.9634 -0.4004 -0.3876
  729MPD2    C110772   2.695   2.438  16.546 -0.6014  0.0223  0.1942
  729MPD2    C210773   2.755   2.523  16.637  0.7698 -0.3195 -0.3099
  729MPD2    C310774   2.788   2.467  16.759  0.5799  0.2216  0.2075
  729MPD2    C410775   2.760   2.339  16.788  0.3136  0.6613 -0.9054
  729MPD2    C510776   2.700   2.257  16.698 -0.7974 -0.0092  0.5539
  729MPD2     H10777   2.776   2.626  16.610  0.0353  0.2427  1.2594
  729MPD2    H110778   2.791   2.297  16.883 -2.9138 -0.0067 -0.1416
  729MPD2    H210779   2.613   2.244  16.506  0.7892 -0.2594 -0.3853
  729MPD2    H310780   2.673   2.156  16.724 -0.3601 -0.3553 -0.3544
  729MPD2     N10781   2.864   2.535  16.859  0.3927  0.0368  0.1420
  729MPD2    H510782   2.883   2.483  16.944 -0.1403 -0.0161  0.2323
  729MPD2    N110783   2.669   2.478  16.415 -0.5068  0.3214 -0.4260
  729MPD2    H710784   2.609   2.415  16.361 -0.9302  0.3474  0.0192
  730TMC3    C110785   2.879   2.742  16.988  0.3021 -0.2929  1.6222
  730TMC3    C210786   2.940   2.861  16.995 -0.2652  0.0715  0.8857
  730TMC3    C310787   2.889   2.951  17.077  0.0752  0.7224 -0.4101
  730TMC3    C410788   2.773   2.699  17.067 -0.1508 -0.5140  0.1169
  730TMC3    C510789   2.727   2.795  17.151  0.0360  0.3499 -0.1274
  730TMC3    C610790   2.784   2.917  17.158  0.3371 -0.5669 -0.5737
  730TMC3     C10791   2.882   2.672  16.857  0.2778 -0.2873 -0.6487
  730TMC3     O10792   2.873   2.747  16.763 -0.0942  0.1405  0.5400
  730TMC3     H10793   3.011   2.878  16.915  1.7143 -1.8220  2.2716
  730TMC3    H110794   2.713   2.611  17.050 -0.4417 -0.4753  0.8995
  730TMC3    H210795   2.759   2.998  17.225  1.0084 -0.8522  0.0291
  730TMC3    C710796   2.594   2.819  17.134  0.1597  0.9165  0.2943
  730TMC3    C810797   2.889   3.089  17.033 -0.7270 -0.4319 -0.0860
  730TMC3    O110798   2.568   2.818  17.013 -0.0279 -0.4690 -0.0416
  730TMC3    O210799   2.794   3.158  17.055 -0.1370  0.2823  0.5715
  731MPD2     C10800   2.700   1.020  12.323 -0.1745 -0.6316  0.6040
  731MPD2    C110801   2.767   1.104  12.405  0.2689  0.0612  0.5009
  731MPD2    C210802   2.778   1.074  12.541  0.0237  0.2240  0.2622
  731MPD2    C310803   2.731   0.952  12.589  0.3315 -0.4094  0.0917
  731MPD2    C410804   2.663   0.868  12.507  0.1111 -0.5702  0.8450
  731MPD2    C510805   2.651   0.903  12.373  0.3972  0.0689 -0.4057
  731MPD2     H10806   2.820   1.144  12.612  0.2843 -1.3776  1.6936
  731MPD2    H110807   2.620   0.772  12.533 -0.7066 -1.1812 -2.6835
  731MPD2    H210808   2.689   1.040  12.217  0.2137 -2.3615  0.2217
  731MPD2    H310809   2.605   0.828  12.310  0.2496  1.0356 -1.4436
  731MPD2     N10810   2.746   0.942  12.725  0.2492 -0.4154  0.5429
  731MPD2    H510811   2.783   1.021  12.777  0.7849 -0.6801  0.5683
  731MPD2    N110812   2.809   1.225  12.352 -0.3684 -0.0961 -0.3157
  731MPD2    H710813   2.791   1.249  12.255  0.3002  1.9306  0.0711
  732TMC3    C110814   2.871   1.452  12.337  0.1319  0.2104 -0.4496
  732TMC3    C210815   2.756   1.475  12.267 -0.0872  0.0557  0.1222
  732TMC3    C310816   2.744   1.590  12.198 -0.4994 -0.0300  0.4989
  732TMC3    C410817   2.977   1.541  12.329  0.0872  0.0998 -0.3771
  732TMC3    C510818   2.960   1.660  12.261  0.1499 -0.0642  0.3640
  732TMC3    C610819   2.841   1.686  12.190  0.0602  0.1940  0.7961
  732TMC3     C10820   2.878   1.329  12.417 -0.3542 -0.4325  0.1533
  732TMC3     O10821   2.939   1.322  12.525 -0.3532 -0.3097 -0.1890
  732TMC3     H10822   2.661   1.437  12.304  0.4022 -2.2751 -0.9712
  732TMC3    H110823   3.070   1.517  12.378  0.0976  1.3311  0.2163
  732TMC3    H210824   2.830   1.769  12.121  0.2617  0.6555  1.3144
  732TMC3    C710825   3.078   1.724  12.201  0.2185  0.5778  0.2796
  732TMC3    C810826   2.635   1.604  12.105  0.1938  0.1301 -1.2895
  732TMC3    O110827   3.052   1.831  12.140 -0.2073  0.1794 -0.3907
  732TMC3    O210828   2.597   1.718  12.089  0.2249 -0.5544  0.2035
  733TMC3    C110829   2.850   4.429  12.441 -0.1114 -0.1887 -0.1972
  733TMC3    C210830   2.961   4.350  12.420 -0.1466  0.1813  0.6133
  733TMC3    C310831   3.027   4.384  12.303 -0.1031 -0.1001  0.7334
  733TMC3    C410832   2.808   4.526  12.360  0.4345  0.2814  0.1836
  733TMC3    C510833   2.861   4.538  12.237 -0.2785  0.0487  0.5454
  733TMC3    C610834   2.980   4.468  12.201 -0.3692 -0.3127  0.6145
  733TMC3     C10835   2.797   4.442  12.584 -0.0499 -0.4398  0.6077
  733TMC3     O10836   2.762   4.555  12.617  0.4761 -0.3040  0.5883
  733TMC3     H10837   2.998   4.272  12.486 -1.2025 -0.3120  0.6215
  733TMC3    H110838   2.721   4.585  12.387  0.9315  0.7042  0.8644
  733TMC3    H210839   3.016   4.473  12.099  0.7839  0.4534  1.0606
  733TMC3    C710840   2.815   4.626  12.141  1.2401 -0.2708  0.3723
  733TMC3    C810841   3.163   4.322  12.280 -0.3900 -0.0629  0.1624
  733TMC3    O110842   2.694   4.632  12.112  0.2492  0.0410  0.3255
  733TMC3    O210843   3.202   4.258  12.376 -0.4065  0.6537 -0.4392
  734MPD2     C10844   0.712   1.852  12.313  0.2283 -0.5711  0.4184
  734MPD2    C110845   0.675   1.836  12.184 -0.5842 -0.2418  0.1086
  734MPD2    C210846   0.735   1.908  12.086  0.0285 -1.0022  0.5770
  734MPD2    C310847   0.822   2.014  12.124 -0.7807 -0.4876 -0.0205
  734MPD2    C410848   0.855   2.031  12.259  0.1545  0.6495 -0.5526
  734MPD2    C510849   0.808   1.943  12.351  0.5629  0.2635 -0.0823
  734MPD2     H10850   0.711   1.892  11.982  1.9724  1.6957 -0.2658
  734MPD2    H110851   0.913   2.113  12.301  1.6176 -0.1023 -1.1261
  734MPD2    H210852   0.676   1.788  12.393 -0.9205  0.1622  0.4805
  734MPD2    H310853   0.825   1.961  12.456  2.1712  1.3752 -0.5276
  734MPD2     N10854   0.862   2.094  12.014 -0.5487  0.0003 -0.1077
  734MPD2    H510855   0.856   2.051  11.922  1.4813 -0.9488  0.2202
  734MPD2    N110856   0.587   1.730  12.163  0.5283 -0.4971  0.2829
  734MPD2    H710857   0.572   1.669  12.243  2.1310 -1.1652  0.0828
  735TMC3    C110858   0.472   1.581  12.017  0.1299  1.3483 -0.1050
  735TMC3    C210859   0.425   1.575  11.888  0.0989  0.1721 -0.2658
  735TMC3    C310860   0.467   1.484  11.800  0.4278 -0.0963  0.3483
  735TMC3    C410861   0.550   1.470  12.052  0.0519  0.4680  0.1187
  735TMC3    C510862   0.583   1.375  11.961  0.3457  0.1473  0.0530
  735TMC3    C610863   0.549   1.384  11.832 -0.4650 -0.7273  0.1099
  735TMC3     C10864   0.527   1.709  12.041  0.8722 -0.0157 -0.1320
  735TMC3     O10865   0.504   1.791  11.954 -0.2495 -0.2343  0.2187
  735TMC3     H10866   0.345   1.643  11.859 -0.5769  0.4926  2.3772
  735TMC3    H110867   0.592   1.458  12.151  2.4523  1.8559 -0.7226
  735TMC3    H210868   0.597   1.318  11.761  2.7781  0.9744  0.6915
  735TMC3    C710869   0.693   1.289  11.999  0.0591  0.1699  0.5986
  735TMC3    C810870   0.506   1.551  11.672  0.5925  0.4694  0.5812
  735TMC3    O110871   0.785   1.280  11.914 -0.1830  0.1151  0.0793
  735TMC3    O210872   0.561   1.488  11.583  0.3621 -0.3715 -0.3653
  736MPD2     C10873   0.748   1.127  12.317  0.5629  0.1587 -0.3176
  736MPD2    C110874   0.789   1.198  12.207  0.0609  0.4901 -0.0455
  736MPD2    C210875   0.926   1.191  12.166 -0.2045 -0.1589 -0.1755
  736MPD2    C310876   1.017   1.122  12.236 -0.4674 -0.0453 -0.0354
  736MPD2    C410877   0.971   1.049  12.340  0.0793 -0.1751 -0.3195
  736MPD2    C510878   0.843   1.051  12.386 -0.3374  0.4327 -0.1747
  736MPD2     H10879   0.967   1.237  12.077 -0.6575 -0.4929 -0.5565
  736MPD2    H110880   1.030   0.976  12.395  0.4145  1.0671  0.9778
  736MPD2    H210881   0.647   1.126  12.356  0.4857  0.7165 -0.5018
  736MPD2    H310882   0.814   0.992  12.472  1.0413 -0.5502 -0.3952
  736MPD2     N10883   1.149   1.125  12.189  0.2842  0.1616 -0.2369
  736MPD2    H510884   1.172   1.185  12.110 -0.0282 -0.9336 -1.1482
  736MPD2    N110885   0.684   1.255  12.132 -0.4555 -0.1998  0.6406
  736MPD2    H710886   0.592   1.247  12.173  0.7522 -0.7085  3.2296
  737TMC3    C110887   1.367   1.069  12.155 -0.2934  0.2167 -0.2021
  737TMC3    C210888   1.391   1.202  12.145  0.2593  0.9449  0.4525
  737TMC3    C310889   1.478   1.239  12.056  0.8964 -0.5075 -0.6812
  737TMC3    C410890   1.428   0.967  12.087  0.0461  1.0380 -0.5244
  737TMC3    C510891   1.516   1.013  11.987  0.1450  0.0276 -0.0848
  737TMC3    C610892   1.549   1.152  11.980  0.3543 -0.6019  0.2306
  737TMC3     C10893   1.249   1.038  12.228  0.3697  0.2808  0.4144
  737TMC3     O10894   1.248   0.934  12.296 -0.4623  0.5457  0.2075
  737TMC3     H10895   1.338   1.279  12.201 -0.1608  0.1579  1.1398
  737TMC3    H110896   1.384   0.869  12.093 -1.5963  1.6905 -1.7664
  737TMC3    H210897   1.617   1.196  11.907 -0.4387  1.4348  0.7154
  737TMC3    C710898   1.523   0.927  11.870 -0.0782  0.3976  0.4677
  737TMC3    C810899   1.508   1.376  12.048 -0.0172  0.1723  0.6827
  737TMC3    O110900   1.469   0.815  11.874 -0.4870 -0.0385  0.2705
  737TMC3    O210901   1.501   1.434  12.153 -0.0256  0.4329  0.4259
  738MPD2     C10902   1.242   0.410  15.278 -0.3600  0.2284  0.9217
  738MPD2    C110903   1.251   0.407  15.142 -0.5793  0.3073 -0.9056
  738MPD2    C210904   1.364   0.454  15.078  1.3312 -0.2450  0.0704
  738MPD2    C310905   1.455   0.517  15.158 -0.4777  0.9796  0.6968
  738MPD2    C410906   1.433   0.535  15.292 -0.5401 -0.0998  0.0357
  738MPD2    C510907   1.330   0.467  15.358  0.4722  0.1788 -0.6402
  738MPD2     H10908   1.375   0.454  14.970  1.7095 -0.7951  0.1075
  738MPD2    H110909   1.509   0.574  15.359  2.1797 -2.3438 -1.7988
  738MPD2    H210910   1.171   0.358  15.341 -0.5466  1.0593  1.3968
  738MPD2    H310911   1.320   0.464  15.466  0.5634  0.8122 -0.6129
  738MPD2     N10912   1.575   0.574  15.120  0.2882  0.0127 -0.0540
  738MPD2    H510913   1.647   0.605  15.184  0.5895  0.4962 -0.6271
  738MPD2    N110914   1.161   0.333  15.058  0.1009 -0.3475  0.2967
  738MPD2    H710915   1.193   0.304  14.966 -0.2036  0.0814  0.0556
  739TMC3    C110916   1.734   0.632  14.956  0.7801 -0.6780  0.3258
  739TMC3    C210917   1.748   0.713  14.842 -0.3525  0.0120 -0.2945
  739TMC3    C310918   1.872   0.707  14.777 -0.5110  0.7524  0.4060
  739TMC3    C410919   1.831   0.547  15.003  0.0538  0.1472  0.1053
  739TMC3    C510920   1.950   0.540  14.932 -0.2076 -0.1820 -0.5104
  739TMC3    C610921   1.969   0.615  14.818 -0.0616  0.4084  1.0045
  739TMC3     C10922   1.602   0.593  14.982 -0.2802 -0.1720 -0.5897
  739TMC3     O10923   1.527   0.608  14.887  0.4590 -0.0431 -0.0409
  739TMC3     H10924   1.668   0.775  14.803 -0.2372  1.1603  1.2710
  739TMC3    H110925   1.812   0.486  15.090 -2.3531  0.0104 -0.5320
  739TMC3    H210926   2.054   0.592  14.755 -1.1529 -2.2460  0.5213
  739TMC3    C710927   2.054   0.443  14.974 -0.2585 -0.4817  0.2489
  739TMC3    C810928   1.874   0.770  14.648 -0.1923  0.1655  0.1519
  739TMC3    O110929   2.029   0.369  15.068 -0.0326  0.1295  0.1451
  739TMC3    O210930   1.764   0.804  14.602 -0.4815  0.5313  0.1934
  740TMC3    C110931   2.663   1.621  14.296  0.0717  0.3535 -0.4527
  740TMC3    C210932   2.740   1.594  14.405  0.1789  0.7703  0.4546
  740TMC3    C310933   2.872   1.569  14.376 -0.0393 -0.2708  0.9269
  740TMC3    C410934   2.703   1.630  14.172 -0.3802 -0.9772 -0.9801
  740TMC3    C510935   2.831   1.586  14.148  0.3042 -0.3891  0.1477
  740TMC3    C610936   2.919   1.551  14.253 -0.4344  0.5520  0.3077
  740TMC3     C10937   2.551   1.712  14.336 -0.5276  1.1632  0.0910
  740TMC3     O10938   2.549   1.819  14.272  0.4010 -0.2249  0.3080
  740TMC3     H10939   2.702   1.595  14.507 -0.2325  1.1101  0.2926
  740TMC3    H110940   2.635   1.653  14.090 -0.6053  2.6458  0.2190
  740TMC3    H210941   3.023   1.527  14.236 -0.9712 -1.4073 -0.2073
  740TMC3    C710942   2.876   1.528  14.014  0.7620 -0.4309 -0.0256
  740TMC3    C810943   2.976   1.562  14.480  0.1534  0.5594  0.5631
  740TMC3    O110944   2.970   1.449  14.020 -0.2416 -0.4436 -0.2172
  740TMC3    O210945   3.092   1.590  14.443 -0.7633  0.1851  0.4110
  741TMC3    C110946   1.887   1.243  14.379 -1.0238 -0.5174 -0.4634
  741TMC3    C210947   1.779   1.171  14.342 -1.0533  0.5803  0.5545
  741TMC3    C310948   1.704   1.100  14.438 -0.8036  0.2131  0.5601
  741TMC3    C410949   1.919   1.258  14.512 -0.2087 -0.5017 -0.2785
  741TMC3    C510950   1.841   1.189  14.601 -0.4357  0.8643  0.2844
  741TMC3    C610951   1.740   1.107  14.567 -0.3696 -0.4209  0.2466
  741TMC3     C10952   1.991   1.287  14.280 -0.7233  0.3804 -0.0300
  741TMC3     O10953   1.987   1.236  14.168 -0.1285  0.3986 -0.1244
  741TMC3     H10954   1.753   1.159  14.238 -0.3150  2.9591  0.1079
  741TMC3    H110955   2.003   1.318  14.546  0.0279 -0.2333 -1.3419
  741TMC3    H210956   1.673   1.055  14.635  1.1172 -1.9746  0.5322
  741TMC3    C710957   1.868   1.198  14.741  0.4710 -0.3381  0.3810
  741TMC3    C810958   1.596   1.023  14.382  0.7577 -0.7717  0.4922
  741TMC3    O110959   1.790   1.139  14.816  0.2661 -0.1759 -0.0274
  741TMC3    O210960   1.565   1.056  14.267  0.0389  0.3512 -0.0650
  742TMC3    C110961   1.259   4.389  15.129 -0.4639  0.3182 -0.8507
  742TMC3    C210962   1.201   4.349  15.009  0.3930 -0.5258  0.3141
  742TMC3    C310963   1.272   4.266  14.931  0.3012  0.2627 -0.3361
  742TMC3    C410964   1.379   4.335  15.172  0.5003  0.8435 -0.8537
  742TMC3    C510965   1.434   4.242  15.090 -0.1354 -0.0293  0.1464
  742TMC3    C610966   1.397   4.218  14.971  0.1608 -0.0662  0.1748
  742TMC3     C10967   1.199   4.505  15.192  0.4358 -0.9988  0.2035
  742TMC3     O10968   1.127   4.571  15.112 -0.0009 -0.3712  0.1971
  742TMC3     H10969   1.123   4.413  14.969 -1.5003 -2.4723  0.9354
  742TMC3    H110970   1.432   4.376  15.258  1.3506  0.8442 -1.3753
  742TMC3    H210971   1.453   4.153  14.904 -0.2395  0.2847 -0.5000
  742TMC3    C710972   1.540   4.151  15.140 -1.0137 -0.8916 -0.4779
  742TMC3    C810973   1.249   4.261  14.781 -0.5290 -1.0809  0.1424
  742TMC3    O110974   1.593   4.064  15.064 -0.1270  0.0673 -0.1425
  742TMC3    O210975   1.344   4.208  14.722  0.0596  0.0999 -0.4784
  743MPD2     C10976   3.946   0.120   1.789  0.7473  0.3643 -0.0963
  743MPD2    C110977   4.041   0.090   1.694  0.0928 -0.1528 -0.2131
  743MPD2    C210978   4.168   0.056   1.731 -0.9659 -0.8344 -0.3162
  743MPD2    C310979   4.194   0.048   1.865 -0.0795  0.5089 -0.1453
  743MPD2    C410980   4.097   0.060   1.964 -0.3232  0.0289 -0.1440
  743MPD2    C510981   3.973   0.098   1.927 -0.3088 -0.0613  0.2281
  743MPD2     H10982   4.242   0.012   1.665 -0.9308  2.5414 -2.5128
  743MPD2    H110983   4.111   0.052   2.071 -1.4594  0.7916  0.0622
  743MPD2    H210984   3.847   0.159   1.768  0.6457 -0.1050 -0.4951
  743MPD2    H310985   3.907   0.119   2.010  2.8945  1.0573  2.4852
  743MPD2     N10986   4.326   0.014   1.895 -0.3291  0.6606 -0.0002
  743MPD2    H510987   4.388   4.717   1.817  1.4049 -0.6697  1.7317
  743MPD2    N110988   3.996   0.106   1.564  0.2690  0.1619  0.2218
  743MPD2    H710989   3.900   0.135   1.545  0.1302 -0.9049 -0.7554
  744TMC3    C110990   4.008   0.125   1.326 -0.1881  0.2054 -0.8662
  744TMC3    C210991   3.951   0.248   1.324  0.3346  0.0068  0.3002
  744TMC3    C310992   3.973   0.333   1.213 -0.5484  0.3023  0.3073
  744TMC3    C410993   4.076   0.078   1.217  0.3049  0.3754  0.1757
  744TMC3    C510994   4.098   0.163   1.116 -0.3753 -0.2010  0.7131
  744TMC3    C610995   4.048   0.293   1.112 -0.2067 -0.3768 -0.3073
  744TMC3     C10996   4.064   0.077   1.448 -0.2006  0.2064 -0.0008
  744TMC3     O10997   4.175   0.029   1.439 -0.1694 -0.3841  0.8296
  744TMC3     H10998   3.881   0.274   1.402 -0.8176  1.9875 -1.3984
  744TMC3    H110999   4.128   4.707   1.218 -0.9190 -0.2999  0.0471
  744TMC3    H211000   4.086   0.361   1.036  0.6849 -0.2925  0.2181
  744TMC3    C711001   4.168   0.114   0.999 -0.9632 -0.2434  0.5023
  744TMC3    C811002   3.880   0.443   1.184  0.2664  0.1672 -0.8132
  744TMC3    O111003   4.222   0.198   0.927 -0.6691  0.2496 -0.9170
  744TMC3    O211004   3.901   0.499   1.076  0.5456  0.1358  0.5211
  745TMC3    C111005   1.737   3.963  13.667  0.5820 -0.4059  0.1090
  745TMC3    C211006   1.625   3.890  13.708 -0.4285  0.0250 -0.2814
  745TMC3    C311007   1.502   3.944  13.690  0.2506  0.5040 -0.5741
  745TMC3    C411008   1.727   4.090  13.607  0.8646  0.2852 -0.0555
  745TMC3    C511009   1.599   4.132  13.582 -0.3759  0.3912  0.2319
  745TMC3    C611010   1.489   4.058  13.618  0.2888 -0.7164 -0.4679
  745TMC3     C11011   1.857   3.931  13.740  0.0062  0.1548  0.3954
  745TMC3     O11012   1.851   3.839  13.819 -0.3920  0.2123  0.7636
  745TMC3     H11013   1.629   3.796  13.761  0.1858  0.8761  1.1591
  745TMC3    H111014   1.812   4.156  13.594  0.8103  0.1848 -0.9601
  745TMC3    H211015   1.394   4.110  13.621  1.7996  1.8633  1.9291
  745TMC3    C711016   1.583   4.268  13.540 -0.0361  0.1555  0.1121
  745TMC3    C811017   1.440   3.975  13.820 -0.1713  0.2490  0.0264
  745TMC3    O111018   1.478   4.329  13.570  0.0160  0.4223  0.3715
  745TMC3    O211019   1.329   4.028  13.823 -0.1256 -0.2486 -0.5418
  746TMC3    C111020   4.613   1.283  10.939 -0.3966 -0.3467 -0.6219
  746TMC3    C211021   4.701   1.288  10.834 -0.3391 -0.8303 -0.4683
  746TMC3    C311022   4.683   1.192  10.737 -0.6054 -0.2515 -0.4062
  746TMC3    C411023   4.526   1.183  10.960 -0.0269 -1.0829  0.3740
  746TMC3    C511024   4.512   1.092  10.860 -0.1199 -0.2788  0.4229
  746TMC3    C611025   4.588   1.096  10.743  0.2647 -0.1067 -0.6376
  746TMC3     C11026   4.603   1.397  11.036 -0.1176  0.6143 -0.0439
  746TMC3     O11027   4.551   1.377  11.145 -0.5755 -0.2367  0.3103
  746TMC3     H11028   0.058   1.360  10.831 -2.7427  1.8875 -0.0614
  746TMC3    H111029   4.468   1.180  11.052  0.4211  0.1186  0.6941
  746TMC3    H211030   4.576   1.015  10.672  4.9402  0.2583 -1.8005
  746TMC3    C711031   4.394   1.008  10.849 -0.5089  0.9927 -0.5042
  746TMC3    C811032   0.038   1.204  10.618 -0.3324  0.1850 -0.3123
  746TMC3    O111033   4.336   1.001  10.742 -0.1892 -1.1382  0.1186
  746TMC3    O211034   0.032   1.111  10.543 -0.1562  0.1334 -0.3269
  747TMC3    C111035   1.907   1.260  10.924  0.0271  0.0163  0.8915
  747TMC3    C211036   1.809   1.186  10.985  0.0367 -0.5121  0.9474
  747TMC3    C311037   1.827   1.180  11.121 -0.3044 -0.3799 -0.7747
  747TMC3    C411038   2.004   1.331  10.993 -0.3244  0.5378  0.3476
  747TMC3    C511039   2.016   1.316  11.123  0.1673  0.0599 -0.1876
  747TMC3    C611040   1.924   1.245  11.191 -0.0563 -0.4798 -0.3800
  747TMC3     C11041   1.872   1.303  10.786  0.6101  0.0700  0.2765
  747TMC3     O11042   1.913   1.415  10.753  0.5999 -0.2027 -0.6476
  747TMC3     H11043   1.722   1.140  10.941 -0.7425  1.0772  0.8066
  747TMC3    H111044   2.068   1.396  10.934  0.3558 -0.5550 -0.1168
  747TMC3    H211045   1.952   1.207  11.289  1.1803 -1.1419 -0.9980
  747TMC3    C711046   2.145   1.350  11.174 -0.9438 -0.4252 -0.1862
  747TMC3    C811047   1.769   1.068  11.182  0.5993  0.2426 -0.9520
  747TMC3    O111048   2.138   1.373  11.293  0.7920  0.3399  0.5967
  747TMC3    O211049   1.727   0.975  11.116  0.0205 -0.3982 -0.1145
  748MPD2     C11050   3.359   1.626   1.835  0.5041  0.0034  0.6689
  748MPD2    C111051   3.384   1.537   1.726 -0.3956 -0.0857 -0.4397
  748MPD2    C211052   3.501   1.541   1.658 -0.3643  0.1226 -0.3839
  748MPD2    C311053   3.598   1.634   1.697 -1.1552 -0.1782 -0.1327
  748MPD2    C411054   3.572   1.729   1.801 -0.7887 -0.4213 -0.8977
  748MPD2    C511055   3.458   1.719   1.865 -0.3464 -0.2960 -0.0628
  748MPD2     H11056   3.532   1.466   1.586 -2.3021  0.3022 -1.3953
  748MPD2    H111057   3.642   1.801   1.841  0.0443 -0.6952 -1.8745
  748MPD2    H211058   3.273   1.629   1.901 -0.0037  1.9790 -0.0920
  748MPD2    H311059   3.434   1.781   1.950  1.2757 -0.2456  0.3613
  748MPD2     N11060   3.722   1.628   1.630  0.8377  0.0895 -0.2516
  748MPD2    H511061   3.729   1.571   1.546  0.2324  0.2601 -0.4138
  748MPD2    N111062   3.288   1.443   1.696  0.2357  0.3926  0.4818
  748MPD2    H711063   3.214   1.431   1.764 -0.7569 -2.0228 -0.9935
  749TMC3    C111064   3.940   1.637   1.603  0.1223  0.0328 -1.2231
  749TMC3    C211065   4.029   1.566   1.670  0.9787  0.9072 -0.2879
  749TMC3    C311066   4.133   1.516   1.603  0.1393 -0.7737  0.2916
  749TMC3    C411067   3.926   1.641   1.468  0.0068 -0.8705 -0.3895
  749TMC3    C511068   4.025   1.586   1.395  0.1206 -0.5389  1.0744
  749TMC3    C611069   4.133   1.537   1.469 -0.7387  0.7036  0.3328
  749TMC3     C11070   3.835   1.678   1.678 -0.4029 -0.1499  0.1196
  749TMC3     O11071   3.866   1.739   1.781 -0.1269  0.6536  0.4072
  749TMC3     H11072   4.015   1.557   1.777  2.0735 -0.5465 -0.2491
  749TMC3    H111073   3.856   1.709   1.420  0.4343  0.5714  1.0379
  749TMC3    H211074   4.230   1.517   1.425 -0.5958  0.3986  0.7871
  749TMC3    C711075   4.052   1.635   1.261  0.5181 -0.8224  0.1438
  749TMC3    C811076   4.257   1.474   1.668  0.1081 -0.0534  0.3596
  749TMC3    O111077   3.982   1.726   1.221  0.3133 -0.1558  0.0719
  749TMC3    O211078   4.244   1.496   1.786 -0.1367 -0.6139  0.0968
  750MPD2     C11079   0.127   3.585  11.464  0.2890  0.3498  0.2477
  750MPD2    C111080   0.019   3.497  11.479 -0.0975 -0.7511  0.4149
  750MPD2    C211081   0.016   3.383  11.402 -0.7170 -0.1335  0.2649
  750MPD2    C311082   0.122   3.355  11.317 -0.3122  0.1276 -0.6316
  750MPD2    C411083   0.229   3.443  11.310  0.1483  0.6884  0.3407
  750MPD2    C511084   0.232   3.560  11.383  0.4550 -0.5252 -0.2680
  750MPD2     H11085   4.652   3.321  11.392 -0.1668 -0.5340 -2.1130
  750MPD2    H111086   0.299   3.435  11.228 -1.7299  0.6278 -1.2530
  750MPD2    H211087   0.125   3.686  11.504 -1.2200  0.4413 -0.0700
  750MPD2    H311088   0.290   3.649  11.358 -0.2934  0.5822  1.9668
  750MPD2     N11089   0.128   3.247  11.223 -0.3033 -0.2109  0.8729
  750MPD2    H511090   0.193   3.230  11.147  0.5510  2.1070  1.0903
  750MPD2    N111091   4.638   3.542  11.564 -0.1663 -0.1929 -0.3541
  750MPD2    H711092   4.652   3.633  11.607 -2.5509  1.4335 -3.0085
  751TMC3    C111093   0.053   3.038  11.128 -0.8163 -0.3508  0.0513
  751TMC3    C211094   4.659   2.971  11.088  0.2606  0.3200 -0.0851
  751TMC3    C311095   4.652   2.912  10.963 -0.0868 -0.6646 -0.6325
  751TMC3    C411096   0.166   3.026  11.057 -0.1055 -0.5797  0.0203
  751TMC3    C511097   0.160   2.952  10.942 -0.0102  0.1465  0.6304
  751TMC3    C611098   0.042   2.903  10.892 -0.3468  0.3358  0.2484
  751TMC3     C11099   0.030   3.149  11.224  0.0421 -0.1891 -0.1985
  751TMC3     O11100   4.654   3.126  11.292 -0.1272  0.7483  0.1910
  751TMC3     H11101   4.576   2.957  11.157 -0.0009  0.2724 -0.4106
  751TMC3    H111102   0.264   3.064  11.082 -0.5503 -0.9477  2.3334
  751TMC3    H211103   0.034   2.851  10.797  0.4695  0.2346  0.2428
  751TMC3    C711104   0.286   2.914  10.879 -0.9499  0.3876  0.0964
  751TMC3    C811105   4.523   2.863  10.917 -0.6820  0.0083  0.6357
  751TMC3    O111106   0.388   2.976  10.898 -0.0141  0.2749  0.4926
  751TMC3    O211107   4.512   2.839  10.797 -0.6919 -0.4774  0.4502
  752TMC3    C111108   3.572   2.628  16.541  0.9044  0.3840 -0.4366
  752TMC3    C211109   3.491   2.658  16.641  0.0706  0.9568 -0.3964
  752TMC3    C311110   3.517   2.601  16.764  0.2225  0.4348 -0.4275
  752TMC3    C411111   3.671   2.539  16.554  0.3064  0.7077  0.1476
  752TMC3    C511112   3.686   2.471  16.674  0.5045  0.0105  0.0660
  752TMC3    C611113   3.614   2.509  16.781  0.6648 -0.2244 -0.4072
  752TMC3     C11114   3.558   2.684  16.408 -0.3234 -0.2032  0.2937
  752TMC3     O11115   3.658   2.713  16.345  0.0072 -0.0094 -0.3886
  752TMC3     H11116   3.406   2.726  16.635  0.4991  1.4449 -0.9086
  752TMC3    H111117   3.736   2.519  16.469  0.4051 -0.8496  0.5825
  752TMC3    H211118   3.641   2.465  16.876  1.7571 -0.2475 -0.7225
  752TMC3    C711119   3.821   2.423  16.697  0.7102 -0.6624 -0.1990
  752TMC3    C811120   3.411   2.626  16.867 -0.0019  0.1023  0.2660
  752TMC3    O111121   3.907   2.463  16.621  0.8132 -0.7872 -0.2554
  752TMC3    O211122   3.306   2.680  16.836  0.1648 -0.4119 -0.9183
  753TMC3    C111123   0.507   3.762  13.224  0.1924  0.0374 -0.5864
  753TMC3    C211124   0.519   3.771  13.358 -0.3282 -0.9194  0.0222
  753TMC3    C311125   0.454   3.677  13.435  0.4628  0.1468 -0.1263
  753TMC3    C411126   0.424   3.670  13.163 -0.1261 -0.1823  0.5439
  753TMC3    C511127   0.364   3.571  13.247  1.1845  0.4873  0.2009
  753TMC3    C611128   0.374   3.579  13.384  0.5698 -0.2545  0.0442
  753TMC3     C11129   0.572   3.863  13.147  0.1564 -0.1529  0.5274
  753TMC3     O11130   0.576   3.972  13.204  0.3048  0.2350  0.0146
  753TMC3     H11131   0.580   3.849  13.402 -3.1559  0.8715  0.7526
  753TMC3    H111132   0.435   3.650  13.057 -0.7914  0.9599  0.2550
  753TMC3    H211133   0.350   3.500  13.454  3.7979 -0.2897  1.0776
  753TMC3    C711134   0.302   3.463  13.182  0.3722 -0.1166 -0.6175
  753TMC3    C811135   0.496   3.659  13.576  0.4325  0.4079 -0.0300
  753TMC3    O111136   0.347   3.429  13.075  0.2362 -0.0353 -0.5554
  753TMC3    O211137   0.506   3.545  13.617 -0.1867 -0.1440  0.0660
  754MPD2     C11138   4.478   2.483  13.076  0.4513 -0.4564  0.2597
  754MPD2    C111139   4.408   2.375  13.030 -0.9421  0.4474  0.6539
  754MPD2    C211140   4.284   2.398  12.970  0.3047 -0.4333 -0.9693
  754MPD2    C311141   4.222   2.528  12.993 -0.7300  0.5201  0.2433
  754MPD2    C411142   4.287   2.621  13.061 -0.7428 -0.3702  0.4375
  754MPD2    C511143   4.413   2.602  13.103 -1.2144 -0.0461 -0.1708
  754MPD2     H11144   4.244   2.316  12.913 -0.3316  0.2940 -1.5759
  754MPD2    H111145   4.243   2.719  13.073  0.1238 -0.0771  1.2976
  754MPD2    H211146   4.579   2.485  13.116  0.7736 -1.7100 -0.4788
  754MPD2    H311147   4.464   2.686  13.149  1.2472 -1.7919  0.2447
  754MPD2     N11148   4.091   2.558  12.953  0.4976  0.0755  0.1673
  754MPD2    H511149   4.059   2.650  12.980  0.6464  0.0957  0.2744
  754MPD2    N111150   4.481   2.253  13.012  0.1114 -0.1677 -0.3272
  754MPD2    H711151   4.581   2.267  13.019  0.0276  1.1602 -1.8137
  755MPD2     C11152   3.401   3.052  13.135  0.3845 -0.2037 -0.5098
  755MPD2    C111153   3.374   2.933  13.208  0.6001  0.5722  0.6797
  755MPD2    C211154   3.459   2.823  13.193  0.6101 -0.8302  0.4977
  755MPD2    C311155   3.557   2.828  13.101 -1.3921 -0.2369  0.4144
  755MPD2    C411156   3.580   2.945  13.035 -0.6105  0.4768  0.0596
  755MPD2    C511157   3.509   3.060  13.064 -0.2721 -0.4862  0.1743
  755MPD2     H11158   3.437   2.728  13.240  0.6862  0.0272  2.2861
  755MPD2    H111159   3.674   2.947  12.980 -1.8998 -0.1346 -2.1684
  755MPD2    H211160   3.350   3.145  13.157  1.0193 -0.3231  1.5351
  755MPD2    H311161   3.543   3.158  13.029  1.1037 -0.4552  1.5899
  755MPD2     N11162   3.633   2.714  13.065 -0.1933 -0.1431 -0.2581
  755MPD2    H511163   3.698   2.721  12.988 -0.5252  2.8732 -0.2474
  755MPD2    N111164   3.273   2.930  13.307 -0.0873  0.3736  0.6119
  755MPD2    H711165   3.273   2.842  13.356 -0.0371 -0.2002 -0.4213
  756MPD2     C11166   0.011   3.738   9.430 -0.1449 -0.2725 -0.2510
  756MPD2    C111167   4.659   3.697   9.537 -0.4892 -0.5021 -1.1106
  756MPD2    C211168   4.540   3.631   9.512 -0.0580  0.6399  0.2082
  756MPD2    C311169   4.493   3.616   9.379 -0.0878  0.0205 -0.3235
  756MPD2    C411170   4.564   3.665   9.276  0.0260  0.1189  0.9125
  756MPD2    C511171   4.687   3.722   9.308 -0.2199  0.2300  0.1015
  756MPD2     H11172   4.490   3.585   9.597  1.1505  2.7167  2.0415
  756MPD2    H111173   4.544   3.650   9.170 -1.7069  2.2142  0.9453
  756MPD2    H211174   0.110   3.782   9.437  0.8397 -2.3864 -0.8706
  756MPD2    H311175   0.022   3.747   9.221  0.4128 -1.0309  0.1646
  756MPD2     N11176   4.371   3.546   9.362 -0.0691 -0.1170 -0.1346
  756MPD2    H511177   4.334   3.505   9.447  1.2030  1.5790  1.2372
  756MPD2    N111178   4.698   3.708   9.669 -0.2583  0.3147  0.5805
  756MPD2    H711179   4.636   3.673   9.741 -0.4321  0.7990  0.6599
  757MPD2     C11180   3.885   3.037   9.977  0.0047  0.1300 -0.7900
  757MPD2    C111181   3.779   3.054   9.884 -0.4865 -0.1055  0.8482
  757MPD2    C211182   3.811   3.122   9.764  0.6005 -0.1761  0.8205
  757MPD2    C311183   3.938   3.165   9.733  0.3952  0.1825 -0.0733
  757MPD2    C411184   4.038   3.145   9.824 -0.0785  0.0624  0.8064
  757MPD2    C511185   4.007   3.090   9.947  0.7769  0.4746  0.6052
  757MPD2     H11186   3.737   3.132   9.686 -0.0086  0.8158  1.5248
  757MPD2    H111187   4.144   3.157   9.801 -0.2605 -1.0416 -0.5984
  757MPD2    H211188   3.866   2.982  10.069  0.5398  0.6298 -0.3817
  757MPD2    H311189   4.092   3.077  10.013  1.6430  1.2534 -0.3513
  757MPD2     N11190   3.957   3.206   9.600  0.0012  0.0796  0.1803
  757MPD2    H511191   3.882   3.176   9.539 -0.9480  1.7721  0.5126
  757MPD2    N111192   3.657   2.995   9.914 -0.3789  0.5857 -0.5726
  757MPD2    H711193   3.655   2.930   9.992 -3.1762 -0.2063 -1.3074
  758MPD2     C11194   4.226   1.986  15.632 -0.4642 -0.1210 -0.4177
  758MPD2    C111195   4.309   1.934  15.734  0.0951 -0.0796 -0.0037
  758MPD2    C211196   4.260   1.910  15.858  0.1076  0.4064 -0.4845
  758MPD2    C311197   4.128   1.943  15.891  0.4602  0.9572  0.0182
  758MPD2    C411198   4.046   2.000  15.791  0.3217  0.2404  0.9700
  758MPD2    C511199   4.096   2.012  15.663  0.5319 -0.0314 -0.2322
  758MPD2     H11200   4.316   1.868  15.941  1.1475  1.1839 -0.7962
  758MPD2    H111201   3.943   2.026  15.813  0.0521  0.2184 -0.2995
  758MPD2    H211202   4.275   2.000  15.536 -0.8253 -1.0067 -0.7316
  758MPD2    H311203   4.029   2.046  15.584  0.5006 -2.0420 -1.0711
  758MPD2     N11204   4.071   1.945  16.017 -0.0718  0.2573 -0.0414
  758MPD2    H511205   3.990   2.004  16.031  1.2457  2.9946 -3.8100
  758MPD2    N111206   4.444   1.898  15.712 -0.0035  0.2464  0.1710
  758MPD2    H711207   4.471   1.915  15.616 -2.2459  0.4374 -0.4336
  759MPD2     C11208   3.213   0.721  10.333 -0.7615 -0.1979 -0.1214
  759MPD2    C111209   3.341   0.686  10.292 -0.7297 -0.9283  0.4156
  759MPD2    C211210   3.428   0.782  10.239 -0.0727  0.9072  0.6869
  759MPD2    C311211   3.386   0.913  10.224 -0.4996 -0.5825 -0.6812
  759MPD2    C411212   3.259   0.947  10.263  0.3993 -0.4062 -0.6062
  759MPD2    C511213   3.178   0.856  10.319 -0.3206 -0.6422  0.5005
  759MPD2     H11214   3.530   0.753  10.217 -0.1717 -1.2491  3.2175
  759MPD2    H111215   3.224   1.049  10.247  2.8506  0.5916  0.3720
  759MPD2    H211216   3.140   0.660  10.383  0.4835  0.7223  2.7829
  759MPD2    H311217   3.074   0.879  10.342 -0.1734  0.3609  0.1661
  759MPD2     N11218   3.483   1.006  10.171 -0.1439  0.5521  0.4049
  759MPD2    H511219   3.571   0.960  10.148 -0.9754  0.2992 -2.2452
  759MPD2    N111220   3.380   0.550  10.312  0.0558  0.0778 -0.0596
  759MPD2    H711221   3.320   0.492  10.369  0.6584 -0.9890 -0.5157
  760MPD2     C11222   2.922   2.469  11.835  0.5612  0.4699  0.2863
  760MPD2    C111223   3.034   2.544  11.868 -0.2571 -0.4416  0.4639
  760MPD2    C211224   3.081   2.540  11.997  0.3881 -0.1049  0.5261
  760MPD2    C311225   3.021   2.454  12.082 -0.5981 -0.5750 -0.5339
  760MPD2    C411226   2.905   2.391  12.053 -0.2607  0.6622 -0.7008
  760MPD2    C511227   2.851   2.391  11.927  0.0825 -0.1266  0.6131
  760MPD2     H11228   3.177   2.586  12.018  0.6516  0.0715 -1.0146
  760MPD2    H111229   2.847   2.350  12.135  2.1866 -0.2592  0.5429
  760MPD2    H211230   2.883   2.470  11.734 -0.1892 -2.9225  0.5229
  760MPD2    H311231   2.754   2.350  11.904  1.3131 -1.0585 -2.9168
  760MPD2     N11232   3.084   2.419  12.204  0.1204  0.2272  0.6066
  760MPD2    H511233   3.041   2.342  12.254 -0.8415 -0.1815 -0.8535
  760MPD2    N111234   3.104   2.624  11.770  0.2912 -0.2045  0.4669
  760MPD2    H711235   3.189   2.673  11.794 -0.0056  0.1632  0.7602
  761MPD2     C11236   4.029   2.754  10.992  0.7340  0.6421 -0.1544
  761MPD2    C111237   4.128   2.694  10.914 -0.2498  0.9141 -0.1043
  761MPD2    C211238   4.255   2.743  10.909 -0.2164 -0.1507  0.3810
  761MPD2    C311239   4.288   2.851  10.985 -0.9908  0.5752 -0.1825
  761MPD2    C411240   4.190   2.923  11.055 -0.8054  0.3445  0.4443
  761MPD2    C511241   4.059   2.874  11.055  0.3861  0.2692 -0.2178
  761MPD2     H11242   4.323   2.679  10.853 -0.5978  1.4190 -1.8587
  761MPD2    H111243   4.205   3.016  11.109  0.0980 -0.7214  2.0319
  761MPD2    H211244   3.927   2.719  10.990  1.1996 -0.7151  0.0195
  761MPD2    H311245   3.988   2.928  11.116  1.6696  0.8173  0.8019
  761MPD2     N11246   4.417   2.905  10.998  0.3708  0.1469 -0.5470
  761MPD2    H511247   4.434   2.980  11.064  1.4958 -0.6778  0.1089
  761MPD2    N111248   4.097   2.574  10.856  0.3410 -0.7174  0.5499
  761MPD2    H711249   4.021   2.523  10.900 -0.0280  1.1420  2.1241
  762MPD2     C11250   0.024   2.212  11.004  0.0843  0.4953  0.1963
  762MPD2    C111251   4.689   2.182  10.885  0.5479 -0.3743  0.7847
  762MPD2    C211252   0.038   2.162  10.774 -0.7879 -0.2989  0.2472
  762MPD2    C311253   0.172   2.170  10.784  0.1704 -0.8925 -0.5994
  762MPD2    C411254   0.238   2.213  10.896 -0.4572  0.7078 -0.3321
  762MPD2    C511255   0.160   2.236  11.008  0.1895  0.3020 -0.4127
  762MPD2     H11256   4.713   2.138  10.680  0.5112  2.0160 -1.0083
  762MPD2    H111257   0.344   2.234  10.905 -0.1566 -0.8355 -0.1511
  762MPD2    H211258   4.691   2.229  11.094 -2.4618 -0.2683 -1.2956
  762MPD2    H311259   0.206   2.277  11.098 -2.5429  1.9519  0.2104
  762MPD2     N11260   0.262   2.143  10.673  0.6231 -0.6148  0.0140
  762MPD2    H511261   0.363   2.145  10.681  1.0182 -2.4776 -4.4873
  762MPD2    N111262   4.549   2.185  10.877 -0.2494 -0.4444 -0.0675
  762MPD2    H711263   4.499   2.192  10.965 -3.0853 -2.0083 -1.5638
  763MPD2     C11264   1.731   2.038  16.307 -0.3217  0.4840 -0.0614
  763MPD2    C111265   1.616   2.120  16.290  0.1365 -0.3098 -0.1209
  763MPD2    C211266   1.573   2.222  16.380 -0.1345  0.9473  1.1399
  763MPD2    C311267   1.650   2.227  16.495 -0.2226  0.2286 -0.0027
  763MPD2    C411268   1.752   2.144  16.514  0.8790  0.2743  0.0723
  763MPD2    C511269   1.802   2.059  16.418 -0.5785 -0.2928  0.5803
  763MPD2     H11270   1.492   2.291  16.358 -0.0583  0.3741 -0.9940
  763MPD2    H111271   1.814   2.145  16.602  0.2926 -1.0663  0.4963
  763MPD2    H211272   1.771   1.965  16.238 -0.6497  1.4337 -1.2611
  763MPD2    H311273   1.890   1.999  16.434 -0.9303 -0.3323  2.3528
  763MPD2     N11274   1.631   2.315  16.608 -0.3848 -0.3312  0.6704
  763MPD2    H511275   1.710   2.317  16.671 -0.0823  1.2716  0.2349
  763MPD2    N111276   1.548   2.107  16.162  0.4031 -0.4561 -0.0854
  763MPD2    H711277   1.480   2.178  16.135  0.0234 -0.5779  0.5576
  764MPD2     C11278   4.573   3.526  17.116  0.2975 -0.1103 -0.8523
  764MPD2    C111279   4.475   3.476  17.033 -0.2835 -0.2017 -0.4881
  764MPD2    C211280   4.409   3.357  17.063 -1.0431 -0.2238 -0.4091
  764MPD2    C311281   4.440   3.290  17.180  0.1533  0.5752  0.0506
  764MPD2    C411282   4.532   3.345  17.264 -0.7341 -0.6450  0.3835
  764MPD2    C511283   4.601   3.459  17.227 -0.0626 -0.5363  0.2897
  764MPD2     H11284   4.344   3.314  16.989 -2.3201 -2.2555  1.8847
  764MPD2    H111285   4.545   3.310  17.366  4.6619 -1.7019 -0.6812
  764MPD2    H211286   4.636   3.612  17.096  1.5136 -0.7244  0.3728
  764MPD2    H311287   4.685   3.499  17.283  1.2901 -0.4326 -1.8237
  764MPD2     N11288   4.373   3.164  17.200  0.4398  0.3515  0.0198
  764MPD2    H511289   4.304   3.140  17.130  1.1578 -0.8415 -0.2681
  764MPD2    N111290   4.442   3.541  16.910  0.2912  0.4956  0.6982
  764MPD2    H711291   4.358   3.503  16.867  2.0953 -1.1326 -1.4112
  765MPD2     C11292   3.791   1.753  15.944 -0.2789  0.0334 -0.5145
  765MPD2    C111293   3.809   1.757  15.810 -0.6894  0.1953  0.7535
  765MPD2    C211294   3.917   1.689  15.753  0.3323 -0.1280 -0.2067
  765MPD2    C311295   4.006   1.613  15.830  0.0120  0.1868  0.3960
  765MPD2    C411296   3.972   1.598  15.965  0.3196 -0.2208 -0.2062
  765MPD2    C511297   3.871   1.668  16.021 -0.6242  0.1231 -0.4874
  765MPD2     H11298   3.936   1.693  15.647 -0.6049 -1.7309 -0.4363
  765MPD2    H111299   4.032   1.540  16.034  1.4581  1.6788  0.4200
  765MPD2    H211300   3.716   1.811  15.996 -1.5835  0.6918 -3.1372
  765MPD2    H311301   3.849   1.670  16.127  3.0962  1.4871  0.2578
  765MPD2     N11302   4.126   1.554  15.771 -0.2559  0.6012  0.0634
  765MPD2    H511303   4.143   1.565  15.672 -0.9981  1.3976  0.0178
  765MPD2    N111304   3.716   1.838  15.741 -0.3044 -0.8545  0.0941
  765MPD2    H711305   3.651   1.891  15.799 -1.6972 -3.3368  0.8292
  766MPD2     C11306   3.623   1.609  15.130 -0.2771  0.0043  0.4374
  766MPD2    C111307   3.569   1.726  15.117  0.4846  0.3869 -0.2069
  766MPD2    C211308   3.594   1.795  15.001 -0.4676 -0.2999 -0.1946
  766MPD2    C311309   3.654   1.737  14.895 -0.5115 -0.3199 -0.7187
  766MPD2    C411310   3.690   1.605  14.907 -0.3533 -0.0055 -0.4124
  766MPD2    C511311   3.679   1.544  15.026  0.4711  0.6741 -0.2407
  766MPD2     H11312   3.569   1.899  14.989 -0.3424 -0.0675  1.6788
  766MPD2    H111313   3.738   1.545  14.831  3.9374 -0.7534  2.8549
  766MPD2    H211314   3.606   1.567  15.229 -0.9881 -0.9777 -0.0891
  766MPD2    H311315   3.713   1.442  15.037  1.8432  0.9635 -1.8272
  766MPD2     N11316   3.677   1.816  14.778  0.2918 -0.1588 -0.4358
  766MPD2    H511317   3.643   1.910  14.795 -0.1692 -0.4989  0.5800
  766MPD2    N111318   3.516   1.783  15.231  0.3102 -0.6635  0.0780
  766MPD2    H711319   3.532   1.730  15.317  0.5631  0.7194  0.8888
  767MPD2     C11320   3.203   1.947  14.898  0.0085  0.1665  0.0973
  767MPD2    C111321   3.282   2.050  14.840 -0.1310 -0.2270  0.4361
  767MPD2    C211322   3.275   2.060  14.702  0.2542  0.5545  0.6936
  767MPD2    C311323   3.185   1.991  14.620 -0.0345 -0.0524  0.1468
  767MPD2    C411324   3.096   1.907  14.686  0.0880 -0.5427 -0.4390
  767MPD2    C511325   3.108   1.883  14.820 -0.0651  0.3308 -0.8313
  767MPD2     H11326   3.332   2.139  14.655 -0.4213  0.4037 -0.3842
  767MPD2    H111327   3.016   1.860  14.631 -1.3941  0.2226  1.0640
  767MPD2    H211328   3.211   1.914  15.001 -0.5043  2.5484  0.9121
  767MPD2    H311329   3.037   1.810  14.857  0.1955  0.1480 -0.7002
  767MPD2     N11330   3.205   1.998  14.487 -0.3128 -0.0361  0.2035
  767MPD2    H511331   3.299   2.021  14.459  0.4035 -2.1568  0.8686
  767MPD2    N111332   3.367   2.123  14.916 -0.3983 -0.1606 -0.3168
  767MPD2    H711333   3.382   2.084  15.009 -0.5184  0.0912 -0.1898
  768MPD2     C11334   4.227   0.737  10.400 -0.0821  0.0079  0.1439
  768MPD2    C111335   4.167   0.659  10.499  0.2251 -1.2062 -0.4813
  768MPD2    C211336   4.237   0.614  10.614  0.4919 -0.2590  0.0086
  768MPD2    C311337   4.367   0.663  10.627 -0.1550 -0.3021  0.0265
  768MPD2    C411338   4.419   0.750  10.528 -0.1596 -0.2735 -0.4909
  768MPD2    C511339   4.355   0.777  10.412 -0.5074  1.0000  0.3408
  768MPD2     H11340   4.187   0.547  10.683  0.4796 -1.3832 -1.1038
  768MPD2    H111341   4.521   0.780  10.548  0.2625 -1.8865 -0.2195
  768MPD2    H211342   4.162   0.771  10.320  1.3401 -0.8041 -1.3624
  768MPD2    H311343   4.406   0.831  10.333 -1.0205  0.6714 -0.2131
  768MPD2     N11344   4.449   0.630  10.740  0.0009 -0.2422 -0.2796
  768MPD2    H511345   4.543   0.670  10.735  0.1334 -0.7250 -1.5922
  768MPD2    N111346   4.031   0.608  10.499  0.2925 -0.8015 -0.2946
  768MPD2    H711347   4.015   0.547  10.579 -1.5183 -0.6066 -0.4948
  769MPD2     C11348   0.067   3.063  14.993 -0.0777  0.0640  0.3818
  769MPD2    C111349   0.081   3.197  15.019  0.0960 -0.8463  0.1894
  769MPD2    C211350   0.204   3.227  15.073  0.3119 -0.3126 -0.5649
  769MPD2    C311351   0.303   3.129  15.091 -0.3718 -0.0413 -1.1680
  769MPD2    C411352   0.277   2.995  15.056  0.2782 -0.2462  0.1205
  769MPD2    C511353   0.159   2.964  15.008  0.2523 -0.1267  0.3602
  769MPD2     H11354   0.228   3.329  15.103  0.3700 -0.3379 -0.5249
  769MPD2    H111355   0.354   2.920  15.068 -0.4097 -0.7960  1.1221
  769MPD2    H211356   4.692   3.026  14.972  0.0594 -0.1373  0.0984
  769MPD2    H311357   0.129   2.862  14.986  3.2838 -0.5402 -1.8060
  769MPD2     N11358   0.428   3.173  15.133 -0.0703 -0.2862  0.0982
  769MPD2    H511359   0.429   3.272  15.159  0.8337  0.3984 -2.5427
  769MPD2    N111360   4.698   3.280  14.989  0.3920  0.5309  0.4109
  769MPD2    H711361   4.627   3.245  14.927 -0.7024  1.9250  0.8817
  770MPD2     C11362   4.271   3.025  15.429 -0.0117  0.0790  0.1401
  770MPD2    C111363   4.374   3.003  15.341 -0.7823  0.2294 -0.2068
  770MPD2    C211364   4.392   3.087  15.233 -0.1642  0.2721 -0.1990
  770MPD2    C311365   4.301   3.188  15.206 -0.4036 -0.1955 -0.1610
  770MPD2    C411366   4.211   3.222  15.307 -0.5815 -0.0661  0.3874
  770MPD2    C511367   4.189   3.136  15.412 -0.2083  0.6525 -0.4255
  770MPD2     H11368   4.474   3.077  15.162 -0.2309 -3.7553  0.3327
  770MPD2    H111369   4.161   3.318  15.310  0.6706  0.5507  0.9503
  770MPD2    H211370   4.243   2.970  15.518 -0.3194  0.9331  0.5751
  770MPD2    H311371   4.110   3.170  15.477 -0.5065  1.0300 -0.9947
  770MPD2     N11372   4.324   3.268  15.095 -0.1076  0.1243 -0.4350
  770MPD2    H511373   4.385   3.223  15.028  2.7701  1.3948  1.3052
  770MPD2    N111374   4.457   2.890  15.348 -0.1813  0.5649 -0.3666
  770MPD2    H711375   4.414   2.807  15.388 -0.4250  1.0853  0.4520
  771MPD2     C11376   1.379   1.359  13.757  0.6614  0.1622  0.0187
  771MPD2    C111377   1.374   1.486  13.704  0.7221 -0.0317  0.3346
  771MPD2    C211378   1.358   1.506  13.567 -0.0982  0.0108  0.0364
  771MPD2    C311379   1.363   1.406  13.477 -0.6509  0.0137  0.4676
  771MPD2    C411380   1.379   1.280  13.531 -0.1304  0.4222  0.1385
  771MPD2    C511381   1.382   1.261  13.664  0.1547  0.0900 -0.4688
  771MPD2     H11382   1.369   1.608  13.533  2.2596 -0.5989 -1.0539
  771MPD2    H111383   1.384   1.189  13.472  0.4401  1.4301 -1.3849
  771MPD2    H211384   1.407   1.339  13.860 -0.4075  1.2610  0.5212
  771MPD2    H311385   1.393   1.156  13.688  1.5332  0.4073  0.3251
  771MPD2     N11386   1.355   1.431  13.340 -0.0467 -0.4408  0.5642
  771MPD2    H511387   1.346   1.526  13.305 -0.2180 -1.1529 -1.3167
  771MPD2    N111388   1.389   1.595  13.785  0.1491 -0.2284 -0.1000
  771MPD2    H711389   1.392   1.685  13.738  0.6589  1.0258  2.3204
  772MPD2     C11390   0.982   2.200  13.884  0.0408 -0.8535 -0.3278
  772MPD2    C111391   0.990   2.069  13.854  0.2827 -0.2522 -0.4715
  772MPD2    C211392   0.875   1.998  13.837  0.1279 -0.0633 -0.4508
  772MPD2    C311393   0.754   2.063  13.844  0.0453 -0.6112  0.2116
  772MPD2    C411394   0.745   2.198  13.867 -0.0635  0.2648  0.4393
  772MPD2    C511395   0.867   2.267  13.882 -0.1722 -0.1262 -0.3197
  772MPD2     H11396   0.880   1.891  13.827  0.2658 -0.2990  2.1379
  772MPD2    H111397   0.649   2.245  13.879  0.0549  0.4235  0.7543
  772MPD2    H211398   1.076   2.254  13.893 -0.6441  0.3781 -0.4884
  772MPD2    H311399   0.863   2.374  13.896 -1.3971  0.0379 -1.9784
  772MPD2     N11400   0.631   1.999  13.829  0.3459  0.1652 -0.4299
  772MPD2    H511401   0.552   2.058  13.852  0.4645 -0.0435  0.4936
  772MPD2    N111402   1.113   1.988  13.847 -0.4557  0.9077 -0.3628
  772MPD2    H711403   1.103   1.891  13.820 -0.4300  0.6665  0.4750
  773MPD2     C11404   4.497   2.366   0.367  0.2259  0.4767  0.5712
  773MPD2    C111405   4.524   2.278   0.258  0.1616 -0.0037  0.1128
  773MPD2    C211406   4.596   2.163   0.279 -0.6174  0.1187 -0.1337
  773MPD2    C311407   4.660   2.138   0.399  0.5472 -0.6785 -0.7084
  773MPD2    C411408   4.646   2.230   0.504 -0.5800  0.1489  0.3012
  773MPD2    C511409   4.566   2.343   0.484  0.2358 -0.8110 -0.5589
  773MPD2     H11410   4.615   2.086   0.205 -3.0790  1.6370 -2.3470
  773MPD2    H111411   4.683   2.221   0.606 -0.4511  1.2471  0.3455
  773MPD2    H211412   4.433   2.454   0.367 -1.2503 -0.6066 -0.0116
  773MPD2    H311413   4.571   2.414   0.566 -1.7997 -1.8837  0.5154
  773MPD2     N11414   4.712   2.011   0.413  0.0911 -0.9102 -0.0176
  773MPD2    H511415   4.706   1.955   0.328  1.3466  1.8229 -1.9306
  773MPD2    N111416   4.476   2.308   0.125 -1.5252  0.1207 -0.0990
  773MPD2    H711417   4.499   2.244   0.049  1.2594  0.7135  0.2428
  774MPD2     C11418   4.014   1.276  13.144 -0.7161  0.0134  0.4643
  774MPD2    C111419   4.010   1.354  13.256 -0.4703 -0.1865 -0.7169
  774MPD2    C211420   4.008   1.495  13.236 -0.3923 -0.2706  0.5369
  774MPD2    C311421   4.041   1.553  13.112  0.0991 -0.0145 -0.1328
  774MPD2    C411422   4.070   1.467  13.004  0.0776 -0.0914 -0.6199
  774MPD2    C511423   4.035   1.334  13.017  0.0871  0.0790 -0.0635
  774MPD2     H11424   3.983   1.569  13.311 -0.0149  2.8885 -2.4418
  774MPD2    H111425   4.101   1.501  12.906  0.8830 -1.1677 -0.7325
  774MPD2    H211426   4.004   1.169  13.159 -1.3177 -0.2662 -1.9141
  774MPD2    H311427   4.044   1.276  12.926 -0.4747  1.3878 -0.9415
  774MPD2     N11428   4.061   1.696  13.097 -0.2599 -0.1834 -0.7493
  774MPD2    H511429   4.044   1.753  13.179  2.5872  0.6739 -0.7527
  774MPD2    N111430   4.006   1.295  13.381 -0.4256  0.4273 -0.1556
  774MPD2    H711431   3.996   1.194  13.378  4.2029 -0.0294  0.7014
  775MPD2     C11432   1.421   3.417  15.908 -0.3830  0.7166 -0.5535
  775MPD2    C111433   1.313   3.482  15.953  0.4066  0.3151  0.3593
  775MPD2    C211434   1.257   3.574  15.862 -0.5219  0.3625  0.7155
  775MPD2    C311435   1.312   3.591  15.733 -0.6130  0.2929 -0.2143
  775MPD2    C411436   1.427   3.520  15.694 -0.2378  0.2686  0.2953
  775MPD2    C511437   1.481   3.443  15.790 -0.5908  0.2951 -0.0246
  775MPD2     H11438   1.168   3.632  15.882 -0.3935  1.6011 -2.3431
  775MPD2    H111439   1.467   3.524  15.594 -2.2352  0.3812 -0.4985
  775MPD2    H211440   1.467   3.342  15.971 -0.5212  0.3270 -0.9230
  775MPD2    H311441   1.572   3.389  15.770 -0.0097  1.0278  0.6370
  775MPD2     N11442   1.263   3.687  15.640 -0.4589 -0.3199  0.1694
  775MPD2    H511443   1.311   3.675  15.551 -1.0797  1.7984 -0.4379
  775MPD2    N111444   1.258   3.454  16.081 -0.0254  0.1650 -0.5947
  775MPD2    H711445   1.318   3.401  16.144 -0.9139  0.9480  0.9344
  776MPD2     C11446   4.014   3.975  11.526 -0.0951 -0.0535 -0.1976
  776MPD2    C111447   4.146   3.962  11.544  0.0575 -0.2792 -0.4950
  776MPD2    C211448   4.244   4.026  11.473 -0.1222 -0.3778  0.2635
  776MPD2    C311449   4.205   4.121  11.380 -0.3390 -0.3760  0.5822
  776MPD2    C411450   4.068   4.150  11.373 -0.3821 -0.1756 -0.7956
  776MPD2    C511451   3.974   4.077  11.442  0.0709  0.3276 -1.2205
  776MPD2     H11452   4.349   4.008  11.488 -0.0816 -0.7679 -0.4650
  776MPD2    H111453   4.029   4.225  11.306 -1.1952 -0.5587 -0.7555
  776MPD2    H211454   3.937   3.925  11.583  1.1407 -1.5636  0.1358
  776MPD2    H311455   3.870   4.093  11.419  0.0391  0.6286 -0.8644
  776MPD2     N11456   4.292   4.202  11.301 -0.4390  0.5929  0.1716
  776MPD2    H511457   4.247   4.287  11.270 -0.8689  0.3196  0.0549
  776MPD2    N111458   4.179   3.873  11.639 -0.5514  0.0734 -0.3291
  776MPD2    H711459   4.097   3.818  11.665 -2.3941  1.9858 -2.0995
  777MPD2     C11460   0.203   0.797   0.775 -0.4076 -0.2352 -0.3089
  777MPD2    C111461   0.179   0.701   0.869  0.5914  0.3653  1.0217
  777MPD2    C211462   0.174   0.575   0.836  0.2648 -0.1531  0.3583
  777MPD2    C311463   0.187   0.536   0.701 -0.2167  0.4209  0.0763
  777MPD2    C411464   0.204   0.632   0.607  0.5430  0.3614  0.1816
  777MPD2    C511465   0.222   0.764   0.640 -0.6065 -0.4103 -0.0490
  777MPD2     H11466   0.161   0.501   0.914  0.4717 -0.9600 -0.3712
  777MPD2    H111467   0.199   0.613   0.500 -0.4202  4.6256 -0.5573
  777MPD2    H211468   0.205   0.903   0.798 -2.7653 -0.1955 -0.2721
  777MPD2    H311469   0.244   0.832   0.559  0.1403  1.7259  1.9483
  777MPD2     N11470   0.175   0.402   0.662 -0.5143 -0.6023  0.2440
  777MPD2    H511471   0.159   0.337   0.738  1.2883 -0.0153  1.1371
  777MPD2    N111472   0.147   0.740   1.000 -0.2011 -0.1485  0.0104
  777MPD2    H711473   0.144   0.839   1.022 -0.5927  0.0608 -0.9809
  778MPD2     C11474   1.162   1.391  15.433 -0.3041  0.0210  0.6254
  778MPD2    C111475   1.080   1.378  15.323 -0.0728 -0.7027  0.0667
  778MPD2    C211476   1.084   1.461  15.220 -0.4784 -0.2518 -0.3416
  778MPD2    C311477   1.163   1.572  15.231 -0.2681  0.1135 -0.5887
  778MPD2    C411478   1.248   1.586  15.343  0.1429 -0.4145 -0.0043
  778MPD2    C511479   1.247   1.488  15.447 -0.2359  0.0823 -0.1625
  778MPD2     H11480   1.030   1.442  15.127 -1.6207 -2.0002  0.6797
  778MPD2    H111481   1.325   1.660  15.362  1.0603 -0.7617 -2.3992
  778MPD2    H211482   1.169   1.318  15.513 -0.7350 -0.8252 -0.1183
  778MPD2    H311483   1.306   1.504  15.537 -0.2529  1.8022 -0.4641
  778MPD2     N11484   1.156   1.662  15.126 -0.1364  0.3375  0.3201
  778MPD2    H511485   1.090   1.637  15.052 -0.2457 -2.3193  1.3185
  778MPD2    N111486   0.998   1.260  15.305  0.4513  0.1209 -0.2805
  778MPD2    H711487   0.957   1.259  15.212 -2.5599 -0.3382  1.0728
  779MPD2     C11488   0.635   0.230  13.711 -0.2458 -0.3875 -0.1598
  779MPD2    C111489   0.716   0.220  13.825 -0.2155  1.1383  0.1344
  779MPD2    C211490   0.785   0.330  13.856  0.1692  0.2859 -0.0000
  779MPD2    C311491   0.762   0.454  13.791  0.0434  0.1950  0.0629
  779MPD2    C411492   0.693   0.454  13.673  0.2378 -0.5446  0.6141
  779MPD2    C511493   0.641   0.337  13.630 -0.5542 -0.7652  0.2961
  779MPD2     H11494   0.856   0.332  13.938 -0.1435 -2.9803  0.3499
  779MPD2    H111495   0.672   0.543  13.615 -2.2596  0.4123  2.9616
  779MPD2    H211496   0.580   0.145  13.672 -1.3336 -0.4628  1.5051
  779MPD2    H311497   0.595   0.345  13.532  2.5992  2.4656 -0.9252
  779MPD2     N11498   0.820   0.568  13.855  0.4651  0.6318 -0.5647
  779MPD2    H511499   0.879   0.552  13.937 -3.5071 -3.1365  1.5312
  779MPD2    N111500   0.743   0.098  13.892 -0.6373 -0.8247  0.2810
  779MPD2    H711501   0.817   0.110  13.960 -0.2735 -3.6455  0.3969
  780MPD2     C11502   4.597   4.328   1.017 -0.1222 -0.6409 -0.5089
  780MPD2    C111503   4.599   4.262   0.895 -0.8087  0.9749 -1.1210
  780MPD2    C211504   4.694   4.305   0.808 -0.7549  0.7042  0.2694
  780MPD2    C311505   0.049   4.416   0.830 -0.1036  0.7583  0.1380
  780MPD2    C411506   0.038   4.480   0.955  0.0237  0.1872  0.1968
  780MPD2    C511507   4.679   4.431   1.048  0.0842 -0.6835 -0.6916
  780MPD2     H11508   4.706   4.262   0.710 -3.3876 -0.7033  0.5765
  780MPD2    H111509   0.095   4.567   0.987  0.4159  0.0348 -0.0954
  780MPD2    H211510   4.521   4.306   1.092 -0.0435  1.2903  0.1394
  780MPD2    H311511   4.679   4.490   1.139 -0.3488  0.0756 -1.1900
  780MPD2     N11512   0.128   4.467   0.727 -0.2488  0.0112 -1.4422
  780MPD2    H511513   0.124   4.424   0.636 -0.4177 -0.1035 -1.3788
  780MPD2    N111514   4.513   4.149   0.874 -0.0751  0.0682  0.9093
  780MPD2    H711515   4.459   4.114   0.952 -0.0651  0.6549  1.1773
  781MPD2     C11516   1.952   1.839  11.877  0.5488  0.1831  0.6356
  781MPD2    C111517   2.067   1.806  11.938 -0.0771 -0.2368 -0.0235
  781MPD2    C211518   2.189   1.813  11.876  0.4692 -0.3415  0.1849
  781MPD2    C311519   2.188   1.849  11.741  0.3052 -0.4791 -0.1226
  781MPD2    C411520   2.069   1.872  11.679 -0.0648 -0.8084  0.1061
  781MPD2    C511521   1.955   1.865  11.747  0.6780 -0.1308 -0.3773
  781MPD2     H11522   2.279   1.784  11.929  0.4810 -0.6615 -0.0145
  781MPD2    H111523   2.056   1.894  11.574  0.5531  0.5600  0.3168
  781MPD2    H211524   1.853   1.840  11.922  0.0534  1.3717 -0.4642
  781MPD2    H311525   1.865   1.885  11.690 -0.3135  0.8394  1.5491
  781MPD2     N11526   2.309   1.884  11.676 -0.2993 -0.0533  0.2326
  781MPD2    H511527   2.297   1.896  11.576  0.5288 -1.0829  0.0074
  781MPD2    N111528   2.067   1.773  12.074  0.0370  0.2496  0.0110
  781MPD2    H711529   2.157   1.745  12.110  0.1498 -0.6801 -1.0240
  782MPD2     C11530   0.632   3.384  10.518 -0.0702 -0.9382 -0.1726
  782MPD2    C111531   0.737   3.321  10.569 -0.5951 -0.1998  0.3155
  782MPD2    C211532   0.763   3.342  10.701  0.4362 -0.3129  0.4124
  782MPD2    C311533   0.693   3.430  10.783 -0.0571 -0.6647  0.2435
  782MPD2    C411534   0.594   3.505  10.724  0.3409 -0.7278  0.2073
  782MPD2    C511535   0.564   3.480  10.591 -0.3907 -0.0182  0.2975
  782MPD2     H11536   0.840   3.282  10.748  0.3314  0.1870  1.2248
  782MPD2    H111537   0.549   3.592  10.771  0.5887 -0.5017  0.0289
  782MPD2    H211538   0.615   3.363  10.413  0.0163 -1.2398 -0.1284
  782MPD2    H311539   0.480   3.541  10.561 -0.6108 -0.8204 -0.7117
  782MPD2     N11540   0.730   3.444  10.921 -0.2203  0.3349  1.3091
  782MPD2    H511541   0.820   3.402  10.939 -0.0586 -0.8394 -2.0814
  782MPD2    N111542   0.807   3.234  10.485  0.2653  0.2653  0.2610
  782MPD2    H711543   0.757   3.202  10.403  1.1204 -0.4082  0.0064
  783MPD2     C11544   0.318   2.608  10.682  0.4362 -0.9139  0.3693
  783MPD2    C111545   0.350   2.731  10.724  0.4667 -0.4777  0.9102
  783MPD2    C211546   0.463   2.796  10.668 -1.0648  0.4125  0.1642
  783MPD2    C311547   0.536   2.731  10.571 -0.3409 -0.5452 -0.6969
  783MPD2    C411548   0.508   2.598  10.531  0.6661 -0.6025  0.1786
  783MPD2    C511549   0.399   2.545  10.585  0.6109 -0.5975 -0.2198
  783MPD2     H11550   0.465   2.904  10.672 -0.8497  0.4117  0.0642
  783MPD2    H111551   0.563   2.537  10.460  1.6025  0.5368 -0.0862
  783MPD2    H211552   0.238   2.564  10.741  0.3091 -1.0024  0.1290
  783MPD2    H311553   0.373   2.441  10.564 -1.0949 -0.7774  2.8828
  783MPD2     N11554   0.640   2.799  10.514  0.2381  0.6487  0.2210
  783MPD2    H511555   0.663   2.889  10.555  1.0394  0.8804 -0.7283
  783MPD2    N111556   0.264   2.793  10.819  0.7127 -0.2271 -0.1951
  783MPD2    H711557   0.175   2.752  10.845  0.6240  0.4551  0.5750
  784MPD2     C11558   2.771   2.176   0.480  0.1618 -0.9624  0.7508
  784MPD2    C111559   2.695   2.202   0.599  0.3419 -0.5002 -0.2931
  784MPD2    C211560   2.565   2.224   0.575  0.1203  0.0612 -0.9858
  784MPD2    C311561   2.499   2.204   0.458 -0.9891  0.2111  0.7203
  784MPD2    C411562   2.576   2.166   0.347 -0.6595  0.0214  0.2744
  784MPD2    C511563   2.709   2.153   0.357  0.1642 -0.5535 -0.0484
  784MPD2     H11564   2.500   2.239   0.660  1.6053  0.3461  0.0926
  784MPD2    H111565   2.527   2.143   0.253  0.8802 -0.1754 -0.4793
  784MPD2    H211566   2.879   2.169   0.477  0.0829 -1.7508 -0.4043
  784MPD2    H311567   2.767   2.116   0.273  1.0439  0.2617  0.2063
  784MPD2     N11568   2.361   2.224   0.456  0.4187 -0.4599  0.3986
  784MPD2    H511569   2.318   2.234   0.548 -1.3792 -0.5426 -0.4177
  784MPD2    N111570   2.741   2.208   0.731 -0.0437  0.0924 -0.4098
  784MPD2    H711571   2.675   2.229   0.805 -1.1833 -0.3848 -1.2847
  785MPD2     C11572   2.730   1.061  10.291 -0.5117  0.2836  0.4929
  785MPD2    C111573   2.695   1.154  10.387  0.2524 -0.7182 -0.1874
  785MPD2    C211574   2.555   1.154  10.420  0.2003  0.2392  0.5480
  785MPD2    C311575   2.461   1.077  10.348 -0.1123  0.0429 -0.0972
  785MPD2    C411576   2.509   0.991  10.248  0.0974  0.0348 -0.2948
  785MPD2    C511577   2.644   0.986  10.217  0.1873  0.2610 -0.0478
  785MPD2     H11578   2.521   1.223  10.497  2.8922 -0.7149  2.5997
  785MPD2    H111579   2.449   0.929  10.183 -0.4877  0.9924 -0.6725
  785MPD2    H211580   2.833   1.051  10.259 -0.3669 -2.2731  1.6928
  785MPD2    H311581   2.675   0.917  10.140  0.5324  0.9396 -0.5203
  785MPD2     N11582   2.320   1.092  10.372 -0.2375  0.2343  0.1059
  785MPD2    H511583   2.303   1.159  10.446  1.5391  1.8050 -0.8660
  785MPD2    N111584   2.792   1.224  10.467 -0.3967  0.0391 -0.3887
  785MPD2    H711585   2.891   1.220  10.444 -0.0277 -1.6024  1.4543
  786MPD2     C11586   0.936   4.248  14.379  0.1667 -0.3371 -0.0046
  786MPD2    C111587   1.064   4.198  14.393  0.3062  0.4674 -0.1863
  786MPD2    C211588   1.141   4.225  14.505 -0.0171 -0.0263 -1.3114
  786MPD2    C311589   1.075   4.287  14.615  0.6120 -0.1958  0.0416
  786MPD2    C411590   0.940   4.318  14.609 -0.0544 -0.4574  0.4344
  786MPD2    C511591   0.881   4.309  14.488  0.1189 -0.2704 -0.1666
  786MPD2     H11592   1.247   4.203  14.504  0.2443  1.2217 -1.4789
  786MPD2    H111593   0.887   4.344  14.700 -2.6951 -1.2051 -0.8729
  786MPD2    H211594   0.875   4.247  14.290 -0.2790  0.2670  0.2922
  786MPD2    H311595   0.774   4.326  14.483  0.0061 -1.2873 -1.2044
  786MPD2     N11596   1.133   4.304  14.740 -0.6150 -0.4800 -0.3525
  786MPD2    H511597   1.067   4.340  14.808  0.3763 -2.0793  1.4421
  786MPD2    N111598   1.115   4.112  14.293 -0.2030  0.4194  0.4046
  786MPD2    H711599   1.211   4.082  14.308 -0.2856 -0.6164 -1.1585
  787MPD2     C11600   1.532   3.768  14.513  0.0283  0.4532  0.2499
  787MPD2    C111601   1.488   3.677  14.414 -0.1073  0.2291 -1.0494
  787MPD2    C211602   1.547   3.553  14.416 -0.5513  0.8005 -0.5720
  787MPD2    C311603   1.646   3.518  14.507  0.2243 -0.1053  0.1615
  787MPD2    C411604   1.682   3.614  14.598  0.1503 -0.4179  0.1229
  787MPD2    C511605   1.626   3.738  14.600  0.5658 -0.3674 -0.4770
  787MPD2     H11606   1.512   3.486  14.338 -1.4961 -0.0881  0.6057
  787MPD2    H111607   1.746   3.592  14.682  0.1811  0.3651  0.3044
  787MPD2    H211608   1.498   3.871  14.511 -0.2399  0.2798 -3.6290
  787MPD2    H311609   1.663   3.807  14.674 -3.4226  0.4101  0.7823
  787MPD2     N11610   1.712   3.391  14.511  0.1407  0.2862 -0.3060
  787MPD2    H511611   1.674   3.326  14.443  0.8527 -1.9025  1.4086
  787MPD2    N111612   1.389   3.728  14.326 -0.2909 -0.3430 -0.3214
  787MPD2    H711613   1.352   3.821  14.342 -1.5229 -0.7383 -0.8734
  788MPD2     C11614   3.184   1.345   1.090 -0.1339 -0.0352  0.9021
  788MPD2    C111615   3.127   1.305   0.970 -0.4509  0.1129 -0.6797
  788MPD2    C211616   3.134   1.389   0.858  0.0768  0.1553 -0.0813
  788MPD2    C311617   3.213   1.499   0.872 -0.6571  0.2944  0.3584
  788MPD2    C411618   3.267   1.543   0.993 -0.4210  0.9618 -0.9831
  788MPD2    C511619   3.254   1.462   1.105 -0.4314 -0.3303 -0.4967
  788MPD2     H11620   3.078   1.376   0.766 -1.1472 -2.0612  0.9810
  788MPD2    H111621   3.321   1.637   0.991  0.7783  0.3647  2.0331
  788MPD2    H211622   3.188   1.276   1.174  0.5786  0.3862  1.2119
  788MPD2    H311623   3.304   1.491   1.196 -1.0758 -2.4661  0.5154
  788MPD2     N11624   3.229   1.588   0.768  0.1207 -0.0202 -0.5675
  788MPD2    H511625   3.305   1.655   0.778 -0.7184  0.9755 -0.8309
  788MPD2    N111626   3.072   1.175   0.939 -0.1365 -0.2004 -0.1189
  788MPD2    H711627   3.034   1.162   0.846  2.8490  2.5667 -1.7042
  789MPD2     C11628   4.042   1.601  16.468 -0.0425 -0.1116 -0.0513
  789MPD2    C111629   3.933   1.560  16.401  0.1911 -0.1258 -0.5028
  789MPD2    C211630   3.815   1.623  16.430  0.1461  0.5150  0.2655
  789MPD2    C311631   3.801   1.711  16.538  0.3173  0.8567  1.1429
  789MPD2    C411632   3.911   1.744  16.615  0.3848  0.4408  0.5012
  789MPD2    C511633   4.029   1.696  16.568  0.0931 -0.3438 -0.0991
  789MPD2     H11634   3.723   1.605  16.374  0.3896  1.8271 -0.5475
  789MPD2    H111635   3.908   1.813  16.698  1.1437  1.5798 -0.4179
  789MPD2    H211636   4.138   1.553  16.458  0.1554 -0.0165  1.4128
  789MPD2    H311637   4.118   1.744  16.609  1.5055 -1.8988 -1.3638
  789MPD2     N11638   3.684   1.776  16.577  0.1241 -0.5758 -0.7049
  789MPD2    H511639   3.682   1.838  16.657  0.0887  1.0002 -1.9209
  789MPD2    N111640   3.942   1.456  16.299 -0.3774  0.1228 -0.0427
  789MPD2    H711641   3.856   1.426  16.255 -1.7051  2.4320  0.9684
  790MPD2     C11642   4.283   4.125  13.525 -0.8229 -0.0854  0.5291
  790MPD2    C111643   4.358   4.012  13.509  0.2851 -1.1721 -0.2309
  790MPD2    C211644   4.389   3.978  13.376 -0.6400 -0.7217 -0.3240
  790MPD2    C311645   4.344   4.052  13.267 -0.8381 -0.3514 -0.6866
  790MPD2    C411646   4.268   4.160  13.293 -0.1079 -0.2129  0.2225
  790MPD2    C511647   4.237   4.200  13.418 -0.2092  0.2949  0.2154
  790MPD2     H11648   4.447   3.890  13.348 -0.7118 -0.0983 -2.4766
  790MPD2    H111649   4.228   4.233  13.223  1.6532  0.5680  0.0235
  790MPD2    H211650   4.272   4.169  13.623 -2.4649 -0.8684  0.6904
  790MPD2    H311651   4.182   4.291  13.439  0.4519  0.9926 -1.0783
  790MPD2     N11652   4.396   4.015  13.141  0.5793  0.3498  0.2872
  790MPD2    H511653   4.457   3.934  13.142 -0.7606 -0.6306  2.8297
  790MPD2    N111654   4.396   3.942  13.627  0.0287  0.1081 -0.3102
  790MPD2    H711655   4.381   3.983  13.719  0.6409 -0.6032  0.1040
  791MPD2     C11656   3.919   3.983  12.492  0.3649 -0.5194 -0.1161
  791MPD2    C111657   3.990   3.903  12.580 -0.5382  0.5355  0.0780
  791MPD2    C211658   3.913   3.809  12.658 -0.0082 -0.2257 -0.2343
  791MPD2    C311659   3.784   3.790  12.620  0.7596 -0.6878  0.2400
  791MPD2    C411660   3.717   3.860  12.519  0.3966  0.1874  0.2046
  791MPD2    C511661   3.786   3.965  12.462 -0.2711  0.2355 -0.2714
  791MPD2     H11662   3.963   3.749  12.734 -1.5747 -1.3619 -0.1044
  791MPD2    H111663   3.619   3.838  12.477 -0.2887  1.3370  1.2270
  791MPD2    H211664   3.973   4.055  12.431 -1.0019  1.4167  0.9855
  791MPD2    H311665   3.745   4.034  12.389  2.2402  0.3510 -1.5537
  791MPD2     N11666   3.727   3.682  12.688 -0.5687  0.1793 -0.0009
  791MPD2    H511667   3.786   3.641  12.760 -0.8465 -0.5484 -0.1780
  791MPD2    N111668   4.124   3.927  12.611  0.4268 -0.0252 -0.0689
  791MPD2    H711669   4.169   4.009  12.571  0.0041  1.1460  1.8865
  792MPD2     C11670   4.382   3.708  11.356  0.5401 -0.3313  0.0018
  792MPD2    C111671   4.484   3.701  11.261  0.4328  0.5094 -0.2087
  792MPD2    C211672   4.469   3.607  11.154 -0.3855 -0.6747  0.3885
  792MPD2    C311673   4.355   3.528  11.142 -0.1479  0.3996  0.3680
  792MPD2    C411674   4.257   3.537  11.241  0.1233 -0.7689  0.0193
  792MPD2    C511675   4.274   3.626  11.346 -0.7437 -0.1445  0.2794
  792MPD2     H11676   4.545   3.587  11.079 -1.5181 -2.0178 -0.4044
  792MPD2    H111677   4.158   3.492  11.238 -0.3785  0.2262  1.1313
  792MPD2    H211678   4.410   3.776  11.436 -1.3033  1.1184 -0.5765
  792MPD2    H311679   4.192   3.631  11.417 -0.2780  3.6695  0.5675
  792MPD2     N11680   4.349   3.437  11.034  0.4561  0.1882 -0.6530
  792MPD2    H511681   4.434   3.441  10.978  0.9401 -0.6456  0.0229
  792MPD2    N111682   4.603   3.781  11.269 -0.1848  0.4268  0.3757
  792MPD2    H711683   4.610   3.845  11.347 -0.8483  0.2117  0.6121
  793MPD2     C11684   4.283   3.754  10.187 -0.1781  0.6366  0.1908
  793MPD2    C111685   4.402   3.730  10.249 -0.7520  0.6707 -0.1617
  793MPD2    C211686   4.407   3.642  10.359  0.0910  0.1741 -0.4954
  793MPD2    C311687   4.297   3.575  10.399  0.4455 -0.9601 -0.8337
  793MPD2    C411688   4.180   3.605  10.340  0.1181  0.4968 -0.5931
  793MPD2    C511689   4.173   3.698  10.235  0.2376 -0.2374  0.3665
  793MPD2     H11690   4.499   3.626  10.414  0.5993 -0.7834 -1.6188
  793MPD2    H111691   4.085   3.558  10.367  0.5921 -0.1284 -0.0026
  793MPD2    H211692   4.268   3.812  10.097 -2.0185  2.1754  1.4788
  793MPD2    H311693   4.078   3.710  10.184  0.5143  1.6741  0.3102
  793MPD2     N11694   4.320   3.470  10.493  0.0083  0.0315 -0.3404
  793MPD2    H511695   4.412   3.445  10.527 -0.1181 -2.2163 -1.6159
  793MPD2    N111696   4.528   3.772  10.202 -0.2551  0.7233  0.0660
  793MPD2    H711697   4.610   3.727  10.243 -1.8757 -3.2192 -1.0837
  794MPD2     C11698   4.510   2.768  17.150 -0.6197 -0.0701 -0.0252
  794MPD2    C111699   4.403   2.677  17.130 -0.1859  0.1105 -0.1968
  794MPD2    C211700   4.350   2.662  17.001 -0.2893  1.0224  1.0743
  794MPD2    C311701   4.394   2.746  16.901 -0.0731 -0.1489  0.1436
  794MPD2    C411702   4.496   2.843  16.924 -0.4359 -0.5378  0.0223
  794MPD2    C511703   4.552   2.850  17.048 -0.0901 -0.3303 -0.2032
  794MPD2     H11704   4.271   2.591  16.979  0.2120  0.9359 -0.4166
  794MPD2    H111705   4.530   2.906  16.843  0.6152  0.0853  0.9442
  794MPD2    H211706   4.551   2.783  17.249 -1.3666  1.4841  0.0449
  794MPD2    H311707   4.626   2.923  17.079 -0.5167 -0.3288  0.8370
  794MPD2     N11708   4.324   2.765  16.779 -0.0726 -0.2269 -0.0020
  794MPD2    H511709   4.354   2.845  16.724  2.5759 -0.8066  0.5815
  794MPD2    N111710   4.352   2.589  17.230  0.1299  0.2989  0.1639
  794MPD2    H711711   4.268   2.536  17.207 -0.3620  1.5282 -0.8460
  795MPD2     C11712   2.290   0.508  13.728 -0.1978 -0.2851  0.1089
  795MPD2    C111713   2.198   0.404  13.736  0.0933  0.4216 -1.0771
  795MPD2    C211714   2.244   0.285  13.797 -0.5427  0.1426  0.3031
  795MPD2    C311715   2.379   0.262  13.816  0.1770  0.0272  0.1918
  795MPD2    C411716   2.471   0.360  13.783  0.2867 -0.0038  0.0928
  795MPD2    C511717   2.420   0.487  13.749 -0.5612 -0.2370 -0.8150
  795MPD2     H11718   2.172   0.207  13.821 -1.2550  0.5741 -0.4521
  795MPD2    H111719   2.579   0.358  13.795  0.1569 -0.8860  1.0742
  795MPD2    H211720   2.261   0.606  13.692 -1.9818 -2.3727 -4.1584
  795MPD2    H311721   2.483   0.575  13.743  0.7190 -1.2303 -2.1260
  795MPD2     N11722   2.417   0.132  13.867 -0.6868  0.4911 -0.6495
  795MPD2    H511723   2.343   0.081  13.913  0.4712  0.9564  1.7541
  795MPD2    N111724   2.066   0.428  13.705 -0.0336 -0.3213  0.0595
  795MPD2    H711725   2.001   0.350  13.714 -2.1528  1.5495  1.1531
  796MPD2     C11726   1.912   1.907  15.859  0.3384 -0.8330 -0.5464
  796MPD2    C111727   1.942   1.919  15.992 -0.0260  0.4241  0.4222
  796MPD2    C211728   1.948   2.041  16.051  0.5254 -0.3050 -0.0586
  796MPD2    C311729   1.907   2.153  15.987  0.3851  0.5526 -0.0226
  796MPD2    C411730   1.864   2.145  15.858 -0.7095  0.1991  0.6643
  796MPD2    C511731   1.868   2.023  15.791 -0.6972 -0.0016  0.0669
  796MPD2     H11732   1.975   2.047  16.156  1.3726  0.2339 -0.3112
  796MPD2    H111733   1.826   2.236  15.812 -2.5845  0.0503  1.9335
  796MPD2    H211734   1.916   1.810  15.811  2.6876 -1.0395  0.0466
  796MPD2    H311735   1.838   2.017  15.687  1.6354  0.3584 -0.6349
  796MPD2     N11736   1.909   2.273  16.058 -0.1052 -0.5001  0.7790
  796MPD2    H511737   1.951   2.276  16.151  0.4183  2.0942  0.4636
  796MPD2    N111738   1.964   1.795  16.053  0.3901 -0.3671 -0.9286
  796MPD2    H711739   1.962   1.715  15.991 -0.8102 -1.3837  0.4210
  797MPD2     C11740   2.753   0.897  17.499  0.4268  0.7047 -0.6598
  797MPD2    C111741   2.834   1.014  17.512 -0.3568  0.0201 -0.5811
  797MPD2    C211742   2.791   1.131  17.463  0.2111  0.2335 -0.5298
  797MPD2    C311743   2.675   1.140  17.391  0.2730 -0.6485 -0.0208
  797MPD2    C411744   2.599   1.022  17.360 -0.3732 -0.0455  0.0768
  797MPD2    C511745   2.645   0.909  17.418 -0.8245  0.8717 -0.3768
  797MPD2     H11746   2.852   1.218  17.485  1.7750 -0.5790 -1.6748
  797MPD2    H111747   2.507   1.014  17.303  0.1085 -1.3241 -0.5319
  797MPD2    H211748   2.774   0.798  17.537 -1.4195  0.7141  0.4069
  797MPD2    H311749   2.587   0.818  17.403  1.1577 -0.7414  1.6797
  797MPD2     N11750   2.646   1.263  17.344  0.3689 -0.1694  0.2493
  797MPD2    H511751   2.690   1.340  17.394  0.5155 -0.9538  1.3156
  797MPD2    N111752   2.950   1.016  17.587  0.2419  0.3634  0.6988
  797MPD2    H711753   2.992   1.109  17.587  2.5102 -0.6567  3.5763
  798MPD2     C11754   3.270   1.526  17.224  0.3627 -0.3903  0.9836
  798MPD2    C111755   3.163   1.502  17.305  0.3259  0.6886  0.2738
  798MPD2    C211756   3.175   1.422  17.420  0.6133  0.3886  0.0653
  798MPD2    C311757   3.296   1.370  17.453 -0.1739  0.3260  0.3450
  798MPD2    C411758   3.402   1.397  17.371 -0.2761 -0.1000 -0.2975
  798MPD2    C511759   3.390   1.462  17.251  1.1093  0.2564  0.1857
  798MPD2     H11760   3.085   1.405  17.477  0.5778 -0.5545 -0.2801
  798MPD2    H111761   3.497   1.346  17.382  0.0671 -0.1882 -3.6417
  798MPD2    H211762   3.260   1.578  17.129  0.1990  0.3347  1.4004
  798MPD2    H311763   3.467   1.456  17.175  1.8455  1.4944  0.8262
  798MPD2     N11764   3.294   1.275  17.553  0.4442  0.1164  0.1231
  798MPD2    H511765   3.206   1.262  17.603  1.2351  1.2478  1.8290
  798MPD2    N111766   3.042   1.559  17.263  0.0508  1.2068  0.7081
  798MPD2    H711767   3.050   1.607  17.174  0.4309  1.5853  0.9465
  799MPD2     C11768   1.383   3.220  14.623  0.2865 -0.1763  0.1374
  799MPD2    C111769   1.374   3.105  14.543 -0.5678  0.0700  0.2172
  799MPD2    C211770   1.311   3.106  14.419  0.2058 -0.2263  0.2842
  799MPD2    C311771   1.261   3.233  14.365 -0.1138 -0.3548 -0.7191
  799MPD2    C411772   1.279   3.345  14.439 -1.0081 -0.8505  0.0289
  799MPD2    C511773   1.329   3.337  14.570  1.1938  0.1502 -0.5018
  799MPD2     H11774   1.307   3.016  14.359 -0.3213  1.0088 -1.5223
  799MPD2    H111775   1.242   3.440  14.401 -0.8151 -0.5915  0.4759
  799MPD2    H211776   1.435   3.218  14.719  1.3030  1.6215 -0.3564
  799MPD2    H311777   1.337   3.435  14.613  0.5611  0.3632 -0.8644
  799MPD2     N11778   1.224   3.243  14.230 -0.3527 -0.0022 -0.4363
  799MPD2    H511779   1.228   3.335  14.187 -2.1417 -0.6082 -1.9215
  799MPD2    N111780   1.436   2.984  14.580 -1.0072  0.2835 -0.2324
  799MPD2    H711781   1.429   2.911  14.510  0.4651  0.3571 -0.4545
  800MPD2     C11782   1.588   4.302  14.180 -0.2270  0.0179 -0.0293
  800MPD2    C111783   1.695   4.235  14.133  0.9367  0.4880 -0.2108
  800MPD2    C211784   1.678   4.117  14.052  0.2973 -0.4245  0.3280
  800MPD2    C311785   1.548   4.086  14.009  0.0796  0.0253 -0.8167
  800MPD2    C411786   1.442   4.155  14.059  0.1294  0.0808  0.5241
  800MPD2    C511787   1.463   4.262  14.143  0.1126 -0.0104 -0.9270
  800MPD2     H11788   1.761   4.060  14.013  0.6828 -0.6096  1.4093
  800MPD2    H111789   1.340   4.127  14.034  0.9170 -1.8738 -0.4813
  800MPD2    H211790   1.602   4.397  14.230 -0.3845  0.8305 -1.5336
  800MPD2    H311791   1.373   4.313  14.176  0.8138  0.6573 -0.0783
  800MPD2     N11792   1.540   3.984  13.913  0.2396  0.0293 -0.4771
  800MPD2    H511793   1.629   3.941  13.889  0.2743  0.1510 -0.5661
  800MPD2    N111794   1.818   4.295  14.156  0.4629 -0.1461  0.6048
  800MPD2    H711795   1.826   4.384  14.204  0.3896 -0.7624  1.7506
  801MPD2     C11796   2.064   0.238  14.122 -0.3382  0.0378  0.3441
  801MPD2    C111797   2.033   0.136  14.207  0.7474  0.5027 -0.3235
  801MPD2    C211798   1.965   0.173  14.327 -0.3518  0.1505 -0.3374
  801MPD2    C311799   1.912   0.300  14.357  0.0239 -0.8777  0.0780
  801MPD2    C411800   1.937   0.397  14.259 -0.2233 -0.9079 -0.3797
  801MPD2    C511801   2.009   0.359  14.148  0.5116 -0.3548  0.2035
  801MPD2     H11802   1.927   0.087  14.381 -1.4171  0.0573 -1.2397
  801MPD2    H111803   1.909   0.501  14.269  0.1058 -1.1997  3.2722
  801MPD2    H211804   2.114   0.229  14.026 -0.4263  0.0503  0.2973
  801MPD2    H311805   2.049   0.433  14.080  1.6239 -1.0041  0.1485
  801MPD2     N11806   1.843   0.345  14.479  0.3382  0.4491  0.2735
  801MPD2    H511807   1.787   0.430  14.477 -0.4159 -0.0451  0.5058
  801MPD2    N111808   2.054   4.718  14.183  0.0374 -0.6054  0.3623
  801MPD2    H711809   2.003   4.654  14.243  0.2924 -0.6778  0.5012
  802MPD2     C11810   0.970   0.052  17.059 -0.1970 -0.5061 -0.5109
  802MPD2    C111811   1.036   4.718  17.166  0.4419  0.0235 -0.4321
  802MPD2    C211812   1.096   4.592  17.158  0.4371  0.5997  0.5212
  802MPD2    C311813   1.101   4.531  17.031 -0.1804  0.4296 -0.1403
  802MPD2    C411814   1.054   4.602  16.922  0.1460  0.3813  0.1016
  802MPD2    C511815   0.979   4.714  16.935 -0.0414 -0.4548 -0.1157
  802MPD2     H11816   1.150   4.549  17.242 -0.1088 -0.5370  0.2814
  802MPD2    H111817   1.061   4.558  16.823  0.7358 -0.5254  0.5455
  802MPD2    H211818   0.933   0.154  17.060  0.3156 -0.3275 -0.0110
  802MPD2    H311819   0.932   0.039  16.851  1.7341 -0.8220 -1.3327
  802MPD2     N11820   1.174   4.411  17.008 -0.1981  0.5153 -0.2771
  802MPD2    H511821   1.209   4.393  16.915  1.5342 -1.3321  0.7379
  802MPD2    N111822   1.053   0.072  17.282  0.3395  0.7278 -0.3287
  802MPD2    H711823   1.106   0.028  17.356  1.0834 -1.7040 -2.2840
  803MPD2     C11824   2.911   3.057  11.679  0.6815  0.7571  0.6636
  803MPD2    C111825   2.928   3.169  11.757  0.0543 -0.7652 -0.7807
  803MPD2    C211826   2.874   3.163  11.881  0.4064 -0.2087 -0.0625
  803MPD2    C311827   2.821   3.049  11.942 -0.6015 -0.3795 -0.0210
  803MPD2    C411828   2.827   2.941  11.871  0.5162  0.0910 -0.0860
  803MPD2    C511829   2.862   2.941  11.738  0.0232  0.8612 -0.3986
  803MPD2     H11830   2.873   3.249  11.947 -0.3053  2.0669 -3.0546
  803MPD2    H111831   2.787   2.846  11.906  1.4043 -0.3778 -0.3584
  803MPD2    H211832   2.944   3.053  11.576 -0.9930 -0.0216  0.1672
  803MPD2    H311833   2.858   2.849  11.680  0.5611  0.1336  0.7082
  803MPD2     N11834   2.767   3.031  12.080  0.6642 -0.4078  0.2422
  803MPD2    H511835   2.725   2.943  12.107 -0.3675  0.3183  0.9987
  803MPD2    N111836   2.994   3.279  11.710 -0.2477  0.3702  0.3006
  803MPD2    H711837   3.009   3.352  11.779  1.0162  0.5857 -0.2031
  804MPD2     C11838   1.954   4.438  17.116  0.6016  0.1103 -0.4942
  804MPD2    C111839   1.964   4.392  17.245  0.4179 -0.2464 -0.1136
  804MPD2    C211840   2.008   4.482  17.337  0.0666  0.2045 -0.1546
  804MPD2    C311841   2.040   4.612  17.306  0.0607  0.3473  0.4561
  804MPD2    C411842   2.022   4.660  17.179  0.2026  0.5305 -0.1428
  804MPD2    C511843   1.973   4.570  17.091  0.5275  0.0617 -0.0947
  804MPD2     H11844   2.018   4.451  17.440 -0.1453  0.2177 -0.1303
  804MPD2    H111845   2.050   0.037  17.150 -1.7455  2.1081  3.4631
  804MPD2    H211846   1.920   4.372  17.037 -1.7821  0.4575  0.2280
  804MPD2    H311847   1.946   4.605  16.992  1.7480  0.8754 -0.1391
  804MPD2     N11848   2.093   4.690  17.410 -0.0594 -0.5054  0.1295
  804MPD2    H511849   2.093   4.649  17.503 -0.7882 -0.4682  0.1443
  804MPD2    N111850   1.948   4.258  17.274  0.4549  0.1338  0.5047
  804MPD2    H711851   1.959   4.237  17.373  0.0054  2.5620  1.0657
  805MPD2     C11852   1.385   3.095  15.680 -0.4168  1.0611 -0.5409
  805MPD2    C111853   1.483   3.090  15.586 -0.1534 -0.1157  0.9090
  805MPD2    C211854   1.613   3.073  15.625  0.7867 -0.4853 -0.1308
  805MPD2    C311855   1.648   3.068  15.756 -0.0906 -0.0349  0.2688
  805MPD2    C411856   1.549   3.085  15.850 -1.0114 -0.2807 -0.3272
  805MPD2    C511857   1.417   3.102  15.809 -0.0194 -0.0407 -0.9158
  805MPD2     H11858   1.696   3.054  15.558 -0.1164  0.2915 -1.4610
  805MPD2    H111859   1.579   3.089  15.954 -2.2683 -1.7279  0.0990
  805MPD2    H211860   1.281   3.093  15.648 -0.2802  0.1867 -0.9222
  805MPD2    H311861   1.337   3.131  15.876  0.2147 -0.6094 -0.3973
  805MPD2     N11862   1.786   3.069  15.780  0.4493  0.5511  0.1089
  805MPD2    H511863   1.850   3.060  15.702 -0.1095 -0.0053 -0.2889
  805MPD2    N111864   1.455   3.080  15.442 -0.6395  0.2399 -0.1645
  805MPD2    H711865   1.533   3.067  15.379 -0.7035  0.6177 -0.3271
  806MPD2     C11866   2.109   2.358   1.559  0.3153  0.0978  0.0665
  806MPD2    C111867   2.132   2.248   1.482  0.1035  0.1774 -0.1675
  806MPD2    C211868   2.037   2.214   1.387  0.2331  0.2566  0.0311
  806MPD2    C311869   1.921   2.287   1.366 -0.5679 -0.4639 -0.8229
  806MPD2    C411870   1.910   2.401   1.443  0.3518  0.5231  1.0862
  806MPD2    C511871   1.998   2.435   1.548 -0.9777  0.6936 -0.1768
  806MPD2     H11872   2.052   2.130   1.319 -2.0630  0.6935 -1.0102
  806MPD2    H111873   1.814   2.451   1.438  0.2234  0.5111  3.1582
  806MPD2    H211874   2.178   2.391   1.636 -0.2638  1.2296  0.0986
  806MPD2    H311875   1.987   2.520   1.615  0.9139  0.5867  0.2955
  806MPD2     N11876   1.821   2.247   1.268 -0.2811 -0.3334 -0.3818
  806MPD2    H511877   1.848   2.164   1.216 -0.3229 -0.1919 -0.6257
  806MPD2    N111878   2.259   2.187   1.495 -0.0120 -0.1785 -0.3064
  806MPD2    H711879   2.318   2.228   1.566  0.5823 -1.1664 -0.2445
  807MPD2     C11880   2.644   1.887   2.038 -0.6259  0.4667  0.2188
  807MPD2    C111881   2.532   1.873   1.958 -0.2316  0.1374 -0.3340
  807MPD2    C211882   2.421   1.803   2.005 -0.2031 -0.0072 -0.1191
  807MPD2    C311883   2.416   1.746   2.131 -0.3472  0.5603 -0.3683
  807MPD2    C411884   2.529   1.759   2.205 -0.3802 -0.5635  0.0396
  807MPD2    C511885   2.637   1.841   2.166 -0.0407 -0.6200  0.5878
  807MPD2     H11886   2.342   1.789   1.933  0.8122 -1.0504 -1.0369
  807MPD2    H111887   2.547   1.713   2.301  0.2472  1.2946  0.8173
  807MPD2    H211888   2.736   1.934   2.007 -1.4902  2.4401  0.6462
  807MPD2    H311889   2.711   1.857   2.243  0.4301  2.9442 -0.5726
  807MPD2     N11890   2.299   1.666   2.167  0.2094 -0.3453 -0.2954
  807MPD2    H511891   2.228   1.664   2.095  0.5578  0.2084 -0.6631
  807MPD2    N111892   2.530   1.922   1.826 -0.4786 -0.6804  0.1758
  807MPD2    H711893   2.443   1.904   1.776 -0.9969 -1.6929  1.4302
  808MPD2     C11894   2.309   4.024   9.966 -0.0013 -0.1883 -0.1243
  808MPD2    C111895   2.365   3.958   9.856 -0.5620 -0.0283 -0.1676
  808MPD2    C211896   2.452   4.036   9.771 -0.6602  0.2260 -0.2552
  808MPD2    C311897   2.494   4.162   9.809  0.7101  0.3074 -0.2996
  808MPD2    C411898   2.452   4.222   9.930  0.9072 -0.4437 -0.2045
  808MPD2    C511899   2.356   4.152   9.997 -0.1110 -0.4088 -0.4372
  808MPD2     H11900   2.490   3.997   9.677 -1.2921  0.3873 -0.5749
  808MPD2    H111901   2.486   4.312   9.981 -1.4745 -0.4113  1.3293
  808MPD2    H211902   2.243   3.978  10.038 -2.9267  0.4117 -2.3992
  808MPD2    H311903   2.327   4.204  10.088  0.3638  0.5463 -0.8315
  808MPD2     N11904   2.584   4.243   9.737  0.0062 -0.8702 -0.6109
  808MPD2    H511905   2.618   4.332   9.774  1.5209 -1.6138 -0.2209
  808MPD2    N111906   2.348   3.825   9.819 -0.4288  0.4788  0.0939
  808MPD2    H711907   2.388   3.799   9.729 -0.7069 -0.1911  0.1588
  809MPD2     C11908   3.128   4.180   8.861  0.4289  0.7289  0.2401
  809MPD2    C111909   3.223   4.218   8.961 -0.2202 -0.1055  0.1145
  809MPD2    C211910   3.178   4.240   9.090  0.0664  0.4464 -0.3189
  809MPD2    C311911   3.042   4.231   9.120  0.3634  0.4097  0.0019
  809MPD2    C411912   2.952   4.188   9.029  0.3538  0.0170  0.4936
  809MPD2    C511913   2.996   4.168   8.898 -0.2941  0.5417  0.1940
  809MPD2     H11914   3.250   4.272   9.164  2.4233 -1.7479 -1.6598
  809MPD2    H111915   2.846   4.181   9.049  0.2647  3.8218  1.4244
  809MPD2    H211916   3.160   4.146   8.763 -2.5046 -1.2455 -0.0235
  809MPD2    H311917   2.930   4.137   8.818  0.4711 -1.6746  0.4191
  809MPD2     N11918   2.996   4.253   9.254  0.0853  0.0036 -0.4003
  809MPD2    H511919   2.895   4.262   9.262  0.0777 -0.2331 -0.2470
  809MPD2    N111920   3.361   4.228   8.944 -0.2022 -0.2874 -0.0327
  809MPD2    H711921   3.410   4.230   9.033 -0.6851 -1.0306  0.2546
  810MPD2     C11922   2.485   3.884  10.192  0.2103  0.6258 -0.6733
  810MPD2    C111923   2.432   3.845  10.307  0.3866 -0.3041 -0.1495
  810MPD2    C211924   2.479   3.906  10.422  0.2390  0.3571 -0.1199
  810MPD2    C311925   2.583   4.005  10.429 -1.4730 -0.2676  0.0647
  810MPD2    C411926   2.634   4.043  10.303 -0.0800 -0.3526 -0.2095
  810MPD2    C511927   2.589   3.976  10.190 -0.3591 -0.4140 -0.7276
  810MPD2     H11928   2.424   3.870  10.509 -0.8757 -1.8378 -1.7142
  810MPD2    H111929   2.716   4.114  10.310 -0.6660  0.3214 -0.2302
  810MPD2    H211930   2.451   3.848  10.096  0.3172 -0.2528 -0.3898
  810MPD2    H311931   2.630   4.002  10.093  1.1110  0.2110  0.0646
  810MPD2     N11932   2.628   4.069  10.547  0.0136  0.6998  0.4887
  810MPD2    H511933   2.689   4.149  10.534  0.6034  0.0270 -0.7994
  810MPD2    N111934   2.328   3.744  10.302  1.4301  0.1358  0.1319
  810MPD2    H711935   2.280   3.722  10.215 -1.2111  0.2768  1.5439
  811MPD2     C11936   1.592   3.403  10.036  0.1282 -0.0096 -0.4066
  811MPD2    C111937   1.662   3.522  10.057  0.0035  0.4204  0.1841
  811MPD2    C211938   1.607   3.650  10.031 -0.2487 -0.2917  0.0178
  811MPD2    C311939   1.482   3.649   9.964  0.6942 -0.2780 -0.1760
  811MPD2    C411940   1.416   3.533   9.936 -0.0671  0.2287  0.7426
  811MPD2    C511941   1.471   3.412   9.972  0.6777 -0.4417  1.0753
  811MPD2     H11942   1.666   3.740  10.042 -2.9713  1.3377  1.3348
  811MPD2    H111943   1.316   3.518   9.899  0.5270 -1.0537 -0.3576
  811MPD2    H211944   1.634   3.306  10.060  0.6422  0.3072  0.0002
  811MPD2    H311945   1.422   3.320   9.943 -2.1236  1.0530  1.0636
  811MPD2     N11946   1.434   3.779   9.930  0.4354  0.0148 -0.1992
  811MPD2    H511947   1.484   3.864   9.954  0.8375  0.1481 -1.4541
  811MPD2    N111948   1.784   3.502  10.126 -0.0683  0.3146  0.2941
  811MPD2    H711949   1.795   3.406  10.159 -2.3804 -0.6772 -1.8207
  812MPD2     C11950   4.651   4.204  12.339  0.2596 -0.3793  0.0678
  812MPD2    C111951   0.020   4.155  12.254  0.3442  0.1886 -0.2459
  812MPD2    C211952   0.041   4.017  12.246  0.8272  0.5328 -1.0865
  812MPD2    C311953   4.700   3.928  12.332 -0.4106 -0.3362  0.6689
  812MPD2    C411954   4.606   3.984  12.423 -0.4069 -0.0998 -0.6136
  812MPD2    C511955   4.590   4.121  12.427  0.4882  0.8844 -0.5964
  812MPD2     H11956   0.115   3.977  12.178 -0.3352 -2.9469 -0.2929
  812MPD2    H111957   4.545   3.926  12.492  1.3508  0.8825  1.7407
  812MPD2    H211958   4.621   4.309  12.342 -2.0714 -0.9999 -1.5264
  812MPD2    H311959   4.519   4.159  12.499  1.0673  1.0412 -0.1006
  812MPD2     N11960   0.028   3.797  12.341  0.4135 -0.5248  0.7618
  812MPD2    H511961   0.098   3.784  12.269  1.5113  0.7955  1.5911
  812MPD2    N111962   0.096   4.253  12.183 -0.4946 -0.2247  0.2465
  812MPD2    H711963   0.069   4.349  12.200 -0.7786  0.0404 -1.6865
  813MPD2     C11964   4.391   0.605  12.509  0.0502  0.2293 -0.2916
  813MPD2    C111965   4.384   0.743  12.502  0.7128 -0.3756 -0.1413
  813MPD2    C211966   4.317   0.805  12.602 -0.0103 -0.7141  0.2534
  813MPD2    C311967   4.274   0.737  12.723  0.2794  0.6281 -0.6282
  813MPD2    C411968   4.305   0.600  12.733  0.2312 -0.1830 -0.5713
  813MPD2    C511969   4.350   0.534  12.623  0.2732  0.1968 -0.2086
  813MPD2     H11970   4.297   0.910  12.589 -1.3121 -0.5667  3.2648
  813MPD2    H111971   4.284   0.542  12.823 -0.7983  0.8561 -0.1557
  813MPD2    H211972   4.420   0.553  12.419  1.2356  0.5517 -0.0894
  813MPD2    H311973   4.361   0.426  12.626 -2.0899 -0.0140  0.2048
  813MPD2     N11974   4.221   0.806  12.834 -0.4109  0.8403  0.3950
  813MPD2    H511975   4.217   0.907  12.833  0.1838  0.8678  0.4000
  813MPD2    N111976   4.429   0.803  12.383  0.0921 -0.1808  0.0317
  813MPD2    H711977   4.430   0.741  12.303 -0.5136  0.8443 -0.7668
  814MPD2     C11978   0.551   2.325  12.675  0.6009 -0.4363 -0.1208
  814MPD2    C111979   0.554   2.380  12.549  0.0591 -0.0960  0.0586
  814MPD2    C211980   0.604   2.509  12.526 -0.4085  0.6354 -0.1064
  814MPD2    C311981   0.652   2.570  12.636  0.4260 -0.0569  0.4194
  814MPD2    C411982   0.641   2.515  12.765 -0.7081  0.0488  0.1936
  814MPD2    C511983   0.591   2.396  12.785 -0.3527  0.8070  0.5353
  814MPD2     H11984   0.608   2.566  12.433 -0.0702 -0.4030 -0.7267
  814MPD2    H111985   0.684   2.569  12.849 -1.2745 -0.3863  0.7617
  814MPD2    H211986   0.509   2.226  12.691  0.4386 -0.3774 -0.1913
  814MPD2    H311987   0.580   2.366  12.888  0.3826  2.6591  1.1431
  814MPD2     N11988   0.713   2.703  12.637  0.2526  0.3543  0.1462
  814MPD2    H511989   0.728   2.745  12.728  2.1620 -0.1901  0.0782
  814MPD2    N111990   0.518   2.311  12.428 -0.0040  0.5147  0.6873
  814MPD2    H711991   0.541   2.356  12.340 -0.4215 -1.5062 -0.4622
  815MPD2     C11992   0.557   0.185  12.144  0.2388  0.1891  0.6398
  815MPD2    C111993   0.509   0.220  12.020  0.0713  1.0659  0.1897
  815MPD2    C211994   0.381   0.264  12.001  0.2132  0.5653 -0.1185
  815MPD2    C311995   0.295   0.269  12.105  0.2469 -0.2369  0.0152
  815MPD2    C411996   0.341   0.239  12.234  0.0322  0.0001  0.2653
  815MPD2    C511997   0.475   0.199  12.253 -0.6986  0.7245 -0.7197
  815MPD2     H11998   0.339   0.286  11.903 -0.2905  1.6937  0.3575
  815MPD2    H111999   0.278   0.249  12.322 -1.6380 -0.8010 -0.8392
  815MPD2    H212000   0.664   0.174  12.162  0.2676 -0.9896 -0.2316
  815MPD2    H312001   0.517   0.185  12.351  1.7973  0.4554 -1.8258
  815MPD2     N12002   0.164   0.289  12.077 -0.0214  0.0803  0.5242
  815MPD2    H512003   0.151   0.304  11.977 -0.1958 -0.8211  0.4125
  815MPD2    N112004   0.596   0.216  11.911 -0.2363  0.2444  0.0117
  815MPD2    H712005   0.687   0.178  11.934 -0.6096 -0.8376 -0.3450
  816MPD2     C12006   0.379   3.998  17.180  0.3354  0.7192 -0.1193
  816MPD2    C112007   0.457   4.089  17.242 -0.0591  0.1091 -0.1069
  816MPD2    C212008   0.594   4.075  17.234  0.0002  0.1676 -0.0145
  816MPD2    C312009   0.651   3.970  17.161 -0.0258  0.3991  0.0355
  816MPD2    C412010   0.575   3.868  17.101 -0.1943  0.1632  0.2978
  816MPD2    C512011   0.439   3.893  17.111  0.4515  0.0942  0.4290
  816MPD2     H12012   0.663   4.141  17.284  1.1634 -1.7182  0.8405
  816MPD2    H112013   0.610   3.782  17.045 -2.6699 -2.4471  2.7586
  816MPD2    H212014   0.272   4.002  17.192  0.3305  2.3997 -0.7686
  816MPD2    H312015   0.372   3.815  17.078  3.3425 -0.9777 -2.9688
  816MPD2     N12016   0.794   3.967  17.161 -0.0508 -0.7436 -0.0199
  816MPD2    H512017   0.850   4.048  17.187 -0.9779 -0.5349  1.2973
  816MPD2    N112018   0.399   4.192  17.322 -0.2127 -0.4593 -0.5938
  816MPD2    H712019   0.298   4.196  17.331 -0.1519 -1.0261  0.4276
  817MPD2     C12020   0.682   1.302  10.119 -0.5494 -0.1455 -0.3155
  817MPD2    C112021   0.677   1.226  10.004  0.4979 -0.6643 -0.2696
  817MPD2    C212022   0.629   1.285   9.883  0.4445  0.4491  0.7533
  817MPD2    C312023   0.601   1.422   9.873  1.0181 -0.7449 -0.4016
  817MPD2    C412024   0.606   1.492   9.996  0.3694 -0.3308  0.8147
  817MPD2    C512025   0.650   1.430  10.107  0.7204  0.0406  0.7737
  817MPD2     H12026   0.611   1.223   9.797  2.5889 -0.5185  0.9903
  817MPD2    H112027   0.573   1.595  10.005  0.9373 -0.2440  1.8235
  817MPD2    H212028   0.717   1.272  10.218  1.0057  2.1339 -0.1803
  817MPD2    H312029   0.651   1.489  10.198 -0.4538  1.1612  0.0639
  817MPD2     N12030   0.558   1.474   9.755  0.2628 -0.0777 -0.5142
  817MPD2    H512031   0.568   1.419   9.671  0.7497 -2.7114  1.2868
  817MPD2    N112032   0.711   1.087  10.001 -0.4484 -0.5501 -0.3892
  817MPD2    H712033   0.700   1.026   9.920  3.2404  0.5284 -1.7027
  818MPD2     C12034   3.929   1.653   9.707 -0.4759  0.2844 -0.2269
  818MPD2    C112035   3.997   1.588   9.807  0.7914 -0.1074 -0.7372
  818MPD2    C212036   4.095   1.504   9.762 -0.5809  0.0634  0.2947
  818MPD2    C312037   4.112   1.475   9.630 -0.1122 -0.5360  0.7105
  818MPD2    C412038   4.044   1.542   9.526  0.1673 -0.2144 -0.2821
  818MPD2    C512039   3.955   1.631   9.573 -0.3226  0.0657 -0.3659
  818MPD2     H12040   4.141   1.447   9.842  0.5724 -0.2721 -0.6226
  818MPD2    H112041   4.056   1.527   9.420 -1.9261 -0.9715 -0.3997
  818MPD2    H212042   3.844   1.718   9.725  0.2022  1.0856  0.1153
  818MPD2    H312043   3.891   1.682   9.502 -1.1062 -0.1323  0.1982
  818MPD2     N12044   4.195   1.368   9.591  0.1650  0.1904 -0.4561
  818MPD2    H512045   4.189   1.339   9.494 -1.8868  1.4902 -0.7250
  818MPD2    N112046   3.952   1.605   9.942 -0.0841  0.6658  0.4599
  818MPD2    H712047   4.004   1.552  10.012  0.0856 -0.6432 -0.6516
  819MPD2     C12048   1.874   2.483  15.669 -0.7289  0.5447  0.1328
  819MPD2    C112049   1.929   2.377  15.607 -0.6714 -0.5068  0.6253
  819MPD2    C212050   2.057   2.343  15.639 -0.1725  0.4084  0.5736
  819MPD2    C312051   2.124   2.415  15.732  0.1607 -0.2332  0.5512
  819MPD2    C412052   2.062   2.513  15.801  0.1537 -0.1067  0.4932
  819MPD2    C512053   1.937   2.548  15.770  0.7546  0.2949  0.3640
  819MPD2     H12054   2.116   2.264  15.596  0.1409  1.3494 -0.7218
  819MPD2    H112055   2.105   2.564  15.887  0.7289 -0.6500  0.5329
  819MPD2    H212056   1.772   2.519  15.657 -2.3558 -3.3070  2.1265
  819MPD2    H312057   1.896   2.639  15.813 -2.0883  0.4585 -2.7491
  819MPD2     N12058   2.266   2.397  15.735  0.5865  0.1258 -0.1913
  819MPD2    H512059   2.305   2.326  15.674 -0.2544 -0.7779  0.3119
  819MPD2    N112060   1.852   2.317  15.505  0.2557 -0.1597  0.6897
  819MPD2    H712061   1.761   2.358  15.487  0.5482  1.1754  2.2292
  820MPD2     C12062   1.262   2.565  14.777  0.5489 -0.1507  0.4189
  820MPD2    C112063   1.342   2.608  14.878 -0.0395  0.9110  0.0967
  820MPD2    C212064   1.431   2.521  14.936 -0.0899 -0.0287  0.7569
  820MPD2    C312065   1.444   2.388  14.899  0.8735 -0.1827  0.2154
  820MPD2    C412066   1.368   2.348  14.787  0.5416  0.5977  0.1311
  820MPD2    C512067   1.273   2.436  14.732  0.2197 -0.5411 -0.2024
  820MPD2     H12068   1.482   2.563  15.022 -0.5255 -0.6368  1.3161
  820MPD2    H112069   1.380   2.249  14.744  3.6085  0.8926  0.2948
  820MPD2    H212070   1.194   2.628  14.721 -2.2527 -2.0232  1.7753
  820MPD2    H312071   1.226   2.393  14.644 -0.4221 -0.2817  0.0136
  820MPD2     N12072   1.538   2.302  14.963 -0.2542  0.5166 -0.6144
  820MPD2    H512073   1.552   2.209  14.925 -0.4807 -0.5668  1.9725
  820MPD2    N112074   1.326   2.741  14.921 -0.1868  0.5172  0.5239
  820MPD2    H712075   1.244   2.786  14.882 -1.3672 -2.4311 -0.3232
  821MPD2     C12076   1.614   4.555  13.438 -0.0444  0.0421  0.0889
  821MPD2    C112077   1.699   4.450  13.416 -0.2978  0.0637 -0.0882
  821MPD2    C212078   1.816   4.478  13.350 -0.4588  0.3117  0.0865
  821MPD2    C312079   1.850   4.607  13.306  0.1059  0.0839  0.2185
  821MPD2    C412080   1.771   4.713  13.346 -0.2221 -0.4970 -0.2978
  821MPD2    C512081   1.657   4.689  13.415 -0.7786 -0.0698  0.4219
  821MPD2     H12082   1.868   4.387  13.325  0.9104  1.1106  0.0500
  821MPD2    H112083   1.787   0.088  13.305  1.7316 -0.5033  0.4598
  821MPD2    H212084   1.514   4.535  13.474 -0.5831  1.4208 -0.6068
  821MPD2    H312085   1.599   0.050  13.448 -0.6853  0.0530  0.2715
  821MPD2     N12086   1.959   4.637  13.222 -0.1262 -0.5252 -0.2521
  821MPD2    H512087   1.976   0.009  13.194  1.1357 -1.3487 -2.3113
  821MPD2    N112088   1.677   4.313  13.453  1.0693  0.0947  0.4180
  821MPD2    H712089   1.749   4.247  13.424 -0.2003 -0.8111 -0.6770
  822MPD2     C12090   2.235   3.867  15.731  0.1470 -0.0057 -0.7250
  822MPD2    C112091   2.325   3.875  15.834 -0.7142  0.1736  0.0395
  822MPD2    C212092   2.293   3.956  15.947  0.3384 -0.2997 -0.1664
  822MPD2    C312093   2.176   4.027  15.953 -0.7024 -0.1453 -0.1767
  822MPD2    C412094   2.087   4.017  15.845 -0.0898 -0.5715  0.0186
  822MPD2    C512095   2.122   3.942  15.735 -0.0187 -0.3043  0.1836
  822MPD2     H12096   2.369   3.956  16.024 -1.0412  3.1181  1.2305
  822MPD2    H112097   1.990   4.065  15.845 -1.8353 -4.1210 -1.0664
  822MPD2    H212098   2.248   3.810  15.640 -0.9524 -1.3892  0.0018
  822MPD2    H312099   2.065   3.946  15.643 -1.0341  1.1222  0.8848
  822MPD2     N12100   2.150   4.109  16.065  0.1472 -1.0956 -0.0290
  822MPD2    H512101   2.226   4.103  16.133  0.9194  1.1125 -0.6901
  822MPD2    N112102   2.448   3.807  15.837 -0.1766 -0.3183  0.1202
  822MPD2    H712103   2.501   3.825  15.922 -2.0264 -2.1683  1.6772
  823MPD2     C12104   2.177   4.069  16.900  0.1865  0.2519 -0.1606
  823MPD2    C112105   2.145   4.014  16.781 -0.4239 -0.2259 -0.2295
  823MPD2    C212106   2.150   3.881  16.768  0.0643  0.1677 -0.2748
  823MPD2    C312107   2.195   3.798  16.872  0.6890  0.1379  0.7124
  823MPD2    C412108   2.214   3.858  16.996 -0.1304  0.2102 -0.2457
  823MPD2    C512109   2.201   3.991  17.011 -0.1368 -0.9352  0.4667
  823MPD2     H12110   2.140   3.835  16.670 -0.1023  0.3951 -0.3655
  823MPD2    H112111   2.258   3.805  17.080 -1.7635  1.0048  1.1045
  823MPD2    H212112   2.186   4.176  16.908  0.6199  0.2120 -0.1269
  823MPD2    H312113   2.228   4.029  17.109  1.7915 -0.3901 -0.2700
  823MPD2     N12114   2.211   3.657  16.860  0.2242  0.0242  0.3192
  823MPD2    H512115   2.220   3.606  16.947 -0.1289 -4.5942 -2.3652
  823MPD2    N112116   2.119   4.105  16.674  0.2061  0.3901  0.4209
  823MPD2    H712117   2.147   4.201  16.691 -2.0586  1.5909 -2.5932
  824MPD2     C12118   2.863   3.055  15.671  0.5485  0.0801  0.0024
  824MPD2    C112119   2.924   3.177  15.656  0.1332 -0.4470  0.5667
  824MPD2    C212120   3.055   3.180  15.613 -0.6919 -0.3755 -0.3953
  824MPD2    C312121   3.119   3.069  15.573 -0.2134  0.0171  0.4181
  824MPD2    C412122   3.066   2.946  15.589  0.3771 -0.3142  0.3876
  824MPD2    C512123   2.937   2.944  15.641 -0.0851 -0.3166  0.3412
  824MPD2     H12124   3.095   3.279  15.593 -2.2873 -0.1259 -2.4390
  824MPD2    H112125   3.121   2.856  15.568  0.3018 -0.2814  0.0531
  824MPD2    H212126   2.761   3.032  15.697  0.5480  1.6061  1.3588
  824MPD2    H312127   2.892   2.848  15.663  0.8271 -0.5952  0.9789
  824MPD2     N12128   3.247   3.093  15.525 -0.2687  0.4533  0.0538
  824MPD2    H512129   3.275   3.190  15.534 -1.1636  0.8358 -1.3050
  824MPD2    N112130   2.867   3.297  15.710 -0.0863 -0.0578  0.5896
  824MPD2    H712131   2.933   3.374  15.715 -0.7350  0.4372  1.5209
  825MPD2     C12132   3.956   3.471  15.662 -0.0212  0.5459 -0.9880
  825MPD2    C112133   3.845   3.482  15.584  0.1174 -0.0011 -0.1343
  825MPD2    C212134   3.804   3.609  15.549  0.1559  0.2092  0.2332
  825MPD2    C312135   3.853   3.714  15.622  0.2474  0.1148 -0.1020
  825MPD2    C412136   3.972   3.702  15.691  0.1662  0.7549  0.3526
  825MPD2    C512137   4.026   3.580  15.706  0.5604  0.6329 -0.1767
  825MPD2     H12138   3.733   3.617  15.467 -0.3507  2.0787  0.8453
  825MPD2    H112139   4.024   3.785  15.736  1.1408  0.4824 -0.2613
  825MPD2    H212140   3.995   3.373  15.686 -0.3191  0.6513 -0.0674
  825MPD2    H312141   4.125   3.573  15.750  0.9697 -0.4038 -1.2524
  825MPD2     N12142   3.795   3.841  15.613  0.4381  0.1580 -0.8802
  825MPD2    H512143   3.833   3.916  15.671 -0.3353  0.1670 -0.3875
  825MPD2    N112144   3.787   3.364  15.537  0.0063  0.7954 -0.9537
  825MPD2    H712145   3.830   3.281  15.576 -0.6891  0.2281 -1.3988
  826MPD2     C12146   3.462   3.122  13.610 -0.9341  0.5076 -0.0572
  826MPD2    C112147   3.479   3.183  13.488  0.0130 -0.0052 -0.5506
  826MPD2    C212148   3.384   3.270  13.445 -0.0747  0.6665 -0.4159
  826MPD2    C312149   3.275   3.303  13.521 -0.2378 -0.0642 -0.4135
  826MPD2    C412150   3.258   3.237  13.641  0.7660  0.1312 -0.4014
  826MPD2    C512151   3.350   3.147  13.684 -0.2653  0.1266 -0.3878
  826MPD2     H12152   3.390   3.313  13.346  1.0077  1.7465  0.1121
  826MPD2    H112153   3.175   3.260  13.707  1.3696 -1.4357  0.9012
  826MPD2    H212154   3.541   3.069  13.660  0.0653  1.1662 -0.9400
  826MPD2    H312155   3.347   3.111  13.786 -0.7603 -0.3414 -0.5670
  826MPD2     N12156   3.169   3.394  13.501  0.4413  0.1915 -0.2414
  826MPD2    H512157   3.094   3.403  13.569  0.6391 -1.6573  0.2127
  826MPD2    N112158   3.605   3.164  13.430  0.1823 -0.4618  0.5153
  826MPD2    H712159   3.666   3.102  13.481  1.1390 -0.4571 -0.6235
  827MPD2     C12160   0.012   0.505   9.524 -0.1841  0.0253 -0.0519
  827MPD2    C112161   0.057   0.385   9.578  0.1284 -0.0346 -1.0508
  827MPD2    C212162   0.046   0.267   9.514 -0.5373  0.1621  0.3644
  827MPD2    C312163   4.718   0.264   9.386  0.0962  0.1497 -0.1393
  827MPD2    C412164   4.687   0.384   9.325  0.6460 -0.3968 -0.3860
  827MPD2    C512165   4.698   0.501   9.395 -0.2567 -0.1974 -1.0716
  827MPD2     H12166   0.058   0.170   9.561 -2.3705  0.4062  1.3344
  827MPD2    H112167   4.635   0.389   9.230  2.0076 -0.4975 -1.1352
  827MPD2    H212168   0.010   0.600   9.576  0.3961  0.2473 -0.4324
  827MPD2    H312169   4.663   0.595   9.355  0.6717  0.8511  0.5722
  827MPD2     N12170   4.693   0.139   9.326 -0.1245 -0.3430 -0.5068
  827MPD2    H512171   4.714   0.057   9.383  2.0844 -0.0746 -0.9287
  827MPD2    N112172   0.110   0.389   9.705  0.0574  0.0686 -0.4194
  827MPD2    H712173   0.092   0.481   9.744 -2.1632  0.0935 -1.4739
  828MPD2     C12174   2.592   4.120  12.435 -0.3494  0.4162 -0.3364
  828MPD2    C112175   2.590   4.212  12.332  0.2758  0.0095 -0.1558
  828MPD2    C212176   2.686   4.212  12.230  0.0951 -0.0315  0.8806
  828MPD2    C312177   2.790   4.116  12.238 -0.4913 -0.0696  0.0893
  828MPD2    C412178   2.793   4.036  12.348  0.4724 -0.2144  0.1787
  828MPD2    C512179   2.697   4.039  12.442  0.0271  0.0825 -0.3190
  828MPD2     H12180   2.674   4.278  12.145 -3.2787 -0.2447  1.1724
  828MPD2    H112181   2.869   3.960  12.359 -2.1932 -2.7693  0.8147
  828MPD2    H212182   2.526   4.113  12.521  0.0356  0.1425 -0.0620
  828MPD2    H312183   2.700   3.968  12.523 -3.0438 -1.3001 -1.4027
  828MPD2     N12184   2.890   4.095  12.141  0.6547  0.4135 -0.0742
  828MPD2    H512185   2.965   4.031  12.167 -0.6177 -1.2307 -0.4802
  828MPD2    N112186   2.478   4.300  12.321 -0.1536  0.0012 -0.2605
  828MPD2    H712187   2.474   4.357  12.237  0.0970  1.3539  0.6536
  829MPD2     C12188   2.337   0.172  11.757  0.0127  0.5848  0.5845
  829MPD2    C112189   2.204   0.149  11.787  0.0797  0.1173  0.3564
  829MPD2    C212190   2.173   0.067  11.894 -0.7197 -0.0984  0.2549
  829MPD2    C312191   2.272   0.002  11.968  0.2717 -0.1229  0.4490
  829MPD2    C412192   2.411   0.024  11.936  0.0322  0.5648 -0.0663
  829MPD2    C512193   2.436   0.109  11.830  0.7552 -0.4013 -0.0916
  829MPD2     H12194   2.069   0.043  11.912 -0.6807  0.1600  0.8056
  829MPD2    H112195   2.494   4.706  11.991 -0.4312 -1.9946 -1.3465
  829MPD2    H212196   2.374   0.228  11.673  0.7702  1.1491  1.2954
  829MPD2    H312197   2.538   0.130  11.801  0.7445 -0.9980 -0.5349
  829MPD2     N12198   2.250   4.633  12.069  0.2088  0.0466  0.0029
  829MPD2    H512199   2.333   4.586  12.104  0.7491  1.2858  0.3978
  829MPD2    N112200   2.117   0.210  11.702  0.8385  0.5382  0.7730
  829MPD2    H712201   2.155   0.262  11.624  0.3504 -0.4702 -0.1481
  830MPD2     C12202   3.079   2.421  15.714  0.8578 -0.4260 -0.1033
  830MPD2    C112203   2.963   2.408  15.647 -0.1381 -0.1728 -0.5372
  830MPD2    C212204   2.960   2.472  15.522  0.3632 -0.7441 -0.2773
  830MPD2    C312205   3.051   2.569  15.483 -0.2596 -0.0093 -0.5566
  830MPD2    C412206   3.162   2.589  15.556 -0.0669 -0.4073 -0.0466
  830MPD2    C512207   3.175   2.512  15.667 -0.2445 -0.1773  0.3721
  830MPD2     H12208   2.863   2.462  15.474  0.7445  1.1644 -1.4498
  830MPD2    H112209   3.237   2.654  15.514 -0.6132  0.0722 -0.2763
  830MPD2    H212210   3.104   2.368  15.805  2.2525  0.9242  0.3094
  830MPD2    H312211   3.262   2.529  15.730 -1.2359 -0.7363  1.8822
  830MPD2     N12212   3.040   2.651  15.369  0.2879  0.2903 -0.5619
  830MPD2    H512213   3.111   2.720  15.349  1.2941  0.0816  2.3411
  830MPD2    N112214   2.871   2.326  15.710  0.4846  0.0241 -0.6093
  830MPD2    H712215   2.894   2.298  15.805  0.5528  1.3769 -0.2321
  831MPD2     C12216   2.648   4.089  16.466 -0.0163  0.5817 -0.3617
  831MPD2    C112217   2.666   3.993  16.367 -0.4942  0.2373 -0.1793
  831MPD2    C212218   2.556   3.915  16.339  0.7647  0.4660  0.1939
  831MPD2    C312219   2.433   3.916  16.403  0.0170 -0.4399 -0.5148
  831MPD2    C412220   2.424   4.004  16.514 -0.2304 -0.6314  0.5116
  831MPD2    C512221   2.527   4.095  16.535  0.4850  0.2229 -0.2860
  831MPD2     H12222   2.558   3.863  16.244 -1.6741 -0.0001  0.4122
  831MPD2    H112223   2.336   4.017  16.575 -0.5105  0.2815 -0.0863
  831MPD2    H212224   2.731   4.158  16.469  1.4720 -1.3073  1.8718
  831MPD2    H312225   2.512   4.178  16.602  1.0080 -0.0453  0.1621
  831MPD2     N12226   2.321   3.846  16.361  0.2240 -0.8057  0.0498
  831MPD2    H512227   2.230   3.854  16.407  0.7059 -0.0555  0.8651
  831MPD2    N112228   2.773   3.985  16.275  0.4461  0.5544  0.6333
  831MPD2    H712229   2.766   3.921  16.197 -0.2602 -0.7988  1.7782
  832MPD2     C12230   1.335   0.292  17.112  0.4517  0.4602 -0.2071
  832MPD2    C112231   1.343   0.430  17.104 -0.1576 -0.3371  0.0436
  832MPD2    C212232   1.253   0.495  17.024  0.0338 -0.2969  0.9258
  832MPD2    C312233   1.166   0.413  16.947 -0.0532 -0.3510 -0.2849
  832MPD2    C412234   1.165   0.282  16.943 -0.2355 -0.0145  0.2200
  832MPD2    C512235   1.251   0.222  17.029 -0.5693 -0.1670 -0.4431
  832MPD2     H12236   1.226   0.597  17.049 -1.6957 -0.4537 -0.3118
  832MPD2    H112237   1.102   0.230  16.872  0.8278  0.0194 -0.7453
  832MPD2    H212238   1.412   0.230  17.158 -0.3776 -1.0287 -0.8175
  832MPD2    H312239   1.255   0.114  17.025 -2.2142 -0.2668  0.8209
  832MPD2     N12240   1.053   0.473  16.883 -0.6605 -0.1033 -0.5102
  832MPD2    H512241   0.973   0.419  16.853 -1.1412 -0.5915  1.6632
  832MPD2    N112242   1.430   0.494  17.196  0.3001  0.2501  0.1646
  832MPD2    H712243   1.467   0.438  17.273 -3.5438  0.6359  2.2990
  833MPD2     C12244   3.472   2.268  12.671  0.0000  0.1910  0.5428
  833MPD2    C112245   3.508   2.394  12.632 -0.1701 -0.2648 -0.1438
  833MPD2    C212246   3.607   2.400  12.530  0.3371  0.0919  0.3315
  833MPD2    C312247   3.660   2.284  12.470 -0.2595  0.5177  0.2088
  833MPD2    C412248   3.621   2.159  12.514  0.8399  0.1158 -0.1440
  833MPD2    C512249   3.524   2.153  12.613 -0.3220 -0.4190  0.3984
  833MPD2     H12250   3.628   2.503  12.501 -0.7222 -1.0610 -4.4466
  833MPD2    H112251   3.662   2.071  12.466 -0.5975 -0.2010 -0.7890
  833MPD2    H212252   3.395   2.263  12.748 -1.5033  4.1758 -0.7097
  833MPD2    H312253   3.488   2.054  12.638 -1.4999 -0.4473 -1.4340
  833MPD2     N12254   3.749   2.290  12.355 -0.0441  0.2877  0.0681
  833MPD2    H512255   3.783   2.205  12.312  0.3824 -0.3707  1.7514
  833MPD2    N112256   3.459   2.507  12.696  0.0978 -0.1731 -0.6223
  833MPD2    H712257   3.372   2.496  12.747 -0.0701  0.5692 -0.7488
  834MPD2     C12258   3.618   1.799  11.540  0.3301 -0.8241  0.4373
  834MPD2    C112259   3.562   1.921  11.508 -0.1328  0.5678  0.1585
  834MPD2    C212260   3.566   2.031  11.590 -0.8076  0.0891  0.3739
  834MPD2    C312261   3.621   2.019  11.714  0.0447 -0.0709  0.0718
  834MPD2    C412262   3.666   1.888  11.753 -0.5705 -0.4012 -0.6561
  834MPD2    C512263   3.672   1.781  11.667 -0.1724 -0.2101 -0.3834
  834MPD2     H12264   3.524   2.127  11.564  3.2659  2.0597  0.9763
  834MPD2    H112265   3.712   1.875  11.850  0.1880 -2.3276 -1.2782
  834MPD2    H212266   3.596   1.713  11.477 -0.1920 -1.0864  0.9733
  834MPD2    H312267   3.711   1.688  11.705  0.6786  1.2701  2.3836
  834MPD2     N12268   3.631   2.131  11.796 -0.3403  1.0262 -0.2103
  834MPD2    H512269   3.581   2.216  11.771 -1.1296 -0.2703 -2.9936
  834MPD2    N112270   3.497   1.923  11.376 -0.2802 -0.8353  0.2200
  834MPD2    H712271   3.474   1.835  11.330 -3.4342  1.8445 -3.2592
  835MPD2     C12272   3.352   0.575  10.902 -0.2512 -0.0958 -0.2079
  835MPD2    C112273   3.405   0.489  10.993 -0.7455  0.4917  0.1989
  835MPD2    C212274   3.348   0.473  11.117  0.6173  0.7758  0.2766
  835MPD2    C312275   3.226   0.536  11.142 -0.3972  1.1183 -0.1048
  835MPD2    C412276   3.169   0.623  11.049  0.0871  0.8116 -0.3008
  835MPD2    C512277   3.235   0.647  10.928  0.0594  0.4913 -0.3844
  835MPD2     H12278   3.393   0.405  11.189 -0.9281  0.7906  1.2638
  835MPD2    H112279   3.071   0.669  11.062 -0.2366 -0.1962  0.8482
  835MPD2    H212280   3.395   0.574  10.802 -1.6289  0.2931 -0.8005
  835MPD2    H312281   3.174   0.702  10.857 -0.4287  0.2454 -0.1579
  835MPD2     N12282   3.176   0.514  11.276 -0.4402  0.4634  0.3908
  835MPD2    H512283   3.228   0.452  11.338 -0.0953  1.8162  1.4516
  835MPD2    N112284   3.497   0.389  10.962 -0.6000 -0.0359  0.8582
  835MPD2    H712285   3.529   0.333  11.040  2.1517  1.5984  0.9218
  836MPD2     C12286   2.514   0.671  11.508  0.7238 -0.1122 -0.3535
  836MPD2    C112287   2.564   0.623  11.625 -0.2367  0.0622 -0.3814
  836MPD2    C212288   2.481   0.588  11.733  0.3586 -0.5897 -0.3420
  836MPD2    C312289   2.345   0.608  11.730 -0.0733  0.5693 -0.3890
  836MPD2    C412290   2.296   0.667  11.617 -0.2798  0.1678  0.5348
  836MPD2    C512291   2.380   0.693  11.506 -0.2467  0.4380 -0.1601
  836MPD2     H12292   2.530   0.534  11.813  1.6996  0.4084 -0.4791
  836MPD2    H112293   2.192   0.689  11.598 -0.0620  0.4576 -0.3363
  836MPD2    H212294   2.571   0.703  11.422  0.7376 -3.2227 -1.5113
  836MPD2    H312295   2.339   0.729  11.412  0.1288 -2.1159 -1.3025
  836MPD2     N12296   2.250   0.571  11.822  0.1416 -0.6715 -0.5825
  836MPD2    H512297   2.151   0.582  11.799 -0.1529  1.6135  1.7724
  836MPD2    N112298   2.705   0.603  11.625 -0.4658 -0.1086  0.7560
  836MPD2    H712299   2.753   0.631  11.541  0.1762  0.8687  1.4469
  837MPD2     C12300   1.485   4.506  10.079  0.7013  0.3163 -0.5850
  837MPD2    C112301   1.389   4.494   9.985  0.3012  0.3129  1.0627
  837MPD2    C212302   1.338   4.602   9.915 -0.0540 -0.5291  0.0456
  837MPD2    C312303   1.370   0.007   9.950 -0.0596  0.1130 -0.6533
  837MPD2    C412304   1.452   0.022  10.060 -0.3375  0.3837 -0.0768
  837MPD2    C512305   1.513   4.635  10.112 -0.6432  0.0610 -0.2559
  837MPD2     H12306   1.277   4.580   9.828  0.0607 -0.1806 -0.1253
  837MPD2    H112307   1.480   0.120  10.098 -2.0121  1.0030 -0.4026
  837MPD2    H212308   1.546   4.424  10.114  0.7664  1.1848  1.3120
  837MPD2    H312309   1.593   4.639  10.186 -0.3987 -0.1866 -0.5056
  837MPD2     N12310   1.313   0.108   9.874  0.1713  0.3253 -0.3794
  837MPD2    H512311   1.249   0.092   9.797  0.5390 -0.7397 -0.4652
  837MPD2    N112312   1.337   4.372   9.944  0.1199 -0.5968  0.2241
  837MPD2    H712313   1.279   4.361   9.862  0.1017  1.6366 -0.0545
  838MPD2     C12314   4.621   2.535  11.035  0.0484 -0.2411 -0.1154
  838MPD2    C112315   4.627   2.592  11.158  0.9835  0.0875  0.1440
  838MPD2    C212316   4.514   2.620  11.240  0.1835 -0.7023 -0.4901
  838MPD2    C312317   4.395   2.570  11.198  0.1872  0.6001  0.1787
  838MPD2    C412318   4.393   2.496  11.077 -0.1247  0.2364 -0.2112
  838MPD2    C512319   4.502   2.479  10.993 -0.3581  0.0171  0.5403
  838MPD2     H12320   4.530   2.676  11.332  3.6523 -1.2567 -0.7706
  838MPD2    H112321   4.305   2.440  11.050  1.4040 -1.2025 -2.1919
  838MPD2    H212322   4.706   2.524  10.968  1.2891  0.1024  1.3986
  838MPD2    H312323   4.491   2.440  10.893  1.6164  1.7807 -0.3600
  838MPD2     N12324   4.289   2.573  11.283 -0.2024 -0.0398  0.1260
  838MPD2    H512325   4.284   2.651  11.348 -1.9782 -0.3191  0.3321
  838MPD2    N112326   0.022   2.633  11.213  0.1998 -0.2201 -0.4778
  838MPD2    H712327   0.020   2.647  11.313 -0.7112 -0.7045 -0.4300
  839MPD2     C12328   4.711   2.246  11.961 -0.5159 -0.1466 -0.6685
  839MPD2    C112329   4.658   2.264  11.834  0.4807  0.0372  0.6197
  839MPD2    C212330   4.722   2.352  11.751 -0.2519  0.3825  0.1759
  839MPD2    C312331   0.098   2.441  11.790  0.2072 -0.1267  0.3774
  839MPD2    C412332   0.152   2.421  11.920 -0.0794 -0.0738  0.0578
  839MPD2    C512333   0.096   2.320  12.000 -0.0207 -0.1503 -0.3181
  839MPD2     H12334   4.691   2.339  11.648  0.9360 -0.0405 -0.1235
  839MPD2    H112335   0.240   2.476  11.952  2.2785 -3.0355 -1.3023
  839MPD2    H212336   4.665   2.177  12.030  4.1524 -2.8782 -0.2847
  839MPD2    H312337   0.140   2.300  12.097 -0.3689 -4.3133 -1.0389
  839MPD2     N12338   0.177   2.516  11.698  0.7769  0.0324  0.7450
  839MPD2    H512339   0.250   2.572  11.739 -1.0230  2.0279  1.2353
  839MPD2    N112340   4.542   2.198  11.786 -0.1904 -0.1509  0.4334
  839MPD2    H712341   4.500   2.229  11.698 -0.0033 -2.9602 -0.6370
  840MPD2     C12342   0.347   0.878  10.074  0.5375  0.5372  0.1048
  840MPD2    C112343   0.293   0.794  10.169 -0.9522  0.6477  0.4440
  840MPD2    C212344   0.303   0.828  10.307 -0.2617  0.1644 -0.4959
  840MPD2    C312345   0.371   0.940  10.341 -0.1112  0.7926 -0.3088
  840MPD2    C412346   0.423   1.017  10.244 -0.3291  0.4534  0.5254
  840MPD2    C512347   0.403   0.993  10.112  0.0301  0.2729  0.9995
  840MPD2     H12348   0.260   0.766  10.385  0.4587 -0.5368 -0.6482
  840MPD2    H112349   0.484   1.104  10.266  0.5508 -0.0527  0.0987
  840MPD2    H212350   0.334   0.848   9.970 -0.8841  0.3332  0.3490
  840MPD2    H312351   0.452   1.065  10.048  0.3320 -0.5636  0.3015
  840MPD2     N12352   0.391   0.982  10.477 -0.6139  0.1609 -0.1009
  840MPD2    H512353   0.448   1.066  10.482 -0.0301 -0.3423  1.6746
  840MPD2    N112354   0.253   0.666  10.115  0.4440  0.0153 -0.2776
  840MPD2    H712355   0.271   0.649  10.016 -2.0849 -0.0393 -0.7320
  841MPD2     C12356   4.696   4.706  14.067 -0.2045 -0.2595  0.2349
  841MPD2    C112357   4.652   4.655  14.193  0.4206 -0.0983  0.1137
  841MPD2    C212358   4.682   4.716  14.313  0.2695  0.5624  0.0452
  841MPD2    C312359   0.019   0.109  14.315  0.0265 -0.1383  0.1888
  841MPD2    C412360   0.070   0.159  14.194 -0.0171 -0.0118 -0.3287
  841MPD2    C512361   0.058   0.090  14.073  0.6678  0.0086 -0.1289
  841MPD2     H12362   4.654   4.676  14.410 -1.7928  2.5189  0.2733
  841MPD2    H112363   0.126   0.252  14.196 -0.1987  0.0958 -0.1780
  841MPD2    H212364   4.675   4.664  13.970 -1.0905 -1.1094  0.7984
  841MPD2    H312365   0.090   0.126  13.976 -2.0580  1.8485 -0.3656
  841MPD2     N12366   0.041   0.182  14.433 -0.4721  0.2067 -0.7205
  841MPD2    H512367   4.718   0.146  14.516  0.5730 -1.2224 -0.7561
  841MPD2    N112368   4.571   4.542  14.192 -0.5812 -0.3803 -0.4985
  841MPD2    H712369   4.551   4.511  14.287 -0.1858  1.3813  0.1706
  842MPD2     C12370   0.546   1.143  17.030  0.0519 -0.1732 -0.4566
  842MPD2    C112371   0.485   1.026  16.998  0.6404 -0.2795 -0.3759
  842MPD2    C212372   0.467   0.924  17.087  0.5186 -0.1565  0.2604
  842MPD2    C312373   0.520   0.942  17.219 -0.0054  0.5072  0.7252
  842MPD2    C412374   0.573   1.066  17.261  0.3249 -0.0722  0.7584
  842MPD2    C512375   0.586   1.162  17.165 -0.6327  0.1868  0.2719
  842MPD2     H12376   0.406   0.839  17.062  1.0902  0.1825 -2.3095
  842MPD2    H112377   0.620   1.076  17.358  2.0456 -0.5868 -0.0180
  842MPD2    H212378   0.567   1.221  16.958 -1.5320  1.1500  0.5077
  842MPD2    H312379   0.633   1.257  17.188  0.2418  0.3245 -2.1281
  842MPD2     N12380   0.490   0.849  17.323  0.0825  0.3016  0.4919
  842MPD2    H512381   0.466   0.886  17.415  0.7724 -0.0072  0.7986
  842MPD2    N112382   0.424   1.023  16.868  0.3138  0.0749 -0.5856
  842MPD2    H712383   0.441   1.107  16.814  0.5465 -0.3378 -1.1585
  843MPD2     C12384   2.106   0.801  17.479  0.5196 -0.1077  0.1953
  843MPD2    C112385   2.175   0.749  17.583  0.1467  0.0147  0.4685
  843MPD2    C212386   2.283   0.819  17.638  0.6775 -0.2835 -0.5683
  843MPD2    C312387   2.331   0.931  17.576 -0.2762  0.2239 -0.2776
  843MPD2    C412388   2.275   0.970  17.458 -0.2299 -0.3538 -0.0779
  843MPD2    C512389   2.160   0.905  17.413 -0.5297 -0.1378  0.1244
  843MPD2     H12390   2.329   0.769   0.024  0.1819  1.9001  0.9898
  843MPD2    H112391   2.304   1.060  17.405  0.9406  0.1071  1.3548
  843MPD2    H212392   2.021   0.746  17.440  0.2709  1.2613 -1.2091
  843MPD2    H312393   2.103   0.938  17.326 -0.3703 -2.7556 -0.9815
  843MPD2     N12394   2.437   1.003  17.643 -0.2217  0.2105  0.3004
  843MPD2    H512395   2.460   1.091  17.598 -1.4083  0.0816 -0.5667
  843MPD2    N112396   2.120   0.627  17.629 -0.0660 -0.1070  0.1638
  843MPD2    H712397   2.039   0.599  17.574  0.5500 -0.3434 -0.6250
  844MPD2     C12398   0.717   0.387  16.380 -0.3157  0.4418  0.1633
  844MPD2    C112399   0.817   0.289  16.385  0.4787 -0.1656  0.4250
  844MPD2    C212400   0.943   0.329  16.428  0.6511  0.0581 -0.4237
  844MPD2    C312401   0.965   0.455  16.470 -0.2832  0.6560 -0.1715
  844MPD2    C412402   0.855   0.541  16.490  0.3649  0.0928 -0.1057
  844MPD2    C512403   0.736   0.510  16.431 -0.4978 -0.9889  0.2488
  844MPD2     H12404   1.021   0.256  16.419  1.1786  0.6873 -0.9240
  844MPD2    H112405   0.871   0.642  16.527 -1.5029  0.5814 -0.6549
  844MPD2    H212406   0.619   0.373  16.337 -0.9753 -1.0664  2.1803
  844MPD2    H312407   0.662   0.589  16.434  1.7437  1.1392 -0.2014
  844MPD2     N12408   1.098   0.487  16.515  0.2114 -0.3775  0.4312
  844MPD2    H512409   1.169   0.415  16.511 -2.0367 -2.5492 -0.0993
  844MPD2    N112410   0.805   0.147  16.359 -0.6888  0.1105  0.2205
  844MPD2    H712411   0.879   0.080  16.379 -2.9256 -2.4355 -0.0576
  845MPD2     C12412   1.768   1.252  16.845 -0.1906 -0.1488 -0.1435
  845MPD2    C112413   1.651   1.236  16.915 -0.1528 -0.1549  0.1069
  845MPD2    C212414   1.569   1.130  16.894 -0.6594 -0.0032 -0.7578
  845MPD2    C312415   1.596   1.036  16.797  0.2051 -0.5312 -0.3502
  845MPD2    C412416   1.711   1.051  16.726 -0.0186 -0.1307 -0.4639
  845MPD2    C512417   1.794   1.161  16.744 -0.2103  0.4053 -0.2965
  845MPD2     H12418   1.480   1.119  16.955 -0.2820 -0.1391 -0.2361
  845MPD2    H112419   1.750   0.987  16.647  0.5366  1.6049 -1.6000
  845MPD2    H212420   1.842   1.331  16.855 -0.6006  0.2098  0.0372
  845MPD2    H312421   1.882   1.185  16.686  0.7069 -0.6017  0.6872
  845MPD2     N12422   1.510   0.924  16.791 -0.2687  0.5993  0.0739
  845MPD2    H512423   1.429   0.922  16.853  1.8541  0.8665  2.8530
  845MPD2    N112424   1.617   1.329  17.007  0.1975  0.2355 -1.6504
  845MPD2    H712425   1.684   1.406  17.006 -0.3651  0.7259 -1.6308
  846MPD2     C12426   2.869   1.464  13.499  0.6009 -0.0524 -0.0248
  846MPD2    C112427   2.818   1.589  13.533  0.7796  0.0861 -0.2515
  846MPD2    C212428   2.800   1.626  13.661  0.6244 -0.0849 -0.4053
  846MPD2    C312429   2.847   1.546  13.764 -0.0782 -0.6417 -0.0988
  846MPD2    C412430   2.913   1.429  13.726 -0.0155 -0.0686  0.3075
  846MPD2    C512431   2.927   1.392  13.597 -0.3938  0.3762 -0.2584
  846MPD2     H12432   2.745   1.717  13.687  1.4667  0.1116  0.7203
  846MPD2    H112433   2.951   1.357  13.797  0.9129  0.1129 -0.0075
  846MPD2    H212434   2.873   1.429  13.397  1.9659  3.0309 -1.0365
  846MPD2    H312435   2.962   1.292  13.575 -1.4511 -0.4899  1.9933
  846MPD2     N12436   2.819   1.583  13.900  0.3005  0.3340  0.4789
  846MPD2    H512437   2.755   1.661  13.908 -2.0114 -1.5746  0.2754
  846MPD2    N112438   2.794   1.683  13.433  0.6946  0.2154  0.3652
  846MPD2    H712439   2.794   1.781  13.460  0.7056  0.3638 -0.1625
  847MPD2     C12440   2.496   2.290  14.131 -0.3683  0.5093 -0.0132
  847MPD2    C112441   2.608   2.366  14.113  0.0411 -0.7563  0.0612
  847MPD2    C212442   2.713   2.346  14.198  0.5377  0.5763  0.0461
  847MPD2    C312443   2.705   2.261  14.302  0.6883  0.3357 -0.0233
  847MPD2    C412444   2.594   2.183  14.320  0.7345 -0.1050 -0.3401
  847MPD2    C512445   2.489   2.201  14.235 -0.0156  0.2732 -0.6761
  847MPD2     H12446   2.803   2.406  14.193  2.6876 -2.5520  1.0919
  847MPD2    H112447   2.579   2.116  14.403  0.2654 -0.5789 -0.8053
  847MPD2    H212448   2.417   2.291  14.056 -0.8095 -0.6612  0.4307
  847MPD2    H312449   2.408   2.132  14.253 -0.9577  1.7759  0.8431
  847MPD2     N12450   2.810   2.274  14.391 -0.3865  0.2120 -0.2527
  847MPD2    H512451   2.885   2.339  14.369 -0.9516  0.4195 -1.5223
  847MPD2    N112452   2.629   2.462  14.016  0.5912 -0.0192  0.4568
  847MPD2    H712453   2.725   2.496  14.005  0.5911 -1.1866 -3.2825
  848MPD2     C12454   0.604   0.881  16.373 -0.1409 -0.0321 -0.4290
  848MPD2    C112455   0.693   0.929  16.466 -0.8852  0.6257 -0.1593
  848MPD2    C212456   0.781   1.027  16.432 -0.2902 -0.1432 -0.3720
  848MPD2    C312457   0.773   1.086  16.303 -0.2266 -0.4186  0.4671
  848MPD2    C412458   0.686   1.041  16.209 -0.9768 -0.2050 -0.5084
  848MPD2    C512459   0.603   0.934  16.246  0.0433  0.4120 -0.4705
  848MPD2     H12460   0.854   1.061  16.505  0.1580 -0.4466 -0.6814
  848MPD2    H112461   0.685   1.080  16.108 -0.7176 -1.3983 -0.9648
  848MPD2    H212462   0.531   0.803  16.392 -0.7089  0.9863  1.6118
  848MPD2    H312463   0.534   0.897  16.171 -0.2613 -0.8704  0.4516
  848MPD2     N12464   0.851   1.200  16.259 -0.1245 -0.5046  0.0716
  848MPD2    H512465   0.846   1.232  16.163  0.5150 -1.0481 -0.1517
  848MPD2    N112466   0.698   0.891  16.599  0.0759 -0.2724 -0.6563
  848MPD2    H712467   0.763   0.944  16.656  0.1254  0.5668 -1.4933
  849MPD2     C12468   4.508   0.847  14.105  0.2640  0.5818  0.3993
  849MPD2    C112469   4.607   0.921  14.046 -0.1417  0.5209  0.3462
  849MPD2    C212470   0.007   0.924  14.105  0.2340  0.7231 -0.1533
  849MPD2    C312471   0.040   0.863  14.225  0.0073 -0.0534  1.0291
  849MPD2    C412472   4.659   0.795  14.284  0.2175 -0.3407  0.0700
  849MPD2    C512473   4.532   0.789  14.226  0.0578 -0.4284 -0.9554
  849MPD2     H12474   0.086   0.973  14.050  1.0154  0.6335  0.8951
  849MPD2    H112475   4.673   0.748  14.380  0.6664 -0.1931  0.0764
  849MPD2    H212476   4.415   0.817  14.058  0.8505 -0.5719 -0.0218
  849MPD2    H312477   4.458   0.721  14.268  0.8951 -0.4368  0.5029
  849MPD2     N12478   0.169   0.862  14.276 -0.8428  0.8284 -0.8155
  849MPD2    H512479   0.242   0.913  14.226 -1.5535 -0.4745 -3.1652
  849MPD2    N112480   4.580   0.984  13.924  0.6131 -0.0095  0.2404
  849MPD2    H712481   4.491   0.965  13.878  0.8684 -1.6657  0.4250
  850MPD2     C12482   2.561   3.848  14.816 -0.0104  1.0929  0.0674
  850MPD2    C112483   2.568   3.791  14.938  0.2530  0.0463  0.9685
  850MPD2    C212484   2.698   3.762  14.985  0.4677  0.3170 -0.4150
  850MPD2    C312485   2.810   3.794  14.907 -0.2362 -0.3669  0.6178
  850MPD2    C412486   2.793   3.855  14.788 -0.2508  0.2757  0.0227
  850MPD2    C512487   2.668   3.896  14.751 -0.1044 -0.7672 -0.3907
  850MPD2     H12488   2.707   3.718  15.084 -0.3203 -1.7475 -1.2502
  850MPD2    H112489   2.879   3.885  14.729  0.1356 -0.6904  0.0963
  850MPD2    H212490   2.463   3.863  14.772 -0.1307 -2.0799 -0.7981
  850MPD2    H312491   2.647   3.965  14.670 -1.8510 -0.7857  0.0565
  850MPD2     N12492   2.947   3.759  14.949 -0.1902 -0.6671 -0.1145
  850MPD2    H512493   3.026   3.776  14.888  1.1349 -0.3884  1.6880
  850MPD2    N112494   2.452   3.762  15.013 -0.0101 -0.0613 -0.2490
  850MPD2    H712495   2.478   3.708  15.094  2.0230 -0.2597 -1.0281
  851MPD2     C12496   2.676   3.542  15.432 -0.7743 -0.3621 -0.2612
  851MPD2    C112497   2.582   3.456  15.394  0.1779  0.7866 -0.2219
  851MPD2    C212498   2.623   3.329  15.356  0.3845  0.0552 -0.5016
  851MPD2    C312499   2.760   3.299  15.339  0.3485  0.6135  0.8306
  851MPD2    C412500   2.856   3.388  15.375 -0.1699 -0.2389  0.3268
  851MPD2    C512501   2.807   3.511  15.416  0.0852  0.3656 -0.2382
  851MPD2     H12502   2.547   3.255  15.332 -1.7255  1.7481  0.9585
  851MPD2    H112503   2.962   3.374  15.360 -0.1656 -0.7753  0.8799
  851MPD2    H212504   2.655   3.644  15.462  0.4128  0.0439 -0.8236
  851MPD2    H312505   2.881   3.587  15.440 -0.9083  1.7697 -1.6434
  851MPD2     N12506   2.789   3.167  15.292  0.4969  0.1698 -0.3695
  851MPD2    H512507   2.706   3.115  15.266  0.4843 -0.3534  0.7349
  851MPD2    N112508   2.448   3.497  15.402  0.7644  0.5110 -0.3137
  851MPD2    H712509   2.434   3.592  15.437 -1.2315 -0.8840  2.6515
  852MPD2     C12510   1.943   1.612   9.982 -0.2378 -0.0584 -0.0965
  852MPD2    C112511   2.038   1.611  10.087  0.2881  0.1670  0.9238
  852MPD2    C212512   2.122   1.717  10.100 -0.5478  0.7613  0.4478
  852MPD2    C312513   2.121   1.823  10.008 -1.0878 -0.7271 -0.2767
  852MPD2    C412514   2.041   1.807   9.899  0.2181  0.7726  0.5416
  852MPD2    C512515   1.946   1.711   9.888  0.1040 -0.2656 -0.1153
  852MPD2     H12516   2.191   1.714  10.184  1.3973 -0.8444 -1.2077
  852MPD2    H112517   2.039   1.889   9.828 -0.1322  0.2084 -0.0914
  852MPD2    H212518   1.887   1.521   9.965  2.1217 -1.8153  1.3874
  852MPD2    H312519   1.885   1.700   9.799  1.7257 -1.9056 -1.0368
  852MPD2     N12520   2.207   1.936  10.022 -0.2847  0.3411  0.2144
  852MPD2    H512521   2.263   1.937  10.107 -1.8988 -0.2670  1.2938
  852MPD2    N112522   2.055   1.505  10.183  0.3660  0.0966  0.2409
  852MPD2    H712523   2.126   1.509  10.255  1.4190  1.3194 -0.8713
  853MPD2     C12524   4.101   1.136  12.267  0.0762 -0.2141 -0.3201
  853MPD2    C112525   4.120   1.262  12.217  0.1892  0.3695 -0.3930
  853MPD2    C212526   4.131   1.286  12.080  0.1937  0.3761 -0.5820
  853MPD2    C312527   4.119   1.185  11.991 -0.5215  0.4115  0.2880
  853MPD2    C412528   4.112   1.053  12.038 -0.0922  0.1808 -0.4630
  853MPD2    C512529   4.103   1.032  12.176  0.4157 -0.2468  0.3182
  853MPD2     H12530   4.133   1.384  12.034  1.3346  0.2216 -0.8514
  853MPD2    H112531   4.136   0.964  11.981  1.5310  0.3182 -0.0044
  853MPD2    H212532   4.088   1.109  12.371  2.2818  1.7319  0.4469
  853MPD2    H312533   4.103   0.928  12.206  1.6834 -0.1444  0.6700
  853MPD2     N12534   4.136   1.204  11.851 -0.2998 -0.0650  0.9529
  853MPD2    H512535   4.138   1.115  11.803  0.9596 -0.7905  2.3317
  853MPD2    N112536   4.139   1.360  12.318 -0.2419  0.3369  0.2561
  853MPD2    H712537   4.149   1.322  12.412  1.3907 -0.5114 -0.2514
  854MPD2     C12538   1.260   1.051  12.590 -0.0690  0.2842  0.1405
  854MPD2    C112539   1.284   1.185  12.590  0.0203 -0.0367 -0.6530
  854MPD2    C212540   1.401   1.226  12.653 -0.1788  0.3688  0.0870
  854MPD2    C312541   1.484   1.125  12.718  1.0074  0.5339  0.5631
  854MPD2    C412542   1.445   0.992  12.724 -0.4464  0.0638  0.3468
  854MPD2    C512543   1.323   0.950  12.661 -0.2577 -0.5992  0.0415
  854MPD2     H12544   1.437   1.328  12.659 -1.4802  0.7293  1.6396
  854MPD2    H112545   1.494   0.927  12.795 -1.2260  0.1510  0.9566
  854MPD2    H212546   1.175   1.008  12.537  0.0717  2.4398 -1.8147
  854MPD2    H312547   1.292   0.847  12.657 -1.0666 -0.3614  0.2402
  854MPD2     N12548   1.611   1.149  12.773 -0.3149 -0.6383 -0.8419
  854MPD2    H512549   1.664   1.065  12.793  0.6632 -0.3710 -2.3377
  854MPD2    N112550   1.196   1.260  12.518  0.0683  0.2514  0.2146
  854MPD2    H712551   1.112   1.215  12.483 -0.6478  1.9665 -0.3020
  855MPD2     C12552   1.721   1.444  13.704  0.1545 -0.1788 -0.2282
  855MPD2    C112553   1.742   1.311  13.666 -1.0807  0.1217  0.5814
  855MPD2    C212554   1.774   1.283  13.537  0.3781 -1.0442 -0.2927
  855MPD2    C312555   1.784   1.382  13.436  0.3198 -0.8702  1.2403
  855MPD2    C412556   1.751   1.508  13.475 -0.7221 -0.5174 -0.2370
  855MPD2    C512557   1.724   1.535  13.600 -0.3552  0.1902 -0.4148
  855MPD2     H12558   1.790   1.180  13.509  0.9391 -0.8816 -0.5786
  855MPD2    H112559   1.757   1.595  13.411  1.9655 -0.4386  0.0934
  855MPD2    H212560   1.686   1.468  13.804 -0.3578 -0.1465 -0.4163
  855MPD2    H312561   1.702   1.639  13.618 -0.1578  0.4383 -1.6227
  855MPD2     N12562   1.804   1.349  13.296 -0.6868 -0.4935  0.0218
  855MPD2    H512563   1.796   1.431  13.236 -0.8056 -0.3707  0.2079
  855MPD2    N112564   1.707   1.208  13.763  0.3869  0.4207  0.0109
  855MPD2    H712565   1.667   1.246  13.848 -0.2461 -1.8695  0.7272
  856MPD2     C12566   3.838   1.947  13.609 -0.1753 -0.2453  0.5929
  856MPD2    C112567   3.879   2.040  13.706 -0.0770  0.2243  0.2032
  856MPD2    C212568   3.786   2.133  13.755  0.6963 -0.9559 -0.3246
  856MPD2    C312569   3.655   2.128  13.710  0.0003  0.1575 -0.2655
  856MPD2    C412570   3.619   2.034  13.615  0.9081  0.0952 -0.0047
  856MPD2    C512571   3.709   1.941  13.576 -0.4971  0.0442  0.1002
  856MPD2     H12572   3.818   2.201  13.834 -0.9068 -0.2610 -0.2747
  856MPD2    H112573   3.519   2.022  13.573  0.9767  0.1259 -0.1771
  856MPD2    H212574   3.906   1.875  13.565 -0.0712  0.0446  0.2839
  856MPD2    H312575   3.678   1.865  13.504 -0.4820 -0.0337  0.1759
  856MPD2     N12576   3.556   2.221  13.750 -0.0007 -0.2811  0.5278
  856MPD2    H512577   3.467   2.226  13.702  0.2988  0.0652  0.0096
  856MPD2    N112578   4.007   2.043  13.756  0.0617  0.7987  0.5961
  856MPD2    H712579   4.029   2.119  13.820  1.4229 -0.0233  1.1140
  857MPD2     C12580   0.485   4.529  12.839 -0.3304  0.2501 -0.2116
  857MPD2    C112581   0.610   4.526  12.783 -0.3137  0.0624  0.0573
  857MPD2    C212582   0.693   4.634  12.800  0.9196 -0.5127  0.2323
  857MPD2    C312583   0.647   0.021  12.874  0.6682  0.0587 -0.4273
  857MPD2    C412584   0.517   0.023  12.935 -0.3855 -0.2903  0.8180
  857MPD2    C512585   0.443   4.636  12.916 -0.4630 -0.7052  0.0205
  857MPD2     H12586   0.797   4.639  12.768  0.3122  1.7780 -1.3408
  857MPD2    H112587   0.482   0.097  13.006  2.8188 -0.6608  2.7853
  857MPD2    H212588   0.414   4.447  12.843 -0.2313  0.0788 -1.9620
  857MPD2    H312589   0.344   4.626  12.959  0.2400 -1.4490  1.4475
  857MPD2     N12590   0.726   0.130  12.885 -0.6900  0.3681  0.2719
  857MPD2    H512591   0.818   0.130  12.841 -0.9552  1.2455 -0.2741
  857MPD2    N112592   0.648   4.405  12.721  0.4759  0.1695  0.4811
  857MPD2    H712593   0.581   4.329  12.725  3.3917 -2.5921 -3.5011
  858MPD2     C12594   1.107   2.880  16.971 -0.4910 -0.1788  0.7091
  858MPD2    C112595   1.244   2.872  16.993  0.8560  0.5606 -0.2110
  858MPD2    C212596   1.299   2.950  17.097  0.2026 -0.5177  0.3736
  858MPD2    C312597   1.213   3.019  17.188  0.2492  0.5816  0.3831
  858MPD2    C412598   1.080   3.022  17.158 -0.1170  0.1163  0.0900
  858MPD2    C512599   1.029   2.955  17.058 -0.8545 -0.3476  0.4176
  858MPD2     H12600   1.404   2.941  17.121  0.2487 -2.3849 -0.5420
  858MPD2    H112601   1.016   3.078  17.225  0.0707  0.0350  0.3369
  858MPD2    H212602   1.066   2.822  16.889  1.3261  1.2845 -1.2038
  858MPD2    H312603   0.923   2.955  17.038 -1.2034 -1.2947  2.2538
  858MPD2     N12604   1.262   3.081  17.301 -0.6808 -0.2195 -0.0027
  858MPD2    H512605   1.202   3.142  17.355 -0.3447 -0.1843  0.3287
  858MPD2    N112606   1.325   2.790  16.903 -0.3748 -0.7221  0.2642
  858MPD2    H712607   1.282   2.731  16.833  1.2118 -3.4859  1.6448
  859MPD2     C12608   4.553   0.562  14.851 -0.5511  0.4199  0.5328
  859MPD2    C112609   4.595   0.631  14.962  0.3957  0.1295 -0.4399
  859MPD2    C212610   4.555   0.580  15.090  0.2039 -0.1734 -0.4529
  859MPD2    C312611   4.468   0.469  15.097 -0.4911  0.0325 -0.0806
  859MPD2    C412612   4.422   0.407  14.985  0.7244 -0.4820  0.0144
  859MPD2    C512613   4.468   0.456  14.864 -0.4095 -0.3602  0.3156
  859MPD2     H12614   4.589   0.633  15.178 -0.4962 -0.8732  0.2491
  859MPD2    H112615   4.361   0.318  14.992  0.4618 -0.5160 -2.7644
  859MPD2    H212616   4.589   0.584  14.751  2.3978  0.7140  1.6336
  859MPD2    H312617   4.435   0.399  14.777  0.9011  1.0053 -1.0548
  859MPD2     N12618   4.425   0.409  15.220  0.0993 -0.6528 -0.0740
  859MPD2    H512619   4.365   0.328  15.209  1.2095 -1.7583  1.9514
  859MPD2    N112620   4.685   0.741  14.951  0.4047 -0.7262 -0.1301
  859MPD2    H712621   4.699   0.770  14.854 -1.0444  1.4735  0.3176
  860MPD2     C12622   2.435   1.541  11.884 -0.5217  0.2435 -0.0694
  860MPD2    C112623   2.483   1.452  11.972 -0.2516 -0.0520  0.3874
  860MPD2    C212624   2.437   1.320  11.960  0.2671 -0.1150  0.2073
  860MPD2    C312625   2.333   1.286  11.865  0.0077 -0.2976 -0.0681
  860MPD2    C412626   2.298   1.381  11.777 -0.7860 -0.1244 -0.1153
  860MPD2    C512627   2.348   1.509  11.779  0.5803  0.5663  0.0306
  860MPD2     H12628   2.472   1.248  12.033  0.2185  1.8403  2.1656
  860MPD2    H112629   2.225   1.354  11.701 -1.1174  0.4945 -0.0161
  860MPD2    H212630   2.480   1.638  11.871 -1.3001  0.5042 -0.8419
  860MPD2    H312631   2.318   1.581  11.704 -0.6111  0.1540  0.1090
  860MPD2     N12632   2.275   1.155  11.877 -0.1730 -0.8687  0.2303
  860MPD2    H512633   2.313   1.093  11.948  2.3150 -0.1155 -0.4575
  860MPD2    N112634   2.595   1.482  12.061  0.0873 -0.3231 -0.5720
  860MPD2    H712635   2.629   1.399  12.107  2.1899  0.7140 -0.2308
  861MPD2     C12636   1.416   4.184  11.090 -0.1086  0.3943  0.2690
  861MPD2    C112637   1.314   4.138  11.170  0.6501  0.3167  0.1246
  861MPD2    C212638   1.196   4.116  11.105 -0.0346 -0.0282 -0.5142
  861MPD2    C312639   1.172   4.145  10.968 -0.3544 -0.5357  0.3507
  861MPD2    C412640   1.280   4.186  10.888  0.2759  1.0940 -1.0359
  861MPD2    C512641   1.402   4.206  10.954 -0.2318 -0.0762  0.4086
  861MPD2     H12642   1.116   4.096  11.176  0.8322 -0.2540  0.4049
  861MPD2    H112643   1.275   4.216  10.784 -3.1891  1.7449 -0.6810
  861MPD2    H212644   1.516   4.199  11.129 -1.0335  2.8491  1.6904
  861MPD2    H312645   1.484   4.216  10.885 -0.9065 -1.2923 -0.5677
  861MPD2     N12646   1.045   4.140  10.908  0.3002  0.0682  0.3445
  861MPD2    H512647   1.047   4.164  10.809 -1.8055 -0.1959  0.2344
  861MPD2    N112648   1.320   4.118  11.309  0.4067 -0.6343  0.0663
  861MPD2    H712649   1.236   4.085  11.355  0.4080 -2.2398 -1.0698
  862MPD2     C12650   0.733   4.145  10.252 -0.0413  0.2849 -0.1132
  862MPD2    C112651   0.836   4.129  10.338 -0.0060 -0.1830  0.8619
  862MPD2    C212652   0.944   4.059  10.302 -1.0347  0.6299  0.1117
  862MPD2    C312653   0.951   3.994  10.184 -0.3143  0.2323  0.2766
  862MPD2    C412654   0.856   4.017  10.084  0.0070  0.3187  0.0308
  862MPD2    C512655   0.750   4.091  10.125 -0.1311  0.2238 -0.0939
  862MPD2     H12656   1.024   4.059  10.375 -1.4350 -0.5491  0.5417
  862MPD2    H112657   0.876   3.981   9.984 -0.0598 -0.1567  0.1889
  862MPD2    H212658   0.642   4.201  10.272 -0.7798 -1.8351  2.4205
  862MPD2    H312659   0.671   4.111  10.054 -0.7855  1.5753  1.0089
  862MPD2     N12660   1.062   3.911  10.152  0.5778 -0.2501  0.1093
  862MPD2    H512661   1.072   3.889  10.054  1.4341  2.5269 -0.4334
  862MPD2    N112662   0.837   4.174  10.470 -0.0579  0.1538 -0.1104
  862MPD2    H712663   0.923   4.154  10.521  0.2989  1.3758 -0.2228
  863MPD2     C12664   4.545   2.131  16.586 -0.3483 -0.6776 -0.4014
  863MPD2    C112665   4.426   2.084  16.643  0.4088 -0.0272  0.1019
  863MPD2    C212666   4.427   2.042  16.777  0.3513 -0.6568  0.3082
  863MPD2    C312667   4.540   2.073  16.857 -0.3145 -0.2989 -0.3904
  863MPD2    C412668   4.646   2.133  16.796 -0.2526 -0.0949 -0.5648
  863MPD2    C512669   4.652   2.159  16.666 -0.3202 -0.1270  0.4365
  863MPD2     H12670   4.348   1.984  16.824  1.4197 -1.2690  1.3372
  863MPD2    H112671   0.008   2.151  16.859 -2.9003 -1.1424  3.3287
  863MPD2    H212672   4.556   2.157  16.482 -1.0245  1.3000  0.0123
  863MPD2    H312673   0.020   2.198  16.625  0.3413 -0.5638  1.5098
  863MPD2     N12674   4.559   2.027  16.990  0.1387  0.0339  0.2129
  863MPD2    H512675   4.645   2.057  17.033  0.3280 -0.4417  0.1706
  863MPD2    N112676   4.321   2.064  16.550 -0.0133 -0.1321 -0.1404
  863MPD2    H712677   4.336   2.084  16.452 -4.0215  1.0625 -0.5239
  864MPD2     C12678   0.100   3.224  16.242  0.4718 -0.1320 -0.3222
  864MPD2    C112679   0.098   3.153  16.358  0.9478 -0.1683 -0.5535
  864MPD2    C212680   0.081   3.213  16.481  0.3628  0.4683  0.4085
  864MPD2    C312681   0.059   3.346  16.482  0.9165  0.1607  0.5209
  864MPD2    C412682   0.066   3.422  16.371 -0.0850  0.2951 -0.5684
  864MPD2    C512683   0.081   3.359  16.250 -0.1894 -0.4038 -0.0174
  864MPD2     H12684   0.089   3.160  16.575 -3.2118  1.6739  1.3949
  864MPD2    H112685   0.058   3.530  16.365  1.3071  0.3884 -0.8693
  864MPD2    H212686   0.126   3.184  16.145 -4.7808 -1.5014 -1.1501
  864MPD2    H312687   0.092   3.416  16.159  0.5253  0.7487  0.7913
  864MPD2     N12688   0.034   3.400  16.613  0.8761  0.3150 -0.2336
  864MPD2    H512689   0.044   3.339  16.693 -2.7558  0.0145  0.0030
  864MPD2    N112690   0.124   3.011  16.354  0.1951  0.5404  0.3504
  864MPD2    H712691   0.164   2.966  16.272  1.7987 -1.3194  2.1341
  865MPD2     C12692   0.817   3.852  16.658 -0.4224  0.0291 -0.3841
  865MPD2    C112693   0.797   3.717  16.643  0.9147 -0.3971  0.0489
  865MPD2    C212694   0.688   3.657  16.708  0.0324 -0.1178  0.3451
  865MPD2    C312695   0.587   3.736  16.757 -0.0594  0.3180  0.5201
  865MPD2    C412696   0.596   3.874  16.753  0.6613  0.1691  0.2465
  865MPD2    C512697   0.718   3.927  16.720  0.0806  0.0947 -0.1982
  865MPD2     H12698   0.664   3.551  16.710  2.0719 -0.5894  0.2253
  865MPD2    H112699   0.520   3.935  16.799  0.2728  0.7391 -1.1567
  865MPD2    H212700   0.907   3.897  16.619 -0.6133  0.1066 -0.7354
  865MPD2    H312701   0.738   4.032  16.731  0.7490  0.0877 -1.3259
  865MPD2     N12702   0.462   3.695  16.814 -0.7236  0.1431 -0.1352
  865MPD2    H512703   0.388   3.762  16.830 -2.3545 -1.9684  1.1813
  865MPD2    N112704   0.886   3.644  16.559  0.0459  0.2175 -0.6345
  865MPD2    H712705   0.929   3.699  16.486 -2.7627  2.0712 -0.8846
  866MPD2     C12706   1.813   4.602  11.488 -0.2945  0.7811  0.2017
  866MPD2    C112707   1.773   4.687  11.382  0.0713 -0.3387 -1.0855
  866MPD2    C212708   1.642   4.658  11.336 -0.5877  0.3083  0.6800
  866MPD2    C312709   1.550   4.573  11.396  0.9099  0.2887 -0.2762
  866MPD2    C412710   1.603   4.501  11.506 -0.7261 -0.1961 -0.5551
  866MPD2    C512711   1.726   4.524  11.560 -0.3712 -0.0366  0.3930
  866MPD2     H12712   1.609   4.709  11.247 -0.5618  3.1469  2.2839
  866MPD2    H112713   1.546   4.421  11.552 -0.5120  0.3967  0.7274
  866MPD2    H212714   1.917   4.616  11.517  0.3619  0.3018 -1.8767
  866MPD2    H312715   1.763   4.474  11.649  1.1766  0.6192  0.1123
  866MPD2     N12716   1.422   4.536  11.338 -0.0805 -0.1547 -0.1756
  866MPD2    H512717   1.362   4.472  11.389  2.5372 -2.6991 -0.2520
  866MPD2    N112718   1.867   0.054  11.338  0.0757  0.1864 -0.6299
  866MPD2    H712719   1.961   0.048  11.377 -0.6279  0.5618  1.1303
  867MPD2     C12720   3.849   3.260  16.285  0.7696 -0.4128  0.2779
  867MPD2    C112721   3.963   3.225  16.352  0.3694  0.5788 -0.5613
  867MPD2    C212722   4.043   3.329  16.395 -0.0644  0.4581  0.6994
  867MPD2    C312723   4.015   3.470  16.390 -0.1310 -0.4293  0.4889
  867MPD2    C412724   3.899   3.498  16.319  0.3441  0.7110  0.8012
  867MPD2    C512725   3.819   3.394  16.273  0.6599  0.4396  0.3105
  867MPD2     H12726   4.130   3.305  16.455  1.0111  0.3435 -0.9325
  867MPD2    H112727   3.862   3.600  16.324 -1.4417  0.1168 -0.5497
  867MPD2    H212728   3.782   3.185  16.245  2.4539 -1.2905 -0.9114
  867MPD2    H312729   3.727   3.437  16.236  3.4028  3.3788 -3.0732
  867MPD2     N12730   4.086   3.576  16.449  0.1632 -0.0175  0.5831
  867MPD2    H512731   4.030   3.657  16.473  0.1321 -0.5481  2.3554
  867MPD2    N112732   3.987   3.086  16.386 -0.2413 -0.2796  0.3500
  867MPD2    H712733   3.916   3.019  16.360 -0.2102  0.7791 -2.4068
  868MPD2     C12734   1.026   2.314  12.934 -0.8196  0.7042  0.7358
  868MPD2    C112735   1.032   2.200  13.011 -0.0591 -0.7663 -0.1558
  868MPD2    C212736   0.938   2.180  13.115 -0.4002  0.3248  0.4055
  868MPD2    C312737   0.848   2.281  13.140 -0.3021  0.2217 -0.1778
  868MPD2    C412738   0.834   2.387  13.050  0.6802  0.4053  0.4065
  868MPD2    C512739   0.930   2.406  12.956  0.0185 -0.4111  0.3892
  868MPD2     H12740   0.931   2.088  13.171 -0.2926 -1.6785 -2.8940
  868MPD2    H112741   0.755   2.460  13.057 -0.0295 -0.2210 -1.1668
  868MPD2    H212742   1.091   2.338  12.851  2.3573 -0.6492  2.7813
  868MPD2    H312743   0.931   2.488  12.885  0.1856  0.4102  1.3421
  868MPD2     N12744   0.753   2.267  13.239 -0.1099  0.5678  0.1547
  868MPD2    H512745   0.756   2.191  13.306 -3.2626 -0.9780 -1.4388
  868MPD2    N112746   1.132   2.109  12.976 -1.1558 -0.1692 -0.2632
  868MPD2    H712747   1.196   2.133  12.900  0.2544 -2.0572  0.3277
  869MPD2     C12748   1.540   4.351   1.489  0.5288  0.5705 -0.2041
  869MPD2    C112749   1.590   4.449   1.570  0.2413 -0.7003  0.7569
  869MPD2    C212750   1.650   4.566   1.516  0.5297 -0.2864  0.1786
  869MPD2    C312751   1.642   4.595   1.382 -0.4728 -0.0737  0.9979
  869MPD2    C412752   1.592   4.486   1.305 -0.3506 -0.4208  0.3967
  869MPD2    C512753   1.561   4.366   1.355  0.1353 -0.2048 -0.3805
  869MPD2     H12754   1.692   4.646   1.575  1.1842 -2.0210  2.0705
  869MPD2    H112755   1.581   4.494   1.197 -2.0372  1.0507  0.6832
  869MPD2    H212756   1.487   4.264   1.525 -1.6036  1.6315 -0.7537
  869MPD2    H312757   1.540   4.292   1.278  2.8724 -0.0839 -1.2538
  869MPD2     N12758   1.679   4.717   1.317 -0.7852 -0.5435  0.3457
  869MPD2    H512759   1.645   0.000   1.221 -2.2143 -0.1979  0.8882
  869MPD2    N112760   1.574   4.434   1.705 -0.2675  0.3911 -0.5134
  869MPD2    H712761   1.519   4.354   1.735  1.1356 -0.3656  0.0243
  870MPD2     C12762   0.754   3.552   1.743  0.0117 -0.3127  0.6603
  870MPD2    C112763   0.884   3.566   1.703  0.3030  0.2929 -0.2459
  870MPD2    C212764   0.904   3.582   1.566 -0.2595 -0.0042  0.1422
  870MPD2    C312765   0.798   3.562   1.477  0.6941 -0.5949 -0.3783
  870MPD2    C412766   0.667   3.544   1.520 -0.3709  0.2141  0.0999
  870MPD2    C512767   0.648   3.540   1.656  0.6344 -0.0140 -0.0011
  870MPD2     H12768   1.003   3.572   1.523 -0.6916 -2.3390 -0.3166
  870MPD2    H112769   0.581   3.540   1.454  0.2360 -0.9497 -0.6176
  870MPD2    H212770   0.742   3.560   1.851 -2.9964  1.9158  0.1431
  870MPD2    H312771   0.545   3.554   1.688  0.2397  1.5550 -1.8904
  870MPD2     N12772   0.830   3.560   1.339  0.0486 -0.3958  0.2170
  870MPD2    H512773   0.928   3.559   1.313 -0.0184  0.5520 -0.0736
  870MPD2    N112774   0.980   3.585   1.809 -0.6320 -0.3413 -0.0498
  870MPD2    H712775   0.940   3.554   1.897 -1.8598  2.3460  0.3511
  871MPD2     C12776   2.262   3.255  16.215  0.6356 -0.1102  1.4767
  871MPD2    C112777   2.309   3.178  16.316  0.3969  0.2642 -0.2799
  871MPD2    C212778   2.376   3.065  16.297 -0.3172 -0.7441  0.2629
  871MPD2    C312779   2.414   3.028  16.170  0.2918  0.5544  0.5877
  871MPD2    C412780   2.372   3.105  16.063 -0.5372  0.0019 -0.0792
  871MPD2    C512781   2.295   3.215  16.087  0.4278  0.2543  0.0781
  871MPD2     H12782   2.410   2.999  16.375  0.0737 -1.2327 -0.3168
  871MPD2    H112783   2.384   3.078  15.958  1.7915  0.5264  0.0586
  871MPD2    H212784   2.204   3.345  16.227  3.1557  1.9497 -1.8120
  871MPD2    H312785   2.264   3.279  16.006 -0.6858  0.8356  0.9587
  871MPD2     N12786   2.500   2.915  16.162  0.3141 -0.2312 -0.0001
  871MPD2    H512787   2.527   2.884  16.255  1.6662 -0.5668 -0.5077
  871MPD2    N112788   2.286   3.231  16.443  0.2777  0.7216 -0.1476
  871MPD2    H712789   2.251   3.326  16.447  0.8987  1.0126 -1.4273
  872MPD2     C12790   3.915   1.113  14.217  0.2196 -0.5613  0.1705
  872MPD2    C112791   3.848   1.179  14.116  0.3408  0.9530  1.2435
  872MPD2    C212792   3.710   1.201  14.132  0.6843  0.1947 -0.1290
  872MPD2    C312793   3.643   1.154  14.245 -0.1089 -0.3320 -0.4372
  872MPD2    C412794   3.712   1.080  14.345  0.3477  0.4924 -0.8642
  872MPD2    C512795   3.845   1.060  14.324 -0.1449  0.7298 -0.3897
  872MPD2     H12796   3.654   1.255  14.058  0.7093 -1.7607 -1.5812
  872MPD2    H112797   3.662   1.023  14.422 -1.6977 -0.2085 -2.7046
  872MPD2    H212798   4.019   1.086  14.199  0.3647  0.3114 -0.3266
  872MPD2    H312799   3.895   1.006  14.404  1.5807  0.2470 -1.7834
  872MPD2     N12800   3.512   1.181  14.278  0.0198  0.0999 -0.5930
  872MPD2    H512801   3.485   1.137  14.366  0.1761  4.0765  1.4285
  872MPD2    N112802   3.912   1.223  13.995 -0.4991 -0.3109  0.0005
  872MPD2    H712803   3.852   1.276  13.933 -1.4703 -0.8600  0.4601
  873MPD2     C12804   0.527   0.550   0.723  0.7100 -0.3228 -0.3768
  873MPD2    C112805   0.530   0.538   0.866 -0.1545 -0.0209  0.0637
  873MPD2    C212806   0.552   0.412   0.922  0.6267  0.4767 -0.5710
  873MPD2    C312807   0.552   0.301   0.844  0.3310 -0.7922  0.0704
  873MPD2    C412808   0.564   0.317   0.707 -0.5063 -0.7715 -0.3129
  873MPD2    C512809   0.545   0.436   0.652  0.4632  0.6046  0.1892
  873MPD2     H12810   0.540   0.407   1.030 -0.7558 -0.5123 -0.7663
  873MPD2    H112811   0.578   0.226   0.648  1.1024  0.8244 -2.3883
  873MPD2    H212812   0.499   0.648   0.687  0.5789  0.5965  2.2460
  873MPD2    H312813   0.538   0.434   0.544  0.0558 -2.1293  0.2668
  873MPD2     N12814   0.569   0.174   0.907 -0.3446 -0.3725  0.1309
  873MPD2    H512815   0.619   0.098   0.863  0.2210 -0.4646  0.9412
  873MPD2    N112816   0.529   0.659   0.941 -0.0235 -0.6866 -0.1843
  873MPD2    H712817   0.520   0.743   0.884  2.4549  1.0539  1.9993
  874MPD2     C12818   0.351   1.286  16.055 -0.1484  0.3206 -0.1750
  874MPD2    C112819   0.405   1.288  16.183  0.5155 -0.4221  0.0178
  874MPD2    C212820   0.511   1.373  16.213  0.0313  0.5436 -0.1990
  874MPD2    C312821   0.574   1.447  16.113  0.2699 -0.0598 -0.2074
  874MPD2    C412822   0.528   1.433  15.981  0.7089 -0.1296  0.5497
  874MPD2    C512823   0.410   1.360  15.951 -0.0302 -0.3795 -0.1738
  874MPD2     H12824   0.552   1.370  16.313  0.7373  1.3086 -0.4586
  874MPD2    H112825   0.581   1.491  15.906  0.5866  0.4515  0.9067
  874MPD2    H212826   0.270   1.217  16.037  0.2763 -0.0823 -0.5515
  874MPD2    H312827   0.362   1.352  15.854  1.1079 -2.6083 -0.5548
  874MPD2     N12828   0.698   1.500  16.147  0.4474 -0.3168 -0.4323
  874MPD2    H512829   0.729   1.497  16.244 -0.4887  0.3687 -0.1078
  874MPD2    N112830   0.354   1.200  16.273 -0.3358  0.3547 -0.4103
  874MPD2    H712831   0.282   1.138  16.237 -2.8837  3.4763 -0.7214
  875MPD2     C12832   1.249   4.538  14.317 -0.3547  0.2961 -0.1275
  875MPD2    C112833   1.117   4.572  14.327  0.2541  0.2328  0.4682
  875MPD2    C212834   1.073   4.643  14.435 -0.0348 -0.2298  0.5373
  875MPD2    C312835   1.159   4.662  14.548 -0.1047 -0.6325  0.2206
  875MPD2    C412836   1.289   4.619  14.541  0.2471  0.5571 -0.3852
  875MPD2    C512837   1.329   4.564  14.423  0.6278 -0.0709  0.6112
  875MPD2     H12838   0.971   4.680  14.436 -0.3490 -1.0841  0.2706
  875MPD2    H112839   1.362   4.644  14.617  0.0246 -0.7451  0.2592
  875MPD2    H212840   1.292   4.492  14.229  1.6703  1.5330  0.2151
  875MPD2    H312841   1.433   4.578  14.395 -0.1362  0.7449 -1.8118
  875MPD2     N12842   1.121   4.708  14.673 -0.1468 -0.2121 -0.4279
  875MPD2    H512843   1.193   4.719  14.744 -1.0900 -0.1432  0.5172
  875MPD2    N112844   1.018   4.549  14.224  0.0745  0.0145  0.2494
  875MPD2    H712845   0.927   4.594  14.229  0.0114 -0.3115  1.9367
  876MPD2     C12846   0.077   0.926  16.022 -1.1062 -0.3638  0.0917
  876MPD2    C112847   0.201   0.884  15.969 -0.1877  0.3827 -0.6724
  876MPD2    C212848   0.257   0.762  16.012  0.5616 -0.0645 -0.5336
  876MPD2    C312849   0.191   0.695  16.106 -0.2035 -0.1414 -0.7596
  876MPD2    C412850   0.067   0.737  16.156  0.3947  0.2794  0.5180
  876MPD2    C512851   0.013   0.852  16.118  0.2427 -0.3443  0.2027
  876MPD2     H12852   0.350   0.720  15.974  0.3624  1.3144 -2.5148
  876MPD2    H112853   0.023   0.693  16.245  0.6718  0.5209  0.7751
  876MPD2    H212854   0.036   1.021  15.988  0.6718  0.6974  0.8756
  876MPD2    H312855   4.645   0.897  16.152  0.6730 -1.1104  2.3425
  876MPD2     N12856   0.257   0.571  16.136 -0.0453  0.1137  0.2217
  876MPD2    H512857   0.347   0.558  16.091  0.1175  1.6499  0.1038
  876MPD2    N112858   0.249   0.966  15.864 -0.6039  0.1316  0.7447
  876MPD2    H712859   0.188   1.037  15.825 -1.3190 -0.8680  0.0167
  877MPD2     C12860   0.040   1.317  15.217  0.5371 -0.0588 -0.2706
  877MPD2    C112861   0.162   1.364  15.257 -0.3823 -0.6679  0.5265
  877MPD2    C212862   0.225   1.462  15.180 -0.0861  0.4375 -0.4781
  877MPD2    C312863   0.165   1.516  15.070  0.0358 -1.0140  0.4544
  877MPD2    C412864   0.039   1.470  15.041  0.2282 -0.7591 -0.3980
  877MPD2    C512865   4.701   1.369  15.107  0.4138  0.1466  0.7158
  877MPD2     H12866   0.326   1.490  15.210 -0.0967 -0.8101  0.6903
  877MPD2    H112867   4.711   1.503  14.951 -1.1149  0.0431  0.6811
  877MPD2    H212868   4.715   1.236  15.270 -1.4939  1.2230 -0.1762
  877MPD2    H312869   4.604   1.329  15.080  1.2137 -0.6436 -1.0192
  877MPD2     N12870   0.222   1.611  14.979 -0.3766  0.0299 -0.2981
  877MPD2    H512871   0.166   1.628  14.896 -0.8164 -0.5281 -0.1186
  877MPD2    N112872   0.237   1.321  15.369 -0.4055 -0.0941  0.9703
  877MPD2    H712873   0.327   1.362  15.387 -0.3190  0.1075  0.1070
  878MPD2     C12874   4.524   0.731  12.975 -0.3273  0.3394  0.0184
  878MPD2    C112875   4.568   0.859  12.964 -0.1419  0.3017 -0.6192
  878MPD2    C212876   4.607   0.925  13.077  0.7453  0.1688 -0.0804
  878MPD2    C312877   4.583   0.872  13.199 -0.6147  0.8111  0.2544
  878MPD2    C412878   4.516   0.750  13.207 -0.0195 -0.5782  0.2520
  878MPD2    C512879   4.499   0.675  13.097  0.5366  0.5889 -0.0087
  878MPD2     H12880   4.648   1.025  13.069 -1.1854  0.9608 -0.1185
  878MPD2    H112881   4.489   0.710  13.305  0.8174  0.9126  1.0862
  878MPD2    H212882   4.504   0.669  12.888  0.2549 -2.9095  2.1685
  878MPD2    H312883   4.454   0.576  13.099  1.1294  0.2874 -1.7849
  878MPD2     N12884   4.619   0.939  13.318  0.6209  0.3429  0.1554
  878MPD2    H512885   4.702   0.997  13.317  0.9177 -0.0912 -0.8756
  878MPD2    N112886   4.579   0.911  12.833  0.2604 -0.1489  0.1272
  878MPD2    H712887   4.547   0.856  12.754  1.5937  2.0601 -1.9630
  879MPD2     C12888   0.328   2.126  17.084  0.2923  0.2412 -0.3641
  879MPD2    C112889   0.374   2.017  17.146 -0.4177 -0.8515  0.7085
  879MPD2    C212890   0.373   1.896  17.071 -0.4818  0.8070  0.2915
  879MPD2    C312891   0.328   1.897  16.936 -0.3884  0.3761  0.0289
  879MPD2    C412892   0.292   2.017  16.878  0.4929 -0.6527 -0.4346
  879MPD2    C512893   0.281   2.125  16.956  0.4584  0.1923  0.4324
  879MPD2     H12894   0.410   1.807  17.121  2.8084  1.2181 -1.4512
  879MPD2    H112895   0.258   2.009  16.776 -0.7251  1.0203 -0.1455
  879MPD2    H212896   0.345   2.222  17.132  0.9630 -0.3815  0.6381
  879MPD2    H312897   0.259   2.219  16.906 -2.8395 -0.0869  1.3987
  879MPD2     N12898   0.330   1.779  16.854  0.3152  0.1028 -0.4217
  879MPD2    H512899   0.290   1.783  16.761 -2.2757 -3.2999  0.5187
  879MPD2    N112900   0.422   2.023  17.277 -0.0430 -0.1367  0.0987
  879MPD2    H712901   0.437   2.119  17.309 -1.6011 -0.4984  1.9329
  880MPD2     C12902   1.710   2.907   0.079 -0.3403  0.3123 -0.5676
  880MPD2    C112903   1.763   2.921   0.202  0.2603  0.2214  0.0381
  880MPD2    C212904   1.831   2.812   0.246 -0.5263 -0.3896  0.4487
  880MPD2    C312905   1.832   2.690   0.180 -0.1934  0.1256 -0.1780
  880MPD2    C412906   1.772   2.684   0.060  0.1271  0.0711 -0.0553
  880MPD2    C512907   1.714   2.797   0.004 -0.2697 -0.4286  0.4838
  880MPD2     H12908   1.884   2.821   0.340 -1.4668 -0.5107  0.9971
  880MPD2    H112909   1.775   2.594  17.698  1.1409  0.5713 -0.7568
  880MPD2    H212910   1.662   2.997   0.041  0.2147  0.8713  0.0559
  880MPD2    H312911   1.655   2.792  17.611 -1.5583  1.0446  1.2369
  880MPD2     N12912   1.904   2.579   0.234 -0.3024 -0.7003  0.0811
  880MPD2    H512913   1.951   2.585   0.324  1.1457 -1.7487 -0.6010
  880MPD2    N112914   1.750   3.044   0.269 -0.5071 -0.5530  0.3738
  880MPD2    H712915   1.711   3.121   0.216 -1.3068 -0.4869  1.0590
  881MPD2     C12916   1.921   4.029   0.167  0.2696  0.4435  0.3810
  881MPD2    C112917   1.923   3.916   0.089 -0.4384  1.0816 -0.2479
  881MPD2    C212918   1.870   3.802   0.142  0.4508  0.3107 -0.8227
  881MPD2    C312919   1.839   3.793   0.274 -0.2961 -0.1367 -0.6119
  881MPD2    C412920   1.844   3.914   0.352 -0.0150 -0.4117 -0.1144
  881MPD2    C512921   1.890   4.031   0.298 -0.5708 -0.0580 -0.1564
  881MPD2     H12922   1.854   3.715   0.078  0.7212  1.0100 -1.8494
  881MPD2    H112923   1.822   3.917   0.458  2.8004  0.6169  0.4438
  881MPD2    H212924   1.956   4.119   0.117  0.8622  0.3826  0.6892
  881MPD2    H312925   1.904   4.129   0.342 -0.6468 -0.0332 -0.1878
  881MPD2     N12926   1.790   3.671   0.343 -0.3740  0.0287  0.4580
  881MPD2    H512927   1.754   3.686   0.437  3.0686  0.9262  1.6198
  881MPD2    N112928   1.933   3.944  17.652  0.2142  0.5111 -0.4183
  881MPD2    H712929   1.925   4.043  17.630 -0.0982  1.1003  2.4155
  882MPD2     C12930   0.257   1.705  14.179  0.6895  0.7062 -0.5194
  882MPD2    C112931   0.208   1.660  14.295  1.2671 -0.4466 -0.6681
  882MPD2    C212932   0.125   1.545  14.307 -0.2181  0.5463  0.5399
  882MPD2    C312933   0.105   1.471  14.193  0.3604 -0.3402 -0.5269
  882MPD2    C412934   0.151   1.518  14.071 -0.1008  0.3650 -1.0571
  882MPD2    C512935   0.223   1.637  14.065  0.4749  0.7322  0.4114
  882MPD2     H12936   0.093   1.512  14.405 -3.1102 -3.1929 -1.6371
  882MPD2    H112937   0.129   1.460  13.981 -0.7431 -0.9228 -0.0764
  882MPD2    H212938   0.317   1.795  14.173 -0.0845  1.2710  0.1707
  882MPD2    H312939   0.262   1.683  13.975  0.4905 -0.9049 -0.4027
  882MPD2     N12940   0.014   1.363  14.186 -0.4565 -0.0664  0.1532
  882MPD2    H512941   4.713   1.328  14.094 -2.0031 -2.2315  1.4209
  882MPD2    N112942   0.264   1.728  14.409 -0.0907  0.0095 -0.0052
  882MPD2    H712943   0.339   1.793  14.390 -0.5733  0.6330  0.2286
  883MPD2     C12944   2.224   1.120  16.632 -0.0850 -0.2738 -0.0504
  883MPD2    C112945   2.291   1.106  16.511 -0.2963 -1.0664  0.6708
  883MPD2    C212946   2.431   1.130  16.515 -0.1957  0.8735  0.9266
  883MPD2    C312947   2.505   1.145  16.637 -0.6169 -0.3518  0.6229
  883MPD2    C412948   2.436   1.166  16.752  0.4019 -0.2802 -0.6511
  883MPD2    C512949   2.297   1.156  16.742 -0.3218 -0.1016 -0.4816
  883MPD2     H12950   2.481   1.114  16.420 -1.1572  3.1119  0.0578
  883MPD2    H112951   2.477   1.200  16.846 -0.2676 -0.9480 -0.1139
  883MPD2    H212952   2.117   1.104  16.640  0.0445 -1.9548 -1.4466
  883MPD2    H312953   2.239   1.179  16.830 -1.5668 -2.4860 -0.6577
  883MPD2     N12954   2.644   1.151  16.629  0.0479  0.0794  0.3725
  883MPD2    H512955   2.679   1.140  16.534 -0.3655 -0.0572  0.2330
  883MPD2    N112956   2.230   1.084  16.385  0.2668 -0.9232  0.2010
  883MPD2    H712957   2.292   1.083  16.305 -0.9378 -0.9651 -0.7337
  884MPD2     C12958   4.316   2.205  15.152  0.1948 -0.0321 -0.7092
  884MPD2    C112959   4.276   2.332  15.175  0.0565  0.3666 -0.1516
  884MPD2    C212960   4.137   2.367  15.181 -0.2963  0.1846  0.9908
  884MPD2    C312961   4.044   2.276  15.150 -0.1070  0.3773  0.1832
  884MPD2    C412962   4.081   2.144  15.145 -0.6497  0.7162  0.3230
  884MPD2    C512963   4.214   2.117  15.145  0.0800  0.3054 -0.4108
  884MPD2     H12964   4.114   2.469  15.208  0.0419  0.1569  1.3735
  884MPD2    H112965   4.020   2.055  15.137  1.1010 -0.3289 -1.4293
  884MPD2    H212966   4.414   2.158  15.152 -0.9256 -2.3386  0.0287
  884MPD2    H312967   4.233   2.011  15.133 -2.0865 -0.1431 -0.0055
  884MPD2     N12968   3.911   2.318  15.154  0.0098  0.2208  0.0787
  884MPD2    H512969   3.904   2.416  15.130 -0.8646 -0.4454 -2.3725
  884MPD2    N112970   4.367   2.439  15.166 -0.1624  0.3920  0.4170
  884MPD2    H712971   4.329   2.532  15.175  0.4663  0.7427 -0.5148
  885MPD2     C12972   2.118   1.975   0.112  0.7466  0.3344  0.8755
  885MPD2    C112973   2.254   1.937   0.102 -0.3564 -0.0487  0.7670
  885MPD2    C212974   2.318   1.964  17.682  0.5737 -0.4864 -0.9898
  885MPD2    C312975   2.257   2.017  17.574 -0.3386  0.1691 -0.2942
  885MPD2    C412976   2.125   2.054  17.586  0.2773  0.2726  0.1166
  885MPD2    C512977   2.057   2.037   0.005  0.4955 -0.1747 -0.0589
  885MPD2     H12978   2.414   1.919  17.660  0.8812 -0.5923  0.6024
  885MPD2    H112979   2.060   2.097  17.511  0.1064 -0.7947 -0.3508
  885MPD2    H212980   2.045   1.966   0.192 -0.1756 -0.3784 -0.0477
  885MPD2    H312981   1.960   2.083   0.012  0.6648  0.5688 -2.5054
  885MPD2     N12982   2.327   2.032  17.456 -0.0790  0.4981 -0.2137
  885MPD2    H512983   2.427   2.048  17.464 -0.0495 -0.2286  0.8129
  885MPD2    N112984   2.310   1.860   0.204  1.5412  0.5063 -0.1810
  885MPD2    H712985   2.259   1.852   0.292  0.2053  0.2752 -0.9780
  886MPD2     C12986   3.394   0.793  15.111 -0.2693 -0.2641 -0.1184
  886MPD2    C112987   3.519   0.810  15.159  0.0556  0.2599  0.1038
  886MPD2    C212988   3.605   0.879  15.074 -0.3165 -0.0624 -0.0970
  886MPD2    C312989   3.573   0.949  14.957  0.1765 -0.3210 -0.2867
  886MPD2    C412990   3.440   0.939  14.921  0.2296 -0.2764 -0.1528
  886MPD2    C512991   3.361   0.854  14.993 -0.2325 -0.0716 -0.4343
  886MPD2     H12992   3.707   0.881  15.111 -0.4583  0.2259  0.2892
  886MPD2    H112993   3.400   0.987  14.833 -1.0937 -1.5191 -0.2282
  886MPD2    H212994   3.326   0.715  15.144 -0.6439  0.0909 -0.0624
  886MPD2    H312995   3.257   0.851  14.961  0.0350 -1.6089 -1.1595
  886MPD2     N12996   3.678   1.027  14.893 -0.1125 -0.2026 -0.2186
  886MPD2    H512997   3.763   1.043  14.946  0.0220  0.2319 -0.5687
  886MPD2    N112998   3.559   0.751  15.274  0.1565  0.0935  0.5668
  886MPD2    H712999   3.660   0.752  15.284  0.3182  0.4193 -1.0195
  887MPD2     C13000   4.169   0.760  15.392  0.1604 -0.3651 -0.6567
  887MPD2    C113001   4.087   0.831  15.480 -0.0302 -0.5811  0.1547
  887MPD2    C213002   4.115   0.961  15.511  0.0621  0.0978  0.8828
  887MPD2    C313003   4.223   1.024  15.451  0.4744  0.0096  0.4241
  887MPD2    C413004   4.294   0.964  15.352 -0.0377 -0.4408 -0.4701
  887MPD2    C513005   4.277   0.830  15.332  0.4498 -0.3568  0.2133
  887MPD2     H13006   4.062   1.009  15.593 -1.0143 -0.7344  0.6784
  887MPD2    H113007   4.371   1.009  15.290  0.4272  0.9376  1.1282
  887MPD2    H213008   4.149   0.657  15.364 -3.6678 -0.5402  2.6634
  887MPD2    H313009   4.346   0.780  15.265  1.0312  0.1575  0.4390
  887MPD2     N13010   4.255   1.157  15.496 -0.1114  0.5090 -0.0175
  887MPD2    H513011   4.202   1.186  15.578  0.2452  1.0070  0.0371
  887MPD2    N113012   3.965   0.772  15.533 -0.4139 -0.5794 -0.7453
  887MPD2    H713013   3.920   0.833  15.601 -0.1007  1.5824 -2.4755
  888MPD2     C13014   1.200   1.124  14.501  0.0538  0.2080  0.1554
  888MPD2    C113015   1.245   1.089  14.629 -0.9234 -0.0456 -0.4796
  888MPD2    C213016   1.344   1.166  14.693 -0.0470  0.4715 -0.1372
  888MPD2    C313017   1.407   1.273  14.630  0.1394 -0.3583 -0.7024
  888MPD2    C413018   1.369   1.299  14.501 -0.1708  0.2522  0.6614
  888MPD2    C513019   1.272   1.222  14.434 -0.4410 -0.8896  0.0870
  888MPD2     H13020   1.383   1.134  14.788 -0.6981  1.2924  0.4142
  888MPD2    H113021   1.427   1.368  14.441 -0.8125  1.0210  0.9175
  888MPD2    H213022   1.133   1.069  14.436 -0.7017 -0.3203  1.3700
  888MPD2    H313023   1.250   1.235  14.328  1.7735 -0.8468 -0.3578
  888MPD2     N13024   1.516   1.342  14.695  0.3198  0.0419  0.8570
  888MPD2    H513025   1.536   1.322  14.792 -0.5631 -1.7423  0.6660
  888MPD2    N113026   1.201   0.978  14.700  0.0079  0.1802 -0.4651
  888MPD2    H713027   1.252   0.949  14.783 -1.5590 -0.0085  0.4204
  889MPD2     C13028   0.785   0.974  12.742 -0.2130  0.0568 -0.0015
  889MPD2    C113029   0.893   0.920  12.797 -0.0004  0.2828  0.1886
  889MPD2    C213030   0.998   1.005  12.827 -0.1117 -0.1964 -0.1752
  889MPD2    C313031   0.976   1.146  12.816 -0.1768  0.6861 -0.1332
  889MPD2    C413032   0.852   1.195  12.774 -0.6254 -0.4208  0.0608
  889MPD2    C513033   0.758   1.103  12.736  0.4378 -0.9334  0.3284
  889MPD2     H13034   1.080   0.949  12.871 -0.3657 -0.5939 -0.2113
  889MPD2    H113035   0.819   1.298  12.775  0.6932 -0.0175  0.6979
  889MPD2    H213036   0.700   0.911  12.717 -1.1654  0.5574  2.0220
  889MPD2    H313037   0.663   1.125  12.690  1.2368  2.8208  0.4698
  889MPD2     N13038   1.081   1.224  12.866  1.0406 -0.3017 -0.6652
  889MPD2    H513039   1.156   1.181  12.918  1.1495 -1.3087 -1.6485
  889MPD2    N113040   0.921   0.778  12.800 -0.3118 -0.2986 -0.5021
  889MPD2    H713041   1.011   0.748  12.835 -0.5586 -0.8454 -0.3496
  890MPD2     C13042   0.092   2.457  14.761 -0.3848  0.5493 -0.4853
  890MPD2    C113043   0.210   2.520  14.803  0.4317  0.1473 -0.4285
  890MPD2    C213044   0.301   2.447  14.881 -1.6581  0.4287  0.2392
  890MPD2    C313045   0.274   2.316  14.912  0.8254  0.3428 -0.1332
  890MPD2    C413046   0.158   2.254  14.867 -0.3363  0.4091 -0.6855
  890MPD2    C513047   0.068   2.328  14.795 -0.3363 -0.2502 -0.1604
  890MPD2     H13048   0.387   2.498  14.921 -1.0869 -0.4192  0.0974
  890MPD2    H113049   0.148   2.147  14.878 -0.4593  0.4868 -0.0503
  890MPD2    H213050   0.021   2.507  14.695  0.2271  1.7144 -0.2650
  890MPD2    H313051   4.706   2.276  14.754  0.9724  0.0441 -3.2159
  890MPD2     N13052   0.369   2.249  14.989  0.2004  0.1823 -0.1751
  890MPD2    H513053   0.462   2.288  14.997  0.8412 -0.8836 -2.4239
  890MPD2    N113054   0.224   2.653  14.753 -0.5435 -0.6857 -0.3916
  890MPD2    H713055   0.147   2.703  14.711  0.2663  1.3962  0.5842
  891MPD2     C13056   3.025   0.505  16.580  0.4079 -0.1684  0.4647
  891MPD2    C113057   2.940   0.512  16.685 -0.2533 -0.3257  0.4647
  891MPD2    C213058   2.995   0.501  16.812 -0.2318  0.5072  0.1325
  891MPD2    C313059   3.133   0.491  16.834 -0.2326 -0.7999 -0.6728
  891MPD2    C413060   3.215   0.486  16.723 -0.6249 -0.7702  0.1924
  891MPD2    C513061   3.157   0.483  16.600 -0.5687 -0.5711 -0.4974
  891MPD2     H13062   2.930   0.510  16.898 -1.3489 -0.7172 -0.5855
  891MPD2    H113063   3.321   0.476  16.744 -0.2175  1.3683 -0.8501
  891MPD2    H213064   2.989   0.513  16.478 -2.9061 -1.0048  1.5990
  891MPD2    H313065   3.223   0.484  16.514 -1.6192  0.7377 -1.2832
  891MPD2     N13066   3.191   0.488  16.962  0.4989  0.1756 -0.1378
  891MPD2    H513067   3.292   0.500  16.957  0.5886 -0.8204 -0.7608
  891MPD2    N113068   2.804   0.548  16.655 -0.8055  0.4391  0.5250
  891MPD2    H713069   2.778   0.553  16.557 -2.9200 -0.1394  1.0527
  892MPD2     C13070   4.256   1.911  14.175  0.1150  0.0017  0.0798
  892MPD2    C113071   4.177   1.832  14.249 -0.3778 -0.3833 -0.0098
  892MPD2    C213072   4.200   1.694  14.256  0.4198  0.2017  0.1492
  892MPD2    C313073   4.299   1.636  14.175 -0.9153  0.1824 -0.1893
  892MPD2    C413074   4.381   1.726  14.109 -1.0429 -0.5933  0.3350
  892MPD2    C513075   4.358   1.855  14.104  0.0298 -0.0741 -0.2444
  892MPD2     H13076   4.142   1.629  14.320  0.3480  0.0906 -0.0275
  892MPD2    H113077   4.471   1.681  14.067  0.1302  1.1542  0.9756
  892MPD2    H213078   4.239   2.018  14.168  0.9870  0.1244 -0.2699
  892MPD2    H313079   4.430   1.924  14.061  0.6795 -0.4113  0.3218
  892MPD2     N13080   4.336   1.502  14.180  0.3555  0.0368  0.4887
  892MPD2    H513081   4.427   1.477  14.143 -0.0253  0.2878 -0.6219
  892MPD2    N113082   4.067   1.872  14.319  0.0762  0.3480  0.5204
  892MPD2    H713083   4.029   1.803  14.383 -0.4505 -1.4064 -1.6823
  893MPD2     C13084   0.302   3.682   1.358  0.3873 -0.4475  0.5191
  893MPD2    C113085   0.354   3.782   1.439 -0.1613 -0.1167  0.5969
  893MPD2    C213086   0.268   3.861   1.518 -0.3559 -0.2076 -0.2045
  893MPD2    C313087   0.132   3.840   1.519  0.7770  0.1197  0.4563
  893MPD2    C413088   0.084   3.747   1.432 -0.6602 -0.4280  1.0295
  893MPD2    C513089   0.165   3.666   1.357 -0.0149 -0.1600 -0.5440
  893MPD2     H13090   0.311   3.943   1.574  1.0955  0.4317 -2.2482
  893MPD2    H113091   4.701   3.735   1.417 -0.6738  0.5956  0.3052
  893MPD2    H213092   0.363   3.626   1.288  0.6478  0.2622  0.1730
  893MPD2    H313093   0.120   3.594   1.290  1.1274 -0.2500 -1.2015
  893MPD2     N13094   0.039   3.915   1.601  0.2515  0.6039 -0.9472
  893MPD2    H513095   4.669   3.878   1.610  0.7895 -0.2570  1.1312
  893MPD2    N113096   0.493   3.803   1.441 -0.2356 -0.0071 -0.1606
  893MPD2    H713097   0.539   3.785   1.352  3.1950 -1.7740  1.9655
  894MPD2     C13098   3.837   1.779   0.580  0.0985 -0.8558 -0.1977
  894MPD2    C113099   3.844   1.827   0.706  0.1358  0.7623  0.1173
  894MPD2    C213100   3.843   1.964   0.722  0.0883 -0.0098 -0.4381
  894MPD2    C313101   3.834   2.053   0.617 -0.3719  0.3413  0.5906
  894MPD2    C413102   3.842   2.003   0.493 -0.4599  0.0561 -0.7485
  894MPD2    C513103   3.837   1.870   0.476 -0.0034  0.3069  0.1368
  894MPD2     H13104   3.842   2.002   0.823 -2.8330 -0.0677 -0.4449
  894MPD2    H113105   3.839   2.065   0.404 -1.5588 -0.2349 -0.9160
  894MPD2    H213106   3.846   1.674   0.555  2.9068 -0.3029 -1.5418
  894MPD2    H313107   3.824   1.831   0.376 -2.2384  0.3776  0.3950
  894MPD2     N13108   3.841   2.194   0.650 -0.0239  0.1139 -0.2438
  894MPD2    H513109   3.849   2.222   0.747  3.3965  0.7305 -0.6892
  894MPD2    N113110   3.844   1.748   0.824 -0.2883  0.4670  0.5427
  894MPD2    H713111   3.853   1.795   0.914 -1.4689  2.3848 -0.3294
  895MPD2     C13112   3.589   0.513  13.875  0.1776  0.2972  1.2035
  895MPD2    C113113   3.486   0.534  13.783  0.1245  0.2385 -0.2415
  895MPD2    C213114   3.457   0.436  13.689 -0.5756 -0.3535  0.1461
  895MPD2    C313115   3.522   0.318  13.694  0.1827  0.1574  0.2630
  895MPD2    C413116   3.629   0.298  13.786  0.2332  0.2920  0.1530
  895MPD2    C513117   3.661   0.398  13.874  1.0981 -0.0899  0.1763
  895MPD2     H13118   3.365   0.445  13.633 -0.0289 -0.7445 -0.8130
  895MPD2    H113119   3.686   0.205  13.791 -0.8982 -0.3424  1.3343
  895MPD2    H213120   3.623   0.585  13.949 -0.3427  1.3868  0.3764
  895MPD2    H313121   3.742   0.384  13.945  1.2162  1.6221  0.3812
  895MPD2     N13122   3.488   0.225  13.600 -0.0536 -0.4983  0.1154
  895MPD2    H513123   3.429   0.244  13.519  1.8548 -3.9488 -2.1108
  895MPD2    N113124   3.420   0.663  13.773  0.4564  0.1393  0.1731
  895MPD2    H713125   3.341   0.669  13.709  0.6499  1.6618  0.0708
  896MPD2     C13126   0.079   3.211   1.923  0.4400 -0.4579  0.5361
  896MPD2    C113127   0.133   3.106   1.847  0.0480  0.4667  0.6412
  896MPD2    C213128   0.070   3.056   1.736 -0.1510 -0.1721 -0.0139
  896MPD2    C313129   4.669   3.103   1.705  0.3074 -0.5962  0.1109
  896MPD2    C413130   4.617   3.212   1.778 -0.3579 -0.2969 -0.0503
  896MPD2    C513131   4.680   3.260   1.891 -0.0244  0.3239  0.4070
  896MPD2     H13132   0.121   2.975   1.685  0.6450  0.4765 -0.2497
  896MPD2    H113133   4.526   3.263   1.748 -0.4745 -0.7685 -0.5076
  896MPD2    H213134   0.139   3.240   2.009  2.9826  0.0820 -1.4166
  896MPD2    H313135   4.640   3.344   1.946  1.2694  1.0217  0.2755
  896MPD2     N13136   4.603   3.038   1.600 -0.3293 -0.4255  0.0289
  896MPD2    H513137   4.647   2.968   1.540 -0.7899 -0.1048 -0.6808
  896MPD2    N113138   0.261   3.069   1.880  0.3648  0.6686 -0.3408
  896MPD2    H713139   0.298   3.119   1.961  0.5415  0.8905 -0.5600
  897MPD2     C13140   1.275   0.211  10.296 -0.2244 -0.6379 -0.7508
  897MPD2    C113141   1.294   0.330  10.355 -0.6791 -0.1547  0.0494
  897MPD2    C213142   1.238   0.347  10.483  0.1771 -0.6926 -0.9347
  897MPD2    C313143   1.176   0.247  10.549  0.0479  0.8190  0.2116
  897MPD2    C413144   1.164   0.122  10.480  0.1105 -0.1259  0.3911
  897MPD2    C513145   1.213   0.110  10.354  0.2983  0.4946  0.6806
  897MPD2     H13146   1.241   0.442  10.535  1.2126 -0.0487 -2.1828
  897MPD2    H113147   1.117   0.031  10.516 -0.8000 -0.6670 -2.1823
  897MPD2    H213148   1.310   0.201  10.193  2.8303 -0.1575  0.2538
  897MPD2    H313149   1.209   0.012  10.308 -0.3559  0.4567  0.8190
  897MPD2     N13150   1.139   0.268  10.679 -0.4280  0.3305 -0.0221
  897MPD2    H513151   1.160   0.360  10.716 -1.0164 -0.4244  2.1967
  897MPD2    N113152   1.357   0.434  10.281  0.4983  0.3405 -0.0915
  897MPD2    H713153   1.382   0.419  10.184 -3.1388  1.2518 -1.1621
  898MPD2     C13154   3.975   0.693   0.041 -0.5872 -0.3772 -0.0571
  898MPD2    C113155   4.070   0.739  17.653  0.0125  0.1873  0.4446
  898MPD2    C213156   4.038   0.855  17.585 -0.2039  0.2250 -0.5277
  898MPD2    C313157   3.931   0.941  17.606 -0.6353  1.3007 -0.6432
  898MPD2    C413158   3.839   0.896   0.000 -0.4944  0.2777 -0.5540
  898MPD2    C513159   3.864   0.772   0.059 -0.6461  0.6129 -0.3571
  898MPD2     H13160   4.100   0.894  17.504  3.0053 -2.4648  0.6748
  898MPD2    H113161   3.748   0.952   0.018  0.2459  1.0886  0.7383
  898MPD2    H213162   3.978   0.600   0.097  4.0051  0.0342  0.4073
  898MPD2    H313163   3.779   0.737   0.116 -0.3166  0.7605  0.2254
  898MPD2     N13164   3.914   1.059  17.537 -0.2129 -0.0559  0.7108
  898MPD2    H513165   3.972   1.069  17.454  0.0572  2.7124  1.2342
  898MPD2    N113166   4.187   0.670  17.623 -0.3366  0.2070  0.3816
  898MPD2    H713167   4.238   0.704  17.543 -0.9877  1.8591  0.6690
  899MPD2     C13168   4.558   1.314  17.217 -0.2870  0.2847 -0.9972
  899MPD2    C113169   4.581   1.388  17.332  0.1622  0.4503 -1.1898
  899MPD2    C213170   4.609   1.316  17.449 -0.1487  0.1280  0.0478
  899MPD2    C313171   4.599   1.178  17.450  0.6343 -0.3293  0.4507
  899MPD2    C413172   4.584   1.108  17.328  0.5108  0.3321 -0.4528
  899MPD2    C513173   4.567   1.171  17.209 -0.6179  0.0054  0.5682
  899MPD2     H13174   4.637   1.372  17.538  1.2309 -1.1140  0.3900
  899MPD2    H113175   4.572   1.001  17.340  0.7459  0.4558  0.9042
  899MPD2    H213176   4.534   1.367  17.125 -0.6425  0.2331 -0.9330
  899MPD2    H313177   4.548   1.112  17.120 -1.1358  0.6068  0.2831
  899MPD2     N13178   4.610   1.098  17.567 -0.6796 -0.3798  0.3352
  899MPD2    H513179   4.632   1.000  17.549 -0.5803 -0.4227  0.7036
  899MPD2    N113180   4.586   1.528  17.322 -0.0557 -0.9662  0.1563
  899MPD2    H713181   4.545   1.574  17.242 -3.0008  2.1074  3.4307
  900MPD2     C13182   4.386   3.779  12.257  0.3118 -0.7877  0.1822
  900MPD2    C113183   4.306   3.669  12.256 -0.0366 -0.0807  0.1652
  900MPD2    C213184   4.185   3.676  12.184  0.5015  0.7123 -0.6541
  900MPD2    C313185   4.135   3.792  12.134  0.3126  0.0507 -0.3857
  900MPD2    C413186   4.218   3.899  12.130 -0.2653  0.1197  1.0238
  900MPD2    C513187   4.343   3.890  12.196 -0.3338  0.5557  0.1646
  900MPD2     H13188   4.122   3.590  12.163  0.3244  0.0097  2.6499
  900MPD2    H113189   4.189   3.990  12.078 -0.5929 -0.0138  0.9742
  900MPD2    H213190   4.489   3.776  12.291  1.4495 -2.1075 -3.4186
  900MPD2    H313191   4.412   3.973  12.193  0.2111  0.1377  1.2963
  900MPD2     N13192   4.006   3.790  12.081  0.0340 -0.0394  0.0759
  900MPD2    H513193   3.956   3.702  12.091  1.1498 -0.8645 -1.4969
  900MPD2    N113194   4.358   3.553  12.311  0.3887 -0.2413 -0.7769
  900MPD2    H713195   4.450   3.542  12.353  0.0120 -0.5250 -0.0222
  901MPD2     C13196   4.061   2.530  12.490  0.5348 -0.2843 -0.4511
  901MPD2    C113197   4.179   2.538  12.423  0.1209  0.3459 -0.1444
  901MPD2    C213198   4.253   2.658  12.436 -0.1186 -0.9844  0.5719
  901MPD2    C313199   4.205   2.769  12.506  0.0099 -0.2048 -0.0820
  901MPD2    C413200   4.075   2.759  12.557  0.9173  0.2245 -0.7079
  901MPD2    C513201   4.009   2.638  12.560  0.2101 -0.3130  0.5457
  901MPD2     H13202   4.354   2.665  12.396 -1.1882 -1.2208 -2.1478
  901MPD2    H113203   4.032   2.847  12.604  0.0179 -0.4934 -0.1960
  901MPD2    H213204   4.000   2.441  12.480 -2.2686  1.3330  2.1070
  901MPD2    H313205   3.910   2.639  12.604 -0.2446  0.2244 -0.4956
  901MPD2     N13206   4.287   2.879  12.520  0.5386  0.2072 -0.1370
  901MPD2    H513207   4.373   2.868  12.469  0.7284  1.1667 -0.0286
  901MPD2    N113208   4.229   2.417  12.370 -0.2967 -0.3374  0.6463
  901MPD2    H713209   4.163   2.341  12.381 -1.5191  0.3362 -1.9144
  902MPD2     C13210   3.547   0.881  12.666  0.0125 -0.0934 -0.4245
  902MPD2    C113211   3.603   1.006  12.654  1.2247  0.3193  0.6273
  902MPD2    C213212   3.666   1.039  12.537  0.1540  0.3058  0.3542
  902MPD2    C313213   3.664   0.956  12.426  0.5213 -0.1324 -0.6144
  902MPD2    C413214   3.616   0.827  12.442 -1.2522  0.4650 -0.2173
  902MPD2    C513215   3.551   0.794  12.565  0.1322  0.4522  0.7575
  902MPD2     H13216   3.698   1.143  12.532  1.0917  0.0294  0.5368
  902MPD2    H113217   3.613   0.753  12.362  0.0022  0.3065 -0.1153
  902MPD2    H213218   3.497   0.852  12.758 -1.1847 -1.3120 -1.4623
  902MPD2    H313219   3.501   0.698  12.570 -3.8862  2.6318  2.1581
  902MPD2     N13220   3.717   0.993  12.302 -0.1737 -0.4061  0.4193
  902MPD2    H513221   3.711   0.926  12.226 -0.1074  0.0169  0.0385
  902MPD2    N113222   3.599   1.093  12.767 -0.3541  0.5245  0.2188
  902MPD2    H713223   3.555   1.051  12.848  1.8448 -1.4449  0.4092
  903MPD2     C13224   3.568   1.736  12.060  0.5257 -0.3309  0.4913
  903MPD2    C113225   3.523   1.611  12.034 -0.1672  0.2685 -0.4342
  903MPD2    C213226   3.393   1.584  12.077 -0.0890 -0.3256 -0.0885
  903MPD2    C313227   3.311   1.668  12.132 -0.2982 -0.6758  0.7388
  903MPD2    C413228   3.352   1.797  12.148  0.0013  0.2278  0.3928
  903MPD2    C513229   3.479   1.834  12.107 -0.5431  0.6448 -0.0124
  903MPD2     H13230   3.354   1.483  12.072 -1.2516  0.0619  1.1160
  903MPD2    H113231   3.289   1.876  12.188  0.9993  0.5627  1.3140
  903MPD2    H213232   3.665   1.777  12.035  0.4504 -0.5163 -0.0866
  903MPD2    H313233   3.516   1.935  12.117 -0.2481  0.8705 -3.1714
  903MPD2     N13234   3.178   1.625  12.172 -0.1360  0.2673  0.6571
  903MPD2    H513235   3.157   1.526  12.180 -2.6181  0.8896  1.5253
  903MPD2    N113236   3.610   1.513  11.992  0.3719 -0.0033 -0.0241
  903MPD2    H713237   3.702   1.543  11.962 -0.5669  0.8579 -2.0212
  904MPD2     C13238   3.293   4.549  14.109 -0.0718  0.1568  0.2818
  904MPD2    C113239   3.293   4.605  13.985 -0.2269 -0.5035  0.5675
  904MPD2    C213240   3.417   4.613  13.922  0.0860  0.6157 -0.3878
  904MPD2    C313241   3.533   4.565  13.974  0.5007  0.2509 -0.1448
  904MPD2    C413242   3.529   4.500  14.098  0.8391  0.8096 -0.5352
  904MPD2    C513243   3.410   4.496  14.167  0.0033 -0.3853  0.1344
  904MPD2     H13244   3.415   4.681  13.837  1.0412  1.7236  0.4754
  904MPD2    H113245   3.614   4.446  14.139 -0.7843 -1.5609 -0.3719
  904MPD2    H213246   3.198   4.541  14.160 -0.1884 -1.6954 -0.2525
  904MPD2    H313247   3.400   4.449  14.264 -0.9537  1.1085  0.7439
  904MPD2     N13248   3.651   4.600  13.904  0.1773  0.0206 -0.1145
  904MPD2    H513249   3.643   4.656  13.820  0.3545  0.0396 -0.1190
  904MPD2    N113250   3.184   4.667  13.919 -0.8021 -0.7795  0.3536
  904MPD2    H713251   3.192   4.698  13.823  0.2538 -0.1878  0.6392
  905MPD2     C13252   3.151   0.436  13.303  0.0158  1.1103 -0.6407
  905MPD2    C113253   3.169   0.314  13.355  0.7567  0.5990 -1.4904
  905MPD2    C213254   3.244   0.223  13.281  0.0526  0.5349  0.4057
  905MPD2    C313255   3.325   0.259  13.177 -0.3143  0.4753 -0.0625
  905MPD2    C413256   3.309   0.388  13.130  0.3767 -0.1725 -0.2045
  905MPD2    C513257   3.215   0.474  13.185 -0.2215  0.3549  0.2132
  905MPD2     H13258   3.239   0.120  13.315  1.3353  0.1794 -0.4808
  905MPD2    H113259   3.370   0.424  13.048 -1.4437 -2.6333 -2.6192
  905MPD2    H213260   3.069   0.494  13.343 -0.3717  2.3107 -3.1379
  905MPD2    H313261   3.191   0.573  13.147 -0.6741  0.2182  0.1365
  905MPD2     N13262   3.414   0.173  13.106 -0.3712  0.3246 -0.1748
  905MPD2    H513263   3.448   0.208  13.017 -2.5265  2.2192 -0.2354
  905MPD2    N113264   3.097   0.280  13.474 -0.0703  0.3559 -0.4967
  905MPD2    H713265   3.046   0.357  13.516  2.9001  1.6405  0.7433
  906MPD2     C13266   0.268   0.890  11.311  0.2746 -0.0723  0.2965
  906MPD2    C113267   0.296   0.829  11.191 -0.9684  0.1661 -0.2738
  906MPD2    C213268   0.316   0.698  11.184  0.2553  0.0729  1.1466
  906MPD2    C313269   0.311   0.615  11.296  0.1755  0.0120 -0.3117
  906MPD2    C413270   0.287   0.679  11.419  0.0256  0.0463  0.0515
  906MPD2    C513271   0.271   0.816  11.423 -0.7989  0.0540 -0.3366
  906MPD2     H13272   0.322   0.656  11.084  0.2632 -0.2255  1.2708
  906MPD2    H113273   0.285   0.621  11.511  0.6668 -0.7635 -0.4424
  906MPD2    H213274   0.246   0.995  11.324 -0.1716 -0.1281 -0.0028
  906MPD2    H313275   0.253   0.858  11.522 -0.2668 -0.9723  0.2022
  906MPD2     N13276   0.308   0.473  11.288  0.2814 -0.4389 -0.1450
  906MPD2    H513277   0.285   0.427  11.375 -0.2311  0.4980  0.2041
  906MPD2    N113278   0.305   0.890  11.069 -0.0927 -0.6348  0.8195
  906MPD2    H713279   0.323   0.833  10.987 -1.7826  0.0645 -0.0379
  907MPD2     C13280   3.775   4.525  15.875 -0.0556 -0.3360  0.0801
  907MPD2    C113281   3.828   4.429  15.789 -0.8153 -0.3642 -0.6650
  907MPD2    C213282   3.960   4.429  15.743  0.1382  0.3855  0.0344
  907MPD2    C313283   4.041   4.526  15.798  0.2634 -0.8264  0.2275
  907MPD2    C413284   3.990   4.634  15.864 -0.9739  0.7822 -0.1068
  907MPD2    C513285   3.858   4.632  15.902 -0.5708 -0.2890  0.1141
  907MPD2     H13286   3.997   4.345  15.685  0.7614 -0.3542  1.5116
  907MPD2    H113287   4.049   4.719  15.894  1.1995 -1.1410  1.0216
  907MPD2    H213288   3.674   4.521  15.913  0.7810 -0.3077  2.2713
  907MPD2    H313289   3.825   4.713  15.966  2.2888  2.9681 -2.5161
  907MPD2     N13290   4.180   4.503  15.782  0.4198  0.1032  0.1735
  907MPD2    H513291   4.199   4.422  15.725 -1.0588  0.5684 -0.9962
  907MPD2    N113292   3.746   4.310  15.756 -0.0462 -0.3168  0.3154
  907MPD2    H713293   3.781   4.248  15.684 -0.8723  0.9850 -1.1921
  908MPD2     C13294   1.513   0.245   9.581  0.1037 -0.3417 -0.3654
  908MPD2    C113295   1.595   0.219   9.691  0.1319 -0.2982 -0.4894
  908MPD2    C213296   1.607   0.327   9.776 -0.0504 -0.2174  0.2491
  908MPD2    C313297   1.556   0.453   9.750 -0.5459  0.5864  0.0627
  908MPD2    C413298   1.480   0.474   9.638 -0.0807  0.0512  0.7030
  908MPD2    C513299   1.471   0.370   9.551  0.0797 -0.3375  0.0761
  908MPD2     H13300   1.662   0.312   9.868  1.7939 -0.5240 -0.9153
  908MPD2    H113301   1.445   0.574   9.613 -0.0086 -0.1308 -0.1474
  908MPD2    H213302   1.491   0.169   9.507 -0.4836  0.7059 -1.2688
  908MPD2    H313303   1.418   0.384   9.457 -1.1733  2.4681  1.2051
  908MPD2     N13304   1.578   0.549   9.854  0.2177 -0.5365 -0.4670
  908MPD2    H513305   1.634   0.528   9.936 -0.2340 -1.2824 -0.3535
  908MPD2    N113306   1.643   0.092   9.735  0.5490  0.2192  0.2829
  908MPD2    H713307   1.703   0.088   9.816  0.8180  0.8816  0.1137
  909MPD2     C13308   2.489   2.896  11.746 -0.3997 -0.0371 -0.4576
  909MPD2    C113309   2.505   3.030  11.724  0.1560  0.7627 -0.2550
  909MPD2    C213310   2.456   3.121  11.821 -0.1491  0.0530  0.9817
  909MPD2    C313311   2.378   3.078  11.929  0.4736  0.6808  0.1520
  909MPD2    C413312   2.348   2.942  11.941 -0.0782  0.0124  0.2766
  909MPD2    C513313   2.404   2.859  11.848  0.7196 -0.2981  0.1845
  909MPD2     H13314   2.469   3.228  11.807  1.2117 -0.0324  1.6142
  909MPD2    H113315   2.302   2.901  12.030 -0.5234  3.0599  1.4413
  909MPD2    H213316   2.540   2.817  11.693 -0.9978 -1.1441  0.6122
  909MPD2    H313317   2.394   2.753  11.867  1.6154  0.1819  3.2949
  909MPD2     N13318   2.311   3.176  12.006 -0.3358 -0.3519 -0.2551
  909MPD2    H513319   2.335   3.272  11.983 -0.2494  0.0471  1.4608
  909MPD2    N113320   2.568   3.083  11.608  0.1697 -0.2553  0.3455
  909MPD2    H713321   2.577   3.184  11.603 -1.9341 -0.2273 -3.2363
  910MPD2     C13322   3.145   4.392  16.150 -0.6801  0.3613  0.5657
  910MPD2    C113323   3.261   4.386  16.076 -0.2569 -0.3349 -0.5240
  910MPD2    C213324   3.273   4.473  15.964 -0.1792 -0.3738 -0.0725
  910MPD2    C313325   3.166   4.539  15.916 -0.2407  0.3433 -0.1851
  910MPD2    C413326   3.053   4.545  15.994 -0.2075  0.5918 -0.1076
  910MPD2    C513327   3.043   4.473  16.113 -0.1892  0.4937 -0.7969
  910MPD2     H13328   3.361   4.481  15.901  0.3558 -0.7270  0.6225
  910MPD2    H113329   2.967   4.597  15.955 -1.1287 -0.9688 -0.1366
  910MPD2    H213330   3.135   4.342  16.246  0.3548  1.2227  1.1197
  910MPD2    H313331   2.950   4.483  16.169 -0.6275  1.2700 -1.6693
  910MPD2     N13332   3.155   4.594  15.789 -0.6631 -0.2843 -0.3536
  910MPD2    H513333   3.066   4.632  15.760  0.0412  1.6893  0.0577
  910MPD2    N113334   3.373   4.310  16.116  0.5670 -0.5923  0.1704
  910MPD2    H713335   3.448   4.321  16.049  1.0539  0.0286  0.8129
  911MPD2     C13336   1.110   0.150  16.085  0.0080 -0.0770  0.5111
  911MPD2    C113337   1.174   0.249  16.151 -0.0980  0.6598  0.0488
  911MPD2    C213338   1.116   0.370  16.158  0.6253  0.5622  0.1507
  911MPD2    C313339   0.995   0.390  16.099 -0.0937 -0.1903  0.7221
  911MPD2    C413340   0.927   0.288  16.042 -0.8412 -0.2087  0.4098
  911MPD2    C513341   0.980   0.165  16.030  0.3015 -0.2703 -0.5539
  911MPD2     H13342   1.161   0.455  16.208  0.4902 -0.3517  1.8440
  911MPD2    H113343   0.825   0.302  16.007 -1.5194 -1.1936  1.9715
  911MPD2    H213344   1.156   0.052  16.071 -2.3967 -0.9693 -1.0961
  911MPD2    H313345   0.924   0.091  15.973  0.9559  0.4699 -2.1472
  911MPD2     N13346   0.921   0.509  16.101 -0.6496  0.0572 -0.0103
  911MPD2    H513347   0.825   0.504  16.067 -0.9989  0.5087  0.8923
  911MPD2    N113348   1.295   0.213  16.209 -0.1583  0.1048  0.0611
  911MPD2    H713349   1.346   0.130  16.181 -1.3753 -0.6222  0.0242
  912MPD2     C13350   0.631   0.362  15.649  0.2886 -0.1301 -0.1334
  912MPD2    C113351   0.609   0.391  15.780 -0.3652  0.1182  0.3600
  912MPD2    C213352   0.603   0.295  15.878 -0.1014 -0.0988  0.0178
  912MPD2    C313353   0.606   0.166  15.843 -0.3866 -0.4198 -0.0222
  912MPD2    C413354   0.617   0.136  15.709  0.1549  0.0269 -0.2723
  912MPD2    C513355   0.626   0.230  15.612 -0.2924  0.3511  0.1255
  912MPD2     H13356   0.582   0.315  15.983 -2.4993 -2.0493 -0.0892
  912MPD2    H113357   0.624   0.031  15.681  0.7670  0.1405 -0.5429
  912MPD2    H213358   0.626   0.440  15.574  2.1169 -0.5041 -0.6360
  912MPD2    H313359   0.637   0.202  15.508  0.4001 -0.3390  0.3848
  912MPD2     N13360   0.645   0.074  15.945 -0.0617 -0.0078  0.2958
  912MPD2    H513361   0.647   0.112  16.039  0.6159  0.0371  0.2613
  912MPD2    N113362   0.618   0.522  15.814  0.4624  0.0895 -0.3343
  912MPD2    H713363   0.680   0.575  15.753  1.5397  1.3131  1.8047
  913MPD2     C13364   1.446   2.045  10.342  0.0320  0.1076 -0.2910
  913MPD2    C113365   1.557   2.102  10.400 -0.5521 -0.0349 -0.6052
  913MPD2    C213366   1.612   2.209  10.325 -0.2195  0.7380 -0.6397
  913MPD2    C313367   1.568   2.251  10.196  0.5446  0.6021 -0.0018
  913MPD2    C413368   1.463   2.175  10.143  0.2344  0.8008 -0.2205
  913MPD2    C513369   1.403   2.072  10.214 -0.0768 -0.4858 -0.0620
  913MPD2     H13370   1.690   2.268  10.373 -1.6218 -0.7819  3.4753
  913MPD2    H113371   1.416   2.196  10.048  0.3513 -0.9675 -0.6780
  913MPD2    H213372   1.385   1.972  10.394 -1.1229  0.9101 -0.5308
  913MPD2    H313373   1.325   2.008  10.175 -0.1245 -1.3900  1.5503
  913MPD2     N13374   1.614   2.361  10.116 -0.2482 -0.2338  0.4055
  913MPD2    H513375   1.559   2.374  10.032 -1.1533  0.2382  1.0782
  913MPD2    N113376   1.614   2.054  10.522  1.1654  0.9822  0.1001
  913MPD2    H713377   1.554   1.997  10.580  0.9299 -1.2187 -2.3397
  914MPD2     C13378   3.936   2.063  11.614  0.0173  0.2259 -0.0335
  914MPD2    C113379   3.945   2.189  11.664 -0.2385 -0.2512  0.2501
  914MPD2    C213380   4.020   2.206  11.780  0.7788  0.6232  0.3275
  914MPD2    C313381   4.072   2.095  11.859  0.3421  0.2160  0.9359
  914MPD2    C413382   4.051   1.969  11.803  0.2448  0.0292  0.7154
  914MPD2    C513383   3.984   1.953  11.682  0.0609  0.7408  0.6352
  914MPD2     H13384   4.038   2.305  11.820 -0.3969  2.1147 -2.8484
  914MPD2    H113385   4.085   1.877  11.849  0.3056 -0.4386 -0.2712
  914MPD2    H213386   3.879   2.045  11.524  2.2865  0.5299 -1.5287
  914MPD2    H313387   3.958   1.860  11.634 -0.3846  0.7892  0.7860
  914MPD2     N13388   4.148   2.117  11.982 -0.0756  0.8487 -0.0255
  914MPD2    H513389   4.163   2.215  12.005 -1.2084  1.4602 -1.9638
  914MPD2    N113390   3.902   2.299  11.582  0.5603 -0.5401  0.3233
  914MPD2    H713391   3.881   2.274  11.486 -1.2411  0.9545  0.3295
  915MPD2     C13392   2.729   1.932  15.629 -0.1464  0.1361  0.5719
  915MPD2    C113393   2.597   1.965  15.616 -0.4884  0.1594 -0.1596
  915MPD2    C213394   2.505   1.945  15.722  0.6785  0.4397  0.2079
  915MPD2    C313395   2.556   1.885  15.838 -0.4908  0.2218  0.2304
  915MPD2    C413396   2.689   1.852  15.847 -0.3965 -0.7145  0.4700
  915MPD2    C513397   2.775   1.875  15.744  0.8200 -0.0180 -0.0915
  915MPD2     H13398   2.401   1.970  15.705 -0.2700 -1.2434  3.4997
  915MPD2    H113399   2.736   1.831  15.943  0.8083  2.4998  0.5980
  915MPD2    H213400   2.788   1.957  15.542 -1.7267  2.6438  0.2057
  915MPD2    H313401   2.876   1.839  15.755  1.8175  2.5368 -0.8523
  915MPD2     N13402   2.467   1.894  15.950 -0.6307  0.1961  0.1887
  915MPD2    H513403   2.377   1.936  15.927 -0.1323 -0.0989 -2.3244
  915MPD2    N113404   2.549   2.025  15.495  0.4930 -0.1723 -0.4251
  915MPD2    H713405   2.607   2.006  15.414 -0.6233 -0.1888 -1.2252
  916MPD2     C13406   0.102   0.149  15.648 -0.2973  0.3048 -0.2641
  916MPD2    C113407   0.188   0.089  15.735  0.5287 -0.9659 -0.4797
  916MPD2    C213408   0.271   4.713  15.685 -0.8263 -0.2209  0.3058
  916MPD2    C313409   0.250   4.676  15.555  0.1831 -0.0532  0.1416
  916MPD2    C413410   0.157   0.014  15.474 -0.3290  0.0651 -1.1398
  916MPD2    C513411   0.101   0.127  15.520  0.0972 -0.2926  0.3132
  916MPD2     H13412   0.335   4.652  15.748 -1.3932 -2.2223 -1.1022
  916MPD2    H113413   0.142   4.723  15.368  0.2665  1.3005 -1.3990
  916MPD2    H213414   0.051   0.240  15.681  0.0115  0.1370  0.6788
  916MPD2    H313415   0.035   0.186  15.457 -0.7514 -2.9656 -1.3054
  916MPD2     N13416   0.319   4.564  15.498  0.1570 -0.6236 -0.1716
  916MPD2    H513417   0.368   4.501  15.561  1.1528  1.5744  1.2451
  916MPD2    N113418   0.202   0.140  15.870  0.2775  0.3527 -0.7312
  916MPD2    H713419   0.153   0.226  15.889 -0.0612  0.3274 -1.4570
  917MPD2     C13420   1.314   3.156  11.806 -0.1097 -0.2412  0.7044
  917MPD2    C113421   1.233   3.260  11.776 -0.4353 -0.3214  0.6057
  917MPD2    C213422   1.292   3.383  11.746 -0.0620  0.6189  0.7057
  917MPD2    C313423   1.427   3.388  11.722  0.2020 -0.3078 -0.2947
  917MPD2    C413424   1.510   3.291  11.764 -0.3138  0.3909 -1.3972
  917MPD2    C513425   1.454   3.178  11.807 -0.0710  0.9397  0.2558
  917MPD2     H13426   1.226   3.468  11.731  0.9779  1.2991 -0.0499
  917MPD2    H113427   1.616   3.310  11.758 -0.3375  1.0774  0.5684
  917MPD2    H213428   1.279   3.059  11.840 -2.3821  0.5688  0.6969
  917MPD2    H313429   1.511   3.097  11.851  0.7107  0.1229 -2.2941
  917MPD2     N13430   1.486   3.494  11.653 -0.3904 -0.2374  0.0970
  917MPD2    H513431   1.586   3.482  11.640 -0.6215 -0.7030 -1.2259
  917MPD2    N113432   1.093   3.253  11.779 -0.7471 -0.1397  0.2938
  917MPD2    H713433   1.047   3.342  11.764 -3.0676 -1.5435 -1.0287
  918MPD2     C13434   1.136   3.111  12.511 -0.4522  0.0398  0.2651
  918MPD2    C113435   1.192   3.086  12.391  0.3276 -0.1636  0.5043
  918MPD2    C213436   1.126   3.133  12.276  0.3389  0.0383  0.3416
  918MPD2    C313437   1.004   3.198  12.283  0.5337 -0.0284 -0.2720
  918MPD2    C413438   0.947   3.223  12.405  0.5591  0.3994  0.7698
  918MPD2    C513439   1.014   3.180  12.517 -0.1250 -0.3040 -0.3438
  918MPD2     H13440   1.165   3.117  12.176 -0.8475  1.5535 -0.3552
  918MPD2    H113441   0.858   3.284  12.412 -0.6091 -1.0001 -1.6630
  918MPD2    H213442   1.176   3.086  12.609  2.0266 -2.6037 -1.4285
  918MPD2    H313443   0.970   3.200  12.614 -0.5299  0.4027 -0.6727
  918MPD2     N13444   0.939   3.222  12.157 -0.1667 -0.2282 -0.5057
  918MPD2    H513445   0.995   3.202  12.075  1.5569 -2.1830  1.1608
  918MPD2    N113446   1.313   3.019  12.375 -0.1877 -0.4271 -0.3383
  918MPD2    H713447   1.336   3.006  12.277 -1.0677  0.0509 -0.6079
  919MPD2     C13448   1.570   1.654  11.963  0.0675  1.0773 -0.0212
  919MPD2    C113449   1.532   1.557  11.879  0.3261  0.1824  0.1893
  919MPD2    C213450   1.486   1.589  11.749 -0.0778 -0.5600 -0.4525
  919MPD2    C313451   1.479   1.716  11.705 -0.2661 -0.0449 -0.0871
  919MPD2    C413452   1.519   1.816  11.789  0.4489 -0.2031 -0.6969
  919MPD2    C513453   1.565   1.780  11.915  0.1916 -0.1807  0.2791
  919MPD2     H13454   1.476   1.496  11.694 -2.5175 -0.2489 -0.5388
  919MPD2    H113455   1.526   1.920  11.759 -0.2797 -0.2365 -0.9726
  919MPD2    H213456   1.594   1.636  12.067 -1.3806  1.1969  0.3447
  919MPD2    H313457   1.584   1.853  11.993 -2.5646 -0.9337  1.6545
  919MPD2     N13458   1.431   1.757  11.573  0.2489  0.3346  0.3015
  919MPD2    H513459   1.433   1.855  11.546  1.0713  0.3892  0.5513
  919MPD2    N113460   1.520   1.421  11.916 -0.2805  0.0524  0.5624
  919MPD2    H713461   1.501   1.356  11.840 -0.4647  1.2872 -0.4373
  920MPD2     C13462   1.710   2.332  10.837  0.0179 -0.1078  0.0133
  920MPD2    C113463   1.580   2.311  10.795 -0.3971 -0.1774 -0.2920
  920MPD2    C213464   1.501   2.219  10.869 -0.2545 -0.0407  0.6400
  920MPD2    C313465   1.549   2.146  10.973  0.2410  0.2796  0.3913
  920MPD2    C413466   1.681   2.165  11.003  0.1153 -0.2910 -0.2637
  920MPD2    C513467   1.757   2.248  10.930 -0.0959  0.2614 -1.0837
  920MPD2     H13468   1.399   2.195  10.842  0.0252 -1.1987  0.6022
  920MPD2    H113469   1.730   2.123  11.090 -1.0578 -0.0824  0.4890
  920MPD2    H213470   1.780   2.397  10.784 -0.9859  0.2523 -0.8791
  920MPD2    H313471   1.863   2.245  10.950  0.0127  1.8894 -1.4014
  920MPD2     N13472   1.465   2.057  11.046  0.5763  0.4477  0.0499
  920MPD2    H513473   1.367   2.047  11.022  0.4813 -1.3329  1.2024
  920MPD2    N113474   1.523   2.377  10.686 -0.2421 -0.1894  0.3047
  920MPD2    H713475   1.427   2.354  10.660 -0.7416  1.1934  0.9185
  921MPD2     C13476   2.153   0.265  16.891  0.2928  0.5999 -0.2659
  921MPD2    C113477   2.114   0.368  16.820 -0.1438  0.1876  0.0532
  921MPD2    C213478   1.998   0.363  16.744 -0.3367  0.5964  0.4604
  921MPD2    C313479   1.934   0.238  16.739  0.2298  0.0681  0.3821
  921MPD2    C413480   1.973   0.127  16.811  0.4355  0.5230 -0.1911
  921MPD2    C513481   2.087   0.144  16.891 -0.1777 -0.1548  0.2648
  921MPD2     H13482   1.962   0.442  16.678  2.5583  2.1340  0.7244
  921MPD2    H113483   1.919   0.034  16.799  0.7819  0.2298  0.4993
  921MPD2    H213484   2.242   0.266  16.953 -0.3686  1.9064  0.6511
  921MPD2    H313485   2.121   0.067  16.960  0.5574  1.3191  1.5501
  921MPD2     N13486   1.828   0.218  16.644  0.3593 -0.1710  0.8353
  921MPD2    H513487   1.804   0.120  16.632  2.3049 -0.8954  2.7280
  921MPD2    N113488   2.202   0.481  16.819 -0.6671  0.0424  0.0419
  921MPD2    H713489   2.263   0.478  16.900  0.2816  0.9915 -0.6376
  922MPD2     C13490   3.081   3.441  16.717  0.7911 -0.6670  0.4188
  922MPD2    C113491   3.184   3.353  16.754 -0.0290  0.4314 -0.3066
  922MPD2    C213492   3.156   3.250  16.838 -0.4838 -0.8080  0.7777
  922MPD2    C313493   3.035   3.243  16.903 -0.2413  0.5780 -0.1470
  922MPD2    C413494   2.934   3.342  16.874 -0.3902 -0.1627  0.9239
  922MPD2    C513495   2.957   3.437  16.780 -0.3123 -0.5169  0.0769
  922MPD2     H13496   3.228   3.171  16.855  0.4931  0.1312  0.9791
  922MPD2    H113497   2.837   3.352  16.922 -0.7995  1.7601 -0.2855
  922MPD2    H213498   3.089   3.516  16.639  2.2840  0.7347  1.9137
  922MPD2    H313499   2.875   3.504  16.759  1.0980  1.1651 -0.0997
  922MPD2     N13500   3.007   3.124  16.979  0.5906  0.6523 -0.2923
  922MPD2    H513501   3.083   3.057  16.987  0.6330  0.8136  0.6959
  922MPD2    N113502   3.318   3.369  16.701 -0.0377  0.8887 -0.1199
  922MPD2    H713503   3.383   3.297  16.732  0.0536  2.3470  3.1408
  923MPD2     C13504   4.545   0.727   8.942  0.9059 -0.4635 -0.2230
  923MPD2    C113505   4.536   0.832   9.030 -0.3840 -0.3292  0.3801
  923MPD2    C213506   4.626   0.851   9.130  0.4534 -0.3843  0.1231
  923MPD2    C313507   0.005   0.756   9.145  0.0182  0.9373 -0.0278
  923MPD2    C413508   0.014   0.658   9.046  0.3375  0.7963 -0.7109
  923MPD2    C513509   4.649   0.639   8.943 -0.3863 -0.2837 -0.5759
  923MPD2     H13510   4.617   0.923   9.210 -1.5229  0.7783 -1.1301
  923MPD2    H113511   0.092   0.584   9.064 -2.1619 -2.3785 -2.7597
  923MPD2    H213512   4.474   0.722   8.860  0.9845  0.6912 -0.3547
  923MPD2    H313513   4.646   0.561   8.868 -0.0428 -1.5905  0.7622
  923MPD2     N13514   0.107   0.763   9.242 -0.0617  0.7264 -0.0331
  923MPD2    H513515   0.177   0.690   9.231 -1.0065 -0.1678 -0.1505
  923MPD2    N113516   4.426   0.925   9.009 -0.2002 -0.4342 -1.1382
  923MPD2    H713517   4.354   0.893   8.945 -0.5149 -1.6506 -0.1740
  924MPD2     C13518   4.701   3.822  15.736 -0.1833 -0.2943  0.0971
  924MPD2    C113519   0.005   3.901  15.846 -0.3368  0.0539  0.0242
  924MPD2    C213520   4.710   4.032  15.833 -0.3592 -0.8195 -0.0189
  924MPD2    C313521   4.657   4.090  15.718 -0.4854 -1.1536  0.3402
  924MPD2    C413522   4.635   4.013  15.607 -0.0560 -0.8197  0.8270
  924MPD2    C513523   4.654   3.876  15.623 -0.3194 -0.4848  0.3227
  924MPD2     H13524   0.019   4.095  15.915 -0.4558 -0.5214 -0.2087
  924MPD2    H113525   4.609   4.057  15.511  1.4954 -1.9120 -0.0788
  924MPD2    H213526   4.694   3.714  15.745 -0.7486 -0.4074 -1.7052
  924MPD2    H313527   4.631   3.802  15.547  0.8993 -0.7262  0.1823
  924MPD2     N13528   4.647   4.233  15.720  0.0276 -0.3669  0.6456
  924MPD2    H513529   4.688   4.282  15.799 -3.0509  1.8056  0.8955
  924MPD2    N113530   0.050   3.840  15.971 -0.5787 -0.3347 -0.1675
  924MPD2    H713531   0.079   3.743  15.969  1.6666  0.3116  1.3741
  925MPD2     C13532   3.163   1.166  14.905 -0.6921  0.1143  0.1829
  925MPD2    C113533   3.060   1.153  14.810  0.0759  0.3007 -0.2132
  925MPD2    C213534   2.937   1.105  14.855  0.0247  0.4644  0.3754
  925MPD2    C313535   2.920   1.068  14.988  0.5190 -0.6169 -0.1311
  925MPD2    C413536   3.024   1.081  15.073 -0.0937 -0.1529  0.0211
  925MPD2    C513537   3.148   1.142  15.035 -0.2781 -0.5339 -0.7611
  925MPD2     H13538   2.858   1.094  14.782  0.2730 -0.0956  0.1907
  925MPD2    H113539   3.023   1.044  15.175  1.0673 -1.3015 -0.3825
  925MPD2    H213540   3.266   1.188  14.879 -1.0899  1.1155 -0.5835
  925MPD2    H313541   3.227   1.164  15.105 -0.1705  0.5285 -1.2124
  925MPD2     N13542   2.805   1.005  15.037  0.3518  0.0678 -0.1662
  925MPD2    H513543   2.809   0.946  15.119 -1.2786 -0.1665 -0.2426
  925MPD2    N113544   3.075   1.198  14.681  0.0309 -0.0262 -0.0139
  925MPD2    H713545   2.990   1.204  14.626  0.1887 -0.5947 -0.3132
  926MPD2     C13546   1.698   4.450  13.845 -0.0824 -0.1384 -0.1882
  926MPD2    C113547   1.695   4.580  13.797 -0.8456 -0.0202  0.1558
  926MPD2    C213548   1.810   4.630  13.736 -0.0910 -0.3054  0.2299
  926MPD2    C313549   1.924   4.555  13.723 -0.5673 -0.0858 -0.0593
  926MPD2    C413550   1.932   4.428  13.782 -0.0582  0.7632 -0.2478
  926MPD2    C513551   1.814   4.377  13.827 -0.4895  0.4279 -0.5051
  926MPD2     H13552   1.804   0.007  13.696 -0.0120 -0.7209 -0.8416
  926MPD2    H113553   2.015   4.359  13.794  0.3555  1.3893  0.4202
  926MPD2    H213554   1.621   4.399  13.902 -0.1933 -0.5748 -0.7241
  926MPD2    H313555   1.828   4.280  13.873 -0.6757  0.2696 -0.7806
  926MPD2     N13556   2.042   4.603  13.663  0.9118  0.0634 -0.4741
  926MPD2    H513557   2.118   4.538  13.648 -1.0312 -1.7870 -2.3341
  926MPD2    N113558   1.578   4.661  13.801  0.8367 -0.0669 -0.0388
  926MPD2    H713559   1.583   0.029  13.759 -2.1182  0.3739  0.5828
  927MPD2     C13560   1.321   1.893  17.460  1.2335  0.0716 -0.3543
  927MPD2    C113561   1.377   1.801  17.549 -0.0542  0.3045 -0.1877
  927MPD2    C213562   1.509   1.751  17.535 -0.2394 -0.7948  0.3929
  927MPD2    C313563   1.584   1.810  17.434 -0.1634  0.3885  0.6233
  927MPD2    C413564   1.535   1.910  17.353  0.1487 -0.0694  0.3519
  927MPD2    C513565   1.401   1.945  17.368 -0.1515 -0.4948  0.5996
  927MPD2     H13566   1.564   1.685  17.602  0.8644 -0.4878 -0.2081
  927MPD2    H113567   1.592   1.969  17.282 -1.2195 -2.9791 -3.1642
  927MPD2    H213568   1.218   1.925  17.475  1.3917  0.4221 -0.0138
  927MPD2    H313569   1.359   2.017  17.299 -0.6278 -1.0881  0.2694
  927MPD2     N13570   1.719   1.752  17.425  0.1078  0.0444  0.3289
  927MPD2    H513571   1.745   1.671  17.481 -0.9260  0.3100  1.1989
  927MPD2    N113572   1.294   1.761  17.655 -0.0493  0.3657 -0.3228
  927MPD2    H713573   1.202   1.802  17.671 -0.2881 -0.3865  0.2078
  928MPD2     C13574   4.212   4.487   0.897 -0.2277 -0.2966  0.9690
  928MPD2    C113575   4.246   4.623   0.902  0.3149 -0.1878 -0.3340
  928MPD2    C213576   4.353   4.670   0.828  0.4592 -0.2825  0.4130
  928MPD2    C313577   4.425   4.585   0.746  0.2224 -0.6292  0.2582
  928MPD2    C413578   4.390   4.453   0.743  0.0262 -0.5989  0.0608
  928MPD2    C513579   4.288   4.403   0.819 -0.1871  0.3641 -0.2351
  928MPD2     H13580   4.380   0.051   0.830  4.9193 -1.4335 -0.8183
  928MPD2    H113581   4.433   4.383   0.673 -1.7398 -1.6065 -0.0207
  928MPD2    H213582   4.124   4.441   0.940 -0.3126 -2.0293 -1.0546
  928MPD2    H313583   4.264   4.297   0.827  0.3947  0.4444  2.6099
  928MPD2     N13584   4.530   4.628   0.665  0.4203  0.2649  0.1900
  928MPD2    H513585   4.552   4.568   0.587  3.6470  1.0632  0.4824
  928MPD2    N113586   4.164   4.699   0.987 -0.1111 -0.4513  0.6774
  928MPD2    H713587   4.084   4.650   1.025 -0.9479 -1.3978 -2.3286
  929MPD2     C13588   4.691   1.044  10.206  0.3694  1.0888 -0.0699
  929MPD2    C113589   4.665   0.932  10.129  0.0323 -0.4263  1.1512
  929MPD2    C213590   4.675   0.945   9.994 -0.1779 -0.2886 -0.0031
  929MPD2    C313591   4.697   1.078   9.943  0.6585 -0.4950  0.2692
  929MPD2    C413592   4.710   1.187  10.029  0.1358 -0.2067  0.1163
  929MPD2    C513593   4.715   1.169  10.159 -0.5326  0.2573 -0.3168
  929MPD2     H13594   4.670   0.866   9.919 -1.9341  0.3267 -0.5340
  929MPD2    H113595   0.007   1.286   9.991 -2.8980  0.0305 -0.9215
  929MPD2    H213596   4.670   1.030  10.311  1.9732  2.6231  0.4469
  929MPD2    H313597   4.722   1.258  10.220 -0.3136 -0.2343  0.3766
  929MPD2     N13598   4.666   1.109   9.813 -0.0931  0.6838  0.3659
  929MPD2    H513599   4.641   1.206   9.796 -0.9921  0.8819  2.8346
  929MPD2    N113600   4.619   0.814  10.190  0.4244  0.0964  0.4534
  929MPD2    H713601   4.622   0.800  10.290 -0.8695 -3.3841 -0.0099
  930MPD2     C13602   0.902   2.634  13.704 -0.7147 -0.4499 -0.5015
  930MPD2    C113603   1.029   2.595  13.680 -0.0581 -0.0009 -0.1150
  930MPD2    C213604   1.050   2.478  13.616  0.3182  0.2279 -0.0645
  930MPD2    C313605   0.943   2.405  13.571  0.2394 -0.1461 -0.0273
  930MPD2    C413606   0.810   2.441  13.603  0.0890  0.4672 -0.4921
  930MPD2    C513607   0.793   2.564  13.672 -0.6913  0.8187  0.5361
  930MPD2     H13608   1.151   2.439  13.604  0.1443 -0.3212  0.2453
  930MPD2    H113609   0.723   2.384  13.571  1.5440 -1.6146 -0.7242
  930MPD2    H213610   0.881   2.728  13.755 -0.3629 -0.4872 -0.2917
  930MPD2    H313611   0.694   2.605  13.684 -1.0606 -0.2667  1.1184
  930MPD2     N13612   0.976   2.277  13.509 -0.1230  0.0918 -0.1560
  930MPD2    H513613   0.905   2.208  13.533 -1.9625  2.1285  0.2472
  930MPD2    N113614   1.140   2.673  13.716 -0.2047 -0.4276  0.1492
  930MPD2    H713615   1.127   2.760  13.766 -0.3449 -0.3315 -0.0520
  931MPD2     C13616   1.600   1.397   0.509  0.2039  1.1445 -0.0781
  931MPD2    C113617   1.481   1.443   0.560 -0.2779 -0.2069 -0.0480
  931MPD2    C213618   1.472   1.449   0.695  0.4219 -0.0802  0.1153
  931MPD2    C313619   1.576   1.407   0.774 -0.7730 -0.1874 -0.1189
  931MPD2    C413620   1.701   1.389   0.723  0.2004 -0.1621  1.0960
  931MPD2    C513621   1.711   1.377   0.590 -0.2232  0.2190 -0.2832
  931MPD2     H13622   1.373   1.477   0.728  0.8382  2.2217 -0.5732
  931MPD2    H113623   1.793   1.381   0.780 -1.1246 -0.1220  3.2454
  931MPD2    H213624   1.606   1.393   0.401  0.7905  1.8965 -0.0802
  931MPD2    H313625   1.808   1.351   0.550  0.5802 -0.8479  2.4332
  931MPD2     N13626   1.571   1.411   0.913  0.0725  0.2948 -0.0908
  931MPD2    H513627   1.649   1.375   0.967 -1.5379 -2.8067  0.2039
  931MPD2    N113628   1.380   1.479   0.468 -0.2994 -0.3758 -0.4153
  931MPD2    H713629   1.399   1.458   0.370  2.2015  2.0018 -0.4332
  932MPD2     C13630   3.062   1.471  11.077 -0.2360 -0.4149 -0.7746
  932MPD2    C113631   3.174   1.537  11.037 -1.2173 -0.7551 -0.3178
  932MPD2    C213632   3.271   1.475  10.957  0.4335 -0.3231  0.1033
  932MPD2    C313633   3.263   1.338  10.938 -0.3579  1.0258 -0.3755
  932MPD2    C413634   3.149   1.278  10.985  0.0992 -0.6514  0.0859
  932MPD2    C513635   3.046   1.340  11.051 -0.0238  0.6638  0.4622
  932MPD2     H13636   3.360   1.536  10.947 -0.2357  0.9120  1.6275
  932MPD2    H113637   3.131   1.173  10.963 -0.3998 -0.7408  0.9377
  932MPD2    H213638   2.980   1.526  11.122 -0.5540 -1.5253 -0.0007
  932MPD2    H313639   2.955   1.284  11.067 -0.6308  1.9560  1.5584
  932MPD2     N13640   3.362   1.263  10.873 -0.0853 -0.4046 -0.0125
  932MPD2    H513641   3.342   1.164  10.868  1.5379 -0.6947 -0.6153
  932MPD2    N113642   3.200   1.672  11.055 -0.4984 -0.1828  0.2107
  932MPD2    H713643   3.288   1.707  11.019  0.0233 -2.3294 -0.6241
  933MPD2     C13644   3.542   0.510   1.314  0.0249 -0.1931 -0.0004
  933MPD2    C113645   3.657   0.530   1.243  0.2727 -0.0180  0.1741
  933MPD2    C213646   3.670   0.639   1.167 -1.1025  0.2849  0.1805
  933MPD2    C313647   3.556   0.714   1.140 -0.5206 -0.7068 -0.5346
  933MPD2    C413648   3.436   0.696   1.207  0.1985  0.3517  0.2051
  933MPD2    C513649   3.424   0.585   1.289  0.5309 -0.3829  0.0014
  933MPD2     H13650   3.764   0.667   1.120 -1.2424  2.9948  1.5423
  933MPD2    H113651   3.352   0.765   1.205  0.4099  0.6207  0.5414
  933MPD2    H213652   3.537   0.426   1.383 -0.5011  0.1094  0.3301
  933MPD2    H313653   3.335   0.561   1.346  0.4270 -3.1352 -1.3340
  933MPD2     N13654   3.575   0.814   1.046  0.2122 -0.0842 -0.2483
  933MPD2    H513655   3.670   0.813   1.009  0.0943  1.9006 -0.6539
  933MPD2    N113656   3.771   0.445   1.267 -0.1910  0.3424 -0.6141
  933MPD2    H713657   3.769   0.374   1.340 -1.3819 -2.2818 -3.1820
  934MPD2     C13658   0.140   2.647   1.864  0.1127  0.5536 -0.2579
  934MPD2    C113659   0.167   2.516   1.887  0.0130  0.6907  0.2301
  934MPD2    C213660   0.083   2.421   1.832 -0.0280 -0.4583 -0.0494
  934MPD2    C313661   4.696   2.459   1.759  0.5548  0.5042 -0.0155
  934MPD2    C413662   4.679   2.591   1.722  0.0042  0.5667 -0.0095
  934MPD2    C513663   0.027   2.684   1.788 -0.2322  0.0528  0.2607
  934MPD2     H13664   0.105   2.318   1.856 -0.9378 -0.3849  1.1157
  934MPD2    H113665   4.606   2.635   1.654 -0.5827 -0.5585 -0.0949
  934MPD2    H213666   0.208   2.721   1.904 -0.6494 -0.5906  3.1839
  934MPD2    H313667   0.023   2.788   1.757 -2.3528 -0.4604 -1.1583
  934MPD2     N13668   4.621   2.358   1.697 -0.1115 -0.2634  0.1160
  934MPD2    H513669   4.556   2.396   1.629 -1.8043 -3.8452 -0.2280
  934MPD2    N113670   0.277   2.469   1.958 -0.1641  0.0437 -0.2920
  934MPD2    H713671   0.290   2.369   1.949  0.7470  0.0565  0.8963
  935MPD2     C13672   0.391   1.609   1.449 -0.0576 -0.0633  0.7325
  935MPD2    C113673   0.317   1.634   1.330 -0.3673 -0.0480  0.0551
  935MPD2    C213674   0.215   1.721   1.334  0.1611  0.3698  0.1443
  935MPD2    C313675   0.179   1.793   1.449 -0.2050  0.7514  0.1378
  935MPD2    C413676   0.252   1.770   1.567  0.1087  0.0381 -0.1406
  935MPD2    C513677   0.364   1.685   1.562  0.4635 -0.1407  0.0438
  935MPD2     H13678   0.149   1.732   1.248  0.8208  1.5853 -0.2112
  935MPD2    H113679   0.239   1.820   1.662 -0.1013 -1.1305  0.4434
  935MPD2    H213680   0.472   1.537   1.456 -0.3756 -0.9065 -4.3279
  935MPD2    H313681   0.417   1.672   1.655  1.3911 -3.1340 -0.9015
  935MPD2     N13682   0.071   1.882   1.460  0.6313 -0.0536  0.7384
  935MPD2    H513683   0.076   1.940   1.543 -0.1021  0.1105  0.6647
  935MPD2    N113684   0.333   1.559   1.207 -0.0533  0.8931  0.7262
  935MPD2    H713685   0.277   1.591   1.128 -1.6955  0.5399  1.7357
  936MPD2     C13686   2.833   0.032  11.868 -0.4070  0.5811  0.6859
  936MPD2    C113687   2.936   0.028  11.961  0.7543  0.6063  0.0717
  936MPD2    C213688   3.062   0.063  11.915 -0.2350  0.0551 -0.0701
  936MPD2    C313689   3.084   0.091  11.782 -0.4684 -0.2277 -0.6338
  936MPD2    C413690   2.978   0.091  11.692  0.2726  0.0080 -0.2511
  936MPD2    C513691   2.852   0.062  11.734  0.6157  0.3227 -1.1517
  936MPD2     H13692   3.148   0.062  11.981  0.2601  0.2117 -0.7067
  936MPD2    H113693   2.989   0.124  11.589  1.9779  0.6229  0.1299
  936MPD2    H213694   2.729   0.026  11.898 -0.8716 -0.2716 -1.1531
  936MPD2    H313695   2.767   0.091  11.673  0.2141 -2.9607 -2.1664
  936MPD2     N13696   3.210   0.118  11.731 -1.0653  0.4199 -0.4148
  936MPD2    H513697   3.221   0.105  11.631 -3.3322  2.4691 -0.9289
  936MPD2    N113698   2.925   4.695  12.088 -0.1283 -0.6278  0.2770
  936MPD2    H713699   3.010   4.698  12.143 -0.8717  0.1641  1.3746
  937MPD2     C13700   1.538   0.846  11.593 -0.1795 -0.3740  0.1393
  937MPD2    C113701   1.615   0.950  11.643  1.1436  0.6770 -0.2869
  937MPD2    C213702   1.680   1.026  11.545 -0.6177  0.4187 -0.4029
  937MPD2    C313703   1.697   0.989  11.413  0.0361 -0.6850 -0.3587
  937MPD2    C413704   1.635   0.866  11.377  0.4434  0.1008  0.0257
  937MPD2    C513705   1.558   0.800  11.463 -1.3763  0.5008  0.3126
  937MPD2     H13706   1.726   1.118  11.578 -0.0492 -0.4056  1.1599
  937MPD2    H113707   1.646   0.828  11.276 -1.7630  0.6875 -0.4419
  937MPD2    H213708   1.478   0.779  11.654  0.6270 -0.2678  1.0464
  937MPD2    H313709   1.515   0.707  11.425  0.5710  0.5594 -2.0915
  937MPD2     N13710   1.761   1.079  11.321  0.5342  0.4299  0.5421
  937MPD2    H513711   1.806   1.162  11.360 -0.7374  1.1615  0.4570
  937MPD2    N113712   1.577   0.999  11.770  0.1686  0.8055 -0.3101
  937MPD2    H713713   1.598   1.096  11.787  0.8752  0.1906  2.2801
  938MPD2     C13714   4.234   1.586   0.793  0.7813  0.3634  0.2052
  938MPD2    C113715   4.186   1.698   0.851  0.2791  0.4714  0.2062
  938MPD2    C213716   4.159   1.691   0.989 -0.1226  0.1009 -0.8221
  938MPD2    C313717   4.172   1.573   1.055 -0.4643 -0.3045  0.0675
  938MPD2    C413718   4.229   1.467   0.993 -0.2686 -0.8241  0.4693
  938MPD2    C513719   4.256   1.470   0.862  0.6707 -0.2196  0.1656
  938MPD2     H13720   4.126   1.781   1.040 -2.3774 -1.3169  0.2082
  938MPD2    H113721   4.263   1.381   1.050  1.2444  0.6574  1.8108
  938MPD2    H213722   4.255   1.589   0.687  1.6242 -0.2444  0.3510
  938MPD2    H313723   4.318   1.391   0.821  3.2615  0.4051  2.8311
  938MPD2     N13724   4.138   1.553   1.192 -0.1975 -0.0670 -0.0100
  938MPD2    H513725   4.158   1.464   1.236 -2.1066  0.2690  1.5551
  938MPD2    N113726   4.180   1.819   0.781  0.3492  0.4271 -0.7305
  938MPD2    H713727   4.153   1.901   0.834  3.4352  0.3439  0.9069
  939MPD2     C13728   0.653   3.182   1.668 -0.1793  0.7497  0.0068
  939MPD2    C113729   0.578   3.218   1.557 -0.1391 -0.0689  0.4125
  939MPD2    C213730   0.640   3.220   1.437  0.3345 -0.2776 -0.1747
  939MPD2    C313731   0.772   3.197   1.415  0.0110  0.4069 -0.5047
  939MPD2    C413732   0.845   3.166   1.528 -0.2131  0.7529  0.4887
  939MPD2    C513733   0.782   3.140   1.650  0.1797 -0.5090 -0.3730
  939MPD2     H13734   0.586   3.253   1.350 -1.4646 -1.2421  0.5756
  939MPD2    H113735   0.953   3.159   1.531 -0.3728 -2.0843 -0.0321
  939MPD2    H213736   0.616   3.171   1.770 -0.7816  1.5564 -0.1255
  939MPD2    H313737   0.839   3.107   1.736 -2.2668 -0.4794  1.2706
  939MPD2     N13738   0.822   3.212   1.285  0.1943 -0.0524 -0.2400
  939MPD2    H513739   0.750   3.230   1.216  0.5987  0.2972 -0.5660
  939MPD2    N113740   0.439   3.243   1.575  0.2526 -0.5804 -0.6332
  939MPD2    H713741   0.408   3.242   1.672 -0.1370 -0.4636 -0.7556
  940MPD2     C13742   3.638   4.126  12.793 -0.6849  0.2055 -0.5691
  940MPD2    C113743   3.772   4.138  12.824 -0.0503 -0.7882  0.4494
  940MPD2    C213744   3.858   4.212  12.743  0.5430 -0.4308 -0.2984
  940MPD2    C313745   3.808   4.278  12.632 -0.1829 -0.4001  0.0869
  940MPD2    C413746   3.677   4.268  12.599 -0.7637 -0.1844 -0.2196
  940MPD2    C513747   3.596   4.192  12.680  0.2992  0.1734  0.3287
  940MPD2     H13748   3.961   4.211  12.778  0.5576 -0.0759 -0.3367
  940MPD2    H113749   3.641   4.312  12.507  1.9186  0.8524 -0.7696
  940MPD2    H213750   3.567   4.063  12.845  1.4037 -2.1537 -0.6031
  940MPD2    H313751   3.492   4.174  12.653  0.4742  0.2263 -0.3813
  940MPD2     N13752   3.887   4.362  12.551  0.1429  0.1613 -0.1320
  940MPD2    H513753   3.846   4.405  12.469  1.9872 -0.2287 -1.2663
  940MPD2    N113754   3.839   4.083  12.932  0.2341 -0.0102  0.2110
  940MPD2    H713755   3.940   4.086  12.927  0.2614  0.4788  0.9961
  941MPD2     C13756   4.127   3.988   9.177  0.3151 -0.0286  0.6468
  941MPD2    C113757   4.207   3.923   9.271 -0.5397  0.7592  0.7665
  941MPD2    C213758   4.155   3.830   9.354  0.0795  0.1893 -0.5160
  941MPD2    C313759   4.018   3.819   9.363 -0.3865  0.3418 -0.0019
  941MPD2    C413760   3.938   3.878   9.268 -0.2715  0.0102  0.2023
  941MPD2    C513761   3.995   3.963   9.172 -0.1136 -0.7832 -0.2013
  941MPD2     H13762   4.223   3.772   9.416 -1.9645 -0.5790  0.9852
  941MPD2    H113763   3.831   3.859   9.265 -0.5174  1.5933 -1.1997
  941MPD2    H213764   4.164   4.069   9.116  0.2344 -0.2402  0.3150
  941MPD2    H313765   3.935   4.007   9.094  0.0071  0.1465  0.2263
  941MPD2     N13766   3.950   3.736   9.464 -0.8986 -0.0908 -0.1886
  941MPD2    H513767   3.849   3.724   9.465 -0.7124 -1.5064  1.0604
  941MPD2    N113768   4.347   3.940   9.278  0.1823 -0.8352  0.2087
  941MPD2    H713769   4.401   3.879   9.338  2.4003 -0.8377 -1.7925
  942MPD2     C13770   3.160   4.579   9.216 -0.6335  0.1084 -0.2228
  942MPD2    C113771   3.208   4.646   9.325  0.4381 -0.3368 -0.1394
  942MPD2    C213772   3.346   4.667   9.341 -0.2664 -0.2203 -0.4124
  942MPD2    C313773   3.431   4.639   9.233  0.1990  0.8786 -0.2671
  942MPD2    C413774   3.371   4.577   9.121  0.6147  0.0935  0.1041
  942MPD2    C513775   3.239   4.546   9.116 -0.5293  0.5276 -0.1327
  942MPD2     H13776   3.387   4.706   9.433 -0.8813  1.5833 -0.9078
  942MPD2    H113777   3.421   4.544   9.030  1.9771  2.6156 -0.0483
  942MPD2    H213778   3.056   4.553   9.199 -0.6997  0.2363 -0.0067
  942MPD2    H313779   3.193   4.499   9.030 -0.3986  3.1328 -1.6460
  942MPD2     N13780   3.570   4.676   9.226 -0.2797  0.1453 -0.7661
  942MPD2    H513781   3.627   4.672   9.142 -2.2931  1.2061 -2.1947
  942MPD2    N113782   3.119   4.703   9.424 -0.1065 -0.3677 -0.6577
  942MPD2    H713783   3.163   0.021   9.505  1.5252 -1.4755 -0.9623
  943MPD2     C13784   3.008   3.645   9.925 -0.2853  1.0117  0.4796
  943MPD2    C113785   2.886   3.619   9.980 -0.1160 -0.0417 -0.1492
  943MPD2    C213786   2.869   3.650  10.110 -0.3707  0.8077 -0.2072
  943MPD2    C313787   2.957   3.738  10.174  0.3641 -1.1158  0.7692
  943MPD2    C413788   3.072   3.773  10.110  0.2886  0.6918  0.6670
  943MPD2    C513789   3.110   3.716   9.988 -0.1163  0.1952 -1.5882
  943MPD2     H13790   2.769   3.629  10.148 -0.2026 -0.6695 -0.5839
  943MPD2    H113791   3.142   3.848  10.144 -1.6588  2.1010  1.5758
  943MPD2    H213792   3.029   3.609   9.825  4.3301 -2.6273  2.7140
  943MPD2    H313793   3.203   3.741   9.939  0.3959  1.8146  0.1972
  943MPD2     N13794   2.938   3.788  10.303  0.2720 -0.9777  0.6544
  943MPD2    H513795   3.020   3.838  10.336 -0.8590  0.8520  0.6844
  943MPD2    N113796   2.793   3.544   9.899  0.1642 -0.1037 -0.0585
  943MPD2    H713797   2.829   3.523   9.806  0.3455 -2.3705  0.5055
  944MPD2     C13798   2.132   2.363  10.902 -0.2694 -0.0072 -0.0467
  944MPD2    C113799   2.183   2.482  10.871 -0.1973 -0.1257 -0.2303
  944MPD2    C213800   2.203   2.576  10.976 -1.1917 -0.5194  0.2316
  944MPD2    C313801   2.181   2.547  11.107 -1.0566 -0.5603  0.0642
  944MPD2    C413802   2.159   2.410  11.135  0.3051  0.0727 -0.0422
  944MPD2    C513803   2.133   2.328  11.034  0.2939  0.2982  0.0370
  944MPD2     H13804   2.241   2.676  10.955  0.0373 -1.0495 -0.0669
  944MPD2    H113805   2.143   2.365  11.232 -0.9078 -0.9736 -0.7188
  944MPD2    H213806   2.090   2.295  10.829 -0.2482  1.5770 -1.5405
  944MPD2    H313807   2.104   2.226  11.058  1.6736 -0.1156 -0.0389
  944MPD2     N13808   2.196   2.646  11.205  0.1037 -0.4816  0.6689
  944MPD2    H513809   2.205   2.743  11.175  0.6833 -0.5767  0.5180
  944MPD2    N113810   2.207   2.515  10.735  0.0067  0.4269 -0.2138
  944MPD2    H713811   2.182   2.454  10.658 -0.7538  3.1459 -2.0891
    1TCq1    O113812   0.286   2.916  14.008 -0.2552 -0.7487 -0.2118
    1TCq1    C113813   0.340   3.038  14.018  0.5669 -0.0136 -0.1619
    1TCq1    O213814   0.300   3.137  13.953  0.1691  0.0874  0.1336
    1TCq1    C213815   0.393   3.045  14.154 -0.2658 -1.3260 -0.1670
    1TCq1    C313816   0.445   2.923  14.202  0.0624  0.1331 -0.4072
    1TCq1    C413817   0.504   2.936  14.329 -0.0934  0.2408 -0.3728
    1TCq1    C513818   0.514   3.056  14.396 -0.5590 -0.7079 -0.3396
    1TCq1    C613819   0.453   3.171  14.346  0.3804  0.1228 -0.0376
    1TCq1    C713820   0.395   3.170  14.219  0.0611 -0.7858  0.5279
    1TCq1    C813821   0.486   3.295  14.417 -0.7134  0.0708 -0.0016
    1TCq1    O413822   0.565   3.278  14.505  0.2315 -0.0873 -0.0991
    1TCq1    C913823   0.582   2.826  14.379 -0.8276 -0.1957 -0.0275
    1TCq1    O513824   0.646   2.846  14.487  0.3148  0.1010 -0.4149
    1TCq1    O613825   0.595   2.727  14.307  0.1594 -0.2631  0.4054
    1TCq1    H113826   0.294   2.860  14.088  0.6717 -0.7336 -0.2970
    1TCq1    H213827   0.471   2.834  14.147  0.2927 -0.6528  0.9687
    1TCq1    H313828   0.558   3.057  14.495 -0.6917  0.4342 -0.2946
    1TCq1    H413829   0.353   3.258  14.173  2.2742 -0.1661 -0.2787
    2MPD2     C13830   0.365   3.754  14.614  1.0799  0.2938  0.2235
    2MPD2    C113831   0.293   3.728  14.496 -0.0378  0.3400  0.0477
    2MPD2    C213832   0.292   3.603  14.438  0.3278  0.4337 -0.3347
    2MPD2    C313833   0.367   3.500  14.487 -0.2511 -0.0106  0.5208
    2MPD2    C413834   0.453   3.528  14.594 -0.4143  0.0957  0.7186
    2MPD2    C513835   0.445   3.653  14.660 -0.4873  0.2862  0.6491
    2MPD2     H13836   0.233   3.574  14.352  2.2740 -0.4290 -1.3796
    2MPD2    H113837   0.520   3.456  14.640  1.5323 -0.2514 -2.7234
    2MPD2    H213838   0.366   3.843  14.676 -0.3492 -0.9395  2.0428
    2MPD2    H313839   0.498   3.663  14.754 -0.3464 -2.7487  0.8923
    2MPD2     N13840   0.377   3.383  14.407 -1.1458 -0.8736  0.1399
    2MPD2    H513841   0.309   3.380  14.331 -0.0537 -2.5216 -0.7650
    2MPD2    N113842   0.214   3.828  14.442  0.3661  0.4353  0.5651
    2MPD2    H713843   0.215   3.919  14.487  0.1325  0.5803  0.2809
    3TMC2    C113844   0.085   3.948  14.290 -0.7695  0.5854  0.3263
    3TMC2    C213845   0.064   4.046  14.382 -0.1291  0.0293 -0.7562
    3TMC2    C313846   0.054   4.176  14.332  0.6204  0.6463 -0.1501
    3TMC2    C413847   0.076   3.975  14.154 -0.3936  0.2320 -0.2201
    3TMC2    C513848   0.072   4.105  14.119  0.0551 -0.6216  0.3112
    3TMC2    C613849   0.057   4.210  14.197 -0.2238  0.0525  0.3176
    3TMC2     C13850   0.136   3.817  14.329 -0.1511  0.2937  1.4673
    3TMC2     O13851   0.123   3.733  14.243 -0.3278 -0.5812  0.2141
    3TMC2     H13852   0.054   4.027  14.488  0.3020  1.4968 -0.4508
    3TMC2    H113853   0.082   3.893  14.084  1.7578  0.9669 -0.8810
    3TMC2    H213854   0.054   4.315  14.171 -1.8411  0.4286  2.0069
    3TMC2    C713855   0.066   4.137  13.978 -0.0057 -0.1277  0.7572
    3TMC2    C813856   0.030   4.277  14.429  0.6417 -0.6828 -0.2720
    3TMC2    O113857   0.010   4.243  13.959 -0.3991 -0.3320 -0.1523
    3TMC2    O213858   4.685   4.371  14.390  0.1263 -0.1495  0.1857
    3TMC2    O513859   0.108   4.274  14.544  0.2519 -0.1107  0.0714
    3TMC2    H513860   0.161   4.191  14.547 -2.7695 -2.0147  0.2245
    4MPD2     C13861   4.176   0.367  13.100  0.5383  0.1397 -0.6582
    4MPD2    C113862   4.170   0.276  12.996  0.0732  0.0401  0.4825
    4MPD2    C213863   4.227   0.154  13.021 -0.4585 -0.8030  0.3794
    4MPD2    C313864   4.278   0.110  13.139  0.5144  0.0157 -0.5416
    4MPD2    C413865   4.289   0.210  13.243 -0.0436  0.4350  0.1215
    4MPD2    C513866   4.236   0.333  13.217 -0.0247  0.3362  0.9127
    4MPD2     H13867   4.220   0.078  12.944 -1.1935 -1.3204  0.9503
    4MPD2    H113868   4.327   0.195  13.344  0.3717  0.0692 -0.0903
    4MPD2    H213869   4.115   0.456  13.095 -0.0013 -0.1505  0.9571
    4MPD2    H313870   4.244   0.405  13.298  1.3772  1.3929 -0.1518
    4MPD2     N13871   4.319   4.697  13.152  0.0598  0.4409  0.4165
    4MPD2    H513872   4.309   4.632  13.074  0.0233  1.6136 -0.5563
    4MPD2    N113873   4.098   0.329  12.884  0.0481  0.2923  0.4785
    4MPD2    H713874   4.078   0.428  12.888 -0.1873  0.3884 -2.6207
    5TCq2    C113875   4.374   4.651  13.264  0.6350 -0.0581 -0.4282
    5TCq2    O213876   4.398   4.699  13.376 -0.1532 -0.0243  0.0999
    5TCq2    C213877   4.429   4.518  13.243  0.1238 -0.9105  0.5242
    5TCq2    C313878   4.478   4.484  13.121  0.3419  0.3754 -0.4268
    5TCq2    C413879   4.561   4.377  13.119  0.9353  0.2148 -0.5261
    5TCq2    C513880   4.589   4.307  13.229 -0.4045 -0.4872  0.2061
    5TCq2    C613881   4.539   4.342  13.353 -0.9662 -0.9740  0.4742
    5TCq2    C713882   4.450   4.448  13.361 -0.2622  0.1058 -0.0922
    5TCq2    C813883   4.589   4.288  13.481 -0.3441  0.5541 -0.5470
    5TCq2    O413884   4.574   4.362  13.581  0.3626  0.3464  0.2979
    5TCq2    C913885   4.610   4.333  12.993  0.5888  0.2674 -0.5935
    5TCq2    O513886   4.612   4.409  12.890 -0.8795 -0.0266 -0.3319
    5TCq2    O613887   4.684   4.234  13.001 -0.5121  0.2172  0.2343
    5TCq2    H213888   4.458   4.539  13.029 -0.7071  1.9541  0.7397
    5TCq2    H313889   4.669   4.236  13.213  0.7446  0.7207  0.5746
    5TCq2    H413890   4.409   4.480  13.456 -1.5836 -0.4391 -0.4734
    6MPD1     C13891   4.167   0.698  14.245  0.1015 -0.1825 -0.3835
    6MPD1    C113892   4.148   0.826  14.184 -0.8440 -0.5974  0.2694
    6MPD1    C213893   4.083   0.828  14.063 -0.3518  0.7067 -0.2038
    6MPD1    C313894   4.012   0.717  14.022 -0.3605  0.1046 -0.3636
    6MPD1    C413895   4.012   0.597  14.090 -0.1871  0.1026 -0.0067
    6MPD1    C513896   4.098   0.589  14.197  0.0516  0.2206 -0.3046
    6MPD1     H13897   4.074   0.926  14.019 -0.6003  1.5572  1.7333
    6MPD1    H113898   3.960   0.512  14.046 -1.8989  1.3364 -0.3654
    6MPD1    H213899   4.234   0.669  14.325  0.5207  0.3424 -0.5390
    6MPD1    H313900   4.112   0.501  14.258 -3.2529 -0.0041  0.1197
    6MPD1     N13901   3.936   0.711  13.901 -0.4744 -0.3472  0.3603
    6MPD1    H513902   3.886   0.623  13.893 -0.6759 -0.2945  1.0336
    6MPD1    N113903   4.216   0.938  14.225 -0.8838 -0.4941  0.6381
    6MPD1    H613904   4.316   0.920  14.232 -0.5643  0.2000 -2.0639
    6MPD1    H713905   4.192   1.033  14.196  1.6130  0.6772  2.4151
    7MPD2     C13906   3.887   0.259  13.320 -0.2634 -0.7777 -1.2130
    7MPD2    C113907   3.778   0.342  13.290 -0.4487  0.5210  0.1413
    7MPD2    C213908   3.714   0.334  13.167  0.0727 -0.5418  0.6102
    7MPD2    C313909   3.773   0.249  13.076 -0.0005 -0.3491 -0.2115
    7MPD2    C413910   3.874   0.157  13.109  0.8423  1.3935  0.2622
    7MPD2    C513911   3.928   0.162  13.234 -0.0370  0.6378  0.9999
    7MPD2     H13912   3.635   0.402  13.139  0.9763  0.9124  1.5626
    7MPD2    H113913   3.922   0.091  13.038 -2.1851  0.2991 -0.7407
    7MPD2    H213914   3.946   0.278  13.409 -1.4954  0.1033 -0.5694
    7MPD2    H313915   4.019   0.106  13.254 -1.0608 -2.4358 -3.2189
    7MPD2     N13916   3.732   0.235  12.944  0.1443 -0.0990  0.0211
    7MPD2    H513917   3.769   0.159  12.888  1.5995 -0.7260  1.8244
    7MPD2    N113918   3.734   0.448  13.378 -0.4240 -0.0670 -0.1604
    7MPD2    H713919   3.667   0.511  13.336 -1.9600 -0.2871  1.9845
    8TMC3    C113920   3.708   0.333  12.737 -0.0180  0.8308  0.5538
    8TMC3    C213921   3.825   0.257  12.719  0.5823  0.7907  0.4198
    8TMC3    C313922   3.946   0.322  12.697  0.4115  0.6195 -1.0185
    8TMC3    C413923   3.712   0.464  12.705  0.3841  0.6325 -0.4631
    8TMC3    C513924   3.833   0.520  12.675  0.1446 -1.2687  0.3049
    8TMC3    C613925   3.949   0.454  12.671 -0.0208 -0.1980  0.6473
    8TMC3     C13926   3.653   0.328  12.874  0.4667  0.3575  0.1749
    8TMC3     O13927   3.595   0.426  12.908  0.0610 -0.7299 -0.1438
    8TMC3     H13928   3.816   0.149  12.718  1.1210  0.7748 -1.5767
    8TMC3    H113929   3.619   0.518  12.688 -1.1306 -1.5263  1.0807
    8TMC3    H213930   4.035   0.507  12.629 -2.2419  3.2522  0.3939
    8TMC3    C713931   3.847   0.661  12.711  0.3995  0.3634  0.1820
    8TMC3    C813932   4.053   0.255  12.770 -0.7044  0.1890 -0.0796
    8TMC3    O113933   3.936   0.724  12.657  0.1513 -0.2936 -0.3994
    8TMC3    O213934   4.072   0.136  12.746 -0.0373 -0.4620  0.1966
    9TMC3    C113935   3.850   0.773  13.692  0.3689 -0.5904  1.0370
    9TMC3    C213936   3.808   0.875  13.609  0.6482 -0.6322  0.2300
    9TMC3    C313937   3.724   0.836  13.509  0.0797  0.5856  0.3545
    9TMC3    C413938   3.832   0.637  13.667  0.1057 -0.1450  0.3667
    9TMC3    C513939   3.747   0.608  13.563 -0.0030  0.0086  0.2966
    9TMC3    C613940   3.683   0.703  13.492  0.4518 -0.3865 -0.7090
    9TMC3     C13941   3.929   0.808  13.809  0.5635  0.5347 -0.2618
    9TMC3     O13942   3.996   0.911  13.801 -0.3290 -0.4102 -0.0028
    9TMC3     H13943   3.819   0.980  13.635 -0.3082 -0.6153  0.5713
    9TMC3    H113944   3.896   0.560  13.708  2.0682  0.5397 -1.4718
    9TMC3    H213945   3.600   0.671  13.430 -1.1346  1.2139  0.5830
    9TMC3    C713946   3.779   0.471  13.506 -0.2815  0.7112  0.8014
    9TMC3    C813947   3.740   0.899  13.386  0.7346  0.0729 -0.3223
    9TMC3    O113948   3.842   0.388  13.570 -0.6777 -0.4576  0.1362
    9TMC3    O213949   3.792   1.006  13.399  0.1625  0.2742 -0.4773
   10MPD2     C13950   3.866   0.907  12.882  0.7628  0.3151  0.3782
   10MPD2    C113951   3.804   0.792  12.916 -0.6781  0.8984  0.3274
   10MPD2    C213952   3.751   0.769  13.039  0.9847 -0.3204 -0.3913
   10MPD2    C313953   3.764   0.862  13.141 -0.2633  0.0552 -0.5352
   10MPD2    C413954   3.832   0.979  13.104 -0.3086  0.4616  0.3858
   10MPD2    C513955   3.884   1.002  12.979 -0.7539  0.5926  0.2990
   10MPD2     H13956   3.696   0.678  13.063  2.1281 -0.3229  2.1703
   10MPD2    H113957   3.853   1.051  13.182  1.7374  0.9022 -0.5633
   10MPD2    H213958   3.899   0.929  12.780 -2.7345 -0.9272 -1.0082
   10MPD2    H313959   3.929   1.092  12.938 -1.2043  1.1840  1.0962
   10MPD2     N13960   3.731   0.823  13.275 -0.2919 -0.3297  0.7601
   10MPD2    H513961   3.702   0.725  13.279  0.1964 -0.4565  1.0925
   10MPD2    N113962   3.785   0.690  12.829 -0.2592  0.6986  1.2650
   10MPD2    H713963   3.730   0.618  12.874  0.3115  0.1551  1.0891
   11MPD2     C13964   0.168   3.929  13.689 -0.0934 -0.1628  0.4440
   11MPD2    C113965   0.115   4.041  13.754  0.5843 -0.3211 -0.2135
   11MPD2    C213966   0.031   4.126  13.681  0.0183 -0.1896  0.0500
   11MPD2    C313967   0.018   4.106  13.543 -0.0431 -0.5354 -0.1643
   11MPD2    C413968   0.079   4.003  13.484  0.3431  1.0501 -0.4365
   11MPD2    C513969   0.147   3.914  13.558 -0.0480 -0.4332  0.4690
   11MPD2     H13970   4.708   4.210  13.731 -1.7629 -0.0844 -1.8270
   11MPD2    H113971   0.062   3.980  13.379  2.4612  0.7338 -0.7064
   11MPD2    H213972   0.238   3.866  13.742 -0.0650  0.2001  0.8348
   11MPD2    H313973   0.197   3.829  13.514  1.1577  1.7978 -2.4850
   11MPD2     N13974   4.665   4.180  13.457 -0.0602  0.3354  0.3541
   11MPD2    H513975   4.660   4.142  13.363  1.3111 -1.6935  1.1116
   11MPD2    N113976   0.126   4.040  13.894 -0.1034 -0.2280 -0.6161
   11MPD2    H713977   0.162   3.953  13.931 -1.0554  0.0761  1.0187
    1MPD1     C13978   2.269   0.778  17.115  0.4874  0.2587 -0.7286
    1MPD1    C113979   2.375   0.738  17.186 -0.8676 -0.8129 -0.5329
    1MPD1    C213980   2.502   0.751  17.126 -0.3658 -0.2668  0.3121
    1MPD1    C313981   2.530   0.823  17.013  0.1743  0.9341  0.0215
    1MPD1    C413982   2.417   0.870  16.950 -0.1471  0.2283 -0.7122
    1MPD1    C513983   2.289   0.846  16.995  0.2644 -0.1710 -0.8016
    1MPD1     H13984   2.584   0.698  17.172  0.5900  0.4454 -0.5876
    1MPD1    H113985   2.414   0.926  16.857  1.5274  1.7423  0.1355
    1MPD1    H213986   2.169   0.771  17.157  1.6765 -1.1129  1.8279
    1MPD1    H313987   2.210   0.884  16.931  1.4790  2.3528 -0.8177
    1MPD1     N13988   2.660   0.856  16.959 -0.0495 -0.6426 -0.5107
    1MPD1    H513989   2.670   0.921  16.881  2.1687  0.7747  0.9264
    1MPD1    N113990   2.354   0.647  17.297  0.3155  0.2557  0.4058
    1MPD1    H613991   2.443   0.636  17.346 -1.2938 -0.9625  3.0535
    1MPD1    H713992   2.290   0.680  17.369 -1.3332 -0.3111 -0.7882
    2MPD1     C13993   3.571   0.780  17.386  0.5656  0.1354  0.6054
    2MPD1    C113994   3.602   0.762  17.254 -0.1320  0.0966 -0.2810
    2MPD1    C213995   3.502   0.792  17.157 -0.6078 -0.7127  0.0964
    2MPD1    C313996   3.368   0.817  17.193 -0.8523 -0.4355  0.3907
    2MPD1    C413997   3.343   0.837  17.328 -0.6583  0.5051 -0.0039
    2MPD1    C513998   3.446   0.816  17.421 -0.6285  1.3268  0.2352
    2MPD1     H13999   3.542   0.773  17.059 -0.6606 -1.0296  0.1377
    2MPD1    H114000   3.244   0.876  17.350 -0.4410  0.9562  0.1777
    2MPD1    H214001   3.651   0.766  17.458  1.1792 -2.4139 -0.5446
    2MPD1    H314002   3.433   0.837  17.527 -3.4076  0.7515 -0.0086
    2MPD1     N14003   3.256   0.833  17.108 -0.4946  0.4558  0.4999
    2MPD1    H514004   3.173   0.866  17.156  0.2436 -1.5121  3.1945
    2MPD1    N114005   3.730   0.739  17.207  0.2141 -0.1022  0.1303
    2MPD1    H614006   3.781   0.686  17.278  0.4360 -0.7715 -0.5239
    2MPD1    H714007   3.729   0.690  17.118 -2.3299  0.3116 -0.0765
    3TMC3    C114008   3.118   0.827  16.910 -0.5026  0.2787 -0.1847
    3TMC3    C214009   3.117   0.840  16.775  1.0438 -0.0698  0.1830
    3TMC3    C314010   2.993   0.847  16.721 -0.5963 -0.1823  0.4095
    3TMC3    C414011   3.006   0.833  16.990 -0.6768 -0.6444 -0.0453
    3TMC3    C514012   2.888   0.836  16.929 -0.4291  0.4223  0.2177
    3TMC3    C614013   2.876   0.841  16.790  0.6542 -0.5111  0.0037
    3TMC3     C14014   3.245   0.795  16.975 -0.5634 -0.1157  0.0110
    3TMC3     O14015   3.334   0.752  16.905 -0.5251 -0.6399  0.0179
    3TMC3     H14016   3.208   0.824  16.717  0.8028  0.8104 -0.4395
    3TMC3    H114017   3.017   0.832  17.097 -0.5610 -0.3470 -0.0548
    3TMC3    H214018   2.781   0.815  16.745  0.9827 -3.5512  1.0266
    3TMC3    C714019   2.774   0.813  17.015  0.1925 -0.1863  0.7883
    3TMC3    C814020   2.976   0.831  16.579 -0.2029  0.3138 -0.2789
    3TMC3    O114021   2.795   0.745  17.114  0.1623  0.2678 -0.1387
    3TMC3    O214022   2.868   0.838  16.520 -0.1131  0.5577  0.4100
    4MPD1     C14023   3.186   0.816  16.103  0.3019  0.1463 -0.5692
    4MPD1    C114024   3.283   0.795  16.202 -1.0655 -0.4894 -0.1076
    4MPD1    C214025   3.245   0.773  16.334  0.6077 -0.1716 -0.1503
    4MPD1    C314026   3.117   0.803  16.374  0.0181 -0.5198 -0.1309
    4MPD1    C414027   3.027   0.842  16.274 -1.3022  0.0410 -0.2533
    4MPD1    C514028   3.060   0.846  16.141  0.0274  0.1922  0.4765
    4MPD1     H14029   3.327   0.738  16.395 -0.4075 -1.4075  0.5160
    4MPD1    H114030   2.927   0.871  16.302 -0.6340  1.9770  0.1286
    4MPD1    H214031   3.220   0.829  16.001 -1.0358 -0.5402 -1.0980
    4MPD1    H314032   2.987   0.867  16.063 -0.2633  0.2069  0.7529
    4MPD1     N14033   3.093   0.798  16.512 -0.1303 -0.1484 -1.2888
    4MPD1    H514034   3.172   0.775  16.572 -0.6421 -0.6266 -0.7957
    4MPD1    N114035   3.418   0.769  16.166  0.2517 -0.2441  0.2803
    4MPD1    H614036   3.439   0.833  16.090 -0.9792 -0.5718 -0.3313
    4MPD1    H714037   3.481   0.773  16.246  1.3201  1.2846 -0.6281
    1TCq1    O114038   4.107   1.198  11.031 -0.5035 -0.1257 -0.4215
    1TCq1    C114039   4.111   1.323  11.072 -0.3642 -0.7785  0.2769
    1TCq1    O214040   4.063   1.360  11.176  0.2991  0.1503  0.4025
    1TCq1    C214041   4.140   1.409  10.955  0.1506  0.7395  0.8292
    1TCq1    C314042   4.231   1.370  10.857 -0.1559  0.5588 -0.8487
    1TCq1    C414043   4.285   1.467  10.776 -0.1768  0.0894  0.0832
    1TCq1    C514044   4.215   1.582  10.760 -0.0677 -0.2598 -0.4608
    1TCq1    C614045   4.133   1.625  10.862  0.5595 -0.0257 -0.3640
    1TCq1    C714046   4.101   1.542  10.961 -0.8133  0.2037  0.2853
    1TCq1    C814047   4.059   1.744  10.851  0.5488 -0.3412 -0.2587
    1TCq1    O414048   3.953   1.749  10.919 -0.0700  0.3582 -0.2605
    1TCq1    C914049   4.353   1.419  10.657 -0.2406 -0.0663 -0.5798
    1TCq1    O514050   4.405   1.513  10.585 -0.5329 -0.1836  0.6116
    1TCq1    O614051   4.324   1.305  10.616  0.3217  0.2395  0.4048
    1TCq1    H114052   4.111   1.176  10.935 -1.5942 -0.6155 -0.3617
    1TCq1    H214053   4.276   1.272  10.863 -3.3959 -0.9063 -0.4764
    1TCq1    H314054   4.223   1.640  10.668 -0.7271  0.5115 -0.0402
    1TCq1    H414055   4.045   1.595  11.038  0.4118  0.7817  0.7794
    2MPD1     C14056   3.958   2.180  10.610  0.2922 -0.7990 -0.4541
    2MPD1    C114057   4.072   2.125  10.553 -0.6368  0.5974  0.1786
    2MPD1    C214058   4.127   2.018  10.617 -0.2448  0.1745  0.2580
    2MPD1    C314059   4.058   1.958  10.719  0.6942 -0.3479  0.4796
    2MPD1    C414060   3.941   2.015  10.771 -0.1366 -1.1213 -0.4126
    2MPD1    C514061   3.889   2.127  10.714  0.1447 -0.6936  0.0966
    2MPD1     H14062   4.217   1.969  10.582  0.3228  1.4981 -0.1671
    2MPD1    H114063   3.889   1.963  10.851  4.5339 -0.8900  2.8042
    2MPD1    H214064   3.918   2.270  10.566  0.2782  0.2953  1.7560
    2MPD1    H314065   3.800   2.178  10.749  0.5416  0.3058 -0.3405
    2MPD1     N14066   4.119   1.836  10.772  0.2988  0.0486  0.5755
    2MPD1    H514067   4.209   1.806  10.735  0.8622  0.2391  1.7814
    2MPD1    N114068   4.120   2.179  10.431 -0.3486  0.7354 -0.1548
    2MPD1    H614069   4.209   2.137  10.405 -0.5924 -0.5269  1.0541
    2MPD1    H714070   4.126   2.281  10.423 -0.1685  0.5411 -2.3495
    1TCq1    O114071   1.504   2.894   2.394  0.4928  0.2119 -0.5341
    1TCq1    C114072   1.371   2.883   2.360 -0.3522  0.7680  0.3521
    1TCq1    O214073   1.305   2.782   2.370  0.3328  0.3427  0.0094
    1TCq1    C214074   1.323   3.011   2.299  0.2471 -0.1389 -0.8325
    1TCq1    C314075   1.228   2.981   2.201  0.0458  0.3562  0.5768
    1TCq1    C414076   1.212   3.073   2.101 -0.1124 -0.1482  0.0179
    1TCq1    C514077   1.300   3.177   2.079  0.2614 -0.3410 -0.5838
    1TCq1    C614078   1.401   3.198   2.170  0.6851  0.1977  0.2333
    1TCq1    C714079   1.409   3.122   2.290 -0.8571 -0.1254  0.4532
    1TCq1    C814080   1.508   3.295   2.149  1.1807  0.4442 -0.2216
    1TCq1    O414081   1.585   3.311   2.244  0.3276 -0.5041 -0.2372
    1TCq1    C914082   1.161   3.028   1.972  0.4767 -0.1498  0.5341
    1TCq1    O514083   1.172   2.904   1.939 -0.1604 -0.8712  0.1613
    1TCq1    O614084   1.086   3.104   1.900 -0.0861 -0.1965 -0.1984
    1TCq1    H114085   1.546   2.974   2.357  2.0729 -0.9011 -1.1820
    1TCq1    H214086   1.185   2.881   2.205 -0.8461  0.6534 -1.2924
    1TCq1    H314087   1.300   3.232   1.986 -0.7578  1.7976  0.6787
    1TCq1    H414088   1.483   3.142   2.367 -0.1406 -1.1457  0.0151
    2MPD1     C14089   1.746   3.638   1.874  0.2075  1.0866 -0.2091
    2MPD1    C114090   1.646   3.584   1.794 -0.2358 -0.1022 -0.1692
    2MPD1    C214091   1.579   3.486   1.845  0.1784 -0.0057 -0.1833
    2MPD1    C314092   1.606   3.430   1.972  0.0307 -0.1818  0.5087
    2MPD1    C414093   1.721   3.473   2.040  0.3470  0.3839  0.6222
    2MPD1    C514094   1.800   3.575   1.981 -0.5221  0.4642  0.7263
    2MPD1     H14095   1.500   3.441   1.785 -1.1968  0.4491  1.2831
    2MPD1    H114096   1.765   3.434   2.131 -0.0946  1.3002  1.2266
    2MPD1    H214097   1.791   3.733   1.847 -0.0593  1.1503 -0.4261
    2MPD1    H314098   1.886   3.610   2.037  0.1906 -1.4615  0.8356
    2MPD1     N14099   1.509   3.340   2.022  0.1440 -0.2913  0.1904
    2MPD1    H514100   1.442   3.308   1.953  1.6275  0.1754 -1.4553
    2MPD1    N114101   1.584   3.654   1.696 -0.3748 -0.1969 -0.2447
    2MPD1    H614102   1.524   3.591   1.641  2.6769 -2.7196 -0.6643
    2MPD1    H714103   1.655   3.703   1.643 -0.0475  0.4367  0.7834
    1MPD1     C14104   0.367   4.172  12.395 -0.6818  0.4003  0.0796
    1MPD1    C114105   0.305   4.284  12.452 -0.3232  0.4049  0.3740
    1MPD1    C214106   0.388   4.401  12.466 -0.5820  0.1497 -0.8402
    1MPD1    C314107   0.510   4.407  12.402 -0.6632 -0.4022 -0.3106
    1MPD1    C414108   0.558   4.294  12.345  0.7555  0.1547 -0.5011
    1MPD1    C514109   0.493   4.170  12.347 -0.3611  0.1244  0.0093
    1MPD1     H14110   0.340   4.490  12.505  0.7283  0.4602  0.0663
    1MPD1    H114111   0.663   4.287  12.316  1.0342  1.8432  0.1093
    1MPD1    H214112   0.304   4.085  12.408 -0.6988  0.9181  3.5393
    1MPD1    H314113   0.544   4.087  12.298  0.7427  1.3592 -0.9224
    1MPD1     N14114   0.590   4.525  12.404 -0.0443  0.3118  0.9389
    1MPD1    H514115   0.555   4.607  12.452 -0.4508 -0.4327  1.9329
    1MPD1    N114116   0.181   4.271  12.524  0.5603  0.3250  0.0707
    1MPD1    H614117   0.130   4.359  12.525 -0.6012 -0.3414 -0.2094
    1MPD1    H714118   0.121   4.208  12.472  1.0333 -0.8791  0.9640
    2MPD1     C14119   0.190   2.058  11.712  0.3545  0.2053 -0.8373
    2MPD1    C114120   0.286   2.056  11.616  1.6869  0.5210 -0.0607
    2MPD1    C214121   0.289   1.954  11.524 -0.3915  0.8479  0.0984
    2MPD1    C314122   0.221   1.835  11.553  0.3801 -0.6012  0.1869
    2MPD1    C414123   0.143   1.827  11.662 -1.0704  0.7169 -0.0254
    2MPD1    C514124   0.121   1.941  11.732  0.1838 -0.2583 -0.3506
    2MPD1     H14125   0.364   1.956  11.445  2.4588  1.3522  2.8127
    2MPD1    H114126   0.093   1.735  11.693 -1.6969  0.6267 -1.3089
    2MPD1    H214127   0.172   2.144  11.775  0.5032  1.2119 -2.1609
    2MPD1    H314128   0.062   1.929  11.822  2.7363 -0.4428  1.2879
    2MPD1     N14129   0.226   1.725  11.468  0.3978 -0.0242 -0.2255
    2MPD1    H514130   0.173   1.644  11.498 -2.7320  2.2323  0.3661
    2MPD1    N114131   0.347   2.176  11.591 -0.1707  0.1689 -0.3854
    2MPD1    H614132   0.367   2.218  11.681 -2.3679 -0.6547  0.4767
    2MPD1    H714133   0.428   2.181  11.529 -0.2908 -0.3732 -0.5795
    3MPD1     C14134   0.740   1.474  10.634 -0.6534  0.5962 -0.2386
    3MPD1    C114135   0.780   1.439  10.763  0.4884  0.1661  0.0424
    3MPD1    C214136   0.688   1.431  10.869  0.6366  0.5491  0.3810
    3MPD1    C314137   0.553   1.450  10.851 -0.1978  0.1907  0.1644
    3MPD1    C414138   0.511   1.476  10.722  0.0921 -0.1794 -0.0159
    3MPD1    C514139   0.603   1.498  10.624  0.1815  0.7692  0.2121
    3MPD1     H14140   0.725   1.400  10.966 -0.7303  1.7638  1.2877
    3MPD1    H114141   0.407   1.485  10.691 -0.0760  1.2537  0.9355
    3MPD1    H214142   0.813   1.504  10.559 -0.4516  1.3520  0.2642
    3MPD1    H314143   0.559   1.499  10.525  0.2106  1.7467  0.2062
    3MPD1     N14144   0.478   1.437  10.965 -0.6900  0.2365 -0.9688
    3MPD1    H514145   0.528   1.415  11.050 -0.3177 -0.4539 -1.3641
    3MPD1    N114146   0.915   1.429  10.802 -0.5005  0.1007 -0.3461
    3MPD1    H614147   0.931   1.363  10.877  0.2667  1.8039  0.9776
    3MPD1    H714148   0.963   1.393  10.720  1.0973  1.5396 -0.0261
    4MPD2     C14149   0.567   0.517  12.511 -0.6582  1.2374 -0.3101
    4MPD2    C114150   0.692   0.490  12.451  0.5184 -0.6005 -0.8151
    4MPD2    C214151   0.748   0.581  12.365 -0.3660 -0.4881  0.4223
    4MPD2    C314152   0.684   0.699  12.333 -0.1491 -0.0147 -0.2256
    4MPD2    C414153   0.560   0.726  12.387 -0.3695 -0.8238 -0.6294
    4MPD2    C514154   0.507   0.639  12.478 -0.2792  0.4838  0.1219
    4MPD2     H14155   0.842   0.554  12.318 -1.0907 -0.7151 -0.9255
    4MPD2    H114156   0.509   0.818  12.360 -0.4128  0.2047  2.9796
    4MPD2    H214157   0.528   0.456  12.592 -2.6965  0.6496 -1.7294
    4MPD2    H314158   0.414   0.669  12.526  0.4928  3.4275 -0.2867
    4MPD2     N14159   0.736   0.791  12.236  0.1870  0.2497 -0.1913
    4MPD2    H514160   0.690   0.878  12.213 -1.7028 -0.3122  1.4489
    4MPD2    N114161   0.755   0.367  12.480  0.2070 -0.2057 -0.0729
    4MPD2    H714162   0.842   0.358  12.427 -0.5434 -2.3061 -0.9517
    5TMC3    C114163   0.791   0.143  12.511 -0.2396 -0.1842  0.0619
    5TMC3    C214164   0.721   0.028  12.482  0.4519  0.1137 -0.4180
    5TMC3    C314165   0.773   4.680  12.378  1.0202  0.1718  0.2853
    5TMC3    C414166   0.906   0.184  12.439 -0.4438 -0.3227 -0.4353
    5TMC3    C514167   0.950   0.114  12.334  0.5004  0.1245  0.2146
    5TMC3    C614168   0.879   0.003  12.292  0.5590  0.2371  0.0960
    5TMC3     C14169   0.700   0.251  12.534  0.5375  0.0048  0.1295
    5TMC3     O14170   0.590   0.225  12.576 -0.1482 -0.0093 -0.0148
    5TMC3     H14171   0.625   0.009  12.528  1.0736 -1.2497  0.3082
    5TMC3    H114172   0.970   0.263  12.477 -2.0491  1.0870 -0.6743
    5TMC3    H214173   0.906   4.667  12.205 -0.3383  1.1142 -0.7953
    5TMC3    C714174   0.984   0.208  12.229  1.0312 -0.7963  0.0037
    5TMC3    C814175   0.709   4.549  12.342  0.0166 -0.5670  0.4328
    5TMC3    O114176   0.990   0.321  12.269 -0.4168  0.5708  0.3135
    5TMC3    O214177   0.770   4.486  12.255 -0.1754 -0.3847 -0.0689
    6TMC3    C114178   0.235   1.581  11.290 -0.0028 -0.7228  0.7649
    6TMC3    C214179   0.253   1.576  11.156  0.1169 -0.4896  0.0616
    6TMC3    C314180   0.302   1.461  11.102 -0.3491 -0.5405  0.5646
    6TMC3    C414181   0.256   1.477  11.375  0.2621  0.4664  0.6204
    6TMC3    C514182   0.306   1.363  11.318  0.1717  0.1884 -0.4272
    6TMC3    C614183   0.337   1.365  11.180  0.3966  0.2762  1.2106
    6TMC3     C14184   0.281   1.711  11.345  0.0840  0.5189 -0.0011
    6TMC3     O14185   0.338   1.784  11.272 -0.4657  0.1456 -0.2043
    6TMC3     H14186   0.235   1.664  11.095 -1.0366 -0.9243 -0.2277
    6TMC3    H114187   0.247   1.498  11.480 -0.1921 -0.7705  0.8311
    6TMC3    H214188   0.376   1.277  11.129  1.7911  1.5064  0.1726
    6TMC3    C714189   0.347   1.263  11.410 -0.1743 -0.2255 -0.3871
    6TMC3    C814190   0.341   1.463  10.966  0.9316 -0.1670  0.0115
    6TMC3    O114191   0.458   1.214  11.384 -0.2094 -0.0476 -0.6243
    6TMC3    O214192   0.279   1.523  10.884  0.4360 -1.1681 -0.3217
    7MPD2     C14193   1.006   0.383  11.750  0.2081 -0.2064  0.0642
    7MPD2    C114194   0.963   0.448  11.864 -0.2977  0.2837 -0.6760
    7MPD2    C214195   0.950   0.371  11.978 -0.2524  0.2210 -0.1969
    7MPD2    C314196   0.983   0.233  11.983  0.1927  0.3690 -0.2847
    7MPD2    C414197   1.012   0.173  11.861  0.2348  0.3249 -0.3576
    7MPD2    C514198   1.032   0.249  11.753 -0.3878  0.2553 -0.3516
    7MPD2     H14199   0.901   0.416  12.064 -0.3247 -1.8498  0.8628
    7MPD2    H114200   1.046   0.070  11.859 -1.7398 -0.3759  2.0672
    7MPD2    H214201   1.030   0.439  11.660  0.3260 -0.0198  0.2136
    7MPD2    H314202   1.058   0.198  11.660  1.5604  2.4513 -0.9882
    7MPD2     N14203   0.984   0.152  12.098  0.0067 -0.4053  0.0422
    7MPD2    H514204   0.994   0.052  12.086 -1.3168 -0.3121 -1.9173
    7MPD2    N114205   0.933   0.585  11.864 -0.5530 -0.0767 -0.1961
    7MPD2    H714206   0.904   0.623  11.954  1.3538 -1.7372  1.1186
    8TMC3    C114207   0.946   0.816  11.828  0.3808 -0.2211  0.1091
    8TMC3    C214208   0.853   0.900  11.769 -0.3974  0.2523  0.0275
    8TMC3    C314209   0.756   0.941  11.859  0.1775 -0.6133  0.2161
    8TMC3    C414210   0.971   0.811  11.967  0.3543  0.5627  0.0946
    8TMC3    C514211   0.876   0.854  12.053 -0.3794  0.8643  0.0900
    8TMC3    C614212   0.770   0.925  11.996 -0.4643  0.6888  0.0391
    8TMC3     C14213   0.956   0.677  11.766  0.5789 -0.0058  0.1882
    8TMC3     O14214   0.945   0.658  11.643 -0.0763 -0.1255  0.1734
    8TMC3     H14215   0.829   0.893  11.663  0.3314 -2.8094  0.0674
    8TMC3    H114216   1.061   0.757  11.995  1.7108  1.1349 -3.2298
    8TMC3    H214217   0.693   0.983  12.045 -1.4174 -0.1145 -0.5140
    8TMC3    C714218   0.857   0.772  12.169 -0.2382  0.2520 -0.2852
    8TMC3    C814219   0.655   1.018  11.797  0.1820 -0.1320 -0.1545
    8TMC3    O114220   0.952   0.700  12.190 -0.6761 -0.0416  0.2242
    8TMC3    O214221   0.681   1.075  11.696  0.2238 -0.3874 -0.7785
    9MPD2     C14222   0.292   0.972  11.839  0.1775 -1.0561  0.0305
    9MPD2    C114223   0.404   1.023  11.779 -0.3465 -0.3353  0.4218
    9MPD2    C214224   0.386   1.096  11.655 -0.1399  0.2409 -0.0268
    9MPD2    C314225   0.263   1.126  11.603  0.0995  0.3266  0.2187
    9MPD2    C414226   0.151   1.079  11.664 -0.4940 -0.3151  0.1607
    9MPD2    C514227   0.169   1.005  11.782 -0.2561  0.4209  1.2215
    9MPD2     H14228   0.478   1.146  11.624 -0.3326  0.4776 -0.2122
    9MPD2    H114229   0.050   1.100  11.630 -0.7728  1.1242  1.8742
    9MPD2    H214230   0.297   0.895  11.914  0.5126  1.2804  2.4140
    9MPD2    H314231   0.083   0.949  11.816  0.7903 -0.8227  1.7945
    9MPD2     N14232   0.253   1.230  11.505 -0.1715  0.0983 -0.1920
    9MPD2    H514233   0.158   1.255  11.477 -0.2332 -0.3242 -0.3538
    9MPD2    N114234   0.528   0.988  11.843  0.1306  0.2262 -0.0424
    9MPD2    H714235   0.518   0.929  11.924  1.3431  0.4513  0.2790
    1MPD1     C14236   0.034   4.397  15.157  0.5197  0.2724 -0.3561
    1MPD1    C114237   0.076   4.274  15.112  0.0150 -1.0040 -0.0872
    1MPD1    C214238   0.108   4.178  15.198 -0.4901  0.2299  0.0879
    1MPD1    C314239   0.108   4.203  15.332  0.2930 -0.4189  1.0400
    1MPD1    C414240   0.080   4.329  15.383  0.6931 -0.1856 -0.8562
    1MPD1    C514241   0.039   4.427  15.292 -0.2288  0.2729 -0.1798
    1MPD1     H14242   0.129   4.079  15.158 -0.8954  0.1831 -0.0031
    1MPD1    H114243   0.083   4.350  15.490  0.4614  0.0072 -0.8881
    1MPD1    H214244   0.009   4.473  15.085  1.1886 -1.2022 -2.1468
    1MPD1    H314245   0.012   4.526  15.327  1.1721 -0.0175  1.6947
    1MPD1     N14246   0.164   4.109  15.428 -0.1077  0.6297 -0.6093
    1MPD1    H514247   0.186   4.146  15.521  0.1134  2.5915 -1.4445
    1MPD1    N114248   0.064   4.238  14.976 -0.2577 -0.3267  0.2579
    1MPD1    H614249   0.106   4.147  14.961 -0.5353 -0.6333  1.3194
    1MPD1    H714250   0.107   4.303  14.911 -1.5581  1.2407  0.9496
    2MPD1     C14251   0.497   3.086  15.701 -0.1661  0.1832 -0.0288
    2MPD1    C114252   0.399   3.122  15.611  0.5380  0.1576  0.3187
    2MPD1    C214253   0.363   3.255  15.604 -0.2347 -0.1609  0.0447
    2MPD1    C314254   0.441   3.353  15.669 -0.3228  0.1200  0.2729
    2MPD1    C414255   0.548   3.314  15.755  0.1596  0.3443 -0.4997
    2MPD1    C514256   0.574   3.179  15.776 -0.2288  0.4996 -0.6587
    2MPD1     H14257   0.284   3.292  15.540 -1.0864  1.7743  2.1953
    2MPD1    H114258   0.620   3.386  15.794 -2.1685  2.5716 -0.2951
    2MPD1    H214259   0.523   2.981  15.711 -1.6583 -0.0810  1.1616
    2MPD1    H314260   0.664   3.154  15.831  1.1709  1.2028 -2.6174
    2MPD1     N14261   0.414   3.491  15.667 -0.3949  0.2604  0.6420
    2MPD1    H514262   0.470   3.552  15.725  0.9838 -1.2522  0.9109
    2MPD1    N114263   0.308   3.024  15.567 -0.0080  0.0448  0.0160
    2MPD1    H614264   0.258   3.059  15.485 -1.6272  1.5754  1.6637
    2MPD1    H714265   0.348   2.932  15.549 -3.5361 -1.1572 -1.6367
    3TCq2    C114266   0.322   3.552  15.579  0.2527 -0.1888  0.4487
    3TCq2    O214267   0.265   3.504  15.479  0.3122  0.3025 -0.1197
    3TCq2    C214268   0.317   3.696  15.598 -0.2471 -0.1176  0.5098
    3TCq2    C314269   0.330   3.749  15.724  0.2129 -0.5184  0.5808
    3TCq2    C414270   0.318   3.884  15.745 -0.6311  0.5111  0.8455
    3TCq2    C514271   0.280   3.971  15.643 -0.3848  0.0131  0.1316
    3TCq2    C614272   0.255   3.910  15.522  0.2500  0.0009 -0.3401
    3TCq2    C714273   0.276   3.777  15.501  0.2300  0.5425 -0.3529
    3TCq2    C814274   0.195   3.978  15.411  0.1674  0.3973 -0.4574
    3TCq2    O414275   0.178   3.911  15.313  0.0761 -0.4801  0.2096
    3TCq2    C914276   0.346   3.932  15.878 -0.0208  0.4728  0.1368
    3TCq2    O514277   0.391   3.844  15.958  0.3403  0.0004 -0.0373
    3TCq2    O614278   0.367   4.056  15.893  0.4228  0.3220 -0.4676
    3TCq2    H214279   0.332   3.682  15.809 -0.6196  0.4885  1.3998
    3TCq2    H314280   0.283   4.079  15.647  0.7771 -0.0964  1.8825
    3TCq2    H414281   0.258   3.727  15.407 -0.5166  0.1968 -0.0272
    1TCq1    O114282   2.593   3.470  12.528 -0.5911 -0.1168  0.2554
    1TCq1    C114283   2.715   3.424  12.508 -0.6935 -0.1808  0.2457
    1TCq1    O214284   2.786   3.444  12.411  0.0708 -0.3049  0.7253
    1TCq1    C214285   2.781   3.412  12.635 -0.4526 -0.1860 -0.3693
    1TCq1    C314286   2.734   3.322  12.728  0.8240  0.3661  0.3003
    1TCq1    C414287   2.801   3.316  12.849  0.1007 -0.5048 -0.3672
    1TCq1    C514288   2.914   3.389  12.869 -0.1336 -0.1115 -0.1707
    1TCq1    C614289   2.953   3.483  12.775 -0.0844 -0.3812  0.6517
    1TCq1    C714290   2.883   3.494  12.659  0.2375  0.1241 -0.0657
    1TCq1    C814291   3.061   3.583  12.792  0.2285  0.5967 -0.2196
    1TCq1    O414292   3.064   3.677  12.712 -0.2332  0.0006  0.2917
    1TCq1    C914293   2.751   3.212  12.939  0.7340 -0.7525 -0.3793
    1TCq1    O514294   2.678   3.120  12.897  0.0498  0.0961  0.2560
    1TCq1    O614295   2.763   3.234  13.063  0.4450  0.2398  0.1583
    1TCq1    H114296   2.577   3.448  12.622  0.4592 -0.2596  0.4035
    1TCq1    H214297   2.649   3.260  12.703 -1.8587  4.3114 -0.2302
    1TCq1    H314298   2.961   3.386  12.966 -1.4516  0.5299  0.4708
    1TCq1    H414299   2.913   3.566  12.584 -0.1325  0.2849 -0.0594
    2MPD2     C14300   3.309   3.745  12.838 -0.0163  0.0510 -0.5632
    2MPD2    C114301   3.264   3.640  12.914 -0.5587 -0.5555 -0.3202
    2MPD2    C214302   3.343   3.615  13.024 -0.2149 -0.0380 -0.4074
    2MPD2    C314303   3.452   3.680  13.061 -0.5183  0.4367 -0.1337
    2MPD2    C414304   3.494   3.784  12.981 -0.7029  0.4123 -0.8289
    2MPD2    C514305   3.421   3.819  12.872 -0.3381 -0.2500  0.0047
    2MPD2     H14306   3.309   3.531  13.084 -1.3967 -0.4200 -1.6070
    2MPD2    H114307   3.583   3.838  13.014 -0.1941 -1.0266  0.1469
    2MPD2    H214308   3.263   3.766  12.742  0.3346  1.8425 -0.3459
    2MPD2    H314309   3.446   3.897  12.802  2.2443  0.0982  1.3182
    2MPD2     N14310   3.519   3.641  13.173 -0.0461 -0.1852  0.6805
    2MPD2    H514311   3.472   3.575  13.234 -1.7028  1.3350  1.0280
    2MPD2    N114312   3.150   3.555  12.896 -0.9747 -0.4811  0.2674
    2MPD2    H714313   3.130   3.474  12.954  0.3934  0.0069  1.4137
    3TCq1    O114314   3.611   3.432  13.731  0.8022 -0.0444 -0.3586
    3TCq1    C114315   3.544   3.482  13.618  0.4396  0.5749  0.4529
    3TCq1    O214316   3.462   3.571  13.627 -0.1406  0.2819 -0.2920
    3TCq1    C214317   3.652   3.515  13.526 -0.0215  0.2564 -0.2726
    3TCq1    C314318   3.791   3.475  13.538  0.2665  0.7993 -0.5697
    3TCq1    C414319   3.875   3.521  13.444  0.0257  0.8586 -0.1666
    3TCq1    C514320   3.834   3.597  13.344 -0.8225  0.7275  0.1170
    3TCq1    C614321   3.701   3.615  13.320  0.6430  0.3347 -0.5749
    3TCq1    C714322   3.607   3.579  13.415 -0.7653 -0.4604  0.2759
    3TCq1    C814323   3.654   3.661  13.198 -0.2587 -0.0063 -0.3043
    3TCq1    O414324   3.739   3.698  13.117 -0.2702 -0.2431 -0.4489
    3TCq1    C914325   4.018   3.482  13.446  0.4383 -0.0281  0.1713
    3TCq1    O514326   4.048   3.370  13.493  0.4513  0.2521 -0.1182
    3TCq1    O614327   4.104   3.559  13.388  1.2949 -0.1596 -0.0703
    3TCq1    H114328   3.677   3.361  13.717 -0.2529 -1.0519 -0.2130
    3TCq1    H214329   3.824   3.405  13.614 -0.6607  0.3120 -0.6196
    3TCq1    H314330   3.904   3.628  13.267  0.3911  0.7773  1.2359
    3TCq1    H414331   3.500   3.594  13.399 -0.4598 -0.0981 -1.4099
    1MPD2     C14332   2.250   0.336  14.539  0.1096 -0.5197  0.3525
    1MPD2    C114333   2.284   0.205  14.547 -0.1539 -0.2158  0.2772
    1MPD2    C214334   2.417   0.177  14.575  0.7656 -0.3473 -0.7615
    1MPD2    C314335   2.512   0.272  14.579  0.0670 -0.5382  0.4702
    1MPD2    C414336   2.474   0.399  14.560 -0.2086  0.2704 -0.7562
    1MPD2    C514337   2.346   0.432  14.539 -0.6094  0.3398  0.8592
    1MPD2     H14338   2.439   0.074  14.601  1.6527 -0.0956 -0.4979
    1MPD2    H114339   2.551   0.475  14.562  0.5811 -0.5116 -1.1483
    1MPD2    H214340   2.145   0.363  14.542  0.1433 -0.1990 -1.5829
    1MPD2    H314341   2.317   0.536  14.534  0.7883  0.6762 -0.1334
    1MPD2     N14342   2.651   0.244  14.587  0.1519  0.3783 -0.0357
    1MPD2    H514343   2.714   0.323  14.596 -1.0149  1.2562  0.4073
    1MPD2    N114344   2.177   0.106  14.538  0.4758 -0.4303  0.0849
    1MPD2    H714345   2.081   0.128  14.561  0.7182  1.8152 -1.0374
    2TMC3    C114346   2.312   4.650  14.435 -1.0599  0.2844  0.3049
    2TMC3    C214347   2.355   4.530  14.488  0.2228 -0.2398  0.7231
    2TMC3    C314348   2.467   4.473  14.435  0.2803  0.0968 -1.0491
    2TMC3    C414349   2.373   4.710  14.328 -0.1182 -0.0935  0.2730
    2TMC3    C514350   2.497   4.666  14.295  0.5539 -0.0393 -0.3801
    2TMC3    C614351   2.547   4.547  14.347 -0.1753 -0.4142  1.0119
    2TMC3     C14352   2.189   4.697  14.495 -0.2045 -0.2026  0.0137
    2TMC3     O14353   2.106   4.611  14.510 -0.0017 -0.1523 -0.3287
    2TMC3     H14354   2.287   4.483  14.557 -0.6071  1.2124  0.9056
    2TMC3    H114355   2.331   0.073  14.279 -0.7189 -1.0214 -0.8442
    2TMC3    H214356   2.641   4.508  14.311 -0.3954  0.4765 -0.5186
    2TMC3    C714357   2.600   0.042  14.256 -0.1946  0.9228  0.2896
    2TMC3    C814358   2.529   4.386  14.529 -0.2481 -0.2166 -0.1112
    2TMC3    O114359   2.708   4.715  14.232  0.0529  0.0135  0.6823
    2TMC3    O214360   2.453   4.321  14.598  0.4099  0.7047 -0.1597
    3TCq1    O114361   2.599   1.314  14.152 -0.3506 -0.4030 -0.1947
    3TCq1    C114362   2.581   1.233  14.258  0.2489  0.2023  0.0415
    3TCq1    O214363   2.625   1.245  14.370 -0.8756 -0.1322  0.3575
    3TCq1    C214364   2.523   1.111  14.213  0.3925  0.2539  0.3825
    3TCq1    C314365   2.432   1.114  14.110 -0.4202  0.6368  0.1769
    3TCq1    C414366   2.415   0.999  14.033  0.4783  0.4150 -1.1703
    3TCq1    C514367   2.446   0.874  14.078 -0.8339  0.1153  0.1735
    3TCq1    C614368   2.532   0.878  14.187 -0.1454 -0.5562  0.5337
    3TCq1    C714369   2.563   0.988  14.261 -0.8749  0.6156  0.6422
    3TCq1    C814370   2.616   0.761  14.219 -0.1215  0.2567  0.6759
    3TCq1    O414371   2.728   0.782  14.261 -0.0862  0.1198 -0.4089
    3TCq1    C914372   2.332   1.002  13.915  0.5430 -0.4098  0.2315
    3TCq1    O514373   2.267   0.896  13.903 -0.0233 -0.2222 -0.0078
    3TCq1    O614374   2.277   1.114  13.890  0.0605  0.4158 -0.1231
    3TCq1    H114375   2.555   1.292  14.067  0.0961  0.7573 -0.7287
    3TCq1    H214376   2.384   1.204  14.072  1.2504  0.7738 -1.5904
    3TCq1    H314377   2.427   0.793  14.008  0.3890 -1.1745  1.3420
    3TCq1    H414378   2.643   0.985  14.335  0.6748 -0.6974 -1.1064
    4MPD2     C14379   2.757   0.519  14.179 -0.7424 -0.2785  0.2523
    4MPD2    C114380   2.622   0.519  14.178  0.4548 -0.1126  0.3560
    4MPD2    C214381   2.553   0.400  14.198 -0.5656  0.0330  0.2654
    4MPD2    C314382   2.621   0.286  14.219 -0.6912 -0.5280 -0.3654
    4MPD2    C414383   2.756   0.281  14.211 -0.0564  0.0612 -1.1545
    4MPD2    C514384   2.827   0.403  14.207 -0.6176 -0.2565 -0.5498
    4MPD2     H14385   2.447   0.412  14.218 -0.7325  0.9606 -1.1598
    4MPD2    H114386   2.819   0.193  14.216  2.2337  1.7116 -1.1224
    4MPD2    H214387   2.816   0.605  14.149 -2.3648  0.5932 -0.4427
    4MPD2    H314388   2.935   0.408  14.205 -0.6522  0.7209  0.3102
    4MPD2     N14389   2.547   0.168  14.233 -0.8361  0.1410  0.1103
    4MPD2    H514390   2.450   0.188  14.254 -0.4365  2.8645 -0.6014
    4MPD2    N114391   2.555   0.643  14.186 -0.0931 -0.3177 -0.3129
    4MPD2    H714392   2.455   0.649  14.202 -0.2074  3.1218 -2.5333
    5TMC2    C114393   3.034   4.712  14.718 -0.2776 -0.1951  0.1129
    5TMC2    C214394   3.115   0.037  14.627  0.5330 -0.2604  1.3916
    5TMC2    C314395   3.054   0.124  14.534  0.8675  0.4862 -0.0173
    5TMC2    C414396   2.901   0.034  14.725  0.0788  0.0714 -0.3087
    5TMC2    C514397   2.844   0.120  14.635 -0.1643 -0.3020  0.5417
    5TMC2    C614398   2.922   0.169  14.539 -0.4010  0.2288  0.1281
    5TMC2     C14399   3.084   4.627  14.821  0.2909  0.2940 -0.9199
    5TMC2     O14400   3.195   4.658  14.860 -0.0547  0.8410  0.0569
    5TMC2     H14401   3.218   0.004  14.623  0.8576  0.9496  0.0096
    5TMC2    H114402   2.837   4.723  14.805  0.2572  1.8720  0.6215
    5TMC2    H214403   2.885   0.231  14.458 -1.1680  0.6449  0.8001
    5TMC2    C714404   2.704   0.121  14.614 -0.5060 -0.1353  0.1515
    5TMC2    C814405   3.126   0.171  14.419  0.4234 -0.0153  0.3420
    5TMC2    O114406   2.647   0.012  14.632 -0.8435  0.0601  0.2063
    5TMC2    O214407   3.096   0.277  14.366  0.2476  0.2831  0.3978
    5TMC2    O514408   3.174   0.063  14.360  1.0525 -0.0195  0.0755
    5TMC2    H514409   3.137   4.703  14.394 -1.0614 -0.3081 -3.0120
    6MPD2     C14410   2.704   4.267  14.743  0.2168 -0.2275 -0.4849
    6MPD2    C114411   2.738   4.376  14.664 -0.1123 -0.7022  0.2553
    6MPD2    C214412   2.849   4.457  14.697 -0.4422  0.7894  0.3319
    6MPD2    C314413   2.897   4.451  14.827 -0.4379 -0.0764 -0.9746
    6MPD2    C414414   2.855   4.354  14.915 -0.3410 -0.0758  0.3510
    6MPD2    C514415   2.758   4.264  14.872  0.5645 -0.2654  0.7294
    6MPD2     H14416   2.879   4.524  14.617  1.5339  1.3634  1.5589
    6MPD2    H114417   2.901   4.343  15.012  1.7885  1.1176 -0.5243
    6MPD2    H214418   2.629   4.193  14.719  0.9627 -0.6441 -1.5524
    6MPD2    H314419   2.729   4.184  14.938 -0.9780  0.1393  0.5307
    6MPD2     N14420   3.015   4.520  14.877  0.1676  1.0176  0.5146
    6MPD2    H514421   3.045   4.476  14.964 -0.7236  0.9959  0.8087
    6MPD2    N114422   2.666   4.404  14.545 -0.6818  0.1739  0.2458
    6MPD2    H714423   2.701   4.474  14.479  1.0313 -1.4021 -0.5126
  945NH3     N114424   0.936   0.272   3.382 -0.4863 -0.1812 -0.3991
  945NH3     H214425   0.845   0.304   3.415 -0.2509 -0.5217  0.5600
  945NH3     H314426   0.911   0.247   3.286 -2.0530 -1.1409  0.2481
  945NH3     H414427   0.950   0.179   3.421 -0.9915 -0.9577 -2.0338
  946SOD     NA14428   4.517   3.469  12.860  0.1198 -0.0448  0.4452
  947SOD     NA14429   1.147   2.673  15.579 -0.0499  0.1066  0.0768
  948SOD     NA14430   0.847   1.967   5.185  0.1019 -0.0353 -0.3607
  949SOD     NA14431   2.671   0.162   7.891  0.1015  0.0568 -0.1545
  950SOD     NA14432   1.440   3.244  10.453 -0.2483  0.2176 -0.2239
  951SOD     NA14433   3.652   3.346  10.693  0.1031 -0.0436 -0.1172
  952SOD     NA14434   3.912   1.207  10.399 -0.3684  0.3576 -0.3567
  953SOD     NA14435   2.606   0.411  10.491 -0.0852 -0.3584  0.2888
  954SOD     NA14436   4.259   3.416  13.394  0.2782 -0.4110  0.2532
  955SOD     NA14437   2.129   2.483  14.829  0.2525 -0.7116  0.2570
  956SOD     NA14438   4.607   3.345   0.048  0.5457 -0.3149  0.1234
  957SOD     NA14439   0.735   0.604  11.269  0.1513 -0.1009 -0.3989
  958SOD     NA14440   3.580   0.031  14.813  0.0350 -0.0755  0.0510
  959SOD     NA14441   4.331   4.148  15.109 -0.4858  0.0411  0.2492
  960SOD     NA14442   1.265   4.369  13.562  0.5157 -0.3437 -0.3340
  961SOD     NA14443   0.442   0.999   1.836  0.6146 -0.4816  0.0748
  962SOD     NA14444   3.175   3.762  12.283  0.4754 -0.9614 -0.1098
  963SOD     NA14445   4.090   0.810   1.193  0.5156 -0.6014 -0.4293
  964SOD     NA14446   3.747   3.169  10.380  0.1619 -0.0295  0.5089
  965SOD     NA14447   1.811   2.212   4.221 -0.5082  0.7724 -0.2172
  966SOD     NA14448   2.453   4.593  10.716 -0.0786 -0.1021  0.3810
  967SOD     NA14449   1.329   4.272   7.822  0.0487 -0.1935 -0.0050
  968SOD     NA14450   0.440   4.030  16.097  0.5352 -0.3123 -0.4862
  969SOD     NA14451   2.858   2.783  10.375 -0.0381  0.0363  0.2418
  970SOD     NA14452   0.862   2.638   0.662  0.1870  0.4780  0.6021
  971SOD     NA14453   3.952   3.466  12.340  0.4619  0.0855  0.5404
  972SOD     NA14454   2.202   4.344   9.121  0.2973 -0.3374  0.1872
  973SOD     NA14455   3.580   3.172  11.417  0.2316 -0.3364  0.2271
  974SOD     NA14456   2.644   3.114  13.199  0.6382  0.3233 -0.4335
  975SOD     NA14457   0.635   3.764   0.483 -0.2826  0.0673 -0.4559
  976SOD     NA14458   3.543   3.564   9.391  0.5021 -0.2511 -0.2105
  977SOD     NA14459   0.179   3.065  12.670 -0.2529  0.0371  0.3236
  978SOD     NA14460   3.983   2.279   0.160  0.3189 -0.3327  0.3104
  979SOD     NA14461   1.956   2.870  12.783 -0.3000 -0.2948  0.1911
  980SOD     NA14462   0.511   4.215  15.817 -0.1490  0.3243 -0.1816
  981SOD     NA14463   0.994   0.386   1.129 -0.2338  0.0290 -0.1656
  982SOD     NA14464   2.305   4.066   4.122 -0.3649  0.0418  0.1687
  983SOD     NA14465   0.928   2.533  14.373 -0.9020  0.1859  0.4861
  984SOD     NA14466   2.412   0.902  10.864 -0.6463  0.0062  0.1649
  985SOD     NA14467   2.961   0.817   1.876  0.5534 -0.1309 -0.0850
  986SOD     NA14468   0.477   0.236   2.498 -0.1753  0.0610  0.0872
  987SOD     NA14469   2.454   2.388   1.022 -0.3411  0.3461 -0.1483
  988SOD     NA14470   4.146   1.183  10.593  0.3295 -0.4363  0.1787
  989SOD     NA14471   4.651   2.709  17.538  0.5298 -0.1842 -0.2990
  990SOD     NA14472   1.230   3.681  11.007  0.3278 -0.3015 -0.1832
  991SOD     NA14473   4.293   3.723  14.318  0.3235  0.3094  0.1526
  992SOD     NA14474   3.533   1.938  13.113  0.1090 -0.0770 -0.0192
  993SOD     NA14475   3.422   3.273   9.660  0.1153 -0.0400  0.3522
  994SOD     NA14476   3.381   3.984  11.481 -0.2904  0.3520  0.1826
  995SOD     NA14477   0.453   1.111  13.883  0.3175 -0.0398 -0.7298
  996SOD     NA14478   0.184   3.526   3.017  0.4897 -0.2107 -0.5001
  997SOD     NA14479   0.008   1.035   0.282  0.2113  0.0811 -0.1881
  998SOD     NA14480   4.216   4.678  10.847 -0.0061 -0.2620 -0.1050
  999SOD     NA14481   4.656   3.731   1.962 -0.5806 -0.0335 -0.0970
 1000SOD     NA14482   4.292   0.172  16.033 -0.6934 -0.2379 -0.2384
 1001SOD     NA14483   2.655   3.057   6.642 -0.4336  0.6354 -0.4176
 1002SOD     NA14484   0.099   0.045  13.168  0.0148 -0.3936 -0.2958
 1003SOD     NA14485   2.099   0.834  13.498  0.1331 -0.0855  0.0051
 1004SOD     NA14486   3.201   4.294  10.729  0.4825 -0.1370  0.0644
 1005SOD     NA14487   2.069   3.552  14.679  0.2879  0.5951 -0.8845
 1006SOD     NA14488   0.913   1.709   0.919  0.3282  0.4629  0.2198
 1007SOD     NA14489   3.230   0.102  15.022 -0.1881  0.7192  0.2118
 1008SOD     NA14490   4.294   1.579  16.153  0.5027  0.1062 -0.0194
 1009SOD     NA14491   2.556   2.941  12.892 -0.3607 -0.3775  0.2274
 1010SOD     NA14492   1.971   0.925   0.488  0.5012 -0.3989  0.3344
 1011SOD     NA14493   3.397   3.313  11.115  0.4916  0.1559  0.4741
 1012SOL     OW14494   0.515   0.851   1.992 -0.2684 -0.4202  0.5064
 1012SOL    HW114495   0.600   0.856   2.036  0.8666  2.0087 -1.9988
 1012SOL    HW214496   0.460   0.811   2.059 -2.4207  1.2183 -0.2779
 1013SOL     OW14497   1.306   1.762   7.942 -0.2581  0.1516 -0.0075
 1013SOL    HW114498   1.341   1.700   8.006 -0.3157 -0.4947 -0.6013
 1013SOL    HW214499   1.272   1.836   7.992  2.4482  0.9764  0.6330
 1014SOL     OW14500   3.956   2.608   4.053  0.5049 -0.4009 -0.4006
 1014SOL    HW114501   3.964   2.703   4.047  1.3539 -0.4625 -0.2231
 1014SOL    HW214502   3.957   2.605   4.149 -1.0253 -0.7503 -0.3853
 1015SOL     OW14503   3.487   3.659  16.225  0.2060  0.1850 -0.1019
 1015SOL    HW114504   3.558   3.707  16.181 -0.5143  0.9727 -0.4088
 1015SOL    HW214505   3.471   3.585  16.166 -2.8618 -0.3616  1.4238
 1016SOL     OW14506   1.515   3.970   4.954 -0.7659 -0.2270  0.2452
 1016SOL    HW114507   1.532   3.904   5.021  0.3222  0.3113  0.4985
 1016SOL    HW214508   1.556   3.927   4.880 -3.3237 -0.6274 -0.9264
 1017SOL     OW14509   1.583   4.400   4.657 -0.5263 -0.4548  0.3044
 1017SOL    HW114510   1.495   4.387   4.621 -0.2347  4.0929 -2.1023
 1017SOL    HW214511   1.606   4.313   4.690  0.9288  0.3233  1.3465
 1018SOL     OW14512   4.575   0.382  13.304 -0.2629 -0.0406 -0.9163
 1018SOL    HW114513   4.525   0.344  13.376  1.5911 -1.3058 -0.2895
 1018SOL    HW214514   4.663   0.387  13.340 -0.9074  0.8987  0.5396
 1019SOL     OW14515   3.362   2.865   2.113  0.4841 -0.0684 -0.3339
 1019SOL    HW114516   3.335   2.793   2.056 -0.2549  0.5595 -0.7797
 1019SOL    HW214517   3.404   2.931   2.058  0.0978 -0.2787 -0.8869
 1020SOL     OW14518   4.298   1.220  10.026  0.1440 -0.0516 -0.0424
 1020SOL    HW114519   4.204   1.234  10.036  0.3769  1.3414  0.1546
 1020SOL    HW214520   4.314   1.249   9.936  0.6516 -4.0399 -1.2351
 1021SOL     OW14521   2.061   3.060  12.715 -0.0451  0.1158  0.4197
 1021SOL    HW114522   2.020   3.141  12.685 -0.6783 -0.0559  0.8354
 1021SOL    HW214523   2.144   3.068  12.668 -0.5405 -0.1228 -0.4855
 1022SOL     OW14524   2.873   0.890   5.284 -0.1857 -0.3097 -0.4476
 1022SOL    HW114525   2.870   0.798   5.257  1.1705 -0.1638 -1.1115
 1022SOL    HW214526   2.905   0.871   5.373 -0.1508  1.0691 -0.1698
 1023SOL     OW14527   4.693   0.644   5.895 -0.3635  0.2917 -0.2118
 1023SOL    HW114528   0.059   0.646   5.864 -0.4474  1.5562 -0.3861
 1023SOL    HW214529   4.692   0.552   5.921  2.4311 -0.0194 -1.2352
 1024SOL     OW14530   3.844   0.743   3.255  0.2544  0.4581 -0.4525
 1024SOL    HW114531   3.908   0.806   3.224  1.1207 -0.0167  0.3784
 1024SOL    HW214532   3.846   0.766   3.348 -0.9009 -0.7064 -0.1311
 1025SOL     OW14533   2.729   4.673   7.767  0.1097 -0.2883  0.4136
 1025SOL    HW114534   2.756   4.586   7.796 -0.6239 -0.5729  0.2341
 1025SOL    HW214535   2.718   4.650   7.675 -1.3472  0.9150  0.2921
 1026SOL     OW14536   4.095   4.037   1.195  0.7182  0.7836 -0.0829
 1026SOL    HW114537   4.019   4.087   1.165  0.0981 -0.0540  0.1094
 1026SOL    HW214538   4.122   4.091   1.270 -0.8827  0.6580  0.5839
 1027SOL     OW14539   2.680   3.413  17.182 -0.5140  0.4120  0.1399
 1027SOL    HW114540   2.666   3.318  17.192  1.8254  0.1463  0.6896
 1027SOL    HW214541   2.775   3.411  17.178 -0.6176 -3.3343 -0.4583
 1028SOL     OW14542   2.729   1.947   3.167 -0.3026  0.0539 -0.1788
 1028SOL    HW114543   2.815   1.988   3.161 -0.8701  0.9447 -2.1511
 1028SOL    HW214544   2.744   1.854   3.185 -0.6530 -0.1809 -1.1065
 1029SOL     OW14545   1.892   0.684  16.857  0.2742 -0.0497  0.2283
 1029SOL    HW114546   1.887   0.734  16.775 -2.9210  1.3084  1.2729
 1029SOL    HW214547   1.975   0.636  16.852 -0.4309 -1.1313 -1.0355
 1030SOL     OW14548   2.500   4.248   8.835 -0.3015 -0.1126  0.1115
 1030SOL    HW114549   2.478   4.299   8.757 -1.0895  2.0960  1.7564
 1030SOL    HW214550   2.583   4.204   8.818  0.1187  1.4372 -1.7961
 1031SOL     OW14551   4.134   2.415   2.595 -0.3442 -0.5785 -0.0106
 1031SOL    HW114552   4.216   2.378   2.630 -1.1658 -0.2959  2.2597
 1031SOL    HW214553   4.068   2.360   2.638  0.8623 -1.7453  0.3551
 1032SOL     OW14554   2.253   1.362   9.876  0.2961  0.0990 -0.2456
 1032SOL    HW114555   2.262   1.274   9.913 -0.6156 -0.0239 -0.3092
 1032SOL    HW214556   2.310   1.414   9.932  0.1846  1.0694 -1.0408
 1033SOL     OW14557   2.796   4.582   9.119  0.1144  0.6149  0.2536
 1033SOL    HW114558   2.780   4.495   9.155 -1.6030  0.0765 -1.8208
 1033SOL    HW214559   2.835   4.629   9.193  0.2435 -0.1507  0.6725
 1034SOL     OW14560   1.660   1.612   6.871  0.3399  0.7303 -0.1085
 1034SOL    HW114561   1.655   1.691   6.817 -0.0279  0.9670  0.2718
 1034SOL    HW214562   1.725   1.565   6.819 -1.6538 -3.0298  0.8311
 1035SOL     OW14563   2.074   0.441   8.868  0.1424  0.3789  0.0516
 1035SOL    HW114564   2.059   0.535   8.856 -0.6456  0.7981  4.0681
 1035SOL    HW214565   2.107   0.407   8.786 -1.1659 -2.9458  0.8968
 1036SOL     OW14566   3.461   4.450   8.105 -0.3343 -0.4164  0.3607
 1036SOL    HW114567   3.443   4.361   8.137  1.2867 -1.1538 -0.8031
 1036SOL    HW214568   3.555   4.435   8.096 -0.4387  0.9608 -2.9020
 1037SOL     OW14569   3.039   0.019  15.097 -0.1728 -0.2257 -0.5469
 1037SOL    HW114570   3.064   4.652  15.114  0.1044 -0.1128 -0.3628
 1037SOL    HW214571   2.978   0.036  15.169 -0.2205 -0.5709 -0.5029
 1038SOL     OW14572   2.106   0.713   2.038  0.5164  0.3727 -0.3718
 1038SOL    HW114573   2.048   0.680   2.106 -1.4174  0.8296 -1.7815
 1038SOL    HW214574   2.046   0.688   1.967  1.2183 -1.4733 -0.3072
 1039SOL     OW14575   0.440   0.118   5.181 -0.4936  0.0771 -0.1573
 1039SOL    HW114576   0.513   0.114   5.243 -1.0005  0.0902  0.4443
 1039SOL    HW214577   0.392   0.194   5.214 -0.0902 -0.8336  2.5474
 1040SOL     OW14578   0.172   2.458   0.813 -0.0769  0.1254  0.4648
 1040SOL    HW114579   0.154   2.369   0.785  0.8764 -0.2818  1.1259
 1040SOL    HW214580   0.205   2.451   0.903 -0.2431 -0.0176  0.5150
 1041SOL     OW14581   3.191   1.613  14.031  0.0665 -0.8843 -0.1276
 1041SOL    HW114582   3.269   1.567  14.000 -0.7381 -1.3824 -1.4092
 1041SOL    HW214583   3.122   1.547  14.034 -0.4430 -0.3029  0.9754
 1042SOL     OW14584   0.761   3.418   2.830  0.1450 -0.0736  0.0928
 1042SOL    HW114585   0.745   3.416   2.736 -1.4960 -1.3420  0.4023
 1042SOL    HW214586   0.817   3.496   2.833  1.1291 -0.7595 -0.2822
 1043SOL     OW14587   0.494   2.480  16.870 -0.1838 -0.0032 -0.2130
 1043SOL    HW114588   0.524   2.392  16.892  0.5319  0.0118 -1.1384
 1043SOL    HW214589   0.415   2.464  16.818  0.4496 -1.5102 -0.7069
 1044SOL     OW14590   3.362   0.814  11.582  0.1008  0.0451  0.0149
 1044SOL    HW114591   3.374   0.831  11.489 -1.7745  0.4390 -0.1580
 1044SOL    HW214592   3.454   0.817  11.610 -0.2654 -1.7869  1.4529
 1045SOL     OW14593   1.064   4.528   6.530 -0.1201  0.5193 -0.1770
 1045SOL    HW114594   1.098   4.476   6.457 -1.8476  0.5676 -1.0280
 1045SOL    HW214595   1.009   4.465   6.577 -1.4908  0.6170 -1.6649
 1046SOL     OW14596   1.964   1.061   3.598  0.5203 -0.0842  0.9270
 1046SOL    HW114597   1.977   0.999   3.526 -3.6353  0.3258 -0.1838
 1046SOL    HW214598   1.891   1.110   3.560 -0.1290 -1.9234 -0.2288
 1047SOL     OW14599   4.394   0.684   7.478  0.0462  0.6976 -0.2689
 1047SOL    HW114600   4.317   0.628   7.478  0.9470 -0.5383 -2.6358
 1047SOL    HW214601   4.458   0.620   7.511 -1.4720 -0.4436  0.4596
 1048SOL     OW14602   1.993   4.552   5.973  0.7434  0.0357 -0.2099
 1048SOL    HW114603   1.915   4.572   6.024  0.8453  1.4195 -0.6008
 1048SOL    HW214604   1.961   4.476   5.924 -2.1401  1.2323 -0.1989
 1049SOL     OW14605   3.410   4.709  11.261  0.4916 -0.2479 -0.9216
 1049SOL    HW114606   3.389   4.710  11.168 -2.0019 -0.5397 -0.3550
 1049SOL    HW214607   3.473   4.638  11.273 -0.3468 -0.8768 -0.2729
 1050SOL     OW14608   3.791   2.794   3.444 -0.1660 -0.0755 -0.3619
 1050SOL    HW114609   3.846   2.797   3.367 -0.3508  1.1125 -0.4458
 1050SOL    HW214610   3.757   2.884   3.449 -1.6951 -0.7183  0.9927
 1051SOL     OW14611   2.873   0.641   4.189 -0.2718  0.2034 -0.0052
 1051SOL    HW114612   2.821   0.669   4.264  0.0266  0.5066  0.0889
 1051SOL    HW214613   2.881   0.723   4.140 -1.6973 -0.5803 -1.5308
 1052SOL     OW14614   3.119   3.011   0.736  0.2300  0.3821 -0.4167
 1052SOL    HW114615   3.057   3.047   0.672  0.5092  1.8257  0.1265
 1052SOL    HW214616   3.204   3.048   0.713  0.4260 -0.0961 -0.4580
 1053SOL     OW14617   2.327   2.940   2.942  0.1882  0.2890 -0.7294
 1053SOL    HW114618   2.409   2.928   2.990 -0.1387  0.9797  0.0219
 1053SOL    HW214619   2.338   3.018   2.887  1.0444 -0.4526 -1.6037
 1054SOL     OW14620   0.538   2.527   3.834 -0.2858 -0.3340 -0.2413
 1054SOL    HW114621   0.562   2.580   3.759  0.3814  1.7307  1.4397
 1054SOL    HW214622   0.491   2.596   3.880 -1.3177 -1.3678  0.2650
 1055SOL     OW14623   3.033   2.526   0.978  0.1362  0.3086 -0.0991
 1055SOL    HW114624   3.123   2.510   0.950 -0.8928 -0.0653 -3.2808
 1055SOL    HW214625   3.010   2.570   0.896  0.2903 -0.5239 -0.5878
 1056SOL     OW14626   1.978   4.437  10.780 -0.0450 -0.2925  0.6141
 1056SOL    HW114627   1.964   4.356  10.830  0.0132 -0.7509 -0.1181
 1056SOL    HW214628   1.974   4.504  10.848  0.7622 -0.7653  1.1345
 1057SOL     OW14629   1.868   0.514   9.597  0.5914  0.2580  1.0269
 1057SOL    HW114630   1.819   0.486   9.520  0.3592 -0.8691  1.5833
 1057SOL    HW214631   1.800   0.563   9.644  0.4884  0.0149  1.1325
 1058SOL     OW14632   1.029   4.268   4.610 -0.6033 -0.0998 -0.2883
 1058SOL    HW114633   0.965   4.218   4.661  0.5059  0.6611  1.8608
 1058SOL    HW214634   0.995   4.357   4.625  0.4359  0.3263 -0.5239
 1059SOL     OW14635   1.001   0.168   1.071 -0.7552 -0.1119  0.3310
 1059SOL    HW114636   1.047   0.129   0.997  1.8406  1.1401  1.2927
 1059SOL    HW214637   1.001   0.102   1.141 -2.3863 -0.2506  0.2160
 1060SOL     OW14638   3.921   2.753   7.975  0.5780  0.2492  0.2078
 1060SOL    HW114639   4.011   2.739   8.004  0.0292 -1.8131  0.8878
 1060SOL    HW214640   3.909   2.845   7.996  2.8810  0.7258 -0.5721
 1061SOL     OW14641   2.564   2.119   5.607 -0.1921 -0.3276 -0.5431
 1061SOL    HW114642   2.471   2.125   5.626  0.3906  1.7516  1.7024
 1061SOL    HW214643   2.572   2.025   5.624 -1.9559 -0.4897 -0.6054
 1062SOL     OW14644   1.045   0.322  13.276 -0.0107 -0.2378 -0.2322
 1062SOL    HW114645   1.072   0.304  13.366  1.1486  0.9563 -0.3362
 1062SOL    HW214646   1.015   0.233  13.257 -0.0812 -0.2081 -0.2610
 1063SOL     OW14647   2.141   4.312   6.118 -0.1278  0.1703 -0.2999
 1063SOL    HW114648   2.216   4.355   6.160 -0.9427 -0.0527  1.3880
 1063SOL    HW214649   2.188   4.248   6.065  1.5816 -0.5836  2.1226
 1064SOL     OW14650   2.048   2.659  17.598 -0.5163  0.1128  0.2458
 1064SOL    HW114651   2.006   2.645  17.682 -0.2553  0.9024  0.5084
 1064SOL    HW214652   2.005   2.740  17.569  1.6782  1.1700 -0.0447
 1065SOL     OW14653   2.149   3.767   1.959 -0.2541  0.2971  0.1611
 1065SOL    HW114654   2.099   3.849   1.965  1.8191  1.6061 -0.5952
 1065SOL    HW214655   2.147   3.742   2.051 -2.0506  2.8495  0.8159
 1066SOL     OW14656   4.096   1.996   1.311 -0.2578  0.6793 -0.3652
 1066SOL    HW114657   4.163   2.013   1.377  0.3538 -2.3488 -0.2111
 1066SOL    HW214658   4.055   1.915   1.342 -2.9242  2.5648  0.9907
 1067SOL     OW14659   3.895   1.588  13.750 -0.8551  0.0891 -0.0203
 1067SOL    HW114660   3.926   1.543  13.672  0.4572  0.5048  0.2665
 1067SOL    HW214661   3.940   1.672  13.743  1.3039 -1.0748  0.0907
 1068SOL     OW14662   0.497   1.664   2.964 -0.1375 -0.2771 -0.7374
 1068SOL    HW114663   0.573   1.614   2.935 -0.2165 -1.0731  0.4167
 1068SOL    HW214664   0.508   1.752   2.929 -0.2045 -0.4329 -1.1394
 1069SOL     OW14665   1.014   3.053  11.324  0.0469 -0.3066 -0.1993
 1069SOL    HW114666   1.068   3.023  11.250  1.3583  2.2773 -0.2708
 1069SOL    HW214667   1.037   2.999  11.399 -1.9452 -1.2603 -0.2767
 1070SOL     OW14668   1.894   2.381   6.890  0.1556  0.0073  0.3127
 1070SOL    HW114669   1.968   2.322   6.905 -2.2492 -3.1732 -0.3922
 1070SOL    HW214670   1.951   2.458   6.896  1.7276 -1.1286  0.1727
 1071SOL     OW14671   1.517   2.702   5.275 -0.3068 -0.0840  0.3237
 1071SOL    HW114672   1.527   2.792   5.306 -0.4398 -0.9165  2.7951
 1071SOL    HW214673   1.422   2.699   5.263 -0.4337 -0.3356  1.4111
 1072SOL     OW14674   1.586   0.045   5.676  0.8209 -0.4611 -0.6280
 1072SOL    HW114675   1.630   0.127   5.651  1.0465 -0.6534 -0.8581
 1072SOL    HW214676   1.565   0.010   5.590 -0.9369  3.2342 -1.7093
 1073SOL     OW14677   0.698   2.269   0.219 -0.3153 -0.0968  0.2198
 1073SOL    HW114678   0.735   2.304   0.138  0.3287 -0.6328  0.2794
 1073SOL    HW214679   0.635   2.330   0.256 -1.3882 -0.7750 -0.5056
 1074SOL     OW14680   4.407   3.882  10.988 -0.2075 -0.1521 -0.1512
 1074SOL    HW114681   4.317   3.865  10.961  0.0469 -1.0914 -0.3808
 1074SOL    HW214682   4.409   3.842  11.076 -0.1309  1.8474  0.7623
 1075SOL     OW14683   2.018   2.095   7.087 -0.3861 -0.7508 -0.6652
 1075SOL    HW114684   2.010   2.152   7.164  0.7782 -1.1516 -0.2355
 1075SOL    HW214685   2.111   2.094   7.062  0.0697  0.1351  0.9301
 1076SOL     OW14686   2.588   2.959   3.034  0.5769  0.4795  0.3256
 1076SOL    HW114687   2.662   3.018   3.047  1.5645 -0.4237 -1.2367
 1076SOL    HW214688   2.606   2.933   2.944 -1.2070  0.2289  0.0361
 1077SOL     OW14689   0.583   3.004   4.791  0.0774  0.8001  0.3871
 1077SOL    HW114690   0.496   3.029   4.760  0.8688  1.5302 -1.2915
 1077SOL    HW214691   0.582   3.025   4.884  0.3355 -1.9472  1.0077
 1078SOL     OW14692   3.273   3.832  16.586 -0.0006  0.1431 -0.2432
 1078SOL    HW114693   3.276   3.737  16.573  3.9325  0.3168 -0.4781
 1078SOL    HW214694   3.278   3.859  16.495  0.7271  4.8552  1.1933
 1079SOL     OW14695   1.920   2.576   2.894 -0.6523  0.1969 -0.3319
 1079SOL    HW114696   1.951   2.663   2.871 -0.9540 -0.0759 -1.7561
 1079SOL    HW214697   2.000   2.537   2.929 -0.9773  0.2671  0.5005
 1080SOL     OW14698   2.422   3.963  12.741 -0.4888  0.1354 -0.1407
 1080SOL    HW114699   2.455   4.033  12.798 -0.6437  1.6172 -1.8715
 1080SOL    HW214700   2.505   3.925  12.713 -0.4172  0.4745 -0.3902
 1081SOL     OW14701   0.817   3.009   9.166  0.4943  0.0385 -0.5592
 1081SOL    HW114702   0.850   3.099   9.160  0.7895 -0.0339  0.0618
 1081SOL    HW214703   0.858   2.970   9.243 -0.4836 -0.6554 -0.3946
 1082SOL     OW14704   1.423   2.363  11.460  0.2918  0.3187 -0.1172
 1082SOL    HW114705   1.490   2.367  11.528 -1.7359  2.1504  1.7465
 1082SOL    HW214706   1.351   2.412  11.501 -1.4801 -1.4572 -1.1035
 1083SOL     OW14707   3.073   1.426   1.912  0.1801  0.7710 -0.5886
 1083SOL    HW114708   3.116   1.445   1.995  1.8377 -1.3048 -0.9929
 1083SOL    HW214709   2.989   1.393   1.942  0.4212 -1.1176 -1.9969
 1084SOL     OW14710   1.280   3.079  13.248 -0.1077 -0.3094 -0.2349
 1084SOL    HW114711   1.187   3.095  13.235 -0.3486 -2.2625 -0.8964
 1084SOL    HW214712   1.288   3.086  13.343  4.2278  0.7567 -0.6597
 1085SOL     OW14713   1.294   2.364  14.088  0.2700 -0.0447  0.5206
 1085SOL    HW114714   1.260   2.303  14.023 -0.0845  1.8553 -1.0683
 1085SOL    HW214715   1.218   2.422  14.081 -0.7400 -1.4224  0.1366
 1086SOL     OW14716   4.648   2.592  12.401 -0.4877  0.0403 -0.0998
 1086SOL    HW114717   4.570   2.542  12.377 -0.8647  0.1836  0.7952
 1086SOL    HW214718   4.711   2.521  12.407  0.0594  0.5881  0.6872
 1087SOL     OW14719   4.588   3.459   8.113 -0.3753 -0.2125  0.0992
 1087SOL    HW114720   4.580   3.546   8.075 -1.5468 -0.2008  0.3508
 1087SOL    HW214721   4.601   3.474   8.207 -2.3195  0.0496  0.3332
 1088SOL     OW14722   1.685   0.832   8.160  0.2722  0.4025  0.2339
 1088SOL    HW114723   1.642   0.747   8.174  3.0662 -1.2817 -1.1824
 1088SOL    HW214724   1.743   0.808   8.087 -1.2857 -1.5794 -0.3619
 1089SOL     OW14725   4.136   0.650   1.053  0.2405  0.4714  0.0390
 1089SOL    HW114726   4.200   0.586   1.021 -0.3360  0.2389 -0.6338
 1089SOL    HW214727   4.055   0.600   1.052  0.2858  0.4257 -1.4803
 1090SOL     OW14728   0.599   4.093   4.016  0.2669  0.7005  0.1174
 1090SOL    HW114729   0.645   4.016   3.982  0.2343  0.4276  0.6900
 1090SOL    HW214730   0.665   4.157   3.991  0.4248  0.7112  0.5558
 1091SOL     OW14731   2.971   4.212  11.235 -0.2037  0.4964  0.1694
 1091SOL    HW114732   3.002   4.191  11.323  1.7024  2.2911 -0.0808
 1091SOL    HW214733   2.884   4.171  11.237  0.2613 -0.5263 -0.3112
 1092SOL     OW14734   2.126   4.633   6.689  0.2003 -0.4782  0.2450
 1092SOL    HW114735   2.067   4.708   6.681  0.6074  0.0168  1.7623
 1092SOL    HW214736   2.172   4.658   6.770  2.5117  1.0772 -1.5432
 1093SOL     OW14737   3.906   3.294  15.005  0.0818  0.2882  0.3184
 1093SOL    HW114738   3.877   3.362  14.944  0.8167  0.0778 -0.2701
 1093SOL    HW214739   3.916   3.343  15.086 -1.0420  0.9969  0.0224
 1094SOL     OW14740   2.298   0.263   7.045 -0.1873  0.2781  0.0285
 1094SOL    HW114741   2.307   0.173   7.014  0.4407  0.3901 -0.1066
 1094SOL    HW214742   2.378   0.274   7.095  0.5517  2.1335 -1.6111
 1095SOL     OW14743   1.592   1.063   6.970 -0.2950  0.0047 -0.5918
 1095SOL    HW114744   1.566   1.058   6.878 -0.9555  2.3548 -0.5206
 1095SOL    HW214745   1.588   1.158   6.981  1.6340 -0.1753  1.6268
 1096SOL     OW14746   1.491   0.965  10.695  0.2221  0.2648  0.0799
 1096SOL    HW114747   1.482   0.967  10.790  2.4410  1.1409  0.2693
 1096SOL    HW214748   1.459   0.879  10.669  3.1011 -0.8258  0.1286
 1097SOL     OW14749   2.067   3.396   2.734 -0.1421 -0.3843 -0.8297
 1097SOL    HW114750   2.105   3.473   2.777 -1.1372  0.6427 -1.8081
 1097SOL    HW214751   2.146   3.351   2.702  0.5870 -1.4576  2.5234
 1098SOL     OW14752   4.274   4.643   3.657 -0.0120  0.0527 -0.0623
 1098SOL    HW114753   4.307   4.571   3.710  0.6516  0.3117 -0.1254
 1098SOL    HW214754   4.184   4.614   3.642  0.5076  0.3732 -3.8173
 1099SOL     OW14755   3.685   4.324   7.474  0.2182 -0.1835 -0.3655
 1099SOL    HW114756   3.689   4.392   7.406 -1.6076 -0.8357 -1.1165
 1099SOL    HW214757   3.621   4.266   7.432 -1.2711  0.6584  0.7368
 1100SOL     OW14758   1.165   4.632  17.490 -0.4600  0.6301  0.1030
 1100SOL    HW114759   1.135   4.561  17.546  0.2819 -0.9884 -1.5495
 1100SOL    HW214760   1.260   4.622  17.488 -0.2498  3.0966 -3.0157
 1101SOL     OW14761   0.413   3.591  12.069 -0.0126  0.4056 -0.5395
 1101SOL    HW114762   0.407   3.557  12.158  0.4894  2.3528  0.2335
 1101SOL    HW214763   0.502   3.626  12.072  0.2275 -0.1281 -1.3847
 1102SOL     OW14764   2.228   4.179   5.856 -0.4559 -0.4195 -0.4402
 1102SOL    HW114765   2.170   4.104   5.868 -0.3021 -0.1788  1.8955
 1102SOL    HW214766   2.194   4.223   5.778  1.0089  0.7312 -0.4124
 1103SOL     OW14767   1.716   3.258   6.377  0.5667 -0.2942  0.0838
 1103SOL    HW114768   1.804   3.267   6.340  1.7328 -0.0387  2.9400
 1103SOL    HW214769   1.690   3.170   6.350 -0.1860 -0.2010  0.5132
 1104SOL     OW14770   0.060   1.047   0.513  0.3023  0.4276  0.2607
 1104SOL    HW114771   4.700   1.041   0.556 -0.0189  1.6938 -0.1929
 1104SOL    HW214772   0.099   1.124   0.554 -3.7602  1.8765  1.3498
 1105SOL     OW14773   1.823   1.455  14.080  0.4678 -0.2189 -0.0813
 1105SOL    HW114774   1.863   1.541  14.069 -1.6837  0.5913 -1.7400
 1105SOL    HW214775   1.905   1.411  14.101  1.4069 -0.1394 -3.4985
 1106SOL     OW14776   2.713   4.085   3.738 -0.1040  0.1380  0.0795
 1106SOL    HW114777   2.707   4.162   3.794 -1.2366  0.4422 -0.4517
 1106SOL    HW214778   2.680   4.130   3.660  0.9037  0.5951 -0.0702
 1107SOL     OW14779   1.735   0.342  10.747 -0.0470 -0.2381 -0.5736
 1107SOL    HW114780   1.752   0.251  10.773 -0.0705 -0.3728 -1.0318
 1107SOL    HW214781   1.814   0.379  10.785  1.5365 -1.6341 -2.4830
 1108SOL     OW14782   3.272   0.987   2.431  0.2054 -0.4233  0.0413
 1108SOL    HW114783   3.362   0.981   2.460  0.5576 -0.5052 -1.0584
 1108SOL    HW214784   3.228   0.939   2.500  0.4739 -1.7655 -0.7285
 1109SOL     OW14785   3.381   4.328  11.116 -0.7909 -0.1352  0.2799
 1109SOL    HW114786   3.357   4.313  11.025  0.6532 -1.9410  0.1961
 1109SOL    HW214787   3.476   4.337  11.112 -1.0337  0.9857 -2.5979
 1110SOL     OW14788   1.753   3.378   7.811 -0.7052 -0.2670  0.0668
 1110SOL    HW114789   1.721   3.290   7.794  0.8226 -0.9854  0.9145
 1110SOL    HW214790   1.743   3.412   7.722 -0.8371  1.1016  0.6070
 1111SOL     OW14791   0.038   4.013  13.133  0.0229  0.1901 -0.4058
 1111SOL    HW114792   0.032   4.076  13.062 -0.6346  0.4661 -0.1105
 1111SOL    HW214793   0.118   4.043  13.176 -0.0516 -0.6314  0.2973
 1112SOL     OW14794   3.319   2.844   3.646  0.0722 -0.0629 -0.1054
 1112SOL    HW114795   3.341   2.931   3.680  0.8791 -0.6857  0.9715
 1112SOL    HW214796   3.309   2.861   3.552 -0.4381 -1.9669 -0.3967
 1113SOL     OW14797   4.120   2.853   5.556 -0.2149  0.4456  0.2039
 1113SOL    HW114798   4.091   2.896   5.636  0.5688  1.4911 -0.0733
 1113SOL    HW214799   4.050   2.885   5.499  3.6660 -0.8017 -5.2848
 1114SOL     OW14800   1.266   3.264   4.946  0.2650 -0.1477  0.1723
 1114SOL    HW114801   1.355   3.252   4.911 -0.3252  0.1654 -1.4323
 1114SOL    HW214802   1.259   3.359   4.935 -1.6334  0.1064  3.4080
 1115SOL     OW14803   3.605   1.932   9.664  0.0928  0.1480  0.1113
 1115SOL    HW114804   3.637   1.972   9.746 -0.8284  0.7440  0.1795
 1115SOL    HW214805   3.577   1.845   9.691  2.8793 -1.1888 -1.3138
 1116SOL     OW14806   1.464   4.133   3.528  0.0406 -0.3867  0.2883
 1116SOL    HW114807   1.413   4.056   3.555 -2.8653  0.4646 -2.7509
 1116SOL    HW214808   1.439   4.174   3.611  2.3853  0.7911  0.4151
 1117SOL     OW14809   0.437   0.456   4.150 -0.7997  0.2321 -0.1949
 1117SOL    HW114810   0.481   0.515   4.212 -2.7838 -0.9768  2.3737
 1117SOL    HW214811   0.394   0.389   4.204 -0.2952 -1.3739 -1.7847
 1118SOL     OW14812   3.388   3.664  12.300 -0.1610 -0.7280  0.3404
 1118SOL    HW114813   3.470   3.657  12.251  0.2078  5.0104  0.1979
 1118SOL    HW214814   3.417   3.645  12.389  0.7585 -1.1213 -0.0448
 1119SOL     OW14815   2.146   0.308  15.431 -0.9653 -0.2609  0.0860
 1119SOL    HW114816   2.195   0.226  15.423 -1.4685 -0.8851  3.4498
 1119SOL    HW214817   2.159   0.334  15.522 -0.8040  0.8420 -0.2491
 1120SOL     OW14818   0.895   1.369   6.991  0.0180 -0.6948 -0.1006
 1120SOL    HW114819   0.872   1.345   7.081 -0.1978  0.1363  0.0672
 1120SOL    HW214820   0.967   1.308   6.976  0.4458  0.0192 -0.9620
 1121SOL     OW14821   2.106   2.076   5.121  0.1012 -0.2184 -0.0998
 1121SOL    HW114822   2.015   2.099   5.104  0.1862 -0.3917 -0.7873
 1121SOL    HW214823   2.112   2.012   5.051 -2.1263  1.5612 -1.9005
 1122SOL     OW14824   0.709   0.418   4.934 -0.0134  0.4527 -0.2710
 1122SOL    HW114825   0.739   0.376   5.015 -0.0982 -0.0231 -0.4860
 1122SOL    HW214826   0.726   0.351   4.869 -0.4855 -0.3556  0.4405
 1123SOL     OW14827   1.043   3.576   9.703  0.3703 -0.0202 -0.2060
 1123SOL    HW114828   1.109   3.640   9.732  1.9015 -0.5855 -2.4067
 1123SOL    HW214829   1.088   3.529   9.633 -0.9302 -1.5438 -0.0036
 1124SOL     OW14830   1.039   2.936  10.018 -0.1267  0.6382 -0.0940
 1124SOL    HW114831   1.021   2.956   9.926  0.6664 -3.2799 -1.1201
 1124SOL    HW214832   0.953   2.949  10.059  0.6760 -0.5428  1.9462
 1125SOL     OW14833   0.151   2.590  14.446  0.5931  0.3731  0.9946
 1125SOL    HW114834   0.120   2.533  14.375 -0.1813 -0.9379  2.3701
 1125SOL    HW214835   0.073   2.640  14.472 -0.7908 -1.5721  0.5868
 1126SOL     OW14836   0.747   2.662   5.066 -0.3955  0.2495 -0.0940
 1126SOL    HW114837   0.714   2.609   4.993  0.2638 -3.2688  2.1443
 1126SOL    HW214838   0.685   2.735   5.072 -0.5698  0.1206 -0.3413
 1127SOL     OW14839   0.693   1.798  15.811  0.0996  0.3793 -0.7227
 1127SOL    HW114840   0.610   1.810  15.858  0.8261 -0.2854  0.7321
 1127SOL    HW214841   0.740   1.742  15.873 -1.0677 -0.8572 -0.9514
 1128SOL     OW14842   2.859   0.194   1.499 -0.1403  0.3189 -0.1770
 1128SOL    HW114843   2.877   0.254   1.427  2.6680  0.0208  0.2690
 1128SOL    HW214844   2.787   0.147   1.456  0.0543  1.1277 -1.3868
 1129SOL     OW14845   3.059   3.361   3.476  0.1875 -0.0546  0.7687
 1129SOL    HW114846   3.152   3.374   3.457 -0.4986  3.7887  0.0529
 1129SOL    HW214847   3.024   3.427   3.415 -0.1307 -2.1005 -1.2514
 1130SOL     OW14848   2.862   4.070   4.740 -0.0557  0.1400 -0.6414
 1130SOL    HW114849   2.878   4.010   4.667 -0.8337 -0.2848 -0.4572
 1130SOL    HW214850   2.838   4.150   4.693 -2.3078  0.4756  1.0936
 1131SOL     OW14851   1.061   1.135   4.453 -0.5528  0.2627  0.0081
 1131SOL    HW114852   1.029   1.193   4.522  1.7582  1.4540  0.0763
 1131SOL    HW214853   1.079   1.202   4.386  2.8525 -0.6258  0.0496
 1132SOL     OW14854   2.903   3.620   5.673 -0.4697 -0.1112  0.0071
 1132SOL    HW114855   2.980   3.671   5.650 -0.6588  0.1241 -0.1051
 1132SOL    HW214856   2.840   3.669   5.620  0.3966  1.9723  0.9346
 1133SOL     OW14857   2.283   4.528   2.725 -0.2291  0.6803 -0.0102
 1133SOL    HW114858   2.250   4.617   2.715  1.0153  0.9787 -1.4030
 1133SOL    HW214859   2.367   4.533   2.679 -0.7835  1.5922 -0.8954
 1134SOL     OW14860   1.238   2.520   5.991 -0.1430  0.4085  0.1010
 1134SOL    HW114861   1.288   2.523   5.910  1.9028  0.6387  1.3790
 1134SOL    HW214862   1.159   2.571   5.974 -0.6986 -0.1954  0.8205
 1135SOL     OW14863   3.290   1.992   7.085 -0.3635  0.1974  0.4785
 1135SOL    HW114864   3.195   1.983   7.071 -0.3245  1.2411 -0.4364
 1135SOL    HW214865   3.321   1.987   6.995  1.3181  1.0415  1.0150
 1136SOL     OW14866   3.995   3.678   6.829  0.0875  0.7469 -0.4036
 1136SOL    HW114867   3.953   3.755   6.866  0.8222  0.2653  1.4274
 1136SOL    HW214868   4.078   3.684   6.876  1.1460  0.2141 -2.1925
 1137SOL     OW14869   3.600   3.441   2.648 -0.0466 -0.4788  0.2043
 1137SOL    HW114870   3.518   3.486   2.628 -0.1601  0.1546  2.0197
 1137SOL    HW214871   3.636   3.512   2.702 -0.2742 -0.8082  0.7869
 1138SOL     OW14872   1.862   1.861   5.416 -0.7264 -0.2110 -0.5478
 1138SOL    HW114873   1.911   1.779   5.424 -0.8528 -0.2652 -0.3075
 1138SOL    HW214874   1.886   1.894   5.503 -1.6316 -2.2036  0.4856
 1139SOL     OW14875   2.291   1.981   8.636 -0.9434 -0.2005 -0.4719
 1139SOL    HW114876   2.266   2.072   8.619  1.6750  1.1349  2.6012
 1139SOL    HW214877   2.340   1.989   8.718 -0.9167  0.4301 -0.5439
 1140SOL     OW14878   3.645   0.741   2.326  0.0930 -0.0176  0.3535
 1140SOL    HW114879   3.650   0.705   2.238  1.3754 -0.3636  0.5719
 1140SOL    HW214880   3.612   0.829   2.309  0.4303 -0.1080 -0.7261
 1141SOL     OW14881   4.627   0.696   2.408 -0.5324 -0.2165  0.2425
 1141SOL    HW114882   4.533   0.681   2.410 -0.7673  1.5982  2.1015
 1141SOL    HW214883   4.635   0.733   2.320  2.7318 -1.7647 -0.1439
 1142SOL     OW14884   2.307   4.306  12.787 -0.2069  0.2278 -0.0667
 1142SOL    HW114885   2.394   4.337  12.809 -0.4904  0.4513  0.7508
 1142SOL    HW214886   2.313   4.291  12.693 -0.0727  2.2390 -0.3715
 1143SOL     OW14887   3.022   3.851   1.836 -0.6176  0.5188 -0.6212
 1143SOL    HW114888   3.014   3.946   1.847 -2.0541 -0.2101  4.3539
 1143SOL    HW214889   3.104   3.838   1.883  0.9686  0.1208 -3.4562
 1144SOL     OW14890   2.378   0.774   2.732  0.0724 -0.4088  0.2268
 1144SOL    HW114891   2.327   0.829   2.792  0.4630  0.1041  0.0857
 1144SOL    HW214892   2.364   0.689   2.774 -0.3257 -1.4217 -1.9596
 1145SOL     OW14893   4.609   4.524   4.241 -0.3608 -0.4149 -0.0797
 1145SOL    HW114894   4.609   4.439   4.195 -2.0831  0.6215 -1.9913
 1145SOL    HW214895   4.526   4.517   4.288  0.4870 -2.7005  1.1038
 1146SOL     OW14896   2.221   3.929   5.136  0.0381  0.4742 -0.1931
 1146SOL    HW114897   2.274   3.986   5.080  3.4161 -1.4345  1.1216
 1146SOL    HW214898   2.160   3.897   5.069  2.4189  1.6510 -2.9074
 1147SOL     OW14899   1.989   1.621   5.403  0.0055  0.0692  0.0969
 1147SOL    HW114900   1.991   1.543   5.457  1.6716  0.0002 -0.0527
 1147SOL    HW214901   2.079   1.628   5.370  0.2264  1.7193  1.0183
 1148SOL     OW14902   1.440   4.274  16.067  0.0148  0.5295  0.2447
 1148SOL    HW114903   1.397   4.197  16.029  1.1193 -0.6681  1.3911
 1148SOL    HW214904   1.486   4.304  15.989  0.0091 -0.4028 -0.1231
 1149SOL     OW14905   0.253   4.307   8.256 -0.2947  0.4875  0.6126
 1149SOL    HW114906   0.263   4.224   8.304 -1.3508  1.5327  2.6625
 1149SOL    HW214907   0.333   4.303   8.203 -1.2321 -3.8301 -0.4432
 1150SOL     OW14908   3.606   0.654   8.066  0.5340 -0.0456  0.1558
 1150SOL    HW114909   3.686   0.646   8.118  1.4926  5.0973 -0.5085
 1150SOL    HW214910   3.633   0.686   7.980 -1.5214  1.9316  0.2441
 1151SOL     OW14911   0.467   0.378   3.596  0.1313  0.1414  0.4099
 1151SOL    HW114912   0.439   0.317   3.528  1.2713  0.4679 -0.3442
 1151SOL    HW214913   0.402   0.448   3.607  2.8077  2.6719  0.1302
 1152SOL     OW14914   1.915   4.037  13.392  0.0400  0.0648 -0.2237
 1152SOL    HW114915   1.977   4.108  13.407 -0.4970  0.4453  0.2034
 1152SOL    HW214916   1.901   4.048  13.298 -0.4763  0.0103 -0.1523
 1153SOL     OW14917   0.876   1.713  17.245 -0.1870  0.0688  0.2629
 1153SOL    HW114918   0.935   1.758  17.306  0.5910 -2.6859  1.5071
 1153SOL    HW214919   0.844   1.787  17.192  0.2633 -0.3838 -0.6416
 1154SOL     OW14920   4.698   2.050  10.268  0.3980 -0.0813 -0.7825
 1154SOL    HW114921   0.036   2.042  10.341  1.4104  0.2450 -1.6055
 1154SOL    HW214922   4.633   2.110  10.305  0.2376 -1.4221  1.0902
 1155SOL     OW14923   4.412   0.916   6.706 -0.4775 -0.1386 -0.3048
 1155SOL    HW114924   4.432   0.834   6.661 -0.9207  0.5107 -1.6576
 1155SOL    HW214925   4.358   0.960   6.641  0.5552 -1.4356 -2.0292
 1156SOL     OW14926   0.110   1.520  12.929 -0.5533  0.3280  0.0698
 1156SOL    HW114927   0.141   1.607  12.903  2.8225 -0.3986  1.6517
 1156SOL    HW214928   0.016   1.536  12.939 -0.2072  2.5571 -0.2416
 1157SOL     OW14929   2.243   1.136   8.074  0.2077  0.0321 -0.2669
 1157SOL    HW114930   2.314   1.170   8.129  0.1070  1.2327 -0.8755
 1157SOL    HW214931   2.226   1.201   8.005  1.5213  0.1732 -0.4614
 1158SOL     OW14932   2.390   3.329   9.219  0.0164 -0.6505 -0.0536
 1158SOL    HW114933   2.436   3.308   9.300  0.7748  1.0456 -0.0363
 1158SOL    HW214934   2.310   3.365   9.258  1.5907  0.0464  2.5515
 1159SOL     OW14935   4.082   4.582   5.822 -0.0631 -0.0829  0.7839
 1159SOL    HW114936   4.084   4.523   5.747  1.9174  1.6635 -0.5432
 1159SOL    HW214937   4.170   4.620   5.822 -0.5702  1.0941  1.1270
 1160SOL     OW14938   0.371   2.318  13.116 -0.6809  0.2554 -0.0268
 1160SOL    HW114939   0.412   2.237  13.087  0.6789 -0.0929  2.8419
 1160SOL    HW214940   0.322   2.336  13.036  0.8009  0.3805 -0.8976
 1161SOL     OW14941   2.730   0.439   7.002 -0.1706 -0.0415 -0.3428
 1161SOL    HW114942   2.642   0.439   6.965  0.5845  0.8291 -2.0884
 1161SOL    HW214943   2.790   0.418   6.931 -0.8721 -0.8571 -0.7000
 1162SOL     OW14944   2.010   2.766   9.546  0.2374  0.2999 -0.3740
 1162SOL    HW114945   2.083   2.825   9.527  0.3925  0.5424  0.9721
 1162SOL    HW214946   2.022   2.756   9.640  0.9550 -2.4414 -0.7757
 1163SOL     OW14947   3.483   1.584  13.560 -0.6891 -0.4131 -0.0514
 1163SOL    HW114948   3.393   1.564  13.586 -1.0190  2.4182  1.0046
 1163SOL    HW214949   3.537   1.550  13.632  1.2945 -1.0015 -1.8502
 1164SOL     OW14950   3.531   3.010   3.778 -0.4708 -0.2505  0.3227
 1164SOL    HW114951   3.467   2.988   3.845  0.0033  3.1579  1.8715
 1164SOL    HW214952   3.602   3.043   3.832 -2.5538  1.3951  1.9969
 1165SOL     OW14953   3.835   2.731   9.362  0.7336 -0.2599  0.5861
 1165SOL    HW114954   3.750   2.688   9.352  0.8211 -0.3585  0.2554
 1165SOL    HW214955   3.857   2.713   9.454  1.2512  0.9149  0.6917
 1166SOL     OW14956   0.407   3.940   1.103 -0.3218  0.2196 -0.4018
 1166SOL    HW114957   0.327   3.954   1.153  1.1861 -0.9519  2.3318
 1166SOL    HW214958   0.390   3.851   1.072 -1.0475  0.3996 -0.5069
 1167SOL     OW14959   1.088   2.416   8.400  0.1651  0.2351 -0.1249
 1167SOL    HW114960   1.100   2.511   8.408 -0.8928  0.2802  0.9382
 1167SOL    HW214961   1.023   2.416   8.330  0.1606 -0.9681 -0.1128
 1168SOL     OW14962   3.167   4.375   6.016  0.4678  0.0355 -0.9207
 1168SOL    HW114963   3.255   4.395   6.046 -0.4770  0.4625  1.5747
 1168SOL    HW214964   3.157   4.428   5.937 -0.7937 -1.2170 -1.6150
 1169SOL     OW14965   0.622   0.493   3.073 -0.3337  0.6162 -0.2503
 1169SOL    HW114966   0.594   0.583   3.057  1.1165  0.6369 -2.5555
 1169SOL    HW214967   0.540   0.446   3.088  0.5129 -0.9349 -0.4734
 1170SOL     OW14968   3.742   3.641   6.311  0.2035 -0.1562  0.2902
 1170SOL    HW114969   3.781   3.620   6.396  2.8615 -1.0817 -1.1663
 1170SOL    HW214970   3.653   3.665   6.337 -0.2452  0.4736 -1.7700
 1171SOL     OW14971   0.632   4.706   5.881 -0.2378 -0.1653  0.3548
 1171SOL    HW114972   0.628   4.632   5.820  1.6947 -0.0071  0.0471
 1171SOL    HW214973   0.582   4.671   5.955  0.6182  0.2371  1.1154
 1172SOL     OW14974   2.715   3.609   6.937 -0.0320 -0.5130  0.2233
 1172SOL    HW114975   2.620   3.599   6.944  0.0153 -0.4395  0.9759
 1172SOL    HW214976   2.747   3.536   6.990 -3.3373 -1.4069  1.0173
 1173SOL     OW14977   0.725   0.505  14.374  0.5633  0.5045 -0.4234
 1173SOL    HW114978   0.638   0.487  14.409  2.0641 -3.5612  1.2659
 1173SOL    HW214979   0.772   0.511  14.456 -2.7077 -1.2176  1.5968
 1174SOL     OW14980   3.513   0.617  13.222 -0.0817  0.1516 -0.0842
 1174SOL    HW114981   3.440   0.656  13.269 -0.5285  0.1175 -0.7571
 1174SOL    HW214982   3.488   0.649  13.136 -0.0611 -2.5400 -1.1164
 1175SOL     OW14983   1.011   1.695  10.754 -0.4373  0.4064 -0.1966
 1175SOL    HW114984   1.087   1.641  10.733 -1.3599 -1.2120  0.7047
 1175SOL    HW214985   0.952   1.622  10.773 -0.2996  0.4887  0.5385
 1176SOL     OW14986   3.876   3.336   1.086 -0.9146 -0.2721 -0.1728
 1176SOL    HW114987   3.856   3.261   1.143  1.1004 -1.5991 -1.2221
 1176SOL    HW214988   3.966   3.325   1.054 -1.2002 -1.9865 -0.3836
 1177SOL     OW14989   1.587   1.725  16.320 -0.4134 -0.8987 -0.0051
 1177SOL    HW114990   1.622   1.747  16.406  0.2511 -0.0559 -0.4972
 1177SOL    HW214991   1.601   1.805  16.270  0.3295 -1.9972 -1.5812
 1178SOL     OW14992   0.833   1.649  11.004 -0.4006 -0.2852 -0.5892
 1178SOL    HW114993   0.828   1.571  10.948 -0.0870 -1.0159  0.3865
 1178SOL    HW214994   0.754   1.659  11.057  1.8156  2.4255  2.2209
 1179SOL     OW14995   1.413   1.627   5.511  0.1132  0.4178  0.3137
 1179SOL    HW114996   1.318   1.621   5.522 -0.2602  0.8559 -2.6499
 1179SOL    HW214997   1.454   1.602   5.593  0.5580  0.5398  0.1277
 1180SOL     OW14998   3.615   0.218   8.379  0.0035 -0.0747 -0.2747
 1180SOL    HW114999   3.557   0.241   8.451 -1.1493 -3.5928 -0.0436
 1180SOL    HW215000   3.600   0.124   8.367 -2.9237  0.1193  1.8291
 1181SOL     OW15001   2.556   0.275   7.112  0.0662 -0.4396 -0.3547
 1181SOL    HW115002   2.609   0.195   7.106  1.2277  0.2842  0.3120
 1181SOL    HW215003   2.631   0.332   7.098  0.9637 -1.4731  0.2424
 1182SOL     OW15004   0.256   4.173  16.545  0.1011  0.0219  0.0768
 1182SOL    HW115005   0.285   4.264  16.547 -1.3005  0.3838  3.4515
 1182SOL    HW215006   0.200   4.167  16.623 -0.5422  2.8622 -0.1755
 1183SOL     OW15007   2.206   2.137   9.507  0.0939  0.0700  0.0069
 1183SOL    HW115008   2.229   2.222   9.469  2.3871 -1.0365 -1.0804
 1183SOL    HW215009   2.148   2.101   9.440 -0.7092 -0.9460  1.2494
 1184SOL     OW15010   4.291   0.597   2.707 -0.9951  0.5210  0.5257
 1184SOL    HW115011   4.317   0.611   2.616  0.7372  1.7971  1.2298
 1184SOL    HW215012   4.328   0.677   2.745 -2.9337  1.0220  1.3494
 1185SOL     OW15013   4.212   2.729   1.984  0.3671  0.6623 -0.0868
 1185SOL    HW115014   4.169   2.697   2.063 -0.9385  0.6854 -0.7914
 1185SOL    HW215015   4.143   2.787   1.953 -0.6984 -0.2426  0.5899
 1186SOL     OW15016   2.713   3.468   6.671  0.1124  0.3806  0.8061
 1186SOL    HW115017   2.697   3.555   6.635 -1.4200 -0.1575  0.1853
 1186SOL    HW215018   2.623   3.446   6.694 -0.2236  2.4241  1.4868
 1187SOL     OW15019   4.333   4.430  13.720 -0.6314 -0.1062 -0.5743
 1187SOL    HW115020   4.352   4.521  13.696  1.4042 -0.1665  0.7827
 1187SOL    HW215021   4.420   4.390  13.711 -0.9717 -0.8313 -0.6834
 1188SOL     OW15022   1.066   4.212  10.606  0.4764 -0.0002  0.0685
 1188SOL    HW115023   1.059   4.296  10.652 -0.9605 -1.2803  2.1631
 1188SOL    HW215024   1.131   4.246  10.544  0.7190  0.1932  0.4294
 1189SOL     OW15025   2.973   0.753   4.985  0.5145  0.6541 -0.1213
 1189SOL    HW115026   3.023   0.687   5.034 -1.9998  0.9796  2.8672
 1189SOL    HW215027   3.010   0.752   4.896  1.1185 -1.2472  0.1342
 1190SOL     OW15028   2.546   3.636   8.600  0.4667 -0.6555  0.0432
 1190SOL    HW115029   2.589   3.578   8.663  1.1315 -0.8538 -0.5991
 1190SOL    HW215030   2.488   3.571   8.561 -0.0615 -1.4416  2.1035
 1191SOL     OW15031   1.300   0.224   5.724  0.1794  1.0355 -0.2123
 1191SOL    HW115032   1.331   0.141   5.762 -3.0548  0.3247  0.8814
 1191SOL    HW215033   1.267   0.266   5.803  3.7039  1.2603  1.1482
 1192SOL     OW15034   2.506   4.460  12.103  0.1964 -0.3179 -0.1055
 1192SOL    HW115035   2.527   4.420  12.019 -0.8752 -0.1427 -0.4548
 1192SOL    HW215036   2.579   4.523  12.101 -1.3105  1.4457  0.1675
 1193SOL     OW15037   1.647   2.044   4.243  0.2305 -0.6809 -0.0492
 1193SOL    HW115038   1.568   2.072   4.289  0.4924 -0.6656  0.3898
 1193SOL    HW215039   1.610   1.972   4.192 -0.0895 -1.0626  0.7078
 1194SOL     OW15040   4.178   2.852   3.230 -0.5497  0.1625  0.2708
 1194SOL    HW115041   4.233   2.784   3.192 -2.1489 -0.4888 -0.8660
 1194SOL    HW215042   4.199   2.848   3.323 -0.7008 -1.7092  0.2113
 1195SOL     OW15043   3.725   1.532  10.967 -0.1779  0.0002  0.0788
 1195SOL    HW115044   3.811   1.545  10.926 -0.3997 -0.3048 -0.4923
 1195SOL    HW215045   3.665   1.508  10.896 -1.0104  1.1090  0.3920
 1196SOL     OW15046   2.936   2.885   0.186  0.4509 -0.5387  0.0506
 1196SOL    HW115047   2.986   2.812   0.221  0.4785 -1.3016 -1.5844
 1196SOL    HW215048   2.885   2.912   0.263 -1.6684 -0.6697 -1.2948
 1197SOL     OW15049   0.520   0.712   5.677 -0.4216 -0.4675  0.1837
 1197SOL    HW115050   0.516   0.756   5.593  1.0612  0.0429  0.3843
 1197SOL    HW215051   0.567   0.782   5.722  1.2528 -1.6881  0.3423
 1198SOL     OW15052   2.525   3.726  17.602  0.0790 -0.1529  0.0467
 1198SOL    HW115053   2.596   3.678  17.646  1.2020  2.3673  0.9583
 1198SOL    HW215054   2.529   3.686  17.515 -0.6798 -1.7067  0.7277
 1199SOL     OW15055   3.293   0.842  10.653  0.1297  0.0409  0.1091
 1199SOL    HW115056   3.203   0.870  10.636  0.5711 -0.5021 -3.2048
 1199SOL    HW215057   3.299   0.763  10.599 -3.6355 -1.0676  1.3317
 1200SOL     OW15058   0.218   3.398  10.428 -0.0378  0.4070  0.1627
 1200SOL    HW115059   0.261   3.313  10.441 -1.6479 -0.7440 -2.0570
 1200SOL    HW215060   0.241   3.439  10.511 -1.6225 -0.4124  1.0016
 1201SOL     OW15061   2.500   2.739   0.123  0.0422 -0.0726  0.2897
 1201SOL    HW115062   2.493   2.675   0.053 -0.2366 -0.8309  1.0195
 1201SOL    HW215063   2.581   2.779   0.091 -0.5006 -1.5816 -2.8717
 1202SOL     OW15064   2.814   0.101   8.663 -0.2127 -0.8332  0.1906
 1202SOL    HW115065   2.905   0.127   8.676 -0.4698 -0.6805  1.6304
 1202SOL    HW215066   2.821   0.070   8.573 -0.3391  0.2460 -0.2011
 1203SOL     OW15067   1.011   0.965   9.075  0.1122 -0.4556  0.8997
 1203SOL    HW115068   0.988   0.988   9.166  3.5888  0.1931  1.5946
 1203SOL    HW215069   0.921   0.970   9.041 -0.8618  0.7446  3.5724
 1204SOL     OW15070   0.904   3.664   3.698 -0.1050  1.1004  0.2312
 1204SOL    HW115071   0.926   3.640   3.788  1.4545 -0.3238 -0.5228
 1204SOL    HW215072   0.880   3.576   3.669  0.1778  0.6808  1.2874
 1205SOL     OW15073   0.123   2.196  11.373  0.4921  0.2226 -0.4308
 1205SOL    HW115074   0.080   2.111  11.382 -0.6449  0.7822 -0.5771
 1205SOL    HW215075   0.175   2.196  11.453 -2.0510  1.5799  1.2112
 1206SOL     OW15076   1.065   1.722   1.990  0.2385  0.0207  0.2762
 1206SOL    HW115077   1.019   1.642   2.016  0.1216 -0.3048 -0.9252
 1206SOL    HW215078   1.068   1.763   2.077 -0.4382 -1.0264  0.8055
 1207SOL     OW15079   3.452   1.567   4.270  0.4729  0.6798 -0.1293
 1207SOL    HW115080   3.381   1.504   4.279 -1.7395  2.9973 -1.4047
 1207SOL    HW215081   3.409   1.634   4.216 -1.2013  0.4197  0.8834
 1208SOL     OW15082   0.657   4.354  17.033  0.0545 -0.3838  0.0555
 1208SOL    HW115083   0.618   4.441  17.044  5.1287  1.8572  0.3799
 1208SOL    HW215084   0.713   4.361  17.111 -0.3575  0.5813  0.2618
 1209SOL     OW15085   4.251   2.468   5.704 -0.0960  0.2369 -0.3971
 1209SOL    HW115086   4.156   2.473   5.693 -0.2552 -0.0983  0.9137
 1209SOL    HW215087   4.257   2.418   5.785 -2.8848  1.1079  0.3443
 1210SOL     OW15088   2.316   3.472   5.947  0.1233 -0.0010  0.2630
 1210SOL    HW115089   2.327   3.414   6.023  1.9809 -0.7578 -0.5923
 1210SOL    HW215090   2.359   3.549   5.984 -1.2766  0.8603  0.1174
 1211SOL     OW15091   0.705   2.946  14.706 -0.0142 -0.6742  0.0011
 1211SOL    HW115092   0.754   3.021  14.675  0.8542 -0.5527  1.6945
 1211SOL    HW215093   0.676   2.901  14.626  1.5621 -2.9383  0.7067
 1212SOL     OW15094   1.351   2.069   6.318  0.0731  0.0817  0.6755
 1212SOL    HW115095   1.279   2.009   6.335  1.3658 -1.9574 -1.0200
 1212SOL    HW215096   1.330   2.101   6.231 -1.3637  0.4374  1.1590
 1213SOL     OW15097   2.764   1.288   9.870  0.4718 -0.4299 -0.4628
 1213SOL    HW115098   2.727   1.374   9.891 -1.4202 -1.1967 -0.5979
 1213SOL    HW215099   2.784   1.255   9.958  0.6994  0.8443 -0.0393
 1214SOL     OW15100   1.044   3.931   0.569 -0.3227  0.1846  0.1602
 1214SOL    HW115101   1.001   3.845   0.568 -3.6901  1.8626  0.7819
 1214SOL    HW215102   1.114   3.921   0.503  0.6701  1.6678  0.9924
 1215SOL     OW15103   1.202   3.684   5.595  0.0769 -0.1246  0.2821
 1215SOL    HW115104   1.260   3.620   5.553  0.2852  0.6162 -0.5541
 1215SOL    HW215105   1.158   3.713   5.516 -1.4561 -0.6660  0.9462
 1216SOL     OW15106   4.288   1.461   5.606 -0.7151  0.0564 -0.1664
 1216SOL    HW115107   4.311   1.467   5.698  1.1025 -1.1940 -0.5474
 1216SOL    HW215108   4.374   1.439   5.572 -0.7359  0.0227 -0.1971
 1217SOL     OW15109   0.142   0.630  13.080  0.3075  0.1692  0.3586
 1217SOL    HW115110   0.154   0.571  13.005  0.4799 -0.6836  1.0534
 1217SOL    HW215111   0.092   0.695  13.031 -0.4571 -2.3923 -2.2979
 1218SOL     OW15112   1.524   1.479   7.389  0.3986 -0.6242 -0.2422
 1218SOL    HW115113   1.442   1.501   7.432  0.0087 -2.5470 -0.0241
 1218SOL    HW215114   1.497   1.453   7.301 -1.6644 -1.1422  0.5475
 1219SOL     OW15115   1.753   1.785   0.767  0.2816 -0.2241 -0.0934
 1219SOL    HW115116   1.765   1.879   0.777  0.6497 -0.1407 -1.3213
 1219SOL    HW215117   1.825   1.750   0.819  0.1424 -1.7296 -0.9025
 1220SOL     OW15118   4.652   3.887   8.213  0.1054 -0.3915 -0.0567
 1220SOL    HW115119   4.636   3.838   8.293 -1.5144  0.8654  0.3941
 1220SOL    HW215120   4.623   3.976   8.231  0.0539 -0.4212  0.0057
 1221SOL     OW15121   3.774   2.252   4.395  0.4940 -0.4695  0.3014
 1221SOL    HW115122   3.813   2.191   4.333  1.3937 -0.0865  0.4996
 1221SOL    HW215123   3.838   2.248   4.466 -1.1904  1.9694  1.9722
 1222SOL     OW15124   2.838   4.063   8.309 -0.7061 -0.3051  0.8151
 1222SOL    HW115125   2.793   4.004   8.370 -0.9925  1.7225  2.5646
 1222SOL    HW215126   2.904   4.100   8.369  1.2228 -1.7231 -0.4288
 1223SOL     OW15127   4.547   4.496  12.494  0.3797  0.2511  0.2703
 1223SOL    HW115128   4.512   4.519  12.408  1.3472 -1.1434 -0.5036
 1223SOL    HW215129   4.630   4.543  12.501 -0.7394  2.3503 -0.7703
 1224SOL     OW15130   3.006   4.141   1.828  0.8032  0.1454 -0.4521
 1224SOL    HW115131   2.968   4.226   1.852 -1.2129 -0.6108 -0.9633
 1224SOL    HW215132   3.037   4.158   1.739  0.6333 -1.1043 -0.7457
 1225SOL     OW15133   4.367   2.502   8.711 -0.5230 -0.5193  0.3095
 1225SOL    HW115134   4.415   2.441   8.766 -0.7350 -0.8610  0.1160
 1225SOL    HW215135   4.408   2.484   8.626 -3.4822  0.8556 -1.4026
 1226SOL     OW15136   4.671   0.585   3.985 -0.0520  0.0464  0.3202
 1226SOL    HW115137   0.032   0.606   4.021  0.1321  0.5417 -0.4100
 1226SOL    HW215138   4.678   0.655   3.921  1.9482  0.8718  1.4716
 1227SOL     OW15139   1.851   4.236   6.107  0.5019 -0.5596 -0.4564
 1227SOL    HW115140   1.918   4.255   6.173  1.0430 -1.6166 -0.6986
 1227SOL    HW215141   1.911   4.258   6.036 -0.1102  0.0711 -0.7744
 1228SOL     OW15142   0.274   1.184  17.299  0.5590  0.0718  0.1244
 1228SOL    HW115143   0.360   1.141  17.304  0.3842 -0.3083 -0.0897
 1228SOL    HW215144   0.214   1.110  17.285  2.3614 -1.4304  0.2319
 1229SOL     OW15145   2.424   2.601   7.336  0.2050 -0.5833 -0.6529
 1229SOL    HW115146   2.466   2.682   7.307  0.7134 -0.3533  0.7092
 1229SOL    HW215147   2.491   2.549   7.380  0.7649 -0.4981 -1.3968
 1230SOL     OW15148   4.144   4.016   8.786 -0.2400  0.1267 -0.5682
 1230SOL    HW115149   4.196   4.088   8.822  1.4284 -1.0089 -0.7608
 1230SOL    HW215150   4.077   4.068   8.739 -1.5557  0.0577  1.2417
 1231SOL     OW15151   0.366   1.274   6.943 -0.5541 -0.0939  0.1849
 1231SOL    HW115152   0.350   1.214   7.016  0.9157 -1.9354 -0.9888
 1231SOL    HW215153   0.440   1.327   6.972 -1.0147  1.0626 -0.7697
 1232SOL     OW15154   3.098   0.899  12.772 -0.0426 -0.0696 -0.2214
 1232SOL    HW115155   3.142   0.984  12.760  0.4966 -0.0569  1.8031
 1232SOL    HW215156   3.120   0.853  12.692 -0.8603 -0.4537 -0.2284
 1233SOL     OW15157   4.652   0.530   8.244 -0.5258 -0.0864  0.4719
 1233SOL    HW115158   4.629   0.439   8.264 -1.4896  0.1275  0.3378
 1233SOL    HW215159   4.565   0.568   8.234  0.9361  3.0750  0.0165
 1234SOL     OW15160   4.533   0.701   7.950  0.4789 -0.1389 -0.1707
 1234SOL    HW115161   4.519   0.776   7.892 -0.5189 -0.6306 -0.5813
 1234SOL    HW215162   4.526   0.632   7.884  0.4018 -0.9335  0.6797
 1235SOL     OW15163   4.630   0.554  16.475 -0.4880  0.0819 -0.0999
 1235SOL    HW115164   4.638   0.649  16.479  2.6032 -0.1443 -0.6707
 1235SOL    HW215165   4.711   0.533  16.427 -0.6431  0.2666 -0.4392
 1236SOL     OW15166   3.218   0.012   2.870  0.7066 -0.7923  0.2735
 1236SOL    HW115167   3.270   4.719   2.948 -0.0163 -1.1551  0.6679
 1236SOL    HW215168   3.140   0.052   2.907  0.9891  2.7764 -3.0518
 1237SOL     OW15169   2.477   2.432   6.823  0.0029 -0.4093 -0.0891
 1237SOL    HW115170   2.562   2.417   6.863 -0.0655  0.5045  0.3891
 1237SOL    HW215171   2.474   2.349   6.774 -0.4655  0.9685 -2.4294
 1238SOL     OW15172   1.578   2.360   9.094 -0.2518 -0.0685 -0.4275
 1238SOL    HW115173   1.545   2.405   9.017 -1.3314 -0.6093 -0.2792
 1238SOL    HW215174   1.513   2.381   9.160  1.6844 -2.0794  2.1734
 1239SOL     OW15175   3.094   0.085  16.706  0.4083 -0.3005 -0.1046
 1239SOL    HW115176   3.115   0.029  16.780 -3.6397  1.2086  2.1494
 1239SOL    HW215177   3.099   0.024  16.632 -1.7985  0.1487 -0.6085
 1240SOL     OW15178   4.228   0.951   5.258  0.0098  0.1480 -0.0093
 1240SOL    HW115179   4.201   0.898   5.333  1.5142 -1.6115 -0.7430
 1240SOL    HW215180   4.321   0.934   5.264  0.0284 -0.1362 -1.1858
 1241SOL     OW15181   0.757   1.185   3.365 -0.0239 -0.1973 -0.5505
 1241SOL    HW115182   0.761   1.185   3.461 -2.6909  1.1065 -0.4518
 1241SOL    HW215183   0.675   1.231   3.354 -0.9376 -1.3875  1.2538
 1242SOL     OW15184   0.192   2.292  14.173  0.0246  0.3265  0.2170
 1242SOL    HW115185   0.278   2.335  14.170  0.3937 -0.4903 -0.7722
 1242SOL    HW215186   0.213   2.207  14.134  0.6996  0.3082  0.6130
 1243SOL     OW15187   2.787   2.490  11.413 -1.0918  0.3389 -0.4257
 1243SOL    HW115188   2.839   2.533  11.482 -1.5900 -0.4856  0.4643
 1243SOL    HW215189   2.787   2.405  11.457 -0.1749  0.5469 -0.0316
 1244SOL     OW15190   2.261   4.032  10.877  0.4882 -0.1424  0.0123
 1244SOL    HW115191   2.229   4.034  10.787  0.1320  0.6263  0.1529
 1244SOL    HW215192   2.199   3.981  10.928  1.4365 -1.0761  0.2179
 1245SOL     OW15193   3.780   4.177   2.931  0.3795 -0.3270  1.0182
 1245SOL    HW115194   3.807   4.132   2.851 -0.7090  0.1098  0.4004
 1245SOL    HW215195   3.836   4.255   2.932  2.1813 -1.6393  1.1697
 1246SOL     OW15196   2.372   0.306   9.873  0.4350 -0.4028 -0.3238
 1246SOL    HW115197   2.344   0.302   9.964 -1.8816 -1.4061 -1.0773
 1246SOL    HW215198   2.442   0.240   9.865  0.4808 -0.4360  0.3679
 1247SOL     OW15199   4.285   2.803   6.837  0.8254 -0.2877  0.1352
 1247SOL    HW115200   4.290   2.892   6.871  1.2145  0.6580 -2.3273
 1247SOL    HW215201   4.259   2.753   6.914 -0.8798 -1.7158 -1.3685
 1248SOL     OW15202   1.687   2.841   5.948 -0.7706  0.0611  0.2332
 1248SOL    HW115203   1.612   2.898   5.929 -1.0206 -0.3103  0.0889
 1248SOL    HW215204   1.696   2.839   6.043 -0.2865 -0.4587  0.1774
 1249SOL     OW15205   1.643   2.474   8.705 -0.0585  0.1798 -0.3383
 1249SOL    HW115206   1.684   2.483   8.791 -1.6599  0.7783  0.3430
 1249SOL    HW215207   1.681   2.551   8.661  2.1441 -1.7722 -1.9225
 1250SOL     OW15208   4.546   1.133  11.924 -0.3185 -0.1805  0.4061
 1250SOL    HW115209   4.490   1.181  11.985 -0.9492  0.9689 -1.1070
 1250SOL    HW215210   4.557   1.189  11.847  2.1944 -2.0778 -0.6192
 1251SOL     OW15211   0.914   1.948  15.107 -0.0030  0.3785 -0.1799
 1251SOL    HW115212   0.987   2.009  15.117  0.7634 -0.8978  1.8848
 1251SOL    HW215213   0.932   1.903  15.189  1.6924  0.2316 -0.6288
 1252SOL     OW15214   3.625   1.356   8.418 -0.3280  0.1118 -0.1025
 1252SOL    HW115215   3.571   1.304   8.359 -0.3483  0.4325 -0.3671
 1252SOL    HW215216   3.602   1.310   8.499  0.7474  0.1024  0.1956
 1253SOL     OW15217   3.716   1.916  16.831  0.0832 -0.4108 -0.0874
 1253SOL    HW115218   3.803   1.898  16.868 -0.2502  0.4419  1.1093
 1253SOL    HW215219   3.674   1.926  16.916 -0.3445 -0.4281 -0.3004
 1254SOL     OW15220   2.465   4.163   8.398 -0.2460 -0.1330 -0.2557
 1254SOL    HW115221   2.527   4.101   8.359  1.6916 -0.2247  2.9187
 1254SOL    HW215222   2.525   4.237   8.411  0.2881 -0.4720 -0.8224
 1255SOL     OW15223   4.192   1.869   1.537 -0.1352  0.5489 -0.0378
 1255SOL    HW115224   4.177   1.948   1.589  1.3403  1.5931 -1.1899
 1255SOL    HW215225   4.281   1.844   1.562 -0.4333  0.6343  1.1210
 1256SOL     OW15226   3.940   1.088   1.679 -0.1399  0.4507 -0.4373
 1256SOL    HW115227   3.883   1.125   1.746  1.2943  1.2470  0.3320
 1256SOL    HW215228   4.024   1.114   1.716 -0.2632  1.8240 -1.1280
 1257SOL     OW15229   2.463   2.193   0.893 -0.1942  0.0765 -0.4297
 1257SOL    HW115230   2.413   2.167   0.816  0.0364 -0.7041 -0.3139
 1257SOL    HW215231   2.435   2.121   0.950  0.5466  0.2331  0.1442
 1258SOL     OW15232   3.825   1.623  16.905 -0.1236 -0.3832 -0.0701
 1258SOL    HW115233   3.891   1.687  16.878 -0.3748  0.0485  0.3305
 1258SOL    HW215234   3.871   1.582  16.979  0.6015  1.2651  0.3980
 1259SOL     OW15235   1.841   3.713   8.635  0.0620 -0.4968 -0.1424
 1259SOL    HW115236   1.791   3.636   8.610  0.4956 -1.2321  1.2781
 1259SOL    HW215237   1.882   3.677   8.713 -0.4485  0.5724  0.6183
 1260SOL     OW15238   2.840   3.841   6.912  0.0240  0.1784  0.2251
 1260SOL    HW115239   2.778   3.768   6.919  0.4397 -0.0963  1.0294
 1260SOL    HW215240   2.811   3.900   6.981 -0.5690  1.2202 -0.9111
 1261SOL     OW15241   4.070   2.589   3.432 -0.3385 -0.3895  0.3214
 1261SOL    HW115242   4.050   2.501   3.400 -0.2144  0.0144 -0.8958
 1261SOL    HW215243   4.153   2.605   3.387  0.4230 -0.9237  1.5623
 1262SOL     OW15244   2.214   4.307   9.350 -0.1134  0.1769 -0.3691
 1262SOL    HW115245   2.271   4.237   9.383  0.9589  1.1072 -0.2818
 1262SOL    HW215246   2.205   4.371   9.421 -2.0296  1.0034 -1.3761
 1263SOL     OW15247   4.657   1.820   9.836  0.1816  0.0028 -0.1706
 1263SOL    HW115248   4.700   1.903   9.817  1.4085 -0.5261  0.2458
 1263SOL    HW215249   4.696   1.796   9.921  2.4096  2.1983 -0.5634
 1264SOL     OW15250   1.317   4.450   4.937  0.4731 -0.0045 -0.4895
 1264SOL    HW115251   1.326   4.388   4.865  1.4571 -1.7244  1.1540
 1264SOL    HW215252   1.226   4.481   4.926 -0.2953 -1.4755  1.8962
 1265SOL     OW15253   4.571   4.649   1.359  0.1283 -0.0448  0.0763
 1265SOL    HW115254   4.648   4.705   1.368  0.5282 -0.4120 -1.1973
 1265SOL    HW215255   4.544   4.660   1.268 -0.6872 -0.3503  0.2827
 1266SOL     OW15256   4.050   3.671   7.439 -0.0395 -0.0286 -0.2968
 1266SOL    HW115257   3.981   3.717   7.391 -0.9722 -1.3362 -0.1987
 1266SOL    HW215258   4.007   3.596   7.478 -1.2332 -0.1368 -1.7973
 1267SOL     OW15259   2.398   0.762   3.027  0.4053 -0.1748 -0.6346
 1267SOL    HW115260   2.466   0.727   3.085  0.5120 -1.0725 -1.3060
 1267SOL    HW215261   2.432   0.848   3.002  0.5080 -0.1156 -0.2936
 1268SOL     OW15262   0.648   2.804   3.913  0.2410  0.1540  0.4019
 1268SOL    HW115263   0.555   2.787   3.926  0.0174 -0.2483 -1.6174
 1268SOL    HW215264   0.686   2.736   3.857 -0.8784  0.2299 -0.4485
 1269SOL     OW15265   4.623   1.731   6.906  0.0566 -0.3940  0.0538
 1269SOL    HW115266   4.680   1.705   6.834  0.1779 -1.5816  0.5732
 1269SOL    HW215267   4.548   1.671   6.900 -0.8382  0.3537  3.7767
 1270SOL     OW15268   1.672   3.169   6.773  0.6546  0.1871 -0.6237
 1270SOL    HW115269   1.588   3.140   6.807  0.8937 -1.1678 -1.1948
 1270SOL    HW215270   1.735   3.145   6.841  1.0875  0.8446 -0.7811
 1271SOL     OW15271   1.794   3.178   3.551 -0.0144  0.1990  0.5422
 1271SOL    HW115272   1.744   3.236   3.607 -0.9103  0.5911 -0.6563
 1271SOL    HW215273   1.805   3.227   3.469 -2.8230  0.6136  0.4148
 1272SOL     OW15274   0.277   4.707   8.652  0.1159  0.3566 -0.0993
 1272SOL    HW115275   0.313   0.070   8.671  0.1315  0.1696  0.7398
 1272SOL    HW215276   0.322   4.667   8.578  1.6876  1.6341  0.1783
 1273SOL     OW15277   4.682   1.922   6.626 -0.3034 -0.2206 -0.9254
 1273SOL    HW115278   4.608   1.876   6.588  0.6603 -2.0632 -0.5596
 1273SOL    HW215279   0.020   1.855   6.656 -1.2015  1.1275  3.8703
 1274SOL     OW15280   1.423   1.711   6.553 -0.1793  0.0467 -0.1431
 1274SOL    HW115281   1.360   1.734   6.621 -0.5320  0.0881 -0.4857
 1274SOL    HW215282   1.488   1.779   6.569  1.3953 -1.3989 -0.4331
 1275SOL     OW15283   4.359   4.393  17.571  0.0408  0.7373 -0.4449
 1275SOL    HW115284   4.430   4.401  17.635  1.8734 -2.0520 -2.1112
 1275SOL    HW215285   4.363   4.481  17.534 -0.3370  0.2853 -1.5524
 1276SOL     OW15286   3.197   1.412   6.849 -0.3667  0.5378 -0.4402
 1276SOL    HW115287   3.111   1.389   6.815  0.1800 -1.9002 -0.1845
 1276SOL    HW215288   3.251   1.364   6.786 -2.8280 -2.7586 -0.0152
 1277SOL     OW15289   1.038   2.977   9.339  0.3249 -0.2237  0.2091
 1277SOL    HW115290   1.101   3.033   9.384 -0.3788  0.6436  0.1303
 1277SOL    HW215291   1.012   2.926   9.417  0.4863 -1.2688 -0.4238
 1278SOL     OW15292   0.344   3.816   3.567 -0.7351  0.0679  0.1202
 1278SOL    HW115293   0.389   3.760   3.504  0.4563 -1.4408  2.2958
 1278SOL    HW215294   0.262   3.845   3.526  0.1501 -0.1853 -1.8457
 1279SOL     OW15295   0.084   3.213   6.856 -0.0996 -0.2883 -0.1466
 1279SOL    HW115296   0.063   3.204   6.949 -0.2593  1.3030 -0.0309
 1279SOL    HW215297   0.122   3.300   6.847 -0.1163 -0.1689  0.9087
 1280SOL     OW15298   4.693   2.935   0.912 -0.0370 -0.0068 -0.4596
 1280SOL    HW115299   0.035   3.003   0.923  0.4697 -0.6862  0.7411
 1280SOL    HW215300   0.021   2.863   0.949  0.1480  0.6979  0.6586
 1281SOL     OW15301   2.054   1.485   1.549 -0.4619  0.4402  0.1771
 1281SOL    HW115302   1.970   1.471   1.505 -0.5309  2.5144 -0.3756
 1281SOL    HW215303   2.025   1.514   1.635 -0.0132 -0.9362  0.7910
 1282SOL     OW15304   1.072   3.804   5.388  0.1982 -0.4904  0.1501
 1282SOL    HW115305   0.979   3.782   5.391  0.1100  0.1416  2.5631
 1282SOL    HW215306   1.060   3.866   5.316 -0.8330 -0.4002  0.4057
 1283SOL     OW15307   0.941   4.518   4.653 -0.4957 -0.4294  0.3873
 1283SOL    HW115308   1.013   4.573   4.683 -1.6886  1.1337  0.3747
 1283SOL    HW215309   0.874   4.576   4.618  1.9870  0.4325 -2.9153
 1284SOL     OW15310   1.481   1.804   8.913  0.0627  0.4178  0.3437
 1284SOL    HW115311   1.424   1.784   8.988  0.3438 -0.2218  0.3844
 1284SOL    HW215312   1.425   1.781   8.839  0.7091  1.4940 -0.4678
 1285SOL     OW15313   0.031   3.316   3.093 -0.4610  0.0939 -0.2580
 1285SOL    HW115314   4.683   3.353   3.144  0.6514  1.3386  0.3981
 1285SOL    HW215315   4.711   3.277   3.018 -1.2297 -0.5585  0.5255
 1286SOL     OW15316   2.250   3.742  17.376  0.9609 -0.1615 -0.0298
 1286SOL    HW115317   2.324   3.695  17.336 -0.1236  0.3405 -2.6060
 1286SOL    HW215318   2.179   3.690  17.339  0.9359  1.4789 -2.3160
 1287SOL     OW15319   0.421   1.716   7.203  0.3389  0.1077  0.0330
 1287SOL    HW115320   0.415   1.798   7.252  1.7917  1.3186 -1.8519
 1287SOL    HW215321   0.352   1.669   7.250  1.1006  0.1373  1.1840
 1288SOL     OW15322   2.404   0.403   2.026 -0.2885 -0.2360  0.1533
 1288SOL    HW115323   2.409   0.307   2.028  2.2369 -0.0950  0.0050
 1288SOL    HW215324   2.389   0.424   2.118 -1.7712 -1.3859  0.1835
 1289SOL     OW15325   4.268   3.848   3.410  0.0070 -0.0276 -0.2356
 1289SOL    HW115326   4.363   3.850   3.393  0.3640  1.1704  1.8666
 1289SOL    HW215327   4.231   3.912   3.350  0.7578 -0.0143 -0.6794
 1290SOL     OW15328   2.168   4.007   4.335  0.5026  0.2102  0.0165
 1290SOL    HW115329   2.079   4.000   4.368  0.7332  0.8623  0.7924
 1290SOL    HW215330   2.186   3.916   4.312  2.6315  0.3445  1.1111
 1291SOL     OW15331   1.992   3.771   9.555 -0.0099 -0.1233  0.1174
 1291SOL    HW115332   1.955   3.860   9.562  0.1025  0.0168 -1.0104
 1291SOL    HW215333   1.947   3.728   9.627  1.1749 -0.3428  0.7190
 1292SOL     OW15334   2.898   1.870   5.111  0.4150  0.2923 -0.1323
 1292SOL    HW115335   2.963   1.802   5.097 -0.7564 -0.8254 -0.1518
 1292SOL    HW215336   2.913   1.892   5.203  2.5918 -0.8245 -0.2316
 1293SOL     OW15337   3.866   2.241   1.224  0.5632 -0.6252 -0.0878
 1293SOL    HW115338   3.879   2.248   1.319  1.6762  0.6187 -0.3213
 1293SOL    HW215339   3.960   2.233   1.206  1.0966  0.0960  2.3148
 1294SOL     OW15340   2.628   3.672   7.826  0.2884 -0.1079  0.2340
 1294SOL    HW115341   2.607   3.615   7.753 -0.2478 -1.4807  1.4515
 1294SOL    HW215342   2.643   3.612   7.900 -0.2178 -1.1579 -0.5211
 1295SOL     OW15343   0.768   1.740   5.226  0.1490 -0.3196  0.5996
 1295SOL    HW115344   0.800   1.681   5.157 -0.4466  0.3268 -0.2269
 1295SOL    HW215345   0.813   1.710   5.305  3.7720  0.0209 -1.3502
 1296SOL     OW15346   4.314   0.289   4.656  0.1275 -0.2921  0.1118
 1296SOL    HW115347   4.282   0.202   4.631 -3.0791  1.1802 -0.8393
 1296SOL    HW215348   4.314   0.325   4.567  1.2524  1.7199  0.9252
 1297SOL     OW15349   4.380   0.013   0.088 -0.1028 -0.1762  0.6519
 1297SOL    HW115350   4.429   4.659   0.061 -1.4432 -0.7940  0.0353
 1297SOL    HW215351   4.323   0.037   0.015 -0.1339 -1.3304  0.2935
 1298SOL     OW15352   0.136   1.279  13.012  0.2263 -0.1965  0.3488
 1298SOL    HW115353   0.113   1.371  13.000  0.6414 -0.1729 -0.3030
 1298SOL    HW215354   0.062   1.231  12.975  0.5296  0.6690 -1.3743
 1299SOL     OW15355   1.941   0.941   3.849 -0.3479  0.1187 -0.0857
 1299SOL    HW115356   1.944   0.982   3.763  2.3849 -1.2334 -0.6502
 1299SOL    HW215357   1.877   0.876   3.820  1.6811 -0.8268 -2.4281
 1300SOL     OW15358   1.683   3.135   9.447 -0.2297 -0.2975 -0.6528
 1300SOL    HW115359   1.686   3.072   9.375  0.4528 -0.3992 -0.5322
 1300SOL    HW215360   1.771   3.127   9.482 -1.3154 -2.5783  1.5679
 1301SOL     OW15361   1.088   3.491   8.086 -0.2709 -0.1710 -0.5120
 1301SOL    HW115362   1.008   3.528   8.124 -0.4504 -0.1147 -0.9437
 1301SOL    HW215363   1.157   3.551   8.113 -1.0153  0.4049  0.1024
 1302SOL     OW15364   1.507   3.593   5.865 -0.1610 -0.2777 -0.3982
 1302SOL    HW115365   1.561   3.573   5.942 -0.2308  1.0524 -0.0018
 1302SOL    HW215366   1.485   3.505   5.834  0.3139 -0.4431 -0.2764
 1303SOL     OW15367   0.017   1.279   8.265  0.9434 -0.4634 -0.6378
 1303SOL    HW115368   0.034   1.314   8.352 -0.1565  2.4712 -1.6348
 1303SOL    HW215369   0.057   1.192   8.278  0.9452 -0.0943  1.8087
 1304SOL     OW15370   2.843   4.600   5.281  0.2784  0.3370 -0.0676
 1304SOL    HW115371   2.830   4.543   5.357  0.1987  0.6854  0.1810
 1304SOL    HW215372   2.926   4.577   5.238  1.0171  1.9275  0.4807
 1305SOL     OW15373   0.520   4.325   7.639 -0.3101  0.1323 -0.2271
 1305SOL    HW115374   0.552   4.379   7.567  1.3748  1.7894  1.7653
 1305SOL    HW215375   0.516   4.241   7.593 -1.7934  0.2349 -0.2783
 1306SOL     OW15376   1.785   4.238  16.825  0.3462 -0.6685  0.1851
 1306SOL    HW115377   1.810   4.196  16.907  0.2043  1.9253  1.5573
 1306SOL    HW215378   1.851   4.305  16.805  0.9655 -1.0273  1.0013
 1307SOL     OW15379   1.012   3.713   7.603  0.1876 -0.6428 -0.3424
 1307SOL    HW115380   0.958   3.729   7.681 -0.5659 -2.1523 -0.5700
 1307SOL    HW215381   1.098   3.720   7.643  0.4365 -2.0744 -0.6290
 1308SOL     OW15382   3.319   3.337   2.970  0.5878 -0.4332  0.1160
 1308SOL    HW115383   3.304   3.396   3.044 -0.8193 -1.6464  0.7957
 1308SOL    HW215384   3.282   3.255   3.001  0.6870 -0.4267  0.2520
 1309SOL     OW15385   2.760   2.533   6.885 -0.1135 -0.8887 -0.3825
 1309SOL    HW115386   2.708   2.551   6.807  0.2448 -1.6774 -0.7982
 1309SOL    HW215387   2.803   2.617   6.903 -1.3282 -0.7026  1.7204
 1310SOL     OW15388   1.760   3.544   8.274  0.4121  0.2998  0.4126
 1310SOL    HW115389   1.750   3.543   8.369  0.4840 -0.6634  0.4040
 1310SOL    HW215390   1.843   3.591   8.266  0.3006  0.4877  0.3315
 1311SOL     OW15391   2.108   0.079   1.317 -0.3841 -0.4922 -0.8785
 1311SOL    HW115392   2.073   0.057   1.230 -1.4641  0.2120 -0.6140
 1311SOL    HW215393   2.109   4.716   1.356  1.6512 -1.1144 -2.2715
 1312SOL     OW15394   1.950   3.972   3.185 -0.4315 -0.7704 -0.4993
 1312SOL    HW115395   1.912   3.904   3.240  0.5588  0.8432  2.1893
 1312SOL    HW215396   1.869   4.012   3.156 -2.7285 -4.4394  0.9411
 1313SOL     OW15397   1.570   0.302   6.385 -0.1536  0.3996 -0.1320
 1313SOL    HW115398   1.577   0.224   6.440  1.0258  0.5474 -0.0771
 1313SOL    HW215399   1.571   0.261   6.298  1.7370 -1.7308  0.8901
 1314SOL     OW15400   3.694   2.527   8.285  0.1562  0.1756  0.4867
 1314SOL    HW115401   3.775   2.576   8.292  0.4756 -0.2898  0.0719
 1314SOL    HW215402   3.636   2.601   8.300 -1.6983 -0.4146 -3.7305
 1315SOL     OW15403   2.551   4.213   6.333 -0.0477  0.2379 -0.0229
 1315SOL    HW115404   2.577   4.122   6.316 -0.7692  0.0906 -0.3525
 1315SOL    HW215405   2.519   4.213   6.423 -1.7034 -1.3988 -0.6116
 1316SOL     OW15406   0.868   1.199  15.929 -0.8368  1.0826  0.2629
 1316SOL    HW115407   0.933   1.136  15.898 -2.3154  0.1392 -0.9166
 1316SOL    HW215408   0.817   1.223  15.851 -1.4478 -0.3380  0.2151
 1317SOL     OW15409   1.496   1.195   4.839  0.3260  0.0207 -0.0666
 1317SOL    HW115410   1.535   1.283   4.837  1.4636 -0.4614  1.1203
 1317SOL    HW215411   1.409   1.216   4.874  0.2036  0.5352 -0.6835
 1318SOL     OW15412   0.538   3.346   3.604 -0.2133 -0.3646 -0.2243
 1318SOL    HW115413   0.555   3.269   3.551 -1.9204 -0.2404 -0.9577
 1318SOL    HW215414   0.493   3.299   3.674  0.4757 -1.5506 -0.5796
 1319SOL     OW15415   1.026   4.677   9.993 -0.0780  0.0560  0.2644
 1319SOL    HW115416   1.065   4.611  10.051  1.2658 -2.1302 -3.1316
 1319SOL    HW215417   0.972   0.005  10.053 -0.8349 -1.1136  0.6014
 1320SOL     OW15418   3.765   1.646  13.425  0.0475 -0.2385 -0.3248
 1320SOL    HW115419   3.812   1.588  13.485 -0.9170 -0.3812  0.2946
 1320SOL    HW215420   3.678   1.619  13.452 -0.5742  2.0490 -0.0480
 1321SOL     OW15421   0.651   3.990   9.754  0.0105  0.7865  0.1786
 1321SOL    HW115422   0.694   4.066   9.795  1.0232  0.8872 -1.0602
 1321SOL    HW215423   0.575   4.008   9.809 -0.1282  1.1000 -0.1124
 1322SOL     OW15424   2.755   0.523  17.250 -0.3326 -0.2515  0.0067
 1322SOL    HW115425   2.696   0.573  17.307  0.4253  2.3616 -1.5309
 1322SOL    HW215426   2.784   0.592  17.190 -1.8549 -1.2597 -1.8806
 1323SOL     OW15427   0.563   1.603   3.529  0.0190 -0.2034 -0.1283
 1323SOL    HW115428   0.547   1.603   3.624  0.6756  1.0069 -0.0219
 1323SOL    HW215429   0.508   1.530   3.498 -0.2517 -0.5057  1.0402
 1324SOL     OW15430   3.992   4.672   2.260 -0.3358  0.3264  0.1533
 1324SOL    HW115431   4.052   4.601   2.237 -0.2395 -0.3124  2.3426
 1324SOL    HW215432   3.916   4.642   2.210 -1.2449 -0.3506  1.9141
 1325SOL     OW15433   0.421   2.979   3.648  0.3458  0.0101  0.0113
 1325SOL    HW115434   0.443   2.915   3.581 -0.5650  1.5812 -1.7924
 1325SOL    HW215435   0.406   2.920   3.722  0.0320 -1.7020 -1.4210
 1326SOL     OW15436   3.652   4.038   9.486 -0.8730 -0.4760 -0.0787
 1326SOL    HW115437   3.724   4.101   9.488 -2.0461  0.7942  2.1128
 1326SOL    HW215438   3.576   4.093   9.500  1.8956  3.6162 -1.2869
 1327SOL     OW15439   2.828   1.313   6.088  0.0320 -0.3075 -0.3257
 1327SOL    HW115440   2.754   1.253   6.097  0.1930 -0.2673  1.1699
 1327SOL    HW215441   2.764   1.383   6.076 -0.2721 -0.5979 -0.4031
 1328SOL     OW15442   1.015   2.551   9.275 -0.5960 -0.0551 -0.0623
 1328SOL    HW115443   0.976   2.565   9.362  1.1259 -1.0366  0.8749
 1328SOL    HW215444   1.106   2.575   9.287 -0.6900 -0.2659  1.1170
 1329SOL     OW15445   2.507   3.223   6.640  0.0923 -0.3961 -0.3966
 1329SOL    HW115446   2.428   3.228   6.586 -0.4044 -2.6411  0.1048
 1329SOL    HW215447   2.484   3.276   6.717  1.8846 -0.6270  0.2998
 1330SOL     OW15448   0.016   4.173  10.108  0.6179 -0.5929 -0.1654
 1330SOL    HW115449   4.699   4.161  10.022  0.5262  0.6514 -0.2916
 1330SOL    HW215450   0.076   4.237  10.071 -0.0998 -0.2987 -0.8322
 1331SOL     OW15451   0.988   3.305  11.004  0.0588  0.4584 -0.2261
 1331SOL    HW115452   0.938   3.233  11.042 -0.6888  0.2966 -1.5170
 1331SOL    HW215453   1.046   3.252  10.949  1.7022 -1.5081  3.3696
 1332SOL     OW15454   1.514   0.727   5.434  0.0396  0.1866  0.2474
 1332SOL    HW115455   1.486   0.639   5.458  0.8843 -0.6943 -2.0394
 1332SOL    HW215456   1.433   0.760   5.396 -0.1564  1.8361  2.1158
 1333SOL     OW15457   2.956   4.447   4.880 -0.2764  0.1590  0.4897
 1333SOL    HW115458   2.890   4.511   4.853 -0.9625 -0.0598  1.6690
 1333SOL    HW215459   3.020   4.471   4.812  0.4584 -1.3038  0.6614
 1334SOL     OW15460   3.808   2.851   4.669 -0.3640 -0.2121  0.0117
 1334SOL    HW115461   3.809   2.923   4.606 -0.9608 -1.8474 -1.8823
 1334SOL    HW215462   3.792   2.775   4.613  0.1146 -0.0293 -0.3777
 1335SOL     OW15463   2.753   0.699  14.804  0.0987  0.0249 -0.1587
 1335SOL    HW115464   2.832   0.749  14.783 -0.4364  1.1553  0.5065
 1335SOL    HW215465   2.781   0.638  14.872  1.2586  0.1464 -0.5287
 1336SOL     OW15466   4.498   3.161   8.773  0.3811  0.4587  0.7517
 1336SOL    HW115467   4.410   3.182   8.741  0.1575 -0.8569  0.4996
 1336SOL    HW215468   4.542   3.145   8.689  1.3782  0.2367  1.3149
 1337SOL     OW15469   0.287   4.180   0.615  0.2628  0.7219 -0.3283
 1337SOL    HW115470   0.371   4.135   0.606 -0.6601 -0.7490 -1.7055
 1337SOL    HW215471   0.289   4.227   0.698 -0.3339 -0.1411  0.1805
 1338SOL     OW15472   0.082   0.458   2.576  0.3371 -0.4971 -0.5451
 1338SOL    HW115473   0.005   0.410   2.546 -0.4977  0.9796 -0.7353
 1338SOL    HW215474   0.053   0.471   2.666  0.8603  0.4431 -0.5166
 1339SOL     OW15475   2.856   4.453   7.941  0.1902  0.5317 -0.3373
 1339SOL    HW115476   2.801   4.398   7.996 -2.2936  1.2797 -2.0327
 1339SOL    HW215477   2.918   4.488   8.005 -0.5831  1.5814 -0.1624
 1340SOL     OW15478   1.869   3.948   7.062  0.6428  0.1018 -0.1056
 1340SOL    HW115479   1.802   4.010   7.036 -1.2370 -1.7177  0.3768
 1340SOL    HW215480   1.826   3.870   7.098  2.8502 -0.6947  0.8185
 1341SOL     OW15481   3.493   1.581   9.096 -0.0223 -0.0605  0.5217
 1341SOL    HW115482   3.429   1.647   9.123 -1.4210 -0.4359 -1.8982
 1341SOL    HW215483   3.443   1.504   9.070 -0.5485  0.0607  1.1818
 1342SOL     OW15484   0.123   2.156   6.614 -0.5052 -0.9109  0.2473
 1342SOL    HW115485   0.062   2.083   6.616  0.0717 -1.4410 -1.5521
 1342SOL    HW215486   0.107   2.202   6.532  1.3307 -0.2199  0.2752
 1343SOL     OW15487   2.382   4.443  16.209  0.1685 -0.1425  0.2676
 1343SOL    HW115488   2.344   4.452  16.122  0.7604 -0.2802 -0.0048
 1343SOL    HW215489   2.444   4.515  16.204 -0.5107  0.2063 -3.2060
 1344SOL     OW15490   0.957   1.387   8.860 -0.5744  0.1146  0.2757
 1344SOL    HW115491   0.891   1.457   8.866 -1.6827 -0.7144 -2.0023
 1344SOL    HW215492   0.971   1.350   8.946  1.9668  2.0706  0.6903
 1345SOL     OW15493   3.998   2.504   2.890  0.6859  0.3543 -0.0139
 1345SOL    HW115494   3.965   2.463   2.810 -0.0801  1.4282 -0.2483
 1345SOL    HW215495   3.930   2.486   2.955  0.9125 -0.1369  0.0841
 1346SOL     OW15496   0.959   1.664  13.068 -0.2578 -0.3331 -0.0058
 1346SOL    HW115497   1.041   1.618  13.086 -0.4094  0.0861  1.7421
 1346SOL    HW215498   0.985   1.756  13.077 -0.8899 -0.3813  2.3005
 1347SOL     OW15499   4.577   2.869   4.400  0.3244  0.1289 -0.8627
 1347SOL    HW115500   4.488   2.896   4.379  0.3160 -0.6673 -1.8660
 1347SOL    HW215501   4.574   2.773   4.401  0.6188  0.1158 -1.0355
 1348SOL     OW15502   2.990   1.903   2.027  0.3412 -0.2284  0.0024
 1348SOL    HW115503   3.006   1.907   1.933 -2.7866  0.1653 -0.5131
 1348SOL    HW215504   3.051   1.969   2.061  0.0370  0.9162 -1.6432
 1349SOL     OW15505   4.578   3.082   8.535 -0.6922 -0.5605  0.9776
 1349SOL    HW115506   4.502   3.046   8.488 -0.3872  0.8227 -0.5926
 1349SOL    HW215507   4.640   3.088   8.462  1.0349 -1.8646  2.3373
 1350SOL     OW15508   1.596   4.226   9.071  0.4492  0.1252 -0.2913
 1350SOL    HW115509   1.510   4.247   9.107 -0.3289 -0.8032 -1.6438
 1350SOL    HW215510   1.615   4.168   9.146  1.5469  2.0449  0.9131
 1351SOL     OW15511   4.663   2.984   9.515 -0.4065  0.4495  0.4050
 1351SOL    HW115512   4.664   2.889   9.508  2.6711  0.7256 -2.4483
 1351SOL    HW215513   4.629   2.993   9.604 -2.8592 -0.9727 -0.3802
 1352SOL     OW15514   4.067   1.569  14.960  0.4990 -0.3794  0.2820
 1352SOL    HW115515   3.972   1.578  14.954  0.4645 -1.9333 -1.6055
 1352SOL    HW215516   4.101   1.641  14.908 -2.1458  0.0336 -0.8957
 1353SOL     OW15517   3.519   3.560   0.508  0.5145 -0.4053 -0.3125
 1353SOL    HW115518   3.496   3.652   0.519  0.0205 -0.7394  1.4818
 1353SOL    HW215519   3.435   3.515   0.523 -0.3138  0.9825 -0.7814
 1354SOL     OW15520   1.016   1.642   7.829 -0.1463  0.0566 -0.2012
 1354SOL    HW115521   1.026   1.595   7.747  1.8764 -0.3613  0.2879
 1354SOL    HW215522   1.109   1.653   7.848 -0.0032 -1.1405 -0.2328
 1355SOL     OW15523   0.146   0.438  11.737  0.2860 -0.2551 -0.4109
 1355SOL    HW115524   0.058   0.424  11.703 -0.2282 -0.9404  1.2524
 1355SOL    HW215525   0.125   0.483  11.819 -0.0672  0.6979 -1.0172
 1356SOL     OW15526   3.251   1.733   9.857  0.2139 -0.3160  0.0246
 1356SOL    HW115527   3.197   1.677   9.800 -1.4750  0.7655  0.5744
 1356SOL    HW215528   3.234   1.823   9.831  3.4260 -0.5879 -2.9631
 1357SOL     OW15529   0.783   2.392   5.655  0.3662  0.5826 -0.3091
 1357SOL    HW115530   0.767   2.375   5.748  1.4818 -2.2356 -0.6565
 1357SOL    HW215531   0.861   2.339   5.642 -0.0076  0.0299 -0.2935
 1358SOL     OW15532   3.560   2.542   2.004  0.5842  0.2511 -0.0718
 1358SOL    HW115533   3.613   2.498   2.070 -0.7003 -2.2210 -0.6687
 1358SOL    HW215534   3.579   2.496   1.922  1.0625  0.4456 -0.0726
 1359SOL     OW15535   0.005   0.107   5.524 -0.4556 -0.8057 -0.0249
 1359SOL    HW115536   0.086   0.086   5.476  0.7832  0.4254  1.5282
 1359SOL    HW215537   4.696   0.169   5.459  0.4920 -0.2013  0.0606
 1360SOL     OW15538   3.926   2.483   7.065 -0.3528 -0.3358  0.0262
 1360SOL    HW115539   3.957   2.423   7.132 -0.2805 -0.4945 -0.1495
 1360SOL    HW215540   3.849   2.434   7.037 -1.7399  2.9828 -2.0028
 1361SOL     OW15541   1.921   2.153  10.259  0.0954  0.2010  0.2355
 1361SOL    HW115542   1.890   2.132  10.347 -1.0610  0.2089 -0.1688
 1361SOL    HW215543   1.922   2.249  10.268 -2.2833  0.2413  0.2443
 1362SOL     OW15544   3.735   0.626   9.297  0.0793 -0.1607  0.5252
 1362SOL    HW115545   3.805   0.612   9.361 -0.3425 -0.4152  0.9379
 1362SOL    HW215546   3.763   0.707   9.256 -0.3006 -0.4482 -0.2869
 1363SOL     OW15547   3.103   4.661   5.563 -0.2251  0.0523 -0.0664
 1363SOL    HW115548   3.099   4.600   5.489 -1.7795  0.3962 -0.2597
 1363SOL    HW215549   3.036   4.722   5.529  0.7944  0.6099 -1.0932
 1364SOL     OW15550   1.301   1.316  10.237  0.2770  0.1309  0.4857
 1364SOL    HW115551   1.352   1.359  10.169 -0.0341  1.6057  1.1788
 1364SOL    HW215552   1.333   1.364  10.314 -2.7492  1.7363  0.7561
 1365SOL     OW15553   0.845   1.709   3.442  0.4352 -0.4345  0.2021
 1365SOL    HW115554   0.857   1.666   3.358  0.7599 -3.2118  1.6807
 1365SOL    HW215555   0.758   1.675   3.464  0.6456 -0.1694  1.4313
 1366SOL     OW15556   0.874   1.541  11.765  0.1333 -0.4044 -0.4269
 1366SOL    HW115557   0.911   1.574  11.847 -1.1323  3.3274 -1.3757
 1366SOL    HW215558   0.866   1.448  11.786  2.4949 -0.2435  1.1587
 1367SOL     OW15559   2.999   0.079   6.160 -0.2361 -0.2042 -0.0053
 1367SOL    HW115560   3.076   0.070   6.104  0.5558 -0.2028  1.0716
 1367SOL    HW215561   3.007   0.003   6.219  1.3667  0.2016  0.3157
 1368SOL     OW15562   0.959   4.624   5.634 -0.7169 -0.0837 -0.0452
 1368SOL    HW115563   0.964   4.605   5.540  1.6209 -1.7473  0.4096
 1368SOL    HW215564   0.985   4.716   5.628 -0.5787 -0.2633 -2.2664
 1369SOL     OW15565   2.470   4.277   5.911 -0.2702  0.4116 -1.1421
 1369SOL    HW115566   2.381   4.241   5.906 -0.4705  0.7937 -0.2292
 1369SOL    HW215567   2.463   4.358   5.961 -1.5356  0.7420 -1.8681
 1370SOL     OW15568   1.619   3.292  12.737 -0.0109 -0.4912 -0.0998
 1370SOL    HW115569   1.609   3.342  12.656 -3.1482  0.4582  0.8707
 1370SOL    HW215570   1.535   3.314  12.778  1.1963  0.9568  1.5567
 1371SOL     OW15571   3.681   0.981   5.283 -0.2016  0.2062 -0.4995
 1371SOL    HW115572   3.756   1.033   5.311 -0.0901 -1.9446  3.1966
 1371SOL    HW215573   3.609   1.041   5.301  1.3034  1.5619  0.9233
 1372SOL     OW15574   2.288   3.323   8.858 -0.3298 -0.1061  0.0207
 1372SOL    HW115575   2.200   3.349   8.884 -0.6341 -1.8401  0.7584
 1372SOL    HW215576   2.278   3.228   8.856  0.9143 -0.2211 -0.4700
 1373SOL     OW15577   3.189   0.893   3.413  0.5908 -0.3203  0.4952
 1373SOL    HW115578   3.242   0.969   3.389  1.1114 -1.1075 -0.8451
 1373SOL    HW215579   3.176   0.917   3.505  1.9923  3.5352 -0.3415
 1374SOL     OW15580   1.231   3.686  16.544 -0.3706 -0.1850  0.4709
 1374SOL    HW115581   1.201   3.644  16.625  0.3433  1.4143  1.5620
 1374SOL    HW215582   1.324   3.704  16.554 -0.2218 -1.3225  1.1864
 1375SOL     OW15583   0.924   1.886   9.661 -0.3500  0.5328 -0.1190
 1375SOL    HW115584   0.845   1.905   9.610 -0.8635  1.8696  1.1442
 1375SOL    HW215585   0.936   1.971   9.703  0.9491 -0.7226  2.0642
 1376SOL     OW15586   3.010   1.378   4.825 -0.1632  0.5681  0.2934
 1376SOL    HW115587   3.051   1.295   4.850  1.4491  1.4638  0.6371
 1376SOL    HW215588   2.987   1.406   4.913 -2.7644 -2.8756  0.7311
 1377SOL     OW15589   3.606   2.473   0.766 -0.1747 -0.1065  0.6185
 1377SOL    HW115590   3.584   2.516   0.849  0.1402  1.1548  0.0419
 1377SOL    HW215591   3.576   2.383   0.775 -0.4926 -0.3244 -2.5529
 1378SOL     OW15592   1.850   2.482   3.546 -0.5510 -0.3773 -0.0162
 1378SOL    HW115593   1.776   2.504   3.603 -0.0694  1.6619 -0.1813
 1378SOL    HW215594   1.909   2.557   3.556  2.3494 -2.5469 -1.0883
 1379SOL     OW15595   0.137   3.096   4.466 -0.1593 -0.0026  0.3155
 1379SOL    HW115596   0.193   3.171   4.485 -0.0920 -0.8984  3.5185
 1379SOL    HW215597   0.109   3.132   4.382  0.3942  0.3706  0.2964
 1380SOL     OW15598   0.936   4.539   1.630 -0.5350  0.0701  0.2534
 1380SOL    HW115599   0.923   4.461   1.684 -1.0139 -0.3629 -0.4881
 1380SOL    HW215600   1.029   4.533   1.609 -0.2655 -0.3039  1.5248
 1381SOL     OW15601   3.476   3.193   6.954  0.2985  0.0002 -0.1697
 1381SOL    HW115602   3.535   3.259   6.988  1.6442 -1.0885 -0.3739
 1381SOL    HW215603   3.438   3.149   7.030 -1.3309  1.7901  0.0486
 1382SOL     OW15604   1.457   2.881   5.654  0.4088  0.0086  0.6680
 1382SOL    HW115605   1.496   2.799   5.624  2.2420  0.7583  0.9485
 1382SOL    HW215606   1.421   2.852   5.737  1.7307 -0.1954  1.1722
 1383SOL     OW15607   3.629   4.663  15.007 -0.9033 -0.4031 -0.5659
 1383SOL    HW115608   3.714   4.689  15.042 -1.2082  0.2295 -0.2976
 1383SOL    HW215609   3.586   4.645  15.091  0.6883 -1.6364 -0.0117
 1384SOL     OW15610   0.135   3.699   9.000  0.0465  0.6024 -0.4806
 1384SOL    HW115611   0.114   3.704   8.907 -1.6242  1.4425 -0.0625
 1384SOL    HW215612   0.075   3.628   9.023  1.7521 -0.7593 -0.2725
 1385SOL     OW15613   4.378   2.938   8.960  0.6944  0.3402  0.7733
 1385SOL    HW115614   4.435   2.883   8.906 -2.5937 -2.9252  0.5816
 1385SOL    HW215615   4.417   3.025   8.963  1.3456  0.0707  0.0745
 1386SOL     OW15616   3.754   4.255  11.683 -0.1726 -0.1309 -0.1259
 1386SOL    HW115617   3.719   4.169  11.660 -0.4709  0.2810 -1.2182
 1386SOL    HW215618   3.846   4.248  11.658 -0.4101 -1.0540 -0.7301
 1387SOL     OW15619   3.342   3.753   8.637 -0.5190 -0.1153 -0.4493
 1387SOL    HW115620   3.437   3.748   8.639 -0.5355 -0.2300  0.1833
 1387SOL    HW215621   3.313   3.723   8.723 -2.1113  1.3251 -0.4692
 1388SOL     OW15622   4.581   1.157   3.262 -0.4606  0.2234 -0.2934
 1388SOL    HW115623   4.635   1.101   3.319 -0.4335 -0.0238 -0.5617
 1388SOL    HW215624   4.527   1.095   3.213  2.7996 -1.6505 -1.5178
 1389SOL     OW15625   3.414   4.496   5.982 -0.3928  0.1261 -0.3326
 1389SOL    HW115626   3.424   4.541   6.066 -2.6622 -0.1583  0.0887
 1389SOL    HW215627   3.425   4.560   5.912 -4.1733  0.4558 -0.6210
 1390SOL     OW15628   1.212   3.242   5.744 -0.4204  0.3471  0.2767
 1390SOL    HW115629   1.221   3.220   5.837 -0.7811  0.4178  0.3278
 1390SOL    HW215630   1.117   3.254   5.741 -0.2798  1.3219 -0.3920
 1391SOL     OW15631   0.801   2.748  17.586  0.4679  0.0137  0.2555
 1391SOL    HW115632   0.792   2.815  17.654  0.5322  0.1433  0.1363
 1391SOL    HW215633   0.833   2.788  17.505  1.2476 -1.4615 -0.1703
 1392SOL     OW15634   1.920   0.026   8.715 -0.1475 -0.1531  0.6003
 1392SOL    HW115635   1.979   0.026   8.791  1.2061 -0.4800 -0.4546
 1392SOL    HW215636   1.956   0.095   8.660 -1.2983 -0.5723 -0.6643
 1393SOL     OW15637   2.389   3.884   5.799 -0.0676  0.4191 -0.5717
 1393SOL    HW115638   2.456   3.950   5.785 -0.2008  0.2476 -2.0708
 1393SOL    HW215639   2.434   3.802   5.776 -0.7634 -0.2666  0.4772
 1394SOL     OW15640   2.102   0.863   9.860 -0.9005  0.3519  0.2316
 1394SOL    HW115641   2.191   0.861   9.823  0.0304  1.6360  2.4126
 1394SOL    HW215642   2.111   0.806   9.936  2.5712  0.3484 -0.1565
 1395SOL     OW15643   1.373   0.065  10.717  0.2457  0.3329 -0.3076
 1395SOL    HW115644   1.282   0.093  10.710  0.1889  0.3453  0.4859
 1395SOL    HW215645   1.380   0.049  10.812  1.9137  0.4431 -0.4137
 1396SOL     OW15646   4.378   2.939   2.592 -0.0223 -0.4605 -0.2382
 1396SOL    HW115647   4.387   2.861   2.647 -0.0840 -0.9944 -0.9798
 1396SOL    HW215648   4.337   2.896   2.516  1.9149 -0.7028 -1.1587
 1397SOL     OW15649   0.231   4.669   3.948 -0.0671 -0.3160 -0.0641
 1397SOL    HW115650   0.194   4.719   3.875 -0.1403  0.4173  0.4790
 1397SOL    HW215651   0.180   4.702   4.022 -0.3381 -3.2610  1.0823
 1398SOL     OW15652   2.493   1.522   8.523 -0.2147  0.3170  0.0571
 1398SOL    HW115653   2.469   1.454   8.585  1.6151 -2.2000 -1.9746
 1398SOL    HW215654   2.430   1.591   8.544 -1.5135 -0.4332 -1.3170
 1399SOL     OW15655   1.317   3.089   9.024 -0.3996  0.0515 -0.3501
 1399SOL    HW115656   1.299   3.124   9.111  1.8185 -0.1203  0.1958
 1399SOL    HW215657   1.278   3.157   8.970  1.5187  1.0704 -0.4652
 1400SOL     OW15658   2.105   2.901   1.964  0.5806  0.1220 -0.1710
 1400SOL    HW115659   2.055   2.857   2.032  2.6568 -1.5925  0.2617
 1400SOL    HW215660   2.107   2.990   1.999  0.0376 -0.1612  0.5556
 1401SOL     OW15661   4.143   1.605   7.555  0.2614  0.1342 -0.2238
 1401SOL    HW115662   4.137   1.556   7.473  0.1540  0.5020 -0.4335
 1401SOL    HW215663   4.057   1.648   7.555 -0.5307 -1.4270 -0.4629
 1402SOL     OW15664   3.177   4.389  17.308 -0.0873 -0.4359 -0.2732
 1402SOL    HW115665   3.087   4.390  17.274  0.8952 -2.1790 -2.9238
 1402SOL    HW215666   3.236   4.381  17.233 -0.2910 -0.8526 -0.3873
 1403SOL     OW15667   2.031   4.653   7.745 -0.2320 -0.2214 -0.0744
 1403SOL    HW115668   2.004   4.712   7.675  2.2805  1.0475  0.0054
 1403SOL    HW215669   2.090   4.597   7.695 -0.4461 -0.1782 -0.3760
 1404SOL     OW15670   3.131   2.416   2.517 -0.4951 -0.3371  0.0576
 1404SOL    HW115671   3.165   2.493   2.472 -0.5315 -0.3915 -0.0616
 1404SOL    HW215672   3.045   2.406   2.477  0.2195  1.0671 -1.8253
 1405SOL     OW15673   2.131   4.006   4.004  0.1548 -0.1223 -0.0686
 1405SOL    HW115674   2.114   4.017   3.910 -0.2621 -0.4009 -0.0257
 1405SOL    HW215675   2.052   3.955   4.021  0.6497 -0.5629  0.8859
 1406SOL     OW15676   4.120   2.075   8.534  0.2337  0.0695 -0.1799
 1406SOL    HW115677   4.047   2.071   8.595  2.0009  1.3459  2.0446
 1406SOL    HW215678   4.148   1.984   8.543 -2.7270 -0.6733  1.4094
 1407SOL     OW15679   0.334   4.224   2.722 -0.3864  0.1362 -0.1582
 1407SOL    HW115680   0.292   4.158   2.778  0.3696  0.7617  1.1374
 1407SOL    HW215681   0.264   4.216   2.657 -3.0709  1.2217  2.5828
 1408SOL     OW15682   3.686   0.416   0.941 -0.7154 -0.1303 -0.3372
 1408SOL    HW115683   3.683   0.459   0.856  0.5839 -3.5621 -2.1218
 1408SOL    HW215684   3.751   0.472   0.983 -2.1548  1.1852  0.1439
 1409SOL     OW15685   3.174   1.084  12.336 -0.1767  0.9584 -0.4826
 1409SOL    HW115686   3.240   1.016  12.320 -1.2513 -0.0505 -0.6057
 1409SOL    HW215687   3.126   1.074  12.254 -1.3015  1.7490  0.0905
 1410SOL     OW15688   3.744   1.426  16.736  0.3225 -0.0380  0.7990
 1410SOL    HW115689   3.750   1.388  16.824  0.3083 -2.5225 -0.2717
 1410SOL    HW215690   3.742   1.521  16.746 -2.0412  0.1225 -1.0209
 1411SOL     OW15691   3.832   0.861   5.086 -0.2194  0.3720  0.4051
 1411SOL    HW115692   3.786   0.931   5.039  0.1585  0.1181 -0.3247
 1411SOL    HW215693   3.803   0.870   5.177  0.4561 -0.7665  0.7258
 1412SOL     OW15694   3.177   3.551  16.036 -0.7724  0.3915  0.1188
 1412SOL    HW115695   3.210   3.500  16.111  0.1893 -0.0138 -0.5791
 1412SOL    HW215696   3.168   3.638  16.074  1.4617  0.3482  0.7455
 1413SOL     OW15697   1.310   1.560   9.603  0.3409 -0.0663  0.6457
 1413SOL    HW115698   1.353   1.624   9.658  1.5809  0.0617 -0.4682
 1413SOL    HW215699   1.373   1.532   9.536  2.0480 -0.7737  2.5487
 1414SOL     OW15700   3.368   1.293   5.705  0.0050 -0.3499 -0.8097
 1414SOL    HW115701   3.427   1.300   5.780  1.5373  1.8485 -2.2237
 1414SOL    HW215702   3.298   1.254   5.756  0.0648 -0.7518 -1.0328
 1415SOL     OW15703   3.873   2.316   2.125  0.0400 -0.6429  0.0023
 1415SOL    HW115704   3.875   2.221   2.129  0.9121 -0.5317  2.3566
 1415SOL    HW215705   3.967   2.325   2.108 -0.3697  1.4688 -1.0892
 1416SOL     OW15706   1.195   1.530   5.711 -0.2048  0.6741 -0.0026
 1416SOL    HW115707   1.111   1.556   5.749 -0.7445 -0.1245 -0.6488
 1416SOL    HW215708   1.167   1.537   5.620  1.6681 -1.3862 -0.7539
 1417SOL     OW15709   2.961   3.195  12.400 -0.1062 -0.1366 -0.1839
 1417SOL    HW115710   3.053   3.218  12.383 -0.1190 -0.3995 -0.6261
 1417SOL    HW215711   2.927   3.277  12.363 -0.5875 -1.4099 -2.5860
 1418SOL     OW15712   2.801   3.121   3.180 -0.1255  0.5404  0.0263
 1418SOL    HW115713   2.876   3.107   3.238  0.3017  2.2736 -0.0918
 1418SOL    HW215714   2.748   3.179   3.235 -0.7903  0.8444 -0.9485
 1419SOL     OW15715   4.302   3.710   4.318 -0.5460  0.5217  0.0221
 1419SOL    HW115716   4.280   3.775   4.385 -0.8545 -0.5896  1.0132
 1419SOL    HW215717   4.213   3.677   4.302 -0.0797  0.3470 -2.1730
 1420SOL     OW15718   0.398   2.231  13.902  0.3603  0.4746 -0.0223
 1420SOL    HW115719   0.325   2.177  13.934 -1.3241  2.9244  0.2535
 1420SOL    HW215720   0.429   2.275  13.981  0.6005 -1.2105  0.8244
 1421SOL     OW15721   4.290   4.042   2.456 -0.1984 -0.0478  0.6837
 1421SOL    HW115722   4.263   4.131   2.434 -2.1503 -0.1155  2.7879
 1421SOL    HW215723   4.362   4.024   2.396 -0.0557 -0.6304  1.0218
 1422SOL     OW15724   4.013   1.854  16.908  0.2370 -0.0182  0.3124
 1422SOL    HW115725   4.064   1.909  16.849 -0.1342  0.2934  0.2755
 1422SOL    HW215726   4.018   1.907  16.987  1.7615  0.8117 -0.3523
 1423SOL     OW15727   1.117   3.111  10.819 -0.1798  0.2650 -0.2084
 1423SOL    HW115728   1.065   3.148  10.747 -0.9541  1.3733  0.9194
 1423SOL    HW215729   1.086   3.021  10.808 -1.4329  0.6389  0.2407
 1424SOL     OW15730   3.940   4.458   1.874 -0.1459 -0.3799  0.0948
 1424SOL    HW115731   3.893   4.503   1.804  0.5326  0.5393  0.2292
 1424SOL    HW215732   4.032   4.466   1.846  0.5241  0.6198  2.5847
 1425SOL     OW15733   2.258   2.989   1.756  0.1132 -0.6832  0.4918
 1425SOL    HW115734   2.302   3.019   1.835  1.2611  0.2513 -0.5167
 1425SOL    HW215735   2.195   2.922   1.781  0.3298 -0.7254  0.9105
 1426SOL     OW15736   0.413   3.221   3.809 -0.7136 -0.4721 -0.7977
 1426SOL    HW115737   0.413   3.230   3.905  2.1801  0.8496 -0.9021
 1426SOL    HW215738   0.390   3.130   3.791  1.4653 -1.4961  1.4906
 1427SOL     OW15739   4.626   3.728   4.362 -0.2244 -0.8668 -0.3304
 1427SOL    HW115740   4.594   3.645   4.328 -0.2806 -1.2010  0.5372
 1427SOL    HW215741   4.701   3.723   4.302  1.2208 -1.4856  1.5259
 1428SOL     OW15742   4.187   0.243  14.198  0.1556  0.4669 -0.6735
 1428SOL    HW115743   4.264   0.300  14.209  1.2721 -0.6328 -2.7736
 1428SOL    HW215744   4.167   0.241  14.105 -1.3416  1.9932 -0.3886
 1429SOL     OW15745   2.409   3.956   2.452  0.1333  0.1542  0.5949
 1429SOL    HW115746   2.407   3.997   2.365  0.2751  1.9848  1.4790
 1429SOL    HW215747   2.356   3.876   2.454 -0.2338  0.4047  0.8553
 1430SOL     OW15748   2.165   3.377  14.572  0.2654  1.1551 -0.8416
 1430SOL    HW115749   2.154   3.349  14.481 -0.4428  0.5411 -0.5684
 1430SOL    HW215750   2.169   3.298  14.625  0.1905  2.4135  1.0689
 1431SOL     OW15751   0.982   4.576   5.084 -0.3225  0.6230 -0.7891
 1431SOL    HW115752   0.983   4.504   5.022  1.7113  0.2065 -0.2818
 1431SOL    HW215753   0.904   4.624   5.055  0.1811  1.5346 -0.6626
 1432SOL     OW15754   4.002   0.345   3.900  0.1947  0.2385 -0.0452
 1432SOL    HW115755   4.032   0.375   3.986 -1.4330 -1.6067  1.1668
 1432SOL    HW215756   3.928   0.293   3.932  1.0477 -0.9943 -0.0761
 1433SOL     OW15757   1.110   0.687   5.234  0.3571  0.3724 -0.1829
 1433SOL    HW115758   1.037   0.731   5.190 -1.4319 -0.8768  1.5279
 1433SOL    HW215759   1.152   0.766   5.267 -1.5336  0.7550  1.2873
 1434SOL     OW15760   1.680   3.485   7.543  0.0023 -0.8198 -0.2376
 1434SOL    HW115761   1.739   3.558   7.525 -1.3419  0.3379  0.0680
 1434SOL    HW215762   1.716   3.424   7.479  1.2649 -0.8694  0.5122
 1435SOL     OW15763   1.714   0.602  14.405  0.1678 -0.2094 -0.0272
 1435SOL    HW115764   1.725   0.660  14.329  0.2612  0.0503  0.1869
 1435SOL    HW215765   1.727   0.665  14.475 -0.9081  1.8338 -1.6613
 1436SOL     OW15766   0.766   3.141   4.368  0.6179 -0.0834 -0.3374
 1436SOL    HW115767   0.716   3.078   4.316 -0.8982 -1.0722  2.3043
 1436SOL    HW215768   0.741   3.221   4.321 -1.2793 -0.7105 -0.4247
 1437SOL     OW15769   0.447   2.904   2.736 -0.5265 -0.6863 -0.5947
 1437SOL    HW115770   0.373   2.942   2.783 -0.8498 -1.8726 -0.1655
 1437SOL    HW215771   0.433   2.810   2.737 -2.1031 -0.4652 -1.5685
 1438SOL     OW15772   0.494   3.833   5.400  0.0625  0.0633  0.1264
 1438SOL    HW115773   0.442   3.897   5.352  1.6339  2.0157  0.9701
 1438SOL    HW215774   0.509   3.879   5.483 -0.3411 -1.2408  0.9220
 1439SOL     OW15775   2.655   0.002   1.297 -0.0531 -0.2648 -0.9782
 1439SOL    HW115776   2.704   4.707   1.217 -1.7798  0.4358 -2.2043
 1439SOL    HW215777   2.583   0.052   1.259 -0.5753  0.2582  0.6943
 1440SOL     OW15778   1.235   3.210   3.521 -0.6335 -0.4320 -0.5524
 1440SOL    HW115779   1.316   3.165   3.497 -0.7111 -0.7035 -0.3121
 1440SOL    HW215780   1.183   3.195   3.442 -0.2370  0.4219 -0.9756
 1441SOL     OW15781   2.205   4.099  10.303 -0.0071 -0.4657  0.2320
 1441SOL    HW115782   2.252   4.028  10.348 -0.8217 -0.1843  1.5239
 1441SOL    HW215783   2.275   4.164  10.313  0.4014 -0.9396  0.4570
 1442SOL     OW15784   4.651   1.517   4.312 -0.1657 -0.0872  0.6606
 1442SOL    HW115785   4.675   1.530   4.403 -1.4738 -1.0037  1.1435
 1442SOL    HW215786   4.595   1.440   4.323  0.1035 -0.5733 -1.4154
 1443SOL     OW15787   0.586   0.013   3.221  0.0648  0.5876 -0.4240
 1443SOL    HW115788   0.582   4.646   3.252 -0.6527  0.0516 -2.1292
 1443SOL    HW215789   0.638   0.000   3.142  0.5236  2.2924 -0.3978
 1444SOL     OW15790   3.537   3.280   5.349  0.6543  0.0813 -0.0779
 1444SOL    HW115791   3.482   3.278   5.271 -1.7412 -0.0699  1.6318
 1444SOL    HW215792   3.525   3.369   5.380  1.9902  0.0010  0.6443
 1445SOL     OW15793   1.679   4.002   9.978 -0.4046 -0.3082 -0.1366
 1445SOL    HW115794   1.767   3.976  10.007 -0.8358  0.5698  1.9378
 1445SOL    HW215795   1.704   4.046   9.896 -0.1744 -0.4939 -0.1655
 1446SOL     OW15796   2.633   2.643   4.932 -0.6175 -0.4795  0.0927
 1446SOL    HW115797   2.542   2.615   4.943 -0.1538 -1.0452  2.4528
 1446SOL    HW215798   2.623   2.719   4.874 -1.1152  0.0231  0.8337
 1447SOL     OW15799   3.536   3.281   1.760  0.3279 -0.1872 -0.3207
 1447SOL    HW115800   3.568   3.372   1.764 -0.0247 -0.1102  0.9494
 1447SOL    HW215801   3.470   3.277   1.691 -1.6011 -1.5170  1.5862
 1448SOL     OW15802   0.298   3.293   5.433 -0.4546  0.3344  1.0758
 1448SOL    HW115803   0.350   3.367   5.463 -0.5468 -0.5166  3.3091
 1448SOL    HW215804   0.220   3.340   5.404 -0.8843 -0.4009  1.0412
 1449SOL     OW15805   1.903   1.377  15.650 -0.3741 -0.2982 -0.0027
 1449SOL    HW115806   1.953   1.300  15.622  2.6273  1.7561 -0.2745
 1449SOL    HW215807   1.821   1.335  15.677 -0.3438  1.0910  2.2504
 1450SOL     OW15808   2.328   3.291   3.858  0.1892  0.0244 -0.1747
 1450SOL    HW115809   2.281   3.350   3.917  1.4316  0.3377  0.4966
 1450SOL    HW215810   2.412   3.333   3.840  0.9020  0.5335  4.5595
 1451SOL     OW15811   1.854   0.719   0.507  0.6512 -0.4897 -0.3116
 1451SOL    HW115812   1.807   0.690   0.429  1.4778 -0.4408 -0.8213
 1451SOL    HW215813   1.883   0.644   0.559  0.8278 -1.3252 -1.6108
 1452SOL     OW15814   3.572   3.095  16.447 -0.8360 -0.0422 -0.2798
 1452SOL    HW115815   3.491   3.046  16.448  0.8055 -2.8298 -2.0612
 1452SOL    HW215816   3.542   3.165  16.389 -0.2985 -1.5488 -2.3931
 1453SOL     OW15817   3.776   3.693  17.346 -0.2002  0.3557  0.0321
 1453SOL    HW115818   3.722   3.759  17.302  1.0927 -0.3244 -2.5793
 1453SOL    HW215819   3.713   3.624  17.363  0.7722 -0.8216 -1.1204
 1454SOL     OW15820   4.386   0.533   3.200  0.0573 -0.2113 -0.1757
 1454SOL    HW115821   4.359   0.491   3.281  2.5745 -1.5479 -0.0163
 1454SOL    HW215822   4.422   0.457   3.155 -0.3833 -0.9200  0.6829
 1455SOL     OW15823   2.859   0.225  16.661 -0.6802 -0.3861 -0.2678
 1455SOL    HW115824   2.904   0.145  16.690  2.0332  1.1930 -0.1636
 1455SOL    HW215825   2.923   0.296  16.663  0.3455 -1.2942 -0.6160
 1456SOL     OW15826   1.079   3.402   7.170 -0.0245  0.4250  0.2303
 1456SOL    HW115827   1.100   3.432   7.081 -1.8131  2.8399  0.6479
 1456SOL    HW215828   0.992   3.438   7.187 -0.1787 -0.6834  1.7890
 1457SOL     OW15829   0.249   1.851   9.972 -0.5061  0.0899  0.5598
 1457SOL    HW115830   0.188   1.787  10.009 -0.6371  0.9090  1.7824
 1457SOL    HW215831   0.309   1.801   9.916  0.3380  1.9209 -0.1431
 1458SOL     OW15832   4.460   1.745   7.812 -0.2962  0.2686  0.4045
 1458SOL    HW115833   4.477   1.809   7.881  1.9523 -0.8745  0.9061
 1458SOL    HW215834   4.383   1.697   7.841 -0.2740  0.1103  0.1998
 1459SOL     OW15835   3.544   2.668   4.183 -0.4721  0.2432  0.2357
 1459SOL    HW115836   3.492   2.671   4.103 -0.4731 -0.6806  0.2039
 1459SOL    HW215837   3.545   2.573   4.196 -2.1542  0.1531 -0.3320
 1460SOL     OW15838   1.568   3.439  14.077 -0.5936 -0.4506  0.2930
 1460SOL    HW115839   1.490   3.478  14.115  0.1197 -0.4262  1.7675
 1460SOL    HW215840   1.550   3.436  13.983 -0.5723 -0.9099  0.3008
 1461SOL     OW15841   4.606   0.329   7.984 -0.2526 -0.2434 -0.4424
 1461SOL    HW115842   4.699   0.335   7.966 -0.2547  0.2665 -0.3002
 1461SOL    HW215843   4.598   0.274   8.062  1.0190  0.2967  0.0552
 1462SOL     OW15844   0.412   4.541   2.187 -0.5387 -0.5657 -0.4382
 1462SOL    HW115845   0.364   4.487   2.125 -1.9414  1.5361 -1.1811
 1462SOL    HW215846   0.476   4.474   2.213 -1.1075 -1.0454 -0.2870
 1463SOL     OW15847   0.964   3.816  12.075 -0.3221 -0.4298  0.1513
 1463SOL    HW115848   0.908   3.865  12.134 -1.2434 -1.4508  0.1215
 1463SOL    HW215849   0.975   3.885  12.010 -1.5653  0.0254  0.4334
 1464SOL     OW15850   3.422   0.198   5.871  0.4541 -0.5908  0.0626
 1464SOL    HW115851   3.404   0.216   5.779 -1.2605  0.7454  0.6732
 1464SOL    HW215852   3.515   0.174   5.870  1.0618  1.7162  0.7851
 1465SOL     OW15853   0.631   3.776   9.920  0.2186  0.7492  0.8424
 1465SOL    HW115854   0.637   3.836   9.846 -3.6409  1.1636  0.8476
 1465SOL    HW215855   0.543   3.796   9.953 -0.4157  0.3790 -0.5817
 1466SOL     OW15856   2.843   1.499   7.308 -0.2660 -0.5587 -0.5406
 1466SOL    HW115857   2.755   1.517   7.276  0.5008 -0.7514 -2.8110
 1466SOL    HW215858   2.839   1.547   7.390  1.4904  1.7714 -1.8150
 1467SOL     OW15859   2.080   3.696  14.153  0.3928  0.1397 -0.6853
 1467SOL    HW115860   2.019   3.673  14.083 -0.6134 -2.5269  1.0336
 1467SOL    HW215861   2.071   3.610  14.194 -1.0976  1.9102  2.7409
 1468SOL     OW15862   2.576   0.121   5.034  0.1562 -0.7352 -0.2385
 1468SOL    HW115863   2.587   0.126   5.129 -0.5212  1.9581 -0.2927
 1468SOL    HW215864   2.495   0.071   5.023  0.1768 -1.0890  1.1311
 1469SOL     OW15865   3.952   2.128   2.810 -0.0741  0.2235 -0.0245
 1469SOL    HW115866   3.904   2.088   2.882 -0.1621  1.9602  0.8804
 1469SOL    HW215867   3.970   2.054   2.752  0.1639  0.4573 -0.2567
 1470SOL     OW15868   3.520   1.742   7.334  0.1511  0.2914 -0.6603
 1470SOL    HW115869   3.577   1.788   7.396  0.5948  0.0931 -0.9275
 1470SOL    HW215870   3.437   1.789   7.338 -0.5333 -0.8438 -1.5126
 1471SOL     OW15871   1.799   0.789   3.652  0.2039  0.1099  0.3815
 1471SOL    HW115872   1.741   0.718   3.623  1.9785 -1.1743 -0.0180
 1471SOL    HW215873   1.746   0.867   3.634 -1.1902 -1.0495 -0.5423
 1472SOL     OW15874   4.043   2.526   5.214 -0.6591  0.0080  0.4268
 1472SOL    HW115875   4.118   2.498   5.265 -1.0702 -1.4007  0.2535
 1472SOL    HW215876   4.016   2.447   5.168  0.2457 -1.3301  2.1912
 1473SOL     OW15877   1.421   3.855  15.917 -0.2226 -0.8023  0.2088
 1473SOL    HW115878   1.371   3.934  15.896 -1.7726 -1.9362 -0.3703
 1473SOL    HW215879   1.360   3.795  15.874 -2.0662  0.4217  1.0973
 1474SOL     OW15880   1.496   1.041   7.342 -0.0962  0.2558  0.0735
 1474SOL    HW115881   1.439   1.104   7.385 -1.3737 -1.8999  1.5027
 1474SOL    HW215882   1.512   0.981   7.414  1.6192 -1.4883 -1.7388
 1475SOL     OW15883   1.345   3.380   7.364  0.1745 -0.4793  0.3511
 1475SOL    HW115884   1.411   3.415   7.305 -1.2831 -2.1474 -2.3074
 1475SOL    HW215885   1.398   3.345   7.436  0.4022  2.3977  1.5564
 1476SOL     OW15886   0.354   4.103   8.711  0.0585  0.1702  0.4750
 1476SOL    HW115887   0.440   4.146   8.716  0.9068 -1.3337 -1.1335
 1476SOL    HW215888   0.296   4.165   8.755 -0.2869 -0.4881  0.9389
 1477SOL     OW15889   0.717   4.156   1.957 -0.0475 -0.8173  0.2850
 1477SOL    HW115890   0.652   4.109   1.904 -1.4480  0.5146  0.8247
 1477SOL    HW215891   0.662   4.170   2.035 -0.2146 -0.4790  0.1029
 1478SOL     OW15892   3.621   1.205  13.330 -0.2984 -0.0612 -0.3648
 1478SOL    HW115893   3.587   1.233  13.415  0.6546  1.0751 -0.3613
 1478SOL    HW215894   3.701   1.154  13.345  1.3765  3.0440  1.1596
 1479SOL     OW15895   3.161   3.575   7.065 -0.9395  0.5366 -0.2510
 1479SOL    HW115896   3.117   3.613   6.989  0.2812  2.1125 -0.1801
 1479SOL    HW215897   3.088   3.566   7.127  1.4383  0.6271  2.5423
 1480SOL     OW15898   3.798   2.394   0.213 -0.0725  0.2151  0.3015
 1480SOL    HW115899   3.809   2.343   0.293  1.2688 -0.4418 -0.3103
 1480SOL    HW215900   3.708   2.420   0.233  0.6597  1.7471  1.6535
 1481SOL     OW15901   2.562   0.390  12.531  0.3211  0.2499  0.4365
 1481SOL    HW115902   2.475   0.429  12.545 -0.2659 -0.5684 -0.8115
 1481SOL    HW215903   2.531   0.301  12.512  0.4637  0.4818 -0.8911
 1482SOL     OW15904   2.562   1.499   8.914  0.3245 -0.2593  0.2429
 1482SOL    HW115905   2.556   1.461   9.002 -1.8153 -2.0077 -0.6614
 1482SOL    HW215906   2.586   1.589   8.938  0.3183 -0.2940  0.3772
 1483SOL     OW15907   2.933   0.302  17.306  0.0218 -0.0563 -0.1219
 1483SOL    HW115908   2.955   0.265  17.221 -1.1871 -0.6910 -0.1692
 1483SOL    HW215909   2.879   0.378  17.282  1.4135  0.3213 -2.0282
 1484SOL     OW15910   2.192   1.175   3.790  0.1026  0.1386  0.2246
 1484SOL    HW115911   2.237   1.097   3.759 -0.5070  0.2927 -1.0292
 1484SOL    HW215912   2.105   1.165   3.753 -0.7464 -4.7330  3.5141
 1485SOL     OW15913   1.561   0.016   7.781 -0.2534  0.0314  0.2174
 1485SOL    HW115914   1.622   4.675   7.745 -2.0884  0.0455 -2.9614
 1485SOL    HW215915   1.549   4.718   7.873 -1.4780  0.4613  0.1542
 1486SOL     OW15916   2.504   1.735   3.005  0.2434  0.2049  0.4675
 1486SOL    HW115917   2.592   1.723   3.042  0.5063  0.8174  0.0456
 1486SOL    HW215918   2.539   1.783   2.930  3.1761 -1.9607  0.4223
 1487SOL     OW15919   3.985   4.150  11.035 -0.0037 -0.5268  0.2372
 1487SOL    HW115920   3.892   4.135  11.016  0.1569 -0.4866 -0.5554
 1487SOL    HW215921   4.000   4.242  11.013 -0.5810 -0.7003 -0.8741
 1488SOL     OW15922   2.887   3.374   3.729  0.2755  0.0394 -0.7379
 1488SOL    HW115923   2.957   3.386   3.664  0.4245 -0.0856 -0.5997
 1488SOL    HW215924   2.808   3.420   3.700 -0.6570 -0.3469  1.2163
 1489SOL     OW15925   0.849   2.587   3.265  0.7984 -0.4753  0.0061
 1489SOL    HW115926   0.795   2.517   3.228  1.9697  0.5290 -3.5491
 1489SOL    HW215927   0.860   2.627   3.179  0.7779  1.6397  0.9952
 1490SOL     OW15928   4.315   2.850   4.357  0.0860 -0.5949 -0.1979
 1490SOL    HW115929   4.235   2.878   4.310  0.3326  1.3503  0.5255
 1490SOL    HW215930   4.335   2.769   4.311 -1.0094 -0.3100 -1.1968
 1491SOL     OW15931   1.675   4.452  10.800 -0.0641  0.6146 -0.3149
 1491SOL    HW115932   1.717   4.485  10.721  0.9175 -0.4589 -0.2508
 1491SOL    HW215933   1.723   4.371  10.820 -0.3912  0.2870 -0.8671
 1492SOL     OW15934   3.029   4.098   1.502 -0.1328 -0.3536 -0.1158
 1492SOL    HW115935   3.024   4.182   1.457 -0.3299 -0.3660 -0.1197
 1492SOL    HW215936   3.123   4.084   1.503 -0.2644 -1.3906 -2.7712
 1493SOL     OW15937   0.118   3.147   4.016  0.0420  0.1719  0.0335
 1493SOL    HW115938   0.085   3.129   4.104  1.6967  3.8212  1.3788
 1493SOL    HW215939   0.210   3.169   4.029  0.3073 -0.6640 -0.4371
 1494SOL     OW15940   3.263   1.456   5.476  0.1742  0.0220  0.3367
 1494SOL    HW115941   3.285   1.409   5.556 -0.0771  1.1453  1.0802
 1494SOL    HW215942   3.347   1.499   5.460 -1.0447  2.3034  0.0251
 1495SOL     OW15943   3.007   3.849  16.490 -0.2660 -0.2220  0.4664
 1495SOL    HW115944   3.066   3.863  16.565  1.8487 -0.8029 -1.0910
 1495SOL    HW215945   2.980   3.937  16.463  0.7175  1.1629  3.9536
 1496SOL     OW15946   4.158   1.416   2.043 -0.0448  0.1706 -0.1192
 1496SOL    HW115947   4.174   1.445   1.953  0.2449 -0.5437 -0.2969
 1496SOL    HW215948   4.224   1.472   2.084 -0.1928  1.3809 -1.5392
 1497SOL     OW15949   1.469   2.186  13.668  0.8611  0.2380 -0.4058
 1497SOL    HW115950   1.484   2.270  13.625  0.7781 -0.2510 -1.3739
 1497SOL    HW215951   1.384   2.206  13.709  0.7442  0.9779 -1.0123
 1498SOL     OW15952   1.493   0.246  14.109  0.7244 -0.1581 -0.0132
 1498SOL    HW115953   1.467   0.312  14.173  1.3464 -0.6367  0.7420
 1498SOL    HW215954   1.561   0.296  14.064  0.2756 -2.0181 -2.7926
 1499SOL     OW15955   0.813   4.229   3.939  0.2152  0.0359  0.4704
 1499SOL    HW115956   0.794   4.305   3.884  0.2747 -0.1839  0.1426
 1499SOL    HW215957   0.888   4.192   3.894 -0.3168 -0.6409  0.1336
 1500SOL     OW15958   4.165   0.021   3.232  0.1069 -0.0648  0.0930
 1500SOL    HW115959   4.116   0.047   3.153 -1.8494  0.5525  1.4933
 1500SOL    HW215960   4.145   4.652   3.239  0.6087 -0.1066  0.9207
 1501SOL     OW15961   2.089   1.163   6.827  0.0856 -0.1835 -0.0830
 1501SOL    HW115962   2.155   1.094   6.833 -2.7827 -2.7728  1.0631
 1501SOL    HW215963   2.081   1.170   6.732  0.9639  1.9458 -0.0149
 1502SOL     OW15964   0.566   4.162   3.001 -0.1356  0.3439 -0.2326
 1502SOL    HW115965   0.475   4.139   3.019 -0.4043  1.4097 -0.2095
 1502SOL    HW215966   0.579   4.114   2.920  1.9824 -2.0298  1.5073
 1503SOL     OW15967   3.141   1.321  12.160 -0.7015  0.9231  0.5473
 1503SOL    HW115968   3.212   1.298  12.220 -0.9466  0.5680  0.7036
 1503SOL    HW215969   3.093   1.238  12.153 -0.4558  0.8961 -0.7123
 1504SOL     OW15970   0.904   0.490   7.250  0.1734 -0.0069  0.1981
 1504SOL    HW115971   0.846   0.415   7.237  1.3247 -0.9616  0.6235
 1504SOL    HW215972   0.858   0.530   7.324 -0.1505  3.2131 -1.7412
 1505SOL     OW15973   2.600   3.618   1.724  0.0059 -1.0399 -0.1419
 1505SOL    HW115974   2.630   3.619   1.633  2.0221  1.5090  0.5464
 1505SOL    HW215975   2.510   3.651   1.728  0.4841 -0.0638  2.9606
 1506SOL     OW15976   2.046   1.954  14.151 -0.5120  0.2723 -0.2608
 1506SOL    HW115977   2.058   2.048  14.140 -0.6701  0.3134 -0.0810
 1506SOL    HW215978   2.126   1.915  14.188 -1.3674  0.0209  1.3361
 1507SOL     OW15979   1.800   1.925  11.462  0.5725  0.1283 -0.3795
 1507SOL    HW115980   1.841   2.011  11.473  0.7861  0.0825 -0.8094
 1507SOL    HW215981   1.720   1.955  11.418 -0.6540 -3.7849 -0.7892
 1508SOL     OW15982   0.059   2.578  12.816  0.3700  0.4147 -0.6572
 1508SOL    HW115983   0.068   2.591  12.910 -2.3794  2.1658 -0.6266
 1508SOL    HW215984   0.151   2.582  12.793  0.7320  0.5455  0.8174
 1509SOL     OW15985   3.760   4.258   3.587  0.5600  0.4513 -0.2560
 1509SOL    HW115986   3.845   4.295   3.610  0.9313  0.6337 -1.9157
 1509SOL    HW215987   3.713   4.293   3.663  1.6236 -0.0244  0.6217
 1510SOL     OW15988   2.451   0.267   6.464 -0.1464  0.0045 -0.3182
 1510SOL    HW115989   2.399   0.317   6.527 -0.3446 -0.9275  0.2544
 1510SOL    HW215990   2.412   0.180   6.471  0.3198 -0.3656 -2.3099
 1511SOL     OW15991   0.986   2.551   4.686  0.1433  0.2579 -0.3137
 1511SOL    HW115992   0.945   2.602   4.756  1.6918 -0.6186  1.2257
 1511SOL    HW215993   0.930   2.569   4.610  2.4067  2.2755 -1.4978
 1512SOL     OW15994   3.819   2.309   8.131 -0.3499  0.2415  0.5366
 1512SOL    HW115995   3.767   2.372   8.181 -0.1156 -0.3940  1.5861
 1512SOL    HW215996   3.890   2.296   8.195  1.3446  0.7461 -1.2498
 1513SOL     OW15997   4.639   2.515   4.763  0.4951 -0.0372  0.0285
 1513SOL    HW115998   4.624   2.423   4.780 -0.0327  0.0819  0.1928
 1513SOL    HW215999   4.689   2.526   4.844 -1.0592 -1.7154  1.2069
 1514SOL     OW16000   2.397   4.379   8.618 -0.2281  0.2553 -0.7569
 1514SOL    HW116001   2.464   4.364   8.552  1.1318  0.7048  0.5162
 1514SOL    HW216002   2.355   4.464   8.603  0.1235  0.9664  2.1729
 1515SOL     OW16003   1.910   0.348  12.818 -0.3702  0.2687 -0.0435
 1515SOL    HW116004   1.841   0.311  12.763  0.1291 -1.5419  0.5493
 1515SOL    HW216005   1.995   0.312  12.793  0.5947  2.7048 -0.3522
 1516SOL     OW16006   1.339   1.970   4.672 -0.1312 -0.8083 -0.1905
 1516SOL    HW116007   1.311   2.056   4.640  2.2386 -0.4300 -1.2457
 1516SOL    HW216008   1.404   1.951   4.604  0.1869  1.9883 -0.6828
 1517SOL     OW16009   2.714   1.701  14.760 -0.3271  0.5351 -0.5193
 1517SOL    HW116010   2.758   1.746  14.831 -1.4704  2.8881 -1.2778
 1517SOL    HW216011   2.732   1.758  14.684 -0.9452  0.4954 -0.7007
 1518SOL     OW16012   2.989   3.020   5.442  0.1590 -0.4282  0.3210
 1518SOL    HW116013   3.038   3.003   5.522 -0.1649 -3.4602 -0.1409
 1518SOL    HW216014   2.908   3.058   5.476  0.4633 -0.6234  1.2648
 1519SOL     OW16015   1.139   4.279   8.739 -0.0002 -0.1509 -0.3961
 1519SOL    HW116016   1.208   4.340   8.712 -0.3557  1.1616  1.6304
 1519SOL    HW216017   1.188   4.198   8.727 -0.7015 -0.3073 -2.1861
 1520SOL     OW16018   4.567   2.605  14.501 -0.4399  0.1564  0.3113
 1520SOL    HW116019   4.614   2.521  14.504 -0.1761  0.2819 -0.2786
 1520SOL    HW216020   4.484   2.577  14.538 -0.1308 -1.3297 -0.1019
 1521SOL     OW16021   3.054   0.645   3.005  0.4749  0.2696  0.2147
 1521SOL    HW116022   3.052   0.559   3.045  0.7038 -0.2400 -0.8852
 1521SOL    HW216023   3.148   0.652   2.985  0.4349 -0.0951 -0.1051
 1522SOL     OW16024   0.496   2.755  13.693 -0.0424  0.1426  0.4178
 1522SOL    HW116025   0.470   2.710  13.774 -0.3833  1.9289  1.2926
 1522SOL    HW216026   0.549   2.824  13.731 -0.9661  0.8663  0.4054
 1523SOL     OW16027   3.051   3.833   9.678 -0.4472  0.2085 -0.3102
 1523SOL    HW116028   3.009   3.874   9.754 -2.0336 -0.4679 -0.8157
 1523SOL    HW216029   2.978   3.804   9.623  0.5150 -0.1774 -1.3776
 1524SOL     OW16030   4.225   0.990   2.576  0.3108 -0.3844 -0.0792
 1524SOL    HW116031   4.306   0.942   2.590  0.2088 -1.0414 -1.8766
 1524SOL    HW216032   4.254   1.082   2.581 -2.9292  0.6538 -0.2719
 1525SOL     OW16033   1.710   1.042   4.865  0.6353  0.2212  0.3996
 1525SOL    HW116034   1.738   1.106   4.800 -0.1235  1.2243  1.0604
 1525SOL    HW216035   1.618   1.068   4.866  1.0608  1.6359  1.5284
 1526SOL     OW16036   1.804   4.209  14.454  0.0999 -0.3428  0.3597
 1526SOL    HW116037   1.744   4.143  14.490  0.9114 -0.5845  1.2519
 1526SOL    HW216038   1.773   4.201  14.364 -1.6273 -0.0010  0.9313
 1527SOL     OW16039   2.268   0.774  11.215  0.3184  0.6381  0.2525
 1527SOL    HW116040   2.289   0.865  11.236  0.8161  0.4089  0.7248
 1527SOL    HW216041   2.173   0.764  11.201  0.5726  1.5654 -2.2691
 1528SOL     OW16042   1.658   1.002   2.061  0.1874  0.4016 -0.2562
 1528SOL    HW116043   1.729   0.988   1.999 -0.1944  0.1690 -0.6443
 1528SOL    HW216044   1.696   1.067   2.120  0.8376 -0.0902 -0.1331
 1529SOL     OW16045   2.677   3.910   4.867  0.0508 -0.2263 -0.1106
 1529SOL    HW116046   2.735   3.945   4.799 -0.7669  0.8469 -0.2561
 1529SOL    HW216047   2.663   3.991   4.916 -0.3003 -0.9782  1.0260
 1530SOL     OW16048   0.239   4.206  13.219 -0.8259 -0.1830  0.1404
 1530SOL    HW116049   0.236   4.281  13.279  3.5712  0.5520 -0.5383
 1530SOL    HW216050   0.333   4.192  13.219 -1.1061 -1.9829  2.2529
 1531SOL     OW16051   1.757   4.146  15.881  0.7500  0.1944  0.3613
 1531SOL    HW116052   1.826   4.175  15.941  2.0770  0.2130 -1.1754
 1531SOL    HW216053   1.749   4.051  15.892 -0.6265  0.3237  0.4684
 1532SOL     OW16054   2.170   1.409   6.932  0.1732 -0.3885 -0.4316
 1532SOL    HW116055   2.150   1.327   6.887 -2.1797 -0.7278  1.2545
 1532SOL    HW216056   2.094   1.455   6.897 -2.2291 -3.2074  1.1742
 1533SOL     OW16057   0.868   3.298   5.036  0.0471 -0.3024  0.6325
 1533SOL    HW116058   0.877   3.226   4.974  1.5730 -0.1056  0.6277
 1533SOL    HW216059   0.876   3.374   4.978  1.7398 -1.4609 -0.6377
 1534SOL     OW16060   3.001   0.443  10.362  0.0200  0.1459  0.4677
 1534SOL    HW116061   2.976   0.535  10.365 -0.1431  0.2161 -2.5943
 1534SOL    HW216062   3.043   0.428  10.446 -0.1070  0.1154  0.5261
 1535SOL     OW16063   1.784   0.634   6.873 -0.1279 -0.5330  0.0254
 1535SOL    HW116064   1.820   0.600   6.955 -0.4075 -1.0590 -0.0691
 1535SOL    HW216065   1.783   0.726   6.900 -0.0565 -1.2005  2.3126
 1536SOL     OW16066   1.261   3.388   0.378  0.0681 -0.0622 -0.0274
 1536SOL    HW116067   1.215   3.339   0.445  1.9706 -1.6237  0.1496
 1536SOL    HW216068   1.234   3.475   0.405 -1.1837 -0.4454 -0.0653
 1537SOL     OW16069   1.068   0.433   1.664 -0.1346 -0.1504 -0.3398
 1537SOL    HW116070   1.104   0.496   1.727 -2.6828  0.8529  0.1177
 1537SOL    HW216071   1.147   0.395   1.626  0.1257 -0.8628  0.8953
 1538SOL     OW16072   2.504   0.181   7.554 -0.5436 -0.1803  0.0326
 1538SOL    HW116073   2.429   0.216   7.507 -0.0583  0.4613 -0.2633
 1538SOL    HW216074   2.573   0.170   7.489  0.6352 -2.5034  1.6735
 1539SOL     OW16075   1.623   3.811   4.734 -0.1637 -0.1003  0.3061
 1539SOL    HW116076   1.592   3.776   4.651 -1.9536  0.4769  0.7238
 1539SOL    HW216077   1.584   3.743   4.789 -2.1658 -1.1570 -2.4641
 1540SOL     OW16078   0.992   1.821  17.538  0.0205 -0.6868  0.3026
 1540SOL    HW116079   1.016   1.900  17.489  1.3042 -0.7847  0.7813
 1540SOL    HW216080   1.047   1.751  17.503  0.4061  1.0919 -2.6678
 1541SOL     OW16081   2.651   0.469   7.437  0.4357  0.1070  0.4232
 1541SOL    HW116082   2.729   0.439   7.391  0.2576 -0.0417  0.2168
 1541SOL    HW216083   2.690   0.529   7.501 -1.7819  1.2089  0.7294
 1542SOL     OW16084   2.815   3.234  13.553 -0.2253  0.4936  0.7761
 1542SOL    HW116085   2.738   3.181  13.535 -0.0679  1.0188 -1.4193
 1542SOL    HW216086   2.847   3.233  13.462 -0.1026 -0.4875  0.8264
 1543SOL     OW16087   3.399   4.361   4.964  0.3521 -0.2147  0.0643
 1543SOL    HW116088   3.442   4.339   5.046 -0.5467  0.5841  0.7482
 1543SOL    HW216089   3.309   4.333   4.980  1.6713 -4.3022  0.5395
 1544SOL     OW16090   3.498   4.154   9.204 -0.2408 -0.0289 -0.0903
 1544SOL    HW116091   3.459   4.204   9.276 -0.8580 -1.3583  0.5038
 1544SOL    HW216092   3.550   4.090   9.254  2.3905 -0.7032 -3.7334
 1545SOL     OW16093   1.995   4.211   5.385  0.2311 -0.3442 -0.3238
 1545SOL    HW116094   2.087   4.195   5.364  0.1743 -0.2574 -0.6355
 1545SOL    HW216095   1.948   4.160   5.319  1.1178 -0.8779 -0.5488
 1546SOL     OW16096   3.363   3.099   2.599  0.0003 -0.1090  0.1197
 1546SOL    HW116097   3.374   3.036   2.670 -2.1118 -0.3982  0.1793
 1546SOL    HW216098   3.268   3.101   2.587  0.1209 -0.1919 -0.8562
 1547SOL     OW16099   0.326   1.453   2.133 -0.1742 -0.6212  0.6383
 1547SOL    HW116100   0.367   1.447   2.047 -1.6677 -0.6205 -0.0686
 1547SOL    HW216101   0.233   1.436   2.119 -0.3703  2.4119 -1.6299
 1548SOL     OW16102   3.627   0.192   8.924  0.4540  0.4044  0.2603
 1548SOL    HW116103   3.534   0.174   8.911  0.6738 -0.6206  0.0868
 1548SOL    HW216104   3.657   0.103   8.944 -1.7139 -0.5656 -0.7682
 1549SOL     OW16105   2.683   2.681   6.653 -0.0419  0.2010  0.1525
 1549SOL    HW116106   2.628   2.738   6.599  0.6511  0.0039 -0.7686
 1549SOL    HW216107   2.720   2.755   6.701 -0.5515 -1.0674  2.5212
 1550SOL     OW16108   4.253   4.208  12.599 -0.5467  0.2755 -0.3679
 1550SOL    HW116109   4.331   4.254  12.630 -1.0533  0.7379  0.2035
 1550SOL    HW216110   4.180   4.250  12.644  0.4077  1.6241 -0.0828
 1551SOL     OW16111   4.564   1.434   5.510  0.0681  0.0432 -0.1152
 1551SOL    HW116112   4.536   1.419   5.419  0.9251  1.3473 -0.5900
 1551SOL    HW216113   4.630   1.366   5.524  1.3992  0.3293 -4.8404
 1552SOL     OW16114   4.688   3.257   0.732 -0.7834 -0.0463  0.4492
 1552SOL    HW116115   0.004   3.292   0.811  1.2948 -1.9733  0.2877
 1552SOL    HW216116   0.034   3.280   0.670 -2.7863 -0.3740 -1.9447
 1553SOL     OW16117   1.402   3.066   7.982 -0.2677 -0.2638  0.4455
 1553SOL    HW116118   1.390   3.132   8.050 -0.2122  0.7795 -0.5552
 1553SOL    HW216119   1.421   3.124   7.909 -2.1208 -1.8411 -1.2948
 1554SOL     OW16120   3.782   3.333  12.419  0.3054  0.0634 -0.0814
 1554SOL    HW116121   3.689   3.356  12.413 -0.1130 -1.6186  0.1392
 1554SOL    HW216122   3.787   3.242  12.447  2.3759  1.0664  2.7768
 1555SOL     OW16123   1.189   0.060   4.411 -0.1513  0.0981  0.5642
 1555SOL    HW116124   1.159   0.148   4.389  1.7665  0.6782  0.2353
 1555SOL    HW216125   1.254   0.036   4.345 -1.0221 -0.0083 -0.2557
 1556SOL     OW16126   0.741   2.777   0.785 -0.9620  0.3493 -0.6944
 1556SOL    HW116127   0.681   2.850   0.769 -1.1260  0.1907 -0.7910
 1556SOL    HW216128   0.791   2.819   0.855  2.6150 -0.3023 -2.8046
 1557SOL     OW16129   2.544   3.321   6.335  0.4096 -0.1116  0.2993
 1557SOL    HW116130   2.552   3.251   6.400  0.8813  2.4748  3.0318
 1557SOL    HW216131   2.608   3.297   6.268 -3.2312 -1.7559 -2.6387
 1558SOL     OW16132   0.941   1.719  11.591 -0.4849  0.4277  0.1166
 1558SOL    HW116133   0.936   1.635  11.636 -0.8000 -1.6472 -3.8620
 1558SOL    HW216134   0.848   1.738  11.576 -0.4319  0.3266 -0.3207
 1559SOL     OW16135   0.613   2.591  17.697 -0.5064 -0.3563 -0.0031
 1559SOL    HW116136   0.678   2.641  17.647 -1.0234  0.1350 -0.1861
 1559SOL    HW216137   0.679   2.535   0.041 -1.2514 -0.0204  1.6036
 1560SOL     OW16138   3.064   0.786   1.630 -0.4709 -0.7067 -0.0923
 1560SOL    HW116139   3.074   0.816   1.540 -0.4060 -0.0547  0.1372
 1560SOL    HW216140   3.045   0.693   1.613 -1.8185 -0.4313 -0.1011
 1561SOL     OW16141   3.852   0.894  10.143  0.3296  0.2324 -0.0280
 1561SOL    HW116142   3.863   0.816  10.198 -1.8923 -1.6519 -2.2203
 1561SOL    HW216143   3.892   0.969  10.186 -0.6194  0.4770  0.4559
 1562SOL     OW16144   2.542   0.715  10.759  0.6493 -0.3351 -0.5886
 1562SOL    HW116145   2.491   0.663  10.697 -0.7865 -0.0997  0.4021
 1562SOL    HW216146   2.608   0.651  10.785  2.2802  0.7985 -1.9566
 1563SOL     OW16147   2.129   0.369  10.104 -0.2330 -0.1322  0.2050
 1563SOL    HW116148   2.110   0.350  10.196  1.4170  2.6293  1.1249
 1563SOL    HW216149   2.105   0.285  10.065  2.9370 -0.6407 -0.5973
 1564SOL     OW16150   2.023   1.742   8.713  0.2318  0.3575  0.0718
 1564SOL    HW116151   1.938   1.720   8.752 -1.0871  0.7515 -2.5544
 1564SOL    HW216152   2.019   1.836   8.727 -3.3508  0.1566  0.3232
 1565SOL     OW16153   1.139   2.214   7.055  0.0297  0.0297  0.1378
 1565SOL    HW116154   1.170   2.162   7.128 -1.3368 -1.3426 -0.2518
 1565SOL    HW216155   1.067   2.270   7.084 -0.0892 -0.2571  0.3923
 1566SOL     OW16156   2.345   3.699   6.074  0.1186  0.3278  0.0263
 1566SOL    HW116157   2.255   3.695   6.041  0.0000 -0.7298  0.4603
 1566SOL    HW216158   2.361   3.793   6.069  0.8172  0.3046  1.9114
 1567SOL     OW16159   4.080   1.230   2.721 -0.1815 -0.1109 -0.6572
 1567SOL    HW116160   4.107   1.184   2.800  0.1796 -1.0578 -1.3160
 1567SOL    HW216161   4.057   1.153   2.668 -1.5021 -0.0421 -0.1932
 1568SOL     OW16162   2.660   4.344  16.143 -0.1243  0.6968  0.0010
 1568SOL    HW116163   2.718   4.329  16.218 -2.4609 -1.5796  1.3428
 1568SOL    HW216164   2.621   4.427  16.169 -2.2242 -0.8158  1.5941
 1569SOL     OW16165   4.508   3.253   5.905 -0.3793 -0.1190 -0.0357
 1569SOL    HW116166   4.441   3.223   5.967 -0.1668  1.3073  0.8951
 1569SOL    HW216167   4.577   3.189   5.921  0.6665  1.0835  0.2894
 1570SOL     OW16168   0.083   4.484   6.326 -0.2529  0.1306  0.3585
 1570SOL    HW116169   4.718   4.474   6.293 -0.1931  1.1110 -0.1006
 1570SOL    HW216170   0.132   4.415   6.283  0.1133  0.5147  0.1608
 1571SOL     OW16171   4.226   3.783   2.891  0.3345  0.1059 -0.3851
 1571SOL    HW116172   4.132   3.771   2.901  0.2552  1.4446  0.6150
 1571SOL    HW216173   4.210   3.862   2.839  1.4531  0.8162  0.3465
 1572SOL     OW16174   0.874   4.400   2.086  0.6806 -0.0364 -0.0022
 1572SOL    HW116175   0.892   4.494   2.088 -0.9454  0.2486  1.0844
 1572SOL    HW216176   0.928   4.365   2.015  1.6596  0.2957  0.5747
 1573SOL     OW16177   3.276   2.554   0.875  0.0463  0.0815 -0.0294
 1573SOL    HW116178   3.259   2.648   0.884  0.5791  0.4168 -2.5924
 1573SOL    HW216179   3.369   2.544   0.891  0.3056 -1.0461 -2.3092
 1574SOL     OW16180   3.769   3.212  13.767  0.0707 -0.0524  0.2345
 1574SOL    HW116181   3.854   3.205  13.724 -0.4817 -0.0753 -0.8410
 1574SOL    HW216182   3.785   3.175  13.854  1.9274  0.2658  0.0271
 1575SOL     OW16183   0.609   2.557  10.094 -0.3838 -0.1057  0.1327
 1575SOL    HW116184   0.696   2.576  10.059  0.2040 -2.3406  0.3469
 1575SOL    HW216185   0.628   2.576  10.186 -0.1021 -0.7448  0.2052
 1576SOL     OW16186   0.982   3.422  14.172  0.1333 -1.0926  0.4488
 1576SOL    HW116187   0.937   3.377  14.244 -1.3499 -1.2659 -0.5835
 1576SOL    HW216188   0.924   3.499  14.171 -0.1282 -1.3013 -0.5587
 1577SOL     OW16189   0.910   0.289   9.094  0.2632 -0.7905  0.0493
 1577SOL    HW116190   0.983   0.279   9.154 -1.5462 -2.0419  2.0307
 1577SOL    HW216191   0.887   0.197   9.083 -0.6785 -0.3724 -1.5501
 1578SOL     OW16192   3.892   2.255   1.491 -0.0540  0.5529 -0.1069
 1578SOL    HW116193   3.914   2.330   1.546  0.0446  1.3574 -1.2309
 1578SOL    HW216194   3.835   2.208   1.551  0.4311  0.7699  0.5251
 1579SOL     OW16195   3.560   3.910   4.263  0.5436  0.3913 -0.3189
 1579SOL    HW116196   3.535   4.000   4.244  1.1043  0.2078 -1.9162
 1579SOL    HW216197   3.570   3.869   4.177  1.4220 -1.9153  0.8834
 1580SOL     OW16198   2.249   2.413  11.681  0.9728  0.0158  0.2901
 1580SOL    HW116199   2.214   2.445  11.598  1.4204  3.4345  1.4303
 1580SOL    HW216200   2.180   2.433  11.743  1.3725 -1.5178  1.2264
 1581SOL     OW16201   2.718   1.066  11.237  0.7040 -0.4853  0.4429
 1581SOL    HW116202   2.777   0.991  11.249  0.5647 -1.1019 -2.6233
 1581SOL    HW216203   2.775   1.140  11.257 -1.3174  1.7125 -2.0321
 1582SOL     OW16204   1.818   3.190   0.886 -0.0773 -0.4360 -0.4391
 1582SOL    HW116205   1.817   3.105   0.930 -0.7446 -1.1671 -1.8955
 1582SOL    HW216206   1.853   3.251   0.952 -1.2167  0.7947 -0.9752
 1583SOL     OW16207   1.902   4.335   4.543  0.1155  0.1834  0.0030
 1583SOL    HW116208   1.911   4.429   4.557 -0.5389 -0.1930  2.8552
 1583SOL    HW216209   1.927   4.298   4.627 -0.6781  0.4488  0.3556
 1584SOL     OW16210   1.858   0.008   5.201  0.4591  0.0414  0.2752
 1584SOL    HW116211   1.930   0.071   5.193 -0.6480  1.3063  0.3066
 1584SOL    HW216212   1.892   4.680   5.274  1.9765  0.8618  0.1551
 1585SOL     OW16213   4.568   2.617   7.163 -0.0092 -0.8693  0.5373
 1585SOL    HW116214   4.558   2.623   7.068 -0.4697 -2.0613  0.5177
 1585SOL    HW216215   4.662   2.602   7.160  0.0937  0.2714 -1.7760
 1586SOL     OW16216   3.096   1.012   8.653  0.3602  0.0626  0.0332
 1586SOL    HW116217   3.017   1.030   8.705  0.6985  0.2484  0.4846
 1586SOL    HW216218   3.052   1.005   8.569 -1.8066  0.0246  1.1640
 1587SOL     OW16219   0.598   0.120   6.581  0.3948 -0.2032  0.2063
 1587SOL    HW116220   0.650   0.157   6.510  0.6867  0.2085  0.6294
 1587SOL    HW216221   0.512   0.107   6.542  1.1460 -3.1796 -0.4421
 1588SOL     OW16222   1.538   1.886   1.831  0.4465 -0.2580  0.4405
 1588SOL    HW116223   1.444   1.873   1.846 -0.4509  2.9506 -2.4037
 1588SOL    HW216224   1.537   1.916   1.740 -1.1781 -3.2150 -0.4940
 1589SOL     OW16225   4.568   0.229   4.027 -0.1841  0.2105 -0.5171
 1589SOL    HW116226   4.526   0.159   4.076 -0.4234  0.1015 -0.8782
 1589SOL    HW216227   4.572   0.296   4.095  2.6750  0.5785 -1.0427
 1590SOL     OW16228   0.627   1.326   2.780 -0.0460 -0.3897 -0.1815
 1590SOL    HW116229   0.602   1.358   2.693  0.0775  2.6295  0.8971
 1590SOL    HW216230   0.609   1.233   2.768  1.5930 -0.7552  0.2233
 1591SOL     OW16231   0.217   2.240   4.993  0.0063  0.6480  0.3467
 1591SOL    HW116232   0.308   2.250   4.967 -0.4896  2.6574 -0.6518
 1591SOL    HW216233   0.187   2.185   4.920 -0.0756 -0.7823  1.4468
 1592SOL     OW16234   0.711   3.013  10.695  0.2112  0.0740  0.0048
 1592SOL    HW116235   0.653   3.083  10.723  0.7504  0.1384  0.9592
 1592SOL    HW216236   0.744   2.982  10.779 -0.8153 -1.6057 -0.1994
 1593SOL     OW16237   4.482   2.893   8.163 -0.5802 -0.0322 -0.5959
 1593SOL    HW116238   4.568   2.857   8.186 -1.1750 -0.0813  1.5299
 1593SOL    HW216239   4.468   2.826   8.096  2.3186 -0.1309 -1.0915
 1594SOL     OW16240   0.089   3.694   6.467 -0.1602 -0.2187  0.8319
 1594SOL    HW116241   0.158   3.716   6.404 -0.2269 -0.5263  0.6532
 1594SOL    HW216242   0.059   3.610   6.433  0.9621  0.7610 -2.5672
 1595SOL     OW16243   0.018   1.376   7.350  0.2085  0.0379  0.1393
 1595SOL    HW116244   4.651   1.354   7.371  0.2232 -0.6752 -0.5736
 1595SOL    HW216245   0.057   1.360   7.436  0.9822 -3.6465 -0.9159
 1596SOL     OW16246   3.996   2.619  14.670 -0.0128  0.2336 -0.2838
 1596SOL    HW116247   3.994   2.607  14.575  1.1349 -1.5531 -0.0741
 1596SOL    HW216248   3.939   2.695  14.682  2.4904  2.1529 -0.5700
 1597SOL     OW16249   4.040   0.590  17.126 -0.5316 -0.3955 -0.2772
 1597SOL    HW116250   4.011   0.560  17.041 -1.6060  0.2996 -0.1562
 1597SOL    HW216251   3.960   0.633  17.156 -0.1303 -0.4710  0.9108
 1598SOL     OW16252   1.576   3.534   2.432 -0.6244 -0.1503 -0.1823
 1598SOL    HW116253   1.531   3.498   2.355 -2.0843 -1.0545  1.1085
 1598SOL    HW216254   1.626   3.604   2.390  1.6442 -1.8172 -0.2829
 1599SOL     OW16255   1.051   2.813  14.818 -0.0150 -0.5115 -0.2526
 1599SOL    HW116256   0.959   2.800  14.840  0.0197  0.6568  0.6003
 1599SOL    HW216257   1.051   2.909  14.814 -0.4641 -0.5211 -0.5621
 1600SOL     OW16258   3.195   2.877   8.301 -0.4614 -0.0761  0.8222
 1600SOL    HW116259   3.237   2.957   8.333  2.8957 -1.6918  0.4066
 1600SOL    HW216260   3.187   2.825   8.380 -1.7640 -1.1089  0.0156
 1601SOL     OW16261   1.965   1.684  14.003 -0.3437  0.3690 -0.1900
 1601SOL    HW116262   1.901   1.739  13.958  0.6158  2.0892  0.5162
 1601SOL    HW216263   2.008   1.738  14.070  3.2766 -1.8727 -0.6690
 1602SOL     OW16264   3.724   1.947  13.240 -0.2902 -0.4297 -0.5891
 1602SOL    HW116265   3.742   1.859  13.272  0.3920  0.2236  0.7895
 1602SOL    HW216266   3.784   2.008  13.284  1.0263 -0.6355 -2.0944
 1603SOL     OW16267   0.759   4.399  17.289 -0.3351  0.2933 -0.0405
 1603SOL    HW116268   0.739   4.385  17.381  1.1312  2.8604  0.6554
 1603SOL    HW216269   0.754   4.494  17.285  2.0402  0.4553  0.5527
 1604SOL     OW16270   3.755   1.287  16.969  0.3658  0.1180 -0.1539
 1604SOL    HW116271   3.750   1.351  17.040  0.0689 -0.0144 -0.0531
 1604SOL    HW216272   3.683   1.228  16.991 -1.0209  1.7996 -0.1209
 1605SOL     OW16273   2.621   0.854   6.707  0.1924 -0.0768 -0.4387
 1605SOL    HW116274   2.641   0.838   6.799  3.5802 -1.3640 -1.3921
 1605SOL    HW216275   2.707   0.883   6.674 -0.9128  1.9746 -1.5220
 1606SOL     OW16276   4.490   3.600   1.792  0.2633 -0.4165 -0.1501
 1606SOL    HW116277   4.453   3.626   1.708  0.2378 -0.7384 -0.2400
 1606SOL    HW216278   4.585   3.589   1.789  0.2646  0.4253 -3.6342
 1607SOL     OW16279   3.052   2.480   3.464 -0.1516 -0.5647  0.5151
 1607SOL    HW116280   3.057   2.542   3.391 -1.3907 -3.4327 -2.0295
 1607SOL    HW216281   3.121   2.513   3.521 -0.6801 -1.3865  1.6231
 1608SOL     OW16282   3.722   2.142   5.746 -0.2638  0.4416  0.1545
 1608SOL    HW116283   3.655   2.077   5.767 -0.4833  1.3762  2.2745
 1608SOL    HW216284   3.782   2.139   5.820 -0.0384  1.3846  0.0136
 1609SOL     OW16285   0.569   2.614   2.690  0.9945 -0.4619 -0.2350
 1609SOL    HW116286   0.603   2.592   2.604  0.6456  1.5824 -0.9038
 1609SOL    HW216287   0.477   2.611   2.662  0.9568 -0.4559 -0.1128
 1610SOL     OW16288   3.902   1.881   8.534 -0.5825 -0.2582  0.5317
 1610SOL    HW116289   3.983   1.844   8.497  0.1298  1.7275  0.1222
 1610SOL    HW216290   3.861   1.920   8.457 -0.0993  1.6576  1.2512
 1611SOL     OW16291   1.606   1.894   4.475  0.2426  0.1569 -0.8545
 1611SOL    HW116292   1.660   1.825   4.435  0.1793  0.7287 -1.9164
 1611SOL    HW216293   1.668   1.967   4.472 -0.8155  1.0918  0.1925
 1612SOL     OW16294   0.047   1.010   8.220 -0.1761 -0.8479  0.0314
 1612SOL    HW116295   4.688   1.007   8.268  0.5068 -1.5318  1.1739
 1612SOL    HW216296   0.046   0.935   8.161  1.1563  0.7239 -1.9702
 1613SOL     OW16297   3.660   0.667   4.276  0.6598 -0.5168 -0.0888
 1613SOL    HW116298   3.605   0.671   4.197 -1.0790 -0.0156  1.1623
 1613SOL    HW216299   3.747   0.662   4.236  0.7208 -2.0859  0.2405
 1614SOL     OW16300   0.536   2.987   0.733  0.2367 -0.1649  0.2626
 1614SOL    HW116301   0.452   3.006   0.774 -0.5224  1.6481 -2.1353
 1614SOL    HW216302   0.558   3.072   0.695 -0.1961 -0.5196 -0.7786
 1615SOL     OW16303   0.533   2.853   3.414 -0.0155  0.2164  0.3718
 1615SOL    HW116304   0.610   2.874   3.362 -0.1337 -0.2465  0.0024
 1615SOL    HW216305   0.469   2.840   3.344  0.1262  0.9425  0.1066
 1616SOL     OW16306   3.612   4.493   1.202 -0.4249 -0.0007 -0.3786
 1616SOL    HW116307   3.574   4.413   1.237  0.7964  0.5667  2.2377
 1616SOL    HW216308   3.613   4.487   1.106  0.5080 -3.1503 -0.1661
 1617SOL     OW16309   3.911   3.425   2.915 -0.5440  0.2148  0.0980
 1617SOL    HW116310   3.866   3.397   2.835  2.4768  0.7950 -1.8108
 1617SOL    HW216311   3.997   3.437   2.875  0.4239 -0.8851  1.8355
 1618SOL     OW16312   2.247   2.226   9.037  0.8243  0.3605  0.1639
 1618SOL    HW116313   2.271   2.252   8.948 -2.4844 -0.3657 -0.9135
 1618SOL    HW216314   2.183   2.295   9.055 -0.3052  0.1784 -3.2688
 1619SOL     OW16315   0.469   0.863  12.105  0.0084 -0.7490 -0.3481
 1619SOL    HW116316   0.458   0.771  12.080 -0.8136 -0.2627 -1.7879
 1619SOL    HW216317   0.382   0.879  12.142  0.2648 -1.2067  0.4589
 1620SOL     OW16318   0.577   2.455   7.523  0.4262  0.5192  0.0738
 1620SOL    HW116319   0.532   2.517   7.580  0.8266  0.8182  0.0602
 1620SOL    HW216320   0.591   2.381   7.583  1.6284 -0.3785 -1.3108
 1621SOL     OW16321   2.624   3.268  16.047  0.2436 -0.0423 -0.0315
 1621SOL    HW116322   2.683   3.195  16.063 -0.7097 -0.2190  2.6354
 1621SOL    HW216323   2.542   3.220  16.052 -0.8549  1.7601 -0.8195
 1622SOL     OW16324   2.163   4.044  10.614  0.1550 -0.0466 -0.2286
 1622SOL    HW116325   2.076   4.069  10.583  0.0142  1.3755  1.3067
 1622SOL    HW216326   2.220   4.115  10.582 -2.5849  2.3492  0.1530
 1623SOL     OW16327   3.748   3.015   2.187  0.0536  0.1512  0.2412
 1623SOL    HW116328   3.768   2.922   2.175  0.3263  0.0994  1.0502
 1623SOL    HW216329   3.693   3.034   2.112 -3.1828 -2.2822  2.0206
 1624SOL     OW16330   0.439   3.930  12.063 -0.9640 -0.1348 -0.7316
 1624SOL    HW116331   0.366   3.964  12.011 -1.0085 -1.7007 -1.6972
 1624SOL    HW216332   0.396   3.912  12.146  2.7835 -0.4433  1.1116
 1625SOL     OW16333   2.400   0.289   3.746  0.6880  0.1820 -0.1333
 1625SOL    HW116334   2.360   0.234   3.679  0.4914  1.4264 -1.0473
 1625SOL    HW216335   2.395   0.375   3.704 -1.5630 -1.5338 -3.3801
 1626SOL     OW16336   1.066   3.271  15.587 -0.1533 -0.2659  0.0740
 1626SOL    HW116337   1.064   3.357  15.544  2.3709 -0.8013 -1.1162
 1626SOL    HW216338   1.124   3.224  15.527 -0.7373  0.2610 -0.9073
 1627SOL     OW16339   0.151   1.194   1.980  0.0571 -0.1573  0.4548
 1627SOL    HW116340   0.246   1.187   1.969 -0.3825 -2.2094 -1.9443
 1627SOL    HW216341   0.136   1.273   2.033  0.6396  0.3307 -0.1096
 1628SOL     OW16342   1.088   3.297   9.953 -0.5698  0.0363  0.1974
 1628SOL    HW116343   1.038   3.368   9.993 -2.3605 -0.1562 -1.6579
 1628SOL    HW216344   1.139   3.337   9.883  1.0215  1.8649  2.4198
 1629SOL     OW16345   1.999   3.677   6.324  0.2077 -0.0785 -0.6652
 1629SOL    HW116346   2.061   3.625   6.375  0.9599  0.4125 -1.0699
 1629SOL    HW216347   1.974   3.612   6.259  2.0689  1.9185 -3.4151
 1630SOL     OW16348   3.467   2.450   6.193  0.3168  0.5347  0.0858
 1630SOL    HW116349   3.430   2.367   6.162 -0.3261  0.9268 -0.1992
 1630SOL    HW216350   3.538   2.428   6.254  1.1111 -4.7804 -2.7034
 1631SOL     OW16351   3.889   4.042   3.942 -0.4059 -0.1045  0.1776
 1631SOL    HW116352   3.849   3.959   3.969 -0.5053 -0.6050 -1.5042
 1631SOL    HW216353   3.918   4.018   3.854 -0.9446  0.8984 -0.2716
 1632SOL     OW16354   0.024   0.550  13.589 -0.2437 -0.4908  0.0788
 1632SOL    HW116355   0.025   0.587  13.678 -0.5033 -1.2001  0.3772
 1632SOL    HW216356   4.705   0.465  13.597 -2.2494  0.6500  1.7107
 1633SOL     OW16357   1.143   2.039   7.570  0.0804 -0.0589 -0.3570
 1633SOL    HW116358   1.196   1.960   7.565 -0.5464 -0.5754  1.3690
 1633SOL    HW216359   1.170   2.078   7.653 -2.0493  1.2026 -0.2526
 1634SOL     OW16360   2.049   4.170   9.103  0.3599  0.1421  0.1897
 1634SOL    HW116361   2.102   4.091   9.097  2.3874  1.4456  0.8953
 1634SOL    HW216362   1.972   4.155   9.048 -0.2791  0.2080  1.0646
 1635SOL     OW16363   3.535   1.625  16.949  0.2101  0.2161 -0.1032
 1635SOL    HW116364   3.628   1.608  16.938  0.2090 -0.2410  0.6552
 1635SOL    HW216365   3.552   1.693  17.014 -1.3022  0.4304  0.0749
 1636SOL     OW16366   4.295   0.553   8.170 -0.3529 -0.0447  0.4044
 1636SOL    HW116367   4.333   0.537   8.083 -0.2201 -0.1401  0.4816
 1636SOL    HW216368   4.252   0.468   8.184  2.1341 -1.0473  1.9745
 1637SOL     OW16369   3.428   0.390   2.081  0.1652  0.5306 -0.0506
 1637SOL    HW116370   3.373   0.435   2.016 -1.3176 -1.1654 -0.0014
 1637SOL    HW216371   3.371   0.317   2.106  0.8796  0.2011  0.6217
 1638SOL     OW16372   3.871   2.520  13.906  0.5104  0.2971  0.2142
 1638SOL    HW116373   3.810   2.447  13.910  1.7408 -0.6941  1.2112
 1638SOL    HW216374   3.943   2.489  13.852 -0.9101 -1.4358 -0.6821
 1639SOL     OW16375   1.046   2.522  16.016 -0.3754  0.5733 -0.2934
 1639SOL    HW116376   1.076   2.438  15.981  1.8627  0.6856  1.3733
 1639SOL    HW216377   1.082   2.525  16.104  0.2371  2.3361 -0.6043
 1640SOL     OW16378   1.738   0.772  15.306  0.5029 -0.2267 -0.8596
 1640SOL    HW116379   1.796   0.704  15.340 -0.2168 -0.3988  0.0272
 1640SOL    HW216380   1.666   0.758  15.367  0.8671  0.7318 -0.1951
 1641SOL     OW16381   3.294   0.007   9.699  0.1461 -0.4415  0.1376
 1641SOL    HW116382   3.243   4.662   9.740 -2.0425  1.0292 -0.0678
 1641SOL    HW216383   3.371   0.014   9.756 -1.0793 -0.0076  1.7478
 1642SOL     OW16384   1.870   1.825   9.453  0.4239 -0.3528 -0.5054
 1642SOL    HW116385   1.904   1.875   9.527 -0.0992 -0.9662  0.1536
 1642SOL    HW216386   1.774   1.835   9.457  0.0429 -3.6738 -1.3239
 1643SOL     OW16387   0.850   0.898   5.915  0.1317 -0.3864  0.2245
 1643SOL    HW116388   0.874   0.940   5.998 -0.5309  0.6081 -0.0953
 1643SOL    HW216389   0.857   0.805   5.936  0.8378 -0.1042  1.2700
 1644SOL     OW16390   3.343   4.223   7.647  0.1125 -0.1298 -0.1577
 1644SOL    HW116391   3.411   4.239   7.581  1.2484  0.5721  1.1950
 1644SOL    HW216392   3.351   4.132   7.677 -0.3873 -0.4766 -1.0766
 1645SOL     OW16393   0.237   4.314   7.283 -0.0843 -0.1926 -0.0231
 1645SOL    HW116394   0.228   4.244   7.347 -1.9089  1.7327  1.8313
 1645SOL    HW216395   0.328   4.307   7.253 -0.0149 -0.1289  0.1699
 1646SOL     OW16396   4.324   3.367   8.543 -0.0325 -0.2060 -0.0990
 1646SOL    HW116397   4.268   3.434   8.583  0.6373 -1.6815  3.3548
 1646SOL    HW216398   4.270   3.289   8.558  1.0759 -0.9453  0.0811
 1647SOL     OW16399   3.928   1.837  12.073  0.3660  0.1326  0.0799
 1647SOL    HW116400   3.882   1.908  12.028 -0.8803 -0.5408  0.2952
 1647SOL    HW216401   4.021   1.844  12.051  0.0210  0.6244 -1.2457
 1648SOL     OW16402   0.962   0.335   4.023  0.2553  0.0361 -0.1429
 1648SOL    HW116403   0.989   0.414   3.976  0.6968 -0.2425 -0.3577
 1648SOL    HW216404   0.874   0.363   4.048 -0.3100 -1.5427 -0.3629
 1649SOL     OW16405   2.892   2.146   6.689  0.0250 -0.4076 -0.0555
 1649SOL    HW116406   2.859   2.153   6.600 -0.2321  1.2294  0.1641
 1649SOL    HW216407   2.866   2.065   6.733 -2.1394 -0.3568 -1.2141
 1650SOL     OW16408   0.802   0.151   8.292  0.3877  0.2874  0.2139
 1650SOL    HW116409   0.765   0.063   8.282  0.8665  0.2350 -1.1052
 1650SOL    HW216410   0.755   0.199   8.224  3.5550  0.7258 -1.6935
 1651SOL     OW16411   1.700   2.283   6.481 -0.1389 -0.4705  0.3380
 1651SOL    HW116412   1.716   2.217   6.549  1.7659  0.0192  0.3641
 1651SOL    HW216413   1.787   2.305   6.450 -0.6700 -0.7605 -1.3315
 1652SOL     OW16414   0.373   3.710  11.824  0.1232  0.3190  0.5148
 1652SOL    HW116415   0.464   3.739  11.816  0.8834 -2.4583 -0.6574
 1652SOL    HW216416   0.374   3.646  11.895  0.0235 -2.0699 -1.6555
 1653SOL     OW16417   3.164   0.539  12.322  0.1862 -0.7692 -0.0083
 1653SOL    HW116418   3.141   0.551  12.230  1.7145 -1.2986 -0.4642
 1653SOL    HW216419   3.082   0.513  12.365  1.7307 -3.8079  1.1065
 1654SOL     OW16420   4.021   1.286   6.386 -0.4888  0.6146 -0.2355
 1654SOL    HW116421   4.107   1.307   6.350  0.0423  0.8188  1.1582
 1654SOL    HW216422   3.968   1.331   6.320 -0.0472  3.5564  1.4303
 1655SOL     OW16423   2.089   3.654   7.314  0.1270 -0.2698  0.0501
 1655SOL    HW116424   2.177   3.618   7.303 -0.1699 -0.9727 -0.0717
 1655SOL    HW216425   2.099   3.748   7.301  3.3358 -0.4519  1.3590
 1656SOL     OW16426   0.538   0.581   9.061 -0.7630  0.4576  0.1992
 1656SOL    HW116427   0.471   0.596   8.995  0.5838 -1.9515 -1.6946
 1656SOL    HW216428   0.605   0.528   9.017 -0.0977  0.3780  1.3111
 1657SOL     OW16429   1.833   3.439  15.252 -0.1217  0.0184  0.3171
 1657SOL    HW116430   1.852   3.491  15.175 -2.1877  2.1232  1.2392
 1657SOL    HW216431   1.899   3.373  15.231 -1.8809 -1.7838  0.3604
 1658SOL     OW16432   1.415   3.472   4.631 -0.2534 -0.4983  0.1016
 1658SOL    HW116433   1.326   3.506   4.629 -0.5641 -1.2650  0.8152
 1658SOL    HW216434   1.462   3.549   4.599 -0.3732  0.0850  1.3456
 1659SOL     OW16435   0.717   1.891   4.991 -0.5845 -0.0447 -0.0924
 1659SOL    HW116436   0.623   1.873   4.984 -0.0845 -2.2143 -0.9564
 1659SOL    HW216437   0.757   1.817   4.946 -2.2148  0.7600 -2.8370
 1660SOL     OW16438   1.148   2.933   1.456  0.3948 -0.0166  0.1375
 1660SOL    HW116439   1.064   2.897   1.487  0.0988 -0.1211 -0.7791
 1660SOL    HW216440   1.117   3.018   1.426 -0.8785 -1.2256 -1.9894
 1661SOL     OW16441   1.754   2.309  17.363  0.4775  0.6294 -0.4462
 1661SOL    HW116442   1.743   2.372  17.293 -1.9377  1.1206  0.3791
 1661SOL    HW216443   1.807   2.239  17.325  0.1150  0.9283 -1.4748
 1662SOL     OW16444   2.887   0.727   3.893 -0.3319 -0.1240  0.3819
 1662SOL    HW116445   2.874   0.769   3.808 -3.3139 -0.0352  0.8791
 1662SOL    HW216446   2.967   0.677   3.877 -0.4194  0.1205 -0.7997
 1663SOL     OW16447   2.521   3.843   8.772 -0.2242 -0.0897 -0.3676
 1663SOL    HW116448   2.525   3.770   8.710  0.8113  0.8518 -1.4018
 1663SOL    HW216449   2.429   3.865   8.758  0.1978  1.8807 -0.0879
 1664SOL     OW16450   2.368   2.556   4.944 -0.0865 -0.1931  0.0892
 1664SOL    HW116451   2.324   2.499   4.882  1.5199  1.4651 -2.5793
 1664SOL    HW216452   2.356   2.499   5.020  0.3780 -1.6190 -0.9099
 1665SOL     OW16453   4.651   4.118   6.015 -0.0132  0.0776  0.2948
 1665SOL    HW116454   4.711   4.044   6.009  0.2915  0.2149  1.6347
 1665SOL    HW216455   4.706   4.182   5.969  2.0010 -0.7626  1.5394
 1666SOL     OW16456   0.288   1.038   3.359  0.2699  0.0269  0.0004
 1666SOL    HW116457   0.360   1.002   3.411  0.6554 -1.1306 -1.3352
 1666SOL    HW216458   0.292   0.971   3.290 -1.3768 -1.3132  1.2132
 1667SOL     OW16459   1.571   4.287   6.174 -0.1290  0.0840 -0.4678
 1667SOL    HW116460   1.648   4.243   6.137 -0.0245  0.8590 -1.1672
 1667SOL    HW216461   1.587   4.276   6.268 -2.4865  1.3130  0.0661
 1668SOL     OW16462   2.863   0.209   0.650 -0.1044  0.1559 -0.0167
 1668SOL    HW116463   2.790   0.244   0.700 -0.9495  0.3151 -1.3803
 1668SOL    HW216464   2.855   0.115   0.660  0.8656  0.2152  1.3282
 1669SOL     OW16465   2.928   3.816   7.227  0.4159  0.0964  0.1528
 1669SOL    HW116466   2.882   3.870   7.162  0.8068  0.0412 -0.1719
 1669SOL    HW216467   2.901   3.863   7.306  0.2946 -0.3698  0.3844
 1670SOL     OW16468   0.459   3.564   4.549 -0.4980  0.5509  0.6305
 1670SOL    HW116469   0.491   3.651   4.572  1.2096  0.7584 -2.5682
 1670SOL    HW216470   0.510   3.556   4.469  1.3093 -0.7770  1.9227
 1671SOL     OW16471   0.178   1.669   0.989  0.3319  0.1198 -0.5682
 1671SOL    HW116472   0.208   1.682   0.898  0.0796  1.3828 -0.4768
 1671SOL    HW216473   0.135   1.754   0.998  2.8206  1.3736 -0.4740
 1672SOL     OW16474   3.769   0.266   2.773 -0.3312  0.0211  0.3481
 1672SOL    HW116475   3.855   0.303   2.795 -0.9359  0.4451  1.9169
 1672SOL    HW216476   3.718   0.343   2.748 -2.7898 -1.6904  0.1019
 1673SOL     OW16477   4.164   1.774   5.183 -0.2831 -0.6184  0.4875
 1673SOL    HW116478   4.240   1.744   5.232  1.5261  1.0917 -1.2893
 1673SOL    HW216479   4.209   1.836   5.125  0.3893  0.4323  2.1400
 1674SOL     OW16480   2.668   0.432   6.726 -0.1269  0.0376  0.1037
 1674SOL    HW116481   2.746   0.477   6.694 -0.2418 -0.3672 -0.7326
 1674SOL    HW216482   2.600   0.500   6.735 -0.1032  0.1403 -0.5076
 1675SOL     OW16483   0.781   2.517   9.152  0.0627 -0.1183 -0.4215
 1675SOL    HW116484   0.871   2.545   9.170 -0.3599  0.1165  1.3630
 1675SOL    HW216485   0.766   2.488   9.242 -0.4615  0.3387 -0.3611
 1676SOL     OW16486   0.693   2.128   4.834  0.6544  0.2438  0.0555
 1676SOL    HW116487   0.715   2.049   4.884 -0.1819  0.3928  0.6599
 1676SOL    HW216488   0.678   2.095   4.746 -1.0513  1.6864 -0.1890
 1677SOL     OW16489   1.928   3.385  17.310 -0.0880  0.6721 -0.6992
 1677SOL    HW116490   1.845   3.427  17.288  0.1107  1.6563  0.4057
 1677SOL    HW216491   1.960   3.361  17.223 -1.2383  1.5671 -1.3659
 1678SOL     OW16492   2.085   4.094  11.141  0.0630  0.1773  0.1188
 1678SOL    HW116493   2.029   4.101  11.218  0.5806  0.1761  0.4922
 1678SOL    HW216494   2.081   3.998  11.139 -2.1070  0.2244  1.2610
 1679SOL     OW16495   1.242   4.612  12.310 -0.1225 -0.2703 -0.1884
 1679SOL    HW116496   1.215   4.631  12.400  1.2135 -0.5299  0.2711
 1679SOL    HW216497   1.162   4.577  12.271 -0.5346 -1.5874  1.8261
 1680SOL     OW16498   2.711   1.545  15.786  0.1136 -0.1298  0.5195
 1680SOL    HW116499   2.695   1.527  15.879 -0.6064  0.9285  0.6058
 1680SOL    HW216500   2.652   1.619  15.774 -1.0353 -0.8725  1.5583
 1681SOL     OW16501   3.911   4.489   4.399 -0.5933  0.4740 -0.1100
 1681SOL    HW116502   3.967   4.461   4.327 -0.9350  1.1379 -0.6360
 1681SOL    HW216503   3.953   4.466   4.482 -2.5466 -0.9545  0.5071
 1682SOL     OW16504   0.922   2.167   4.593 -0.4967 -0.0493  0.1058
 1682SOL    HW116505   0.988   2.195   4.529 -0.7287  0.3100  0.0316
 1682SOL    HW216506   0.965   2.185   4.676  0.9100  1.2811 -0.9039
 1683SOL     OW16507   2.811   1.125   2.944  0.3261  0.4692  0.3244
 1683SOL    HW116508   2.855   1.184   3.005  1.6761 -0.2525  0.0561
 1683SOL    HW216509   2.874   1.053   2.942  0.1950  0.3037  2.5928
 1684SOL     OW16510   4.667   0.819   0.317  0.4940  0.8336  0.1677
 1684SOL    HW116511   4.672   0.772   0.400  3.1022 -0.6592 -0.8628
 1684SOL    HW216512   4.585   0.779   0.288  0.2279  0.9976  0.7020
 1685SOL     OW16513   1.216   2.168   4.490 -0.2374  0.1477 -0.9543
 1685SOL    HW116514   1.277   2.241   4.483 -0.5243  0.3816 -1.0057
 1685SOL    HW216515   1.172   2.162   4.406  1.0982  2.5230 -1.8137
 1686SOL     OW16516   2.830   4.374  17.504  0.4080  0.2106 -0.2591
 1686SOL    HW116517   2.759   4.319  17.537  0.4061 -0.2498 -1.0266
 1686SOL    HW216518   2.801   4.462  17.528 -0.6834 -0.3649  0.5237
 1687SOL     OW16519   1.225   1.739   6.745  0.1766 -0.6759 -0.2960
 1687SOL    HW116520   1.189   1.651   6.755 -2.3166  0.6337  2.4628
 1687SOL    HW216521   1.150   1.798   6.758  0.4920  0.0296 -1.7122
 1688SOL     OW16522   1.618   4.119   4.671 -0.0259 -0.3447 -0.5254
 1688SOL    HW116523   1.551   4.090   4.610  1.1350 -0.6531 -1.6604
 1688SOL    HW216524   1.652   4.035   4.702  1.3740  0.1444 -0.7282
 1689SOL     OW16525   3.748   4.393  12.220  0.2879  0.2529  0.0291
 1689SOL    HW116526   3.774   4.308  12.185 -2.2906 -0.8449  0.7852
 1689SOL    HW216527   3.728   4.428  12.133  0.2616  2.1188  0.7862
 1690SOL     OW16528   3.978   4.171   6.819  0.3188  0.1564  0.1333
 1690SOL    HW116529   3.966   4.104   6.752 -2.0297  0.5482  0.1464
 1690SOL    HW216530   4.073   4.164   6.823  0.4264  0.0660 -2.5568
 1691SOL     OW16531   3.411   2.359   3.259 -0.7093 -0.1534  0.1430
 1691SOL    HW116532   3.397   2.399   3.345  0.6140  1.7128 -0.5149
 1691SOL    HW216533   3.486   2.304   3.282 -0.8418 -0.2968  0.2374
 1692SOL     OW16534   1.088   2.168  14.592  0.8006  0.5751 -0.1378
 1692SOL    HW116535   1.072   2.075  14.574 -0.5865  0.4176  1.8029
 1692SOL    HW216536   1.105   2.151  14.685  1.3089  1.6795 -0.0304
 1693SOL     OW16537   2.144   0.309   1.538 -0.2583  0.4691  0.3212
 1693SOL    HW116538   2.130   0.227   1.492 -0.0849 -1.2723  3.4122
 1693SOL    HW216539   2.121   0.297   1.630  2.9877 -2.0011  0.8229
 1694SOL     OW16540   4.002   0.051  10.316  0.1978  0.1431  0.2552
 1694SOL    HW116541   3.967   4.708  10.375 -1.8471  2.2944  1.4901
 1694SOL    HW216542   3.937   0.053  10.246  0.5413  0.6989 -0.0460
 1695SOL     OW16543   2.530   4.654   5.293  0.3580  0.5376 -0.0974
 1695SOL    HW116544   2.537   4.575   5.241  1.4212 -0.5435  1.6845
 1695SOL    HW216545   2.443   4.650   5.334 -0.2138 -2.6534 -1.6038
 1696SOL     OW16546   3.866   0.294   8.349 -0.1369 -0.4264  0.1506
 1696SOL    HW116547   3.867   0.369   8.408  0.8965 -0.8943  0.7365
 1696SOL    HW216548   3.773   0.276   8.359  0.7204 -4.1032  1.7382
 1697SOL     OW16549   2.657   0.956  16.017  0.3845 -0.5073 -0.2416
 1697SOL    HW116550   2.587   0.944  15.953 -0.0929 -1.5319  0.4741
 1697SOL    HW216551   2.709   1.027  15.979 -0.4770 -0.9252 -2.2007
 1698SOL     OW16552   1.158   2.548  14.390 -0.1900 -0.0629 -0.5254
 1698SOL    HW116553   1.249   2.527  14.371 -0.9779 -1.1345 -3.0798
 1698SOL    HW216554   1.165   2.623  14.449 -1.2895 -1.0110  0.8181
 1699SOL     OW16555   0.900   2.406   2.667  0.3158  0.1684 -0.0045
 1699SOL    HW116556   0.875   2.399   2.575 -0.5572 -2.5321  0.4323
 1699SOL    HW216557   0.877   2.498   2.682 -0.9270  0.0677 -1.3750
 1700SOL     OW16558   2.941   2.781   5.688 -0.0785  0.2160 -0.1351
 1700SOL    HW116559   3.017   2.740   5.647 -0.3625 -0.5954  0.1287
 1700SOL    HW216560   2.876   2.713   5.668  1.8364 -1.2076 -1.5692
 1701SOL     OW16561   3.984   1.412   3.987 -0.0347 -1.0334 -0.2993
 1701SOL    HW116562   3.974   1.478   4.055 -0.8599 -3.1465  1.6344
 1701SOL    HW216563   4.036   1.452   3.918  2.8236 -1.0397  1.8698
 1702SOL     OW16564   0.585   4.358   6.430  0.2973 -0.1246 -0.1884
 1702SOL    HW116565   0.564   4.271   6.396 -1.5631 -0.0529  0.7631
 1702SOL    HW216566   0.592   4.404   6.347 -0.0150  0.3446  0.0442
 1703SOL     OW16567   4.054   3.280   7.715 -0.0858 -0.3561 -0.5715
 1703SOL    HW116568   4.135   3.263   7.763 -0.5021  0.9444  0.6117
 1703SOL    HW216569   4.096   3.295   7.631 -0.7704 -1.8343 -1.1658
 1704SOL     OW16570   1.001   0.942  17.011  0.0624  0.6500  0.2117
 1704SOL    HW116571   1.096   0.936  17.005  0.0634 -0.8124  1.6633
 1704SOL    HW216572   0.985   0.859  17.057 -0.0368  0.4976 -0.0994
 1705SOL     OW16573   0.759   4.212   5.526  0.2850  0.8018 -0.3874
 1705SOL    HW116574   0.812   4.133   5.538 -3.7944 -1.8339  0.3704
 1705SOL    HW216575   0.813   4.263   5.587  2.3264 -1.1791 -0.5522
 1706SOL     OW16576   1.449   2.578  14.165  0.5109  0.6453 -0.1416
 1706SOL    HW116577   1.389   2.509  14.137  1.0862  0.3105 -0.5498
 1706SOL    HW216578   1.438   2.570  14.260  1.8961 -0.9449 -0.1095
 1707SOL     OW16579   2.030   0.906  15.699  0.0466  0.4726 -1.0608
 1707SOL    HW116580   2.092   0.839  15.671 -0.9754 -0.2867 -1.4880
 1707SOL    HW216581   1.987   0.934  15.618 -1.7183 -1.0299 -0.6420
 1708SOL     OW16582   3.300   2.481   6.675  0.3816  0.5467  0.1295
 1708SOL    HW116583   3.266   2.430   6.749  0.4449  1.0002  0.4762
 1708SOL    HW216584   3.272   2.433   6.597  3.2668 -2.7754  1.1415
 1709SOL     OW16585   0.363   2.856   2.233  0.2540 -0.0839 -0.1194
 1709SOL    HW116586   0.331   2.794   2.168  1.0470 -0.1307 -0.4553
 1709SOL    HW216587   0.449   2.817   2.244  0.7330  0.4316 -2.1116
 1710SOL     OW16588   4.295   4.526  12.867 -0.3257 -0.2075 -0.1967
 1710SOL    HW116589   4.201   4.509  12.854 -0.5925  0.3520  1.0059
 1710SOL    HW216590   4.327   4.452  12.815  0.4647 -1.1319  1.6116
 1711SOL     OW16591   3.547   2.033   4.875 -0.3457  0.5357  0.0867
 1711SOL    HW116592   3.482   2.081   4.927  0.0355 -1.0006  1.9977
 1711SOL    HW216593   3.620   2.092   4.894  1.3746 -1.8496  0.9313
 1712SOL     OW16594   0.156   2.750   2.701 -0.2740  0.2364 -0.3004
 1712SOL    HW116595   0.133   2.811   2.631 -0.2420  0.5480 -0.0377
 1712SOL    HW216596   0.112   2.796   2.773 -0.5972  0.1251 -0.4264
 1713SOL     OW16597   1.984   2.728   3.603  0.0554  0.1207 -0.3809
 1713SOL    HW116598   1.907   2.784   3.612 -2.0106 -2.9148  0.9944
 1713SOL    HW216599   2.043   2.800   3.580  0.4202  0.4489  1.5995
 1714SOL     OW16600   4.081   2.106   9.364  0.0471  0.4055  0.0478
 1714SOL    HW116601   3.999   2.155   9.361 -0.1055  0.0959 -1.0332
 1714SOL    HW216602   4.112   2.143   9.447 -1.7934  1.3870  0.3053
 1715SOL     OW16603   3.244   0.049   4.123 -0.3961 -0.6982 -0.0537
 1715SOL    HW116604   3.228   4.681   4.143 -0.6924 -0.3169  1.5119
 1715SOL    HW216605   3.228   0.093   4.207 -2.8765 -0.1712 -0.8050
 1716SOL     OW16606   0.744   0.843  13.300 -0.4516  0.0659 -0.5280
 1716SOL    HW116607   0.771   0.767  13.249  0.6031 -0.7045  1.1543
 1716SOL    HW216608   0.751   0.915  13.237  1.6928 -0.5787 -1.0448
 1717SOL     OW16609   1.294   1.592   4.832 -0.1530 -0.4647 -0.5616
 1717SOL    HW116610   1.243   1.632   4.762  2.5240  0.2258 -2.1161
 1717SOL    HW216611   1.272   1.652   4.903  0.1839 -0.6338 -0.3121
 1718SOL     OW16612   0.946   3.853   3.439  0.0130 -0.3407 -0.4192
 1718SOL    HW116613   0.927   3.779   3.496 -2.2523  0.0245 -0.6969
 1718SOL    HW216614   0.946   3.815   3.351  2.0050 -4.4733  1.3824
 1719SOL     OW16615   0.764   0.949  13.558 -0.1633 -0.2832 -0.0586
 1719SOL    HW116616   0.758   0.902  13.475 -1.5597 -1.5031  0.7365
 1719SOL    HW216617   0.718   0.881  13.606  0.5741 -1.8055 -1.5195
 1720SOL     OW16618   0.969   1.863   5.899  0.0847 -0.0196  0.1470
 1720SOL    HW116619   0.887   1.855   5.851 -1.3836 -0.5785  2.7258
 1720SOL    HW216620   0.944   1.926   5.967  0.6986  0.4577 -0.0699
 1721SOL     OW16621   0.333   0.045   5.666  0.6894 -0.5707 -0.4481
 1721SOL    HW116622   0.423   0.060   5.635 -0.1290  1.9848 -1.6060
 1721SOL    HW216623   0.286   0.119   5.628 -1.9422 -1.7636  0.5009
 1722SOL     OW16624   1.912   1.946   3.193 -0.0435 -0.4601 -0.0094
 1722SOL    HW116625   1.942   1.984   3.276  0.4143 -1.4866  0.2944
 1722SOL    HW216626   1.922   2.018   3.130 -0.2966  1.3015  1.9889
 1723SOL     OW16627   4.009   4.438   7.907 -0.1724  0.4659 -0.4190
 1723SOL    HW116628   4.036   4.509   7.848  1.2311 -0.4834 -0.9103
 1723SOL    HW216629   4.056   4.474   7.982  1.8040  3.2355 -2.9741
 1724SOL     OW16630   0.001   2.084   5.728  0.0937  0.2427  0.6025
 1724SOL    HW116631   4.644   2.032   5.727 -0.5810  1.2992  1.3047
 1724SOL    HW216632   4.687   2.171   5.734 -1.3160 -0.4107  0.9920
 1725SOL     OW16633   2.962   0.049   2.619  0.0368 -0.5345 -0.4231
 1725SOL    HW116634   2.947   0.134   2.662  0.0626  0.0657 -1.6123
 1725SOL    HW216635   2.900   4.716   2.665 -0.2227 -0.7011 -0.9815
 1726SOL     OW16636   2.037   1.403  12.068  0.1387  0.1319 -0.1075
 1726SOL    HW116637   1.981   1.432  11.995  1.6018 -0.3569 -1.4246
 1726SOL    HW216638   2.121   1.424  12.028  0.0169  1.4679  0.3433
 1727SOL     OW16639   1.196   0.121   0.850  0.0683 -0.3525  0.1451
 1727SOL    HW116640   1.272   0.127   0.792 -0.1380 -1.1483 -0.2128
 1727SOL    HW216641   1.147   0.053   0.804  0.1606 -1.0971  1.1570
 1728SOL     OW16642   3.441   1.260   7.702 -0.1975  0.3796  0.5703
 1728SOL    HW116643   3.458   1.354   7.706  0.7547  0.3305 -2.0419
 1728SOL    HW216644   3.370   1.273   7.639 -0.8515  0.4459  1.3200
 1729SOL     OW16645   1.661   2.003   2.433  0.7122  0.2896  0.0015
 1729SOL    HW116646   1.648   2.084   2.482  0.7951  0.4531 -0.2481
 1729SOL    HW216647   1.580   1.995   2.382  1.2318 -1.7301 -0.4979
 1730SOL     OW16648   3.072   4.626   1.853 -0.1868  0.1627 -0.5884
 1730SOL    HW116649   3.069   4.646   1.759  0.2791  2.2760 -0.1651
 1730SOL    HW216650   3.068   4.719   1.877 -5.1680 -0.2817  0.2625
 1731SOL     OW16651   2.438   4.380   2.448 -0.3338  0.4455 -0.2402
 1731SOL    HW116652   2.390   4.390   2.366 -1.4536 -1.8888  0.1470
 1731SOL    HW216653   2.405   4.306   2.498  0.7798 -0.1548 -0.3771
 1732SOL     OW16654   2.971   1.896   8.349 -0.2371 -0.2607  0.0687
 1732SOL    HW116655   2.947   1.945   8.428  0.3622  1.6593 -0.9275
 1732SOL    HW216656   2.883   1.864   8.329 -0.3080 -0.7557  1.1912
 1733SOL     OW16657   1.623   2.730   1.811 -0.5600  0.3715 -0.1398
 1733SOL    HW116658   1.674   2.686   1.878  1.6313  1.9682 -0.7571
 1733SOL    HW216659   1.546   2.763   1.857  0.7826 -1.7259  3.5653
 1734SOL     OW16660   3.573   4.112   0.284  0.4447 -0.0277 -0.4149
 1734SOL    HW116661   3.616   4.178   0.230  0.5652 -0.1209 -0.4329
 1734SOL    HW216662   3.539   4.053   0.218 -0.1748 -0.1188 -0.0183
 1735SOL     OW16663   1.996   3.052   2.783 -0.0111  0.1663  0.3408
 1735SOL    HW116664   1.984   3.004   2.701 -0.4869 -2.3177  1.8807
 1735SOL    HW216665   2.069   3.113   2.769 -1.0534  1.6572  1.4165
 1736SOL     OW16666   0.728   4.244   1.531  0.2224 -0.0555 -0.0046
 1736SOL    HW116667   0.707   4.338   1.531  0.4806  0.0007  1.0584
 1736SOL    HW216668   0.666   4.210   1.466 -0.7120  0.6986  0.4997
 1737SOL     OW16669   2.787   3.944   6.678  0.1199 -0.4879 -0.1171
 1737SOL    HW116670   2.805   3.896   6.759 -0.8605 -0.0649  0.3451
 1737SOL    HW216671   2.822   3.883   6.613  0.7713  1.4239 -1.5410
 1738SOL     OW16672   2.118   1.257   8.812 -0.1335  0.0341  0.3747
 1738SOL    HW116673   2.077   1.343   8.813 -1.3864 -0.5642  1.4392
 1738SOL    HW216674   2.062   1.204   8.870 -0.8166 -1.0722 -1.3026
 1739SOL     OW16675   3.822   2.459   3.093 -0.6614 -0.0929 -0.3747
 1739SOL    HW116676   3.744   2.417   3.056 -0.5812 -0.7809  0.2625
 1739SOL    HW216677   3.815   2.448   3.187 -2.0512  0.5398 -0.3955
 1740SOL     OW16678   2.073   1.753   4.476  0.0113 -0.1629  0.0796
 1740SOL    HW116679   1.994   1.701   4.489  1.1677 -1.8588  0.2539
 1740SOL    HW216680   2.094   1.730   4.386 -1.6375 -1.6880  0.0909
 1741SOL     OW16681   0.377   4.207  12.728  0.1056 -0.1392  0.2730
 1741SOL    HW116682   0.317   4.225  12.801 -0.9059  1.5830 -0.9815
 1741SOL    HW216683   0.326   4.230  12.650 -2.4312  0.0620  2.0176
 1742SOL     OW16684   1.534   1.300  15.003 -0.4242  0.4745  0.5235
 1742SOL    HW116685   1.458   1.303  15.061 -0.6779 -1.8621  0.3275
 1742SOL    HW216686   1.545   1.207  14.983  2.7013  0.8713  0.3982
 1743SOL     OW16687   0.979   3.438   3.339  0.3093  0.5931  0.4064
 1743SOL    HW116688   0.962   3.497   3.267  0.5581 -1.1251 -1.0632
 1743SOL    HW216689   1.069   3.459   3.364  0.6494 -0.1171 -0.2251
 1744SOL     OW16690   0.781   0.270   5.566 -0.0546 -0.7524  0.0115
 1744SOL    HW116691   0.822   0.353   5.592  1.9294 -2.2167  1.5894
 1744SOL    HW216692   0.860   0.217   5.576  0.2020  0.1952  2.9908
 1745SOL     OW16693   0.934   3.815   7.098 -0.2117  0.2266  0.4434
 1745SOL    HW116694   0.939   3.784   7.189 -0.6872 -0.2178  0.3215
 1745SOL    HW216695   1.018   3.844   7.064 -0.2619  0.5999  0.6414
 1746SOL     OW16696   1.232   4.652   0.227  0.8787 -0.3102 -0.0675
 1746SOL    HW116697   1.284   4.603   0.291  0.4863 -1.4620 -0.6387
 1746SOL    HW216698   1.171   4.686   0.293  0.5132 -3.1220  1.0549
 1747SOL     OW16699   1.781   1.534   7.160 -0.4579  0.3631  0.3180
 1747SOL    HW116700   1.874   1.543   7.141 -0.0606  0.4952  2.3188
 1747SOL    HW216701   1.748   1.623   7.149 -1.6715 -0.2884 -1.3823
 1748SOL     OW16702   2.274   2.451  12.451  0.0523  0.5088  0.0704
 1748SOL    HW116703   2.333   2.520  12.421  0.0557  0.8378  0.8399
 1748SOL    HW216704   2.187   2.483  12.424 -0.1195 -0.4003 -0.4607
 1749SOL     OW16705   0.461   2.346  14.134 -0.3899  0.3763 -0.3476
 1749SOL    HW116706   0.460   2.440  14.155 -0.9679  0.3063 -0.0728
 1749SOL    HW216707   0.550   2.326  14.162 -0.1068  0.8849 -0.8690
 1750SOL     OW16708   3.506   3.722  14.023 -0.1553  0.3180  0.4978
 1750SOL    HW116709   3.543   3.638  14.051 -0.1677  0.7574  1.8566
 1750SOL    HW216710   3.536   3.780  14.094  1.5222  0.4957 -0.3326
 1751SOL     OW16711   1.624   2.002   2.935  0.1831  0.4210  0.0180
 1751SOL    HW116712   1.642   1.952   3.015  0.3246 -0.4906 -0.5799
 1751SOL    HW216713   1.682   1.962   2.869  2.3345 -0.5177  2.4617
 1752SOL     OW16714   3.263   1.603   8.614  0.1555 -0.0500  0.2966
 1752SOL    HW116715   3.223   1.629   8.697  1.3839  1.2689  0.4591
 1752SOL    HW216716   3.328   1.539   8.644 -0.2277 -0.2121  0.7787
 1753SOL     OW16717   3.724   2.333   7.862 -0.1758  0.3422 -0.0681
 1753SOL    HW116718   3.744   2.419   7.825  0.7564 -0.7710 -2.1166
 1753SOL    HW216719   3.751   2.344   7.954  0.5482  2.4153 -0.5303
 1754SOL     OW16720   2.184   0.712   6.632  0.1479  0.5224  0.0903
 1754SOL    HW116721   2.162   0.665   6.551  1.7221 -0.2829  0.1360
 1754SOL    HW216722   2.105   0.762   6.653 -0.8444 -0.6739 -0.7653
 1755SOL     OW16723   1.762   2.910   7.431 -0.2835  0.3109  0.3628
 1755SOL    HW116724   1.753   2.883   7.523 -1.5514 -0.8715 -0.1087
 1755SOL    HW216725   1.776   3.004   7.440  3.0602 -0.2054  0.5804
 1756SOL     OW16726   4.320   3.410  15.600  0.3144  0.0572  0.0553
 1756SOL    HW116727   4.235   3.447  15.576  0.8281  0.3420 -1.2975
 1756SOL    HW216728   4.382   3.440  15.534  0.9389  1.0765  1.1211
 1757SOL     OW16729   4.624   1.686   5.090 -0.2580 -0.6217 -0.4635
 1757SOL    HW116730   4.653   1.745   5.020  0.6151  0.3744  0.7377
 1757SOL    HW216731   4.710   1.683   5.133 -0.0454 -2.2574 -1.0018
 1758SOL     OW16732   0.833   3.452   8.948  0.1556  1.1676 -0.1235
 1758SOL    HW116733   0.783   3.534   8.937 -1.0081  0.1864 -2.0354
 1758SOL    HW216734   0.766   3.401   8.902  1.2198  1.5379 -2.0697
 1759SOL     OW16735   1.997   1.231   0.436  0.8223 -0.3422 -1.1276
 1759SOL    HW116736   1.935   1.246   0.365  0.3528 -0.9095 -0.8353
 1759SOL    HW216737   2.071   1.212   0.377  0.6822  1.0885 -1.7479
 1760SOL     OW16738   1.678   4.304   3.384 -0.3887  0.1806  0.4173
 1760SOL    HW116739   1.657   4.397   3.393  1.1093  0.7606 -2.3115
 1760SOL    HW216740   1.602   4.267   3.430 -0.4244 -0.0749  0.1471
 1761SOL     OW16741   3.295   4.434   9.958  0.3743  0.0214 -0.4876
 1761SOL    HW116742   3.373   4.483   9.932  0.9490 -0.1537  0.8972
 1761SOL    HW216743   3.229   4.487   9.913  0.6231  2.5247  2.0610
 1762SOL     OW16744   2.473   0.492   2.683  0.3188 -0.6826  0.7292
 1762SOL    HW116745   2.522   0.497   2.766  2.4345  0.4580 -0.5887
 1762SOL    HW216746   2.516   0.547   2.618 -1.8090  0.2960  0.1733
 1763SOL     OW16747   3.668   1.867   4.371  0.1946 -0.4630  0.3611
 1763SOL    HW116748   3.693   1.779   4.341 -0.6082 -0.6746  0.3017
 1763SOL    HW216749   3.706   1.871   4.458  1.8198  1.1167 -0.4397
 1764SOL     OW16750   2.632   3.089   3.832  0.0394 -0.1628  0.1382
 1764SOL    HW116751   2.664   3.171   3.795  0.0973  0.3321  1.2977
 1764SOL    HW216752   2.695   3.068   3.901 -0.7670  1.4361  1.3487
 1765SOL     OW16753   4.345   1.744   6.770 -0.1924  0.2701  0.2493
 1765SOL    HW116754   4.312   1.802   6.838  4.1128  0.8410  1.8830
 1765SOL    HW216755   4.296   1.662   6.772  3.1056 -1.7012  0.3557
 1766SOL     OW16756   3.315   2.627   9.441 -0.6041  0.1886  0.1133
 1766SOL    HW116757   3.258   2.575   9.498  0.8157  1.2100  2.4645
 1766SOL    HW216758   3.249   2.651   9.376 -1.3147 -1.3879  0.2547
 1767SOL     OW16759   2.263   0.768   6.201 -0.1610  0.3790 -0.3917
 1767SOL    HW116760   2.323   0.744   6.130  0.4454 -0.7643  0.5065
 1767SOL    HW216761   2.287   0.705   6.269  0.6449 -0.2168 -1.2277
 1768SOL     OW16762   1.572   2.474   1.749  0.1178  0.5295  0.1827
 1768SOL    HW116763   1.551   2.567   1.737 -0.3574  0.2612 -0.9909
 1768SOL    HW216764   1.513   2.445   1.818  1.2137 -0.3061  0.7671
 1769SOL     OW16765   1.353   1.740  14.442  0.3222 -0.8850 -0.1788
 1769SOL    HW116766   1.331   1.798  14.368  0.4525 -0.6660 -0.0481
 1769SOL    HW216767   1.397   1.674  14.387  2.0412  1.4154 -1.6101
 1770SOL     OW16768   3.800   0.123   4.012  0.1495  0.2611 -0.5744
 1770SOL    HW116769   3.743   0.049   3.992 -1.0863  0.5969  1.6703
 1770SOL    HW216770   3.804   0.117   4.108 -1.4800  0.4823 -0.5007
 1771SOL     OW16771   3.181   3.454  17.077  0.2153  0.1389 -0.4655
 1771SOL    HW116772   3.216   3.541  17.097 -0.0054  0.2051 -0.3763
 1771SOL    HW216773   3.262   3.402  17.078 -0.2197 -0.5660 -2.4996
 1772SOL     OW16774   3.093   0.162  12.861 -0.2224  0.0390  0.1798
 1772SOL    HW116775   3.064   0.137  12.773 -0.5501 -1.7656  0.8118
 1772SOL    HW216776   3.109   0.080  12.907  0.0771  1.1729  2.1115
 1773SOL     OW16777   2.367   2.255   3.378  0.0492 -0.8338 -0.3486
 1773SOL    HW116778   2.420   2.199   3.320  2.4268  0.2192  0.8211
 1773SOL    HW216779   2.280   2.240   3.342 -0.1505  2.5373 -1.2809
 1774SOL     OW16780   1.614   0.481  12.618 -0.6599 -0.1050 -0.2837
 1774SOL    HW116781   1.541   0.426  12.588  0.0527 -1.7658  1.0098
 1774SOL    HW216782   1.570   0.539  12.680  2.4293  1.0378  0.8397
 1775SOL     OW16783   1.114   1.407   3.231  0.2277  0.1322 -0.1012
 1775SOL    HW116784   1.155   1.384   3.148  1.0505  3.3875 -0.5765
 1775SOL    HW216785   1.038   1.348   3.232  0.8663 -0.6883  0.4877
 1776SOL     OW16786   3.305   3.772   1.636  0.0449  0.3048  0.1027
 1776SOL    HW116787   3.335   3.788   1.725  0.0457  3.6496 -0.5125
 1776SOL    HW216788   3.308   3.859   1.596 -0.8768 -0.8249 -2.4623
 1777SOL     OW16789   2.917   2.701   2.365  0.0146 -0.3777  0.5136
 1777SOL    HW116790   2.850   2.681   2.299  0.6681  0.2679 -0.3437
 1777SOL    HW216791   2.982   2.736   2.304 -1.0444  0.8826  0.1133
 1778SOL     OW16792   3.588   0.612   7.412  0.4676 -0.0232 -0.0567
 1778SOL    HW116793   3.656   0.642   7.472  1.5891 -2.2643 -0.1959
 1778SOL    HW216794   3.535   0.556   7.469  2.3575 -0.3793  1.3568
 1779SOL     OW16795   1.603   1.142   6.636  0.0566 -0.8182 -0.0416
 1779SOL    HW116796   1.691   1.140   6.596  0.1867 -1.2364  0.2685
 1779SOL    HW216797   1.578   1.051   6.622  0.4301 -0.9378  0.0491
 1780SOL     OW16798   2.647   3.421   0.135 -0.4361 -0.0704 -0.1552
 1780SOL    HW116799   2.592   3.418   0.056 -1.9786 -0.7448  0.9491
 1780SOL    HW216800   2.676   3.512   0.139  0.5059 -0.2700 -2.3968
 1781SOL     OW16801   3.147   2.332  12.755 -0.6566 -0.0984 -0.2564
 1781SOL    HW116802   3.087   2.268  12.718  0.4543 -0.9961 -0.5025
 1781SOL    HW216803   3.088   2.384  12.810 -1.1922  0.3432 -1.2473
 1782SOL     OW16804   3.901   1.058   5.444  0.7239 -0.4726  0.5713
 1782SOL    HW116805   3.862   1.094   5.523  1.1190  1.8965 -0.3238
 1782SOL    HW216806   3.963   1.129   5.428  0.6478 -1.2164 -3.1981
 1783SOL     OW16807   2.803   4.249   4.153 -0.1565  0.0408 -0.3346
 1783SOL    HW116808   2.827   4.337   4.181 -2.4960  1.6213 -3.3120
 1783SOL    HW216809   2.752   4.220   4.229 -0.5670 -1.7046 -1.2625
 1784SOL     OW16810   4.307   3.231   9.025  0.4649  0.2568  0.4280
 1784SOL    HW116811   4.316   3.233   8.930 -0.4853 -0.3426  0.3220
 1784SOL    HW216812   4.211   3.228   9.025  0.4611  0.3754  1.0889
 1785SOL     OW16813   1.955   0.598   2.258 -0.4762 -0.1482  0.8095
 1785SOL    HW116814   1.996   0.618   2.342  0.5086  2.9270 -0.3860
 1785SOL    HW216815   1.927   0.687   2.234  2.0154  0.1378 -1.1302
 1786SOL     OW16816   1.039   1.267   9.094 -0.1745 -0.0330  0.0493
 1786SOL    HW116817   1.000   1.191   9.138 -2.0252 -0.2016 -1.8688
 1786SOL    HW216818   1.081   1.294   9.175 -0.8950  1.2409 -0.0089
 1787SOL     OW16819   3.873   2.862   5.873  0.5351 -0.7519  0.2533
 1787SOL    HW116820   3.850   2.830   5.960 -1.8786  0.3054  0.0110
 1787SOL    HW216821   3.811   2.935   5.868 -0.1788 -1.4075 -0.3956
 1788SOL     OW16822   4.473   0.309  14.129 -0.2952 -0.4299  0.4824
 1788SOL    HW116823   4.531   0.380  14.103  0.5489 -1.7984 -1.3622
 1788SOL    HW216824   4.524   0.308  14.209 -0.8996 -1.7343  0.8556
 1789SOL     OW16825   4.191   4.442   1.715 -1.0200 -0.9817 -0.5088
 1789SOL    HW116826   4.143   4.465   1.636 -1.5014  1.8398  0.6309
 1789SOL    HW216827   4.184   4.346   1.718 -2.5506 -0.8307  0.7143
 1790SOL     OW16828   3.395   0.206   1.275 -0.7113 -0.4814 -0.1382
 1790SOL    HW116829   3.399   0.255   1.193 -0.9703  1.6486  1.1134
 1790SOL    HW216830   3.461   0.141   1.255  1.9058  1.8815  0.8410
 1791SOL     OW16831   3.020   0.984   7.243 -0.1324  0.6922 -0.4224
 1791SOL    HW116832   3.003   1.075   7.267  0.3016  0.8594 -0.7537
 1791SOL    HW216833   3.093   0.951   7.295 -0.4913  1.2647  0.4441
 1792SOL     OW16834   0.427   1.970  14.372  0.7182 -0.3361  0.1661
 1792SOL    HW116835   0.463   2.034  14.434  0.3346 -1.0857  1.1519
 1792SOL    HW216836   0.510   1.952  14.328 -0.2667 -3.1034 -0.5462
 1793SOL     OW16837   4.019   0.850   6.456 -0.1354  0.3023  0.4498
 1793SOL    HW116838   4.056   0.920   6.510  0.5098  0.8124 -0.6512
 1793SOL    HW216839   3.955   0.815   6.519  0.1832  1.2541  1.3110
 1794SOL     OW16840   2.422   0.781   9.561  0.5983  0.3794 -0.7217
 1794SOL    HW116841   2.457   0.705   9.608 -0.3677 -0.5803 -1.5569
 1794SOL    HW216842   2.355   0.751   9.500 -1.0214  3.4875 -0.4954
 1795SOL     OW16843   2.182   0.396   2.880 -0.4153 -0.4784 -0.3489
 1795SOL    HW116844   2.099   0.444   2.880  1.5919  2.9720 -0.0492
 1795SOL    HW216845   2.159   0.321   2.826  0.0437 -1.3175  0.6067
 1796SOL     OW16846   1.996   1.355   6.304 -0.6945 -0.3353  0.3232
 1796SOL    HW116847   1.996   1.272   6.353 -1.5055 -1.4510 -1.5837
 1796SOL    HW216848   2.089   1.355   6.280 -0.0187  2.3823  2.9539
 1797SOL     OW16849   1.434   1.217  15.667  0.1040  0.2143 -0.0292
 1797SOL    HW116850   1.410   1.299  15.712 -1.9434  0.0472 -0.8102
 1797SOL    HW216851   1.353   1.169  15.684  1.0675 -1.7885 -1.0938
 1798SOL     OW16852   4.678   3.745  15.288 -0.3638  0.0995  0.7369
 1798SOL    HW116853   0.032   3.789  15.322 -0.1631 -0.6022  1.1989
 1798SOL    HW216854   4.706   3.676  15.227  0.5334  0.1919  1.0524
 1799SOL     OW16855   1.438   2.901   4.393  0.2534 -0.3711 -0.1532
 1799SOL    HW116856   1.350   2.899   4.358  0.5708  1.4024 -1.0646
 1799SOL    HW216857   1.496   2.924   4.320  0.0620 -2.3168 -0.9115
 1800SOL     OW16858   0.284   2.838  13.128 -0.1006  0.1039  0.0224
 1800SOL    HW116859   0.313   2.798  13.211 -0.4063  0.9287  0.5295
 1800SOL    HW216860   0.260   2.922  13.167 -0.0544 -0.1465  0.6051
 1801SOL     OW16861   2.393   4.158  15.121  0.4767  0.2117 -0.0540
 1801SOL    HW116862   2.474   4.199  15.150 -0.5858  2.6440 -0.5096
 1801SOL    HW216863   2.360   4.111  15.197  0.0191  1.8524  0.7573
 1802SOL     OW16864   0.081   0.346   7.077 -0.2028 -0.3135  0.3622
 1802SOL    HW116865   0.015   0.334   7.146  0.4625 -0.3399  1.0011
 1802SOL    HW216866   0.072   0.439   7.059 -0.6213 -0.3266  0.5006
 1803SOL     OW16867   1.440   1.931   2.277 -0.1418 -0.5177  0.2126
 1803SOL    HW116868   1.466   1.841   2.297 -0.5009 -0.8005 -0.5991
 1803SOL    HW216869   1.383   1.946   2.352  0.8893 -0.4160  0.9762
 1804SOL     OW16870   0.278   2.439   3.927 -0.1003  0.3904  0.3522
 1804SOL    HW116871   0.194   2.481   3.943 -0.1682  0.7448 -0.8781
 1804SOL    HW216872   0.332   2.463   4.002  0.1211  0.9349  0.0189
 1805SOL     OW16873   3.207   0.595   6.925  0.1324 -0.3587  0.6312
 1805SOL    HW116874   3.124   0.602   6.971  0.2467  0.3104  0.7417
 1805SOL    HW216875   3.198   0.678   6.878  1.3117 -1.4066 -1.4681
 1806SOL     OW16876   2.755   4.548   7.515  0.5138  0.0108  0.1969
 1806SOL    HW116877   2.779   4.613   7.449 -0.3787  0.3601  0.2089
 1806SOL    HW216878   2.723   4.477   7.458 -0.8094 -0.5225  1.6033
 1807SOL     OW16879   1.650   1.376   3.684  0.4873  0.5878  0.5066
 1807SOL    HW116880   1.684   1.386   3.595  0.3182 -0.9402  0.2794
 1807SOL    HW216881   1.614   1.465   3.692 -0.4735  0.2213  0.1667
 1808SOL     OW16882   0.570   3.492   7.103 -0.2662 -0.1241  0.6034
 1808SOL    HW116883   0.593   3.526   7.016 -1.0857  0.4404  0.5975
 1808SOL    HW216884   0.516   3.422   7.066 -0.2626 -0.4336  1.1917
 1809SOL     OW16885   2.515   2.143   2.206  0.0429 -0.1524  0.8753
 1809SOL    HW116886   2.546   2.055   2.181 -0.2865  0.0399 -0.2060
 1809SOL    HW216887   2.421   2.142   2.192  0.2758  0.2234 -0.7015
 1810SOL     OW16888   0.158   1.380  17.137 -0.0741 -0.5389 -0.8029
 1810SOL    HW116889   0.076   1.342  17.167 -0.4099  0.7765 -0.0638
 1810SOL    HW216890   0.214   1.370  17.214 -1.4486  1.1067  0.4130
 1811SOL     OW16891   0.803   4.696   7.035 -0.6031 -0.9371  0.4125
 1811SOL    HW116892   0.801   4.603   7.013 -1.1392 -0.7629 -0.2475
 1811SOL    HW216893   0.892   4.722   7.013 -1.7243  3.0002  0.5656
 1812SOL     OW16894   1.370   2.381   4.449  0.0218  0.3682 -0.2564
 1812SOL    HW116895   1.409   2.451   4.397  1.5971 -1.6398 -1.7642
 1812SOL    HW216896   1.309   2.434   4.500 -0.5782 -0.9277  0.3655
 1813SOL     OW16897   2.339   3.147   0.922 -0.4657  0.0079  0.1104
 1813SOL    HW116898   2.431   3.168   0.905 -0.3240 -1.4120 -0.9070
 1813SOL    HW216899   2.347   3.084   0.993 -0.5023 -1.8371 -1.5066
 1814SOL     OW16900   0.669   1.877   3.967  0.7835 -0.8086  0.2150
 1814SOL    HW116901   0.625   1.941   4.023 -1.7782  0.0520 -2.8148
 1814SOL    HW216902   0.678   1.916   3.880  1.2294 -2.3377 -0.4219
 1815SOL     OW16903   0.168   4.319   8.866 -0.0532 -0.3361  0.4100
 1815SOL    HW116904   0.101   4.255   8.839 -0.2399  0.0605 -0.0643
 1815SOL    HW216905   0.156   4.321   8.961 -0.5713 -1.8190  0.3773
 1816SOL     OW16906   1.617   2.346  11.632  0.4001  0.4405 -0.2574
 1816SOL    HW116907   1.577   2.317  11.714  0.6682  0.6539 -0.0506
 1816SOL    HW216908   1.702   2.301  11.638 -0.9982 -2.1183  0.3858
 1817SOL     OW16909   1.932   2.452   2.396 -0.6872  0.3537 -0.3614
 1817SOL    HW116910   1.987   2.376   2.411 -1.0850  0.1289 -0.0397
 1817SOL    HW216911   1.905   2.471   2.486  1.7590  0.8094  0.2543
 1818SOL     OW16912   1.788   2.718   5.197 -0.4160 -0.0990  0.1520
 1818SOL    HW116913   1.806   2.635   5.242  0.1888 -0.6533 -1.1125
 1818SOL    HW216914   1.695   2.734   5.214 -0.2900 -0.3927  1.1490
 1819SOL     OW16915   2.421   0.791   7.149  0.1792 -0.5545  0.2544
 1819SOL    HW116916   2.505   0.769   7.189  1.0081  0.3600 -1.0211
 1819SOL    HW216917   2.441   0.874   7.106 -0.0813 -0.4485  0.3367
 1820SOL     OW16918   3.560   4.235   9.899 -0.4913 -0.5206 -0.0314
 1820SOL    HW116919   3.656   4.228   9.903 -0.2644  1.5940 -1.5063
 1820SOL    HW216920   3.572   4.325   9.932  0.6223 -1.1217  1.2215
 1821SOL     OW16921   2.280   1.041   6.266  0.5170  0.1104  0.0232
 1821SOL    HW116922   2.292   0.953   6.231 -1.5983  0.2678 -1.0785
 1821SOL    HW216923   2.202   1.069   6.219 -0.0791 -1.3320  0.1578
 1822SOL     OW16924   2.293   0.702  13.457 -0.0951 -0.6571  0.1849
 1822SOL    HW116925   2.307   0.609  13.474  0.7891 -0.7249 -0.8806
 1822SOL    HW216926   2.328   0.715  13.368 -0.0478  1.3834  0.5138
 1823SOL     OW16927   4.281   3.463   1.310  0.3554 -0.9554 -0.1448
 1823SOL    HW116928   4.252   3.526   1.376 -0.4778  1.0586 -2.4525
 1823SOL    HW216929   4.375   3.481   1.299  0.4544 -0.7498  1.0782
 1824SOL     OW16930   3.891   4.558   8.773 -0.1767 -0.3036 -0.4775
 1824SOL    HW116931   3.888   4.633   8.713  0.1010  0.3007  0.2627
 1824SOL    HW216932   3.939   4.599   8.845  2.4435 -0.0169 -2.4085
 1825SOL     OW16933   1.323   4.340  17.698 -0.0260  0.0832 -0.3726
 1825SOL    HW116934   1.264   4.266   0.013 -2.4851  2.0933 -0.2790
 1825SOL    HW216935   1.342   4.346  17.604 -0.4882 -0.6842 -0.5191
 1826SOL     OW16936   2.286   0.451   2.272  0.2930  0.2640  0.5506
 1826SOL    HW116937   2.217   0.393   2.240  1.4019 -1.4490  1.2702
 1826SOL    HW216938   2.257   0.458   2.363 -1.2543  1.1615 -0.0201
 1827SOL     OW16939   4.113   2.381   8.808 -0.0923 -0.3447 -0.0097
 1827SOL    HW116940   4.083   2.405   8.895 -4.7622  1.2314 -2.0890
 1827SOL    HW216941   4.201   2.419   8.800 -0.8779  1.6563  1.0387
 1828SOL     OW16942   2.370   0.491   4.013 -0.2642  0.1385 -0.2026
 1828SOL    HW116943   2.445   0.431   4.016  1.7219  2.6438 -0.1738
 1828SOL    HW216944   2.310   0.440   3.959  0.6714 -1.2127  0.0246
 1829SOL     OW16945   4.225   1.685  16.924 -0.0752  0.0259  0.0082
 1829SOL    HW116946   4.140   1.725  16.906  0.2888  0.1695 -1.3960
 1829SOL    HW216947   4.265   1.760  16.968 -0.7461  0.6051 -0.3779
 1830SOL     OW16948   2.710   0.709   5.018 -0.0050  0.2173 -0.4092
 1830SOL    HW116949   2.670   0.793   5.041  1.8931  1.0145 -0.0353
 1830SOL    HW216950   2.800   0.741   5.011 -0.7375  2.2316 -0.7074
 1831SOL     OW16951   4.189   2.149   2.336  0.1784  0.0267  0.4405
 1831SOL    HW116952   4.280   2.119   2.338 -0.3509 -1.6458 -0.4460
 1831SOL    HW216953   4.163   2.138   2.427  0.5158 -1.0794  0.4033
 1832SOL     OW16954   2.703   0.234   2.839  0.0110 -0.6903  0.1326
 1832SOL    HW116955   2.688   0.328   2.852  0.2367 -1.0920  3.3861
 1832SOL    HW216956   2.773   0.243   2.775  1.5727  0.4181  1.9929
 1833SOL     OW16957   0.128   0.870   2.145  0.0626 -0.0210  0.3031
 1833SOL    HW116958   0.035   0.895   2.138 -0.6381 -2.2251  1.7998
 1833SOL    HW216959   0.149   0.937   2.210 -3.5541  2.9646 -1.5555
 1834SOL     OW16960   1.088   0.974   8.272 -0.7390  0.1012  0.4074
 1834SOL    HW116961   1.069   0.960   8.364 -0.1510 -1.0190  0.3565
 1834SOL    HW216962   1.034   0.905   8.233 -1.8923  1.9213 -1.2328
 1835SOL     OW16963   3.966   4.683  15.115  0.6002 -0.0207 -0.1575
 1835SOL    HW116964   4.033   4.716  15.055 -0.2229  0.9884 -0.5118
 1835SOL    HW216965   3.953   4.605  15.060  1.6998  1.8629 -3.1150
 1836SOL     OW16966   3.321   2.377   7.171 -0.0156  0.5732 -0.2579
 1836SOL    HW116967   3.322   2.471   7.156 -1.6842  0.1478 -2.9492
 1836SOL    HW216968   3.308   2.335   7.086  4.3891 -1.3871  0.0107
 1837SOL     OW16969   0.381   0.987  12.684 -0.5026 -0.7834  0.5394
 1837SOL    HW116970   0.380   0.920  12.752 -0.7338 -1.4509 -0.1214
 1837SOL    HW216971   0.370   1.062  12.742 -1.5957 -0.5594  0.0401
 1838SOL     OW16972   4.245   3.001   8.071 -0.3905  0.7335  0.4582
 1838SOL    HW116973   4.316   2.998   8.136 -0.9586 -0.5020  1.0015
 1838SOL    HW216974   4.253   2.918   8.025 -1.7239  0.7470  0.2033
 1839SOL     OW16975   4.104   0.215   5.920 -0.3248  0.4276 -0.3340
 1839SOL    HW116976   4.154   0.272   5.979  0.6568 -0.5606 -0.2210
 1839SOL    HW216977   4.013   0.218   5.948 -0.3250  1.1390 -0.4160
 1840SOL     OW16978   0.661   1.844  10.052  0.0810 -0.5690  0.4585
 1840SOL    HW116979   0.594   1.912  10.062 -1.5392 -2.0883  0.0536
 1840SOL    HW216980   0.615   1.777  10.104  0.2118 -0.8075  0.2675
 1841SOL     OW16981   4.639   3.884  11.529 -0.4274 -0.5472  0.6024
 1841SOL    HW116982   4.569   3.920  11.583 -0.7850 -0.1293 -0.1385
 1841SOL    HW216983   4.714   3.898  11.586  0.2153 -0.5953 -0.2185
 1842SOL     OW16984   0.842   4.381   5.740 -0.0561 -0.0285 -0.0262
 1842SOL    HW116985   0.838   4.476   5.729 -0.4380 -0.2933 -2.1764
 1842SOL    HW216986   0.931   4.362   5.769  0.2291 -0.3537 -1.0967
 1843SOL     OW16987   3.706   1.246   1.539  0.0858 -0.4316 -0.9287
 1843SOL    HW116988   3.685   1.240   1.632  3.0777 -0.2640 -0.2521
 1843SOL    HW216989   3.651   1.174   1.509 -0.8042  1.6061 -4.1998
 1844SOL     OW16990   0.620   4.287   0.784 -0.3445 -0.7572 -0.2746
 1844SOL    HW116991   0.653   4.223   0.848 -1.0867  0.9086  1.7623
 1844SOL    HW216992   0.526   4.274   0.788 -0.1734 -1.4801  1.4788
 1845SOL     OW16993   3.621   3.607  14.875  0.1468 -0.1482 -0.6205
 1845SOL    HW116994   3.528   3.610  14.854  0.1799 -0.7714 -0.8542
 1845SOL    HW216995   3.612   3.570  14.962  0.2296  1.6670  0.1713
 1846SOL     OW16996   0.154   3.686  12.094 -0.2969 -0.0221  0.2664
 1846SOL    HW116997   0.110   3.620  12.041 -1.2283  0.9289 -0.1360
 1846SOL    HW216998   0.246   3.680  12.069 -0.9289  0.5342 -2.1925
 1847SOL     OW16999   1.245   0.289   5.983 -0.3190  0.1544 -0.6850
 1847SOL    HW117000   1.178   0.240   6.030 -1.0479  1.3719 -0.4536
 1847SOL    HW217001   1.306   0.323   6.048  0.4249 -2.8736  0.2008
 1848SOL     OW17002   2.704   0.254  13.338 -0.0564 -0.2173  0.0294
 1848SOL    HW117003   2.775   0.237  13.399  1.1447  0.2771 -1.2320
 1848SOL    HW217004   2.762   0.280  13.267  2.5116 -0.5028  2.0290
 1849SOL     OW17005   2.815   0.091  12.707 -0.1430 -0.0869  0.2015
 1849SOL    HW117006   2.860   0.139  12.638  0.5625 -0.9825  0.0453
 1849SOL    HW217007   2.803   0.005  12.668  3.2895 -1.5064  2.3009
 1850SOL     OW17008   3.853   4.466   2.709 -0.0530 -0.5828  0.4311
 1850SOL    HW117009   3.852   4.559   2.688  1.2292 -0.1852  2.1789
 1850SOL    HW217010   3.765   4.444   2.677 -0.7955  0.6735  1.6502
 1851SOL     OW17011   0.584   0.571   8.497  0.3041  0.8645 -0.4125
 1851SOL    HW117012   0.637   0.651   8.494  0.6554  0.5871 -1.9049
 1851SOL    HW217013   0.492   0.594   8.504  0.1891  0.0896  0.5987
 1852SOL     OW17014   2.090   1.942  13.153  0.0316 -0.0267  0.2560
 1852SOL    HW117015   2.103   1.944  13.248 -1.0289 -1.9508  0.4427
 1852SOL    HW217016   2.178   1.945  13.116 -0.2161  1.8279 -0.2282
 1853SOL     OW17017   1.452   4.460   5.212  0.3134  0.6918  0.3482
 1853SOL    HW117018   1.508   4.522   5.167 -0.5762  0.9773 -0.3739
 1853SOL    HW217019   1.365   4.495   5.191 -0.0714 -0.5503 -0.1887
 1854SOL     OW17020   0.688   1.206   3.648  0.1308  0.4687  0.1607
 1854SOL    HW117021   0.738   1.172   3.722 -0.0109 -0.7238 -0.2763
 1854SOL    HW217022   0.607   1.235   3.690  0.1894  3.2655 -1.6758
 1855SOL     OW17023   1.135   2.775  14.553  0.3621 -0.6745 -0.3482
 1855SOL    HW117024   1.125   2.785  14.648 -0.3439 -2.6153 -0.2145
 1855SOL    HW217025   1.046   2.798  14.527  0.7092  1.8297  0.7101
 1856SOL     OW17026   3.889   0.653   5.547  0.0564 -0.2977 -0.9330
 1856SOL    HW117027   3.824   0.693   5.489 -1.7962 -1.1941  0.5075
 1856SOL    HW217028   3.956   0.720   5.559  0.6415 -0.6257 -2.4008
 1857SOL     OW17029   0.884   2.816   1.556  0.3572  0.1626  0.2735
 1857SOL    HW117030   0.902   2.853   1.642  0.4268 -0.7905  0.6670
 1857SOL    HW217031   0.799   2.860   1.545  1.2249  1.8065  0.0541
 1858SOL     OW17032   1.039   2.899   8.117  0.4657  0.2563 -0.6696
 1858SOL    HW117033   1.099   2.889   8.191  1.5712  1.6042 -1.3695
 1858SOL    HW217034   1.104   2.905   8.046  0.2827 -0.8182 -0.9246
 1859SOL     OW17035   0.225   3.715   7.272 -0.4246  0.4317 -0.1457
 1859SOL    HW117036   0.261   3.684   7.190  0.0925  1.1372 -0.1911
 1859SOL    HW217037   0.147   3.660   7.276 -0.4848  0.2730 -3.6485
 1860SOL     OW17038   3.046   2.924  14.814  0.7734 -0.0475 -0.0300
 1860SOL    HW117039   3.114   2.979  14.853  0.9065 -1.6046  1.9966
 1860SOL    HW217040   2.995   2.995  14.776 -0.0056 -1.5561 -1.7692
 1861SOL     OW17041   1.624   2.537  12.895  0.2301  0.5620 -0.2886
 1861SOL    HW117042   1.603   2.477  12.966  0.3825  1.4277  0.4973
 1861SOL    HW217043   1.538   2.545  12.852 -0.1147 -0.3943  0.2365
 1862SOL     OW17044   2.654   2.585   2.878  0.2259  0.9796  0.8405
 1862SOL    HW117045   2.705   2.663   2.856 -0.9444  1.2142 -1.0471
 1862SOL    HW217046   2.692   2.562   2.963  0.6207  0.6809  0.5800
 1863SOL     OW17047   3.723   2.795   4.922 -0.1785 -0.4144 -0.1402
 1863SOL    HW117048   3.742   2.822   4.832  0.8917  1.7120  0.7344
 1863SOL    HW217049   3.726   2.884   4.959 -0.0093 -0.9157  1.0575
 1864SOL     OW17050   2.035   3.191   6.907  0.0752 -0.0360 -0.1610
 1864SOL    HW117051   1.960   3.150   6.949  1.1556 -1.8002  0.0567
 1864SOL    HW217052   2.104   3.179   6.972  0.0958 -1.2860 -0.4076
 1865SOL     OW17053   3.079   2.563   1.802 -0.6315  0.1376 -0.7257
 1865SOL    HW117054   3.036   2.498   1.858 -0.6194  0.9864  0.2738
 1865SOL    HW217055   3.154   2.596   1.852  0.0235 -0.6623 -1.1852
 1866SOL     OW17056   2.669   2.475  10.872  0.3567 -0.1468  0.4989
 1866SOL    HW117057   2.743   2.454  10.930 -0.8716  1.9516  2.8279
 1866SOL    HW217058   2.604   2.488  10.941  2.3150 -1.8256  2.6964
 1867SOL     OW17059   0.035   2.400   6.049  0.0954  0.3135 -0.0201
 1867SOL    HW117060   0.130   2.385   6.057  0.4261  2.6041  0.1869
 1867SOL    HW217061   0.031   2.495   6.037 -1.0561  0.0939 -1.2725
 1868SOL     OW17062   1.832   1.283   5.647 -0.1001 -0.1649 -0.1901
 1868SOL    HW117063   1.774   1.352   5.679  2.4053  2.3200 -0.9597
 1868SOL    HW217064   1.842   1.222   5.719  0.2401 -0.3497 -0.3898
 1869SOL     OW17065   3.726   1.200   2.672 -0.2518  0.0967  0.3594
 1869SOL    HW117066   3.791   1.130   2.665 -0.9919 -0.4200 -1.3162
 1869SOL    HW217067   3.758   1.273   2.620  1.2728  1.4378  3.2058
 1870SOL     OW17068   2.682   3.115   0.098  0.1981 -0.0185  0.2655
 1870SOL    HW117069   2.708   3.205   0.121  0.1304  0.5384 -1.8496
 1870SOL    HW217070   2.587   3.128   0.109 -0.0585  1.1498 -3.4228
 1871SOL     OW17071   2.590   4.316  11.869 -0.1188 -0.3445 -0.0052
 1871SOL    HW117072   2.678   4.315  11.906 -0.9465  0.9740  2.0479
 1871SOL    HW217073   2.619   4.369  11.795 -1.4070  0.8603  0.3541
 1872SOL     OW17074   4.571   0.809   2.156 -0.4488  0.5222  0.5492
 1872SOL    HW117075   4.552   0.777   2.068 -0.1820 -0.9584  1.0249
 1872SOL    HW217076   4.567   0.903   2.140  1.3556  0.8321  1.9160
 1873SOL     OW17077   4.035   2.451   0.012 -0.5660  0.0173 -0.2668
 1873SOL    HW117078   4.045   2.541  17.679  0.0416 -0.2107 -0.7385
 1873SOL    HW217079   4.029   2.397  17.631  0.5950  0.0775 -0.4067
 1874SOL     OW17080   0.841   2.639  10.877  0.1234  0.5342 -0.1764
 1874SOL    HW117081   0.903   2.637  10.950 -0.3326 -1.3813  0.1631
 1874SOL    HW217082   0.768   2.589  10.911 -0.4704  0.6716 -1.2293
 1875SOL     OW17083   0.559   3.371   4.795 -0.8077 -0.4240 -0.0448
 1875SOL    HW117084   0.596   3.363   4.707  2.9467 -0.8941  1.5778
 1875SOL    HW217085   0.481   3.425   4.788 -0.4566 -0.0723 -1.2369
 1876SOL     OW17086   2.594   3.522   3.319 -0.5853 -0.3815  0.5752
 1876SOL    HW117087   2.589   3.503   3.413  2.1511  1.9052  1.2165
 1876SOL    HW217088   2.539   3.456   3.279 -0.1281  1.0984 -2.5458
 1877SOL     OW17089   4.372   1.610   2.144  0.4384  0.2768 -0.2470
 1877SOL    HW117090   4.390   1.649   2.229  0.0329  1.3317 -0.6521
 1877SOL    HW217091   4.458   1.571   2.132  0.5944  1.1955 -2.0310
 1878SOL     OW17092   2.586   0.001  10.601  0.4233  0.1364 -0.2519
 1878SOL    HW117093   2.562   0.087  10.566 -1.8933 -0.3879  0.0702
 1878SOL    HW217094   2.650   4.693  10.538  1.1095 -1.2640  1.1376
 1879SOL     OW17095   2.788   2.414   3.338 -0.2842 -0.1734  0.6296
 1879SOL    HW117096   2.862   2.444   3.392 -1.0177  3.3656 -0.3072
 1879SOL    HW217097   2.784   2.324   3.369  0.4143 -0.4635 -0.1234
 1880SOL     OW17098   3.230   1.785   2.240  0.4206 -0.3819  0.1058
 1880SOL    HW117099   3.171   1.728   2.191 -0.8032  1.4053 -0.5311
 1880SOL    HW217100   3.313   1.738   2.236  0.5258 -0.3211  1.4719
 1881SOL     OW17101   0.974   2.203   5.582  0.5381  0.0080  0.0907
 1881SOL    HW117102   1.034   2.146   5.630  2.1188  0.5260 -1.3243
 1881SOL    HW217103   0.964   2.142   5.509 -0.6886  1.8515 -1.2874
 1882SOL     OW17104   3.875   3.695  11.213 -0.4787  0.1708  0.0207
 1882SOL    HW117105   3.890   3.656  11.127  0.8658 -0.1991  0.4087
 1882SOL    HW217106   3.951   3.749  11.234 -0.0329  0.0091 -1.1654
 1883SOL     OW17107   1.651   2.749   1.344  0.0018 -0.8186 -0.2674
 1883SOL    HW117108   1.658   2.784   1.433 -0.2122 -0.5874 -0.3420
 1883SOL    HW217109   1.606   2.823   1.304  0.4705 -1.1927 -1.4770
 1884SOL     OW17110   3.077   0.834   4.748  0.4809  0.2586  0.6049
 1884SOL    HW117111   3.038   0.856   4.663 -4.2831 -1.6467  2.2974
 1884SOL    HW217112   3.170   0.850   4.736  0.1619  1.1351 -0.6651
 1885SOL     OW17113   1.960   0.113   6.108 -0.2896 -0.4030  0.0720
 1885SOL    HW117114   2.001   0.043   6.159 -0.8833 -0.3350  0.6415
 1885SOL    HW217115   2.001   0.193   6.141  0.9522 -0.8864 -0.3190
 1886SOL     OW17116   1.979   4.211   8.198 -0.1325 -0.5066  0.5024
 1886SOL    HW117117   2.074   4.211   8.189 -0.2785 -0.1930 -1.0234
 1886SOL    HW217118   1.942   4.123   8.201 -0.2666 -0.5198 -1.9037
 1887SOL     OW17119   3.948   3.191   5.560  0.3043 -0.1290 -0.2040
 1887SOL    HW117120   3.852   3.188   5.552  0.4393 -0.0990 -1.8691
 1887SOL    HW217121   3.984   3.166   5.475  2.2649  3.4062 -0.3900
 1888SOL     OW17122   0.979   1.900   6.924  0.0313  0.5610 -0.4989
 1888SOL    HW117123   0.929   1.931   6.999  1.9480 -1.0652  1.4545
 1888SOL    HW217124   0.982   1.807   6.946  0.9405  0.6912 -0.1086
 1889SOL     OW17125   3.434   0.657  12.968  0.0435 -0.2318 -0.0229
 1889SOL    HW117126   3.362   0.620  12.917  1.1756 -0.2287 -1.6073
 1889SOL    HW217127   3.500   0.589  12.963  1.9643  1.4173  2.6484
 1890SOL     OW17128   2.835   3.362   7.749 -0.6499 -0.5772 -0.4829
 1890SOL    HW117129   2.878   3.301   7.809  1.7024  0.3111 -1.2764
 1890SOL    HW217130   2.810   3.435   7.806 -0.4294 -1.2394  0.4620
 1891SOL     OW17131   0.732   0.568  15.089 -0.2494 -0.4007 -0.1449
 1891SOL    HW117132   0.644   0.607  15.093 -0.4414 -0.9562  0.9666
 1891SOL    HW217133   0.772   0.578  15.175  1.9977 -0.7433 -1.1754
 1892SOL     OW17134   4.145   2.771   5.934  0.3482 -0.9101  0.3020
 1892SOL    HW117135   4.114   2.712   6.004 -3.2194 -0.5480 -0.9574
 1892SOL    HW217136   4.063   2.808   5.900  1.1437  1.0073  0.4803
 1893SOL     OW17137   0.505   1.956   6.915 -0.1916  0.1672 -0.2314
 1893SOL    HW117138   0.590   1.920   6.941  0.2485  0.7418 -0.8764
 1893SOL    HW217139   0.447   1.883   6.939  1.1326 -0.6202  0.5347
 1894SOL     OW17140   0.587   4.102   4.862  0.0149 -0.6784 -0.3382
 1894SOL    HW117141   0.520   4.044   4.825 -1.6622  2.9387 -2.9611
 1894SOL    HW217142   0.535   4.159   4.919 -0.2685 -0.9273 -0.3444
 1895SOL     OW17143   0.745   0.145   4.778  0.0544  0.7871  0.3592
 1895SOL    HW117144   0.769   0.085   4.849  0.7384  0.7862  0.1238
 1895SOL    HW217145   0.651   0.144   4.798 -0.2531 -0.7989 -1.1512
 1896SOL     OW17146   4.095   0.831   9.639  0.3022 -0.8031  0.2603
 1896SOL    HW117147   4.161   0.795   9.698 -0.0310 -0.5006  0.8109
 1896SOL    HW217148   4.087   0.908   9.696  0.4888 -1.4713  1.1852
 1897SOL     OW17149   0.010   2.183   7.106  0.7287  0.2384 -0.1832
 1897SOL    HW117150   0.010   2.137   7.022  0.5900 -2.7134  1.4523
 1897SOL    HW217151   4.681   2.123   7.159  1.7704  0.8549  1.5532
 1898SOL     OW17152   0.803   4.250  17.552 -0.5058  0.4558 -0.0274
 1898SOL    HW117153   0.711   4.238  17.528 -0.3033  0.5226 -0.8300
 1898SOL    HW217154   0.841   4.166  17.526  1.2871  1.6514 -1.2227
 1899SOL     OW17155   0.592   1.668  11.119  0.3306 -0.3637  0.4481
 1899SOL    HW117156   0.535   1.707  11.185  0.4503  0.1165  0.2661
 1899SOL    HW217157   0.544   1.695  11.042  2.6409  0.7467 -0.6156
 1900SOL     OW17158   0.242   2.939   8.070 -0.7261  0.0332  0.6649
 1900SOL    HW117159   0.226   2.860   8.122 -0.9604 -0.4167 -0.0996
 1900SOL    HW217160   0.187   2.924   7.994  0.8950  0.7282 -0.6432
 1901SOL     OW17161   0.810   2.020  15.717  0.0190  0.1395 -0.3938
 1901SOL    HW117162   0.840   1.967  15.644  0.4912  1.4740 -1.1719
 1901SOL    HW217163   0.741   1.964  15.752 -1.3241  0.2314 -2.9084
 1902SOL     OW17164   3.205   3.591   5.842  0.4633  0.1133  0.0342
 1902SOL    HW117165   3.165   3.504   5.844  0.3750  0.1642  0.4063
 1902SOL    HW217166   3.277   3.585   5.779 -1.5131  0.9021 -2.3006
 1903SOL     OW17167   2.151   2.794  12.912  0.2648  0.1904 -0.2448
 1903SOL    HW117168   2.165   2.848  12.990  0.3130  1.8208 -1.3857
 1903SOL    HW217169   2.126   2.709  12.948  0.1865  0.2652 -0.1231
 1904SOL     OW17170   0.372   1.865  13.125  0.2064 -0.7925 -0.1821
 1904SOL    HW117171   0.282   1.887  13.104  0.2343 -0.8042 -0.3124
 1904SOL    HW217172   0.389   1.908  13.210 -2.0504 -0.7828  0.2670
 1905SOL     OW17173   1.332   4.150   5.679  0.5865 -0.2304  0.5059
 1905SOL    HW117174   1.356   4.093   5.752  3.1393  0.3216  0.0836
 1905SOL    HW217175   1.396   4.125   5.613 -0.0135 -3.0427  1.0235
 1906SOL     OW17176   4.128   2.268   3.834 -0.1188  0.0434 -0.0172
 1906SOL    HW117177   4.140   2.178   3.863 -1.5982 -0.8560 -2.1662
 1906SOL    HW217178   4.047   2.273   3.783  0.5775  1.6874 -0.9757
 1907SOL     OW17179   0.586   2.688  11.278 -0.2619  0.4382  0.0162
 1907SOL    HW117180   0.551   2.605  11.312  1.7169 -0.3995  0.0140
 1907SOL    HW217181   0.564   2.674  11.186  1.0742 -0.7472 -0.1171
 1908SOL     OW17182   3.503   2.391   0.500  0.2179  0.2575  0.1701
 1908SOL    HW117183   3.417   2.418   0.533 -0.3150  0.0765 -1.0637
 1908SOL    HW217184   3.561   2.445   0.553 -0.9092  0.2409  1.4312
 1909SOL     OW17185   1.684   4.553   6.247 -0.4595 -0.3746 -0.6885
 1909SOL    HW117186   1.773   4.579   6.271 -1.7206  1.2216  2.2971
 1909SOL    HW217187   1.695   4.478   6.189 -0.6840  1.4133 -3.0201
 1910SOL     OW17188   3.121   3.809  17.599 -0.3151  0.5446  0.0350
 1910SOL    HW117189   3.119   3.737  17.536 -0.4290  0.3539  0.2541
 1910SOL    HW217190   3.027   3.804  17.616  0.0698  1.9168  2.5599
 1911SOL     OW17191   0.998   0.272   4.783  0.4294  1.0138 -0.5555
 1911SOL    HW117192   0.985   0.243   4.693  0.3282 -1.0579  0.1369
 1911SOL    HW217193   0.928   0.226   4.829  0.9688  1.6864  0.9459
 1912SOL     OW17194   0.148   0.202   5.184  0.2317  0.8129 -0.2013
 1912SOL    HW117195   0.078   0.264   5.204 -0.8404 -0.5684  0.3444
 1912SOL    HW217196   0.207   0.256   5.132 -2.1234  1.2367 -2.4520
 1913SOL     OW17197   2.419   4.276   2.990 -0.0804 -0.4456  0.0692
 1913SOL    HW117198   2.369   4.203   2.953 -0.3092 -0.7180  0.8988
 1913SOL    HW217199   2.481   4.235   3.050 -0.4953 -0.9183  0.1794
 1914SOL     OW17200   1.720   4.678   5.907 -0.8416  0.8655  0.1053
 1914SOL    HW117201   1.681   4.692   5.820 -0.6647  1.6366  0.1534
 1914SOL    HW217202   1.803   0.002   5.904  0.2264 -1.0366 -1.4301
 1915SOL     OW17203   0.972   0.055   1.361  0.0815  0.5724 -0.0630
 1915SOL    HW117204   0.899   4.717   1.362  0.0703  0.5790 -0.4350
 1915SOL    HW217205   0.949   0.124   1.424 -0.6107  1.1287 -0.9217
 1916SOL     OW17206   1.246   2.932  12.048  0.0035 -0.9807  0.1344
 1916SOL    HW117207   1.183   2.980  11.994 -0.4364 -0.8502  0.7612
 1916SOL    HW217208   1.194   2.852  12.061  1.2132 -1.5502  1.4375
 1917SOL     OW17209   2.153   4.228  11.458 -0.6370 -0.0322 -0.0420
 1917SOL    HW117210   2.167   4.211  11.551  0.8342  1.6712  0.0747
 1917SOL    HW217211   2.173   4.139  11.430 -3.0654 -0.6762  0.2782
 1918SOL     OW17212   3.547   3.041   1.541 -0.0863  0.5866  0.4685
 1918SOL    HW117213   3.598   3.122   1.551  3.4041 -1.5785  0.3365
 1918SOL    HW217214   3.466   3.075   1.503 -1.5488 -1.8020  1.4411
 1919SOL     OW17215   3.345   1.418  11.712 -0.0534 -0.9932 -0.0078
 1919SOL    HW117216   3.331   1.422  11.807  2.4783 -0.6386  0.3369
 1919SOL    HW217217   3.264   1.385  11.673  0.8672 -4.4849  1.0576
 1920SOL     OW17218   3.451   3.259  16.284  0.1107 -0.1906  0.3903
 1920SOL    HW117219   3.407   3.200  16.224 -1.4073  0.5407  0.7963
 1920SOL    HW217220   3.399   3.339  16.278 -1.4149 -1.2687 -0.5264
 1921SOL     OW17221   2.797   4.306   5.064  0.4200 -0.2442 -0.0414
 1921SOL    HW117222   2.851   4.362   5.008 -0.7435 -0.4566 -1.3641
 1921SOL    HW217223   2.793   4.234   5.002  1.4860 -0.3494  0.0058
 1922SOL     OW17224   4.550   3.320  13.050  0.0631  0.0104 -0.2489
 1922SOL    HW117225   4.521   3.235  13.017  1.0958 -1.1805  1.9465
 1922SOL    HW217226   4.609   3.288  13.118 -1.1106 -0.5639  0.5059
 1923SOL     OW17227   1.644   2.197  17.625 -0.6926 -0.3904 -0.2140
 1923SOL    HW117228   1.610   2.287  17.623  1.5413  0.3653 -2.5792
 1923SOL    HW217229   1.711   2.200  17.558 -1.2156 -1.1922 -0.7770
 1924SOL     OW17230   1.794   1.300   7.298 -0.3386  0.3066  0.6152
 1924SOL    HW117231   1.780   1.385   7.257  0.0933  0.3449  0.5539
 1924SOL    HW217232   1.704   1.282   7.327 -0.3740 -1.5734 -0.6077
 1925SOL     OW17233   2.403   4.075   2.196  0.5881 -0.1919  0.4811
 1925SOL    HW117234   2.467   4.142   2.172  0.5778 -0.5471 -0.5239
 1925SOL    HW217235   2.425   4.007   2.132 -1.3524  1.0522 -1.5156
 1926SOL     OW17236   1.186   2.118  10.641  0.2086 -0.4334 -0.0439
 1926SOL    HW117237   1.093   2.142  10.643  0.8452  1.9517  0.4602
 1926SOL    HW217238   1.213   2.164  10.561  0.7911 -0.5393  0.0930
 1927SOL     OW17239   0.011   1.050  12.124  0.2643  0.0071  0.0468
 1927SOL    HW117240   4.648   1.023  12.154  0.4082  1.6605  1.9219
 1927SOL    HW217241   4.706   1.056  12.033 -1.4974  1.0250  0.6731
 1928SOL     OW17242   1.268   0.013   0.511  0.1419  0.8440 -0.3058
 1928SOL    HW117243   1.187   0.063   0.497  0.3602  0.7138 -2.0582
 1928SOL    HW217244   1.302   0.050   0.592  1.0112  0.8003 -0.6549
 1929SOL     OW17245   3.004   3.993   3.778 -0.3762 -0.4892  0.1530
 1929SOL    HW117246   3.061   3.984   3.703  0.0662 -1.0823  0.5612
 1929SOL    HW217247   2.920   3.973   3.737  0.1469 -0.6046 -0.8520
 1930SOL     OW17248   0.254   1.672   3.942 -0.3160  0.4413 -0.1179
 1930SOL    HW117249   0.227   1.650   4.031  0.9575 -4.9752 -1.0980
 1930SOL    HW217250   0.198   1.747   3.921 -1.7413 -0.3463  0.8680
 1931SOL     OW17251   3.224   2.664   7.368  0.4681  0.1022  0.2678
 1931SOL    HW117252   3.271   2.591   7.408 -0.5024 -0.2348  0.7967
 1931SOL    HW217253   3.190   2.711   7.444 -0.5504  0.4736 -0.4174
 1932SOL     OW17254   3.497   4.561   6.223  0.9575  0.2909 -0.8838
 1932SOL    HW117255   3.513   4.546   6.316 -2.1057 -0.9813 -0.5652
 1932SOL    HW217256   3.558   4.499   6.183 -0.0116  0.2757 -2.3450
 1933SOL     OW17257   0.911   1.295   7.926 -0.2919 -0.6020 -0.0037
 1933SOL    HW117258   0.971   1.233   7.967  0.8556  1.1385  0.9583
 1933SOL    HW217259   0.854   1.298   8.002  2.5638  1.0066  2.0956
 1934SOL     OW17260   4.701   1.410   7.658 -0.2232  0.3056  0.4562
 1934SOL    HW117261   0.042   1.390   7.726  0.1545 -0.5841 -0.1712
 1934SOL    HW217262   4.711   1.504   7.650  0.6178  0.3598  2.0451
 1935SOL     OW17263   0.175   0.768  12.806 -0.0018  0.3163  0.6943
 1935SOL    HW117264   0.166   0.835  12.874  1.0192  3.1243 -1.9775
 1935SOL    HW217265   0.268   0.746  12.813 -0.6052 -2.1657  0.7870
 1936SOL     OW17266   3.367   3.988   3.182 -0.3455 -0.7202 -0.6433
 1936SOL    HW117267   3.443   3.991   3.125  0.8033 -1.8683  0.8352
 1936SOL    HW217268   3.379   3.898   3.213  0.2302 -1.1578 -2.1221
 1937SOL     OW17269   3.808   4.180  10.002 -0.0407 -0.4276  0.0744
 1937SOL    HW117270   3.862   4.247   9.962 -2.1729 -1.0923 -3.9277
 1937SOL    HW217271   3.874   4.124  10.042 -1.9161 -0.6213  2.9063
 1938SOL     OW17272   0.901   2.953   6.188 -0.0504 -0.0254  0.3599
 1938SOL    HW117273   0.884   2.913   6.273 -3.0258 -1.7654 -1.0756
 1938SOL    HW217274   0.932   3.040   6.217 -0.2162 -0.0193  0.5144
 1939SOL     OW17275   3.839   4.626   3.523 -0.2678 -0.3694 -0.1420
 1939SOL    HW117276   3.821   4.688   3.594  0.1789 -1.4485  0.9269
 1939SOL    HW217277   3.792   4.674   3.455  0.5135  0.9204  0.2277
 1940SOL     OW17278   0.766   1.131  10.495 -0.4889  0.0331  0.1078
 1940SOL    HW117279   0.811   1.212  10.474  0.1689  0.0957  1.7191
 1940SOL    HW217280   0.764   1.091  10.408  2.1570  1.3266 -0.5524
 1941SOL     OW17281   4.061   0.433   5.647 -0.1233  0.4213  0.4737
 1941SOL    HW117282   3.993   0.492   5.614 -0.6909  0.1288  1.0979
 1941SOL    HW217283   4.134   0.472   5.599 -0.0737  2.0763  1.9118
 1942SOL     OW17284   1.612   0.032   4.876  0.3125 -0.6130  1.2676
 1942SOL    HW117285   1.621   4.698   4.800  0.3910 -0.4859  1.1790
 1942SOL    HW217286   1.602   0.116   4.831 -0.1160 -0.5680  1.4512
 1943SOL     OW17287   2.611   3.447   0.584  0.0538 -0.3432 -0.0151
 1943SOL    HW117288   2.518   3.433   0.602 -0.0809 -1.8769 -1.9096
 1943SOL    HW217289   2.639   3.473   0.672 -1.0525 -0.4763  0.3656
 1944SOL     OW17290   3.038   2.260   0.212  0.5505  0.2850  0.3340
 1944SOL    HW117291   3.095   2.183   0.208  1.6614  1.2004 -1.4113
 1944SOL    HW217292   3.089   2.309   0.277 -1.8910  0.3877  2.1804
 1945SOL     OW17293   1.253   3.466  17.280  0.1449  0.4069  0.4859
 1945SOL    HW117294   1.179   3.453  17.340  0.3206 -0.3671  0.5307
 1945SOL    HW217295   1.233   3.398  17.216 -0.0958 -0.7304  1.7666
 1946SOL     OW17296   2.962   0.907   4.500  0.1908  0.4928 -0.0927
 1946SOL    HW117297   2.963   1.001   4.516 -2.2407  0.5063  0.0017
 1946SOL    HW217298   3.018   0.908   4.422 -0.9769 -1.6785 -0.9727
 1947SOL     OW17299   2.685   0.544   2.891  0.0834 -0.1799  0.3439
 1947SOL    HW117300   2.728   0.563   2.974  1.7272  0.3934 -0.6317
 1947SOL    HW217301   2.731   0.606   2.834  0.7081  0.2124  1.2711
 1948SOL     OW17302   2.605   2.703   2.528  0.1878 -0.0243 -0.1610
 1948SOL    HW117303   2.674   2.711   2.463 -1.3559  1.6896 -1.6212
 1948SOL    HW217304   2.563   2.620   2.505 -1.4259  0.9177 -0.6836
 1949SOL     OW17305   4.364   0.681  11.632  0.4809 -0.1749  0.4390
 1949SOL    HW117306   4.457   0.664  11.649  0.2369 -1.6369  0.3148
 1949SOL    HW217307   4.351   0.646  11.543  0.3789  0.0341  0.3735
 1950SOL     OW17308   1.966   1.856   6.164  0.4130 -0.2770  0.2997
 1950SOL    HW117309   2.010   1.939   6.181 -0.6914  0.7151 -1.7039
 1950SOL    HW217310   1.874   1.877   6.145  0.2205 -0.6907  0.7536
 1951SOL     OW17311   3.885   0.087   4.730 -0.2660 -0.3155 -0.0648
 1951SOL    HW117312   3.944   0.077   4.805  0.1090  1.8266 -0.0754
 1951SOL    HW217313   3.951   0.080   4.661  0.4978 -1.6806  0.8045
 1952SOL     OW17314   0.791   4.173   3.149  0.0360  0.1349 -0.6760
 1952SOL    HW117315   0.758   4.196   3.236  0.8337  1.9367 -0.8683
 1952SOL    HW217316   0.710   4.153   3.101  0.0046  1.2608 -1.0785
 1953SOL     OW17317   2.564   2.528  11.161 -0.6664  0.3091 -0.1932
 1953SOL    HW117318   2.575   2.598  11.098 -1.2225  1.5285  1.0597
 1953SOL    HW217319   2.534   2.587  11.230  0.7486  1.4876 -0.5842
 1954SOL     OW17320   4.684   0.335   6.722 -0.2707 -0.2080  0.2802
 1954SOL    HW117321   4.710   0.269   6.786 -0.0688  1.6543  2.1069
 1954SOL    HW217322   4.588   0.331   6.720 -0.2461 -0.4039 -0.5527
 1955SOL     OW17323   2.982   0.992   7.649 -0.2932 -0.3551  0.2365
 1955SOL    HW117324   2.987   1.032   7.563 -2.6118  1.7077  1.0704
 1955SOL    HW217325   2.888   1.000   7.659 -0.2265 -1.1281  1.5832
 1956SOL     OW17326   3.347   3.364   2.468 -0.8470  0.1821  0.4030
 1956SOL    HW117327   3.362   3.276   2.501 -2.6774 -0.2774  0.0283
 1956SOL    HW217328   3.437   3.395   2.454 -1.0940  0.4957 -0.4985
 1957SOL     OW17329   4.380   0.884   0.064  0.5847  0.1743 -0.5419
 1957SOL    HW117330   4.363   0.970   0.102 -1.0069 -0.9543  1.3084
 1957SOL    HW217331   4.393   0.837   0.146  1.9064  2.6368  0.6563
 1958SOL     OW17332   2.899   3.623  14.536  0.6572 -0.2278 -0.4258
 1958SOL    HW117333   2.940   3.590  14.456 -1.3130 -0.8926 -1.1821
 1958SOL    HW217334   2.808   3.609  14.509  0.4444  1.0957 -0.3634
 1959SOL     OW17335   2.574   1.921   2.824 -0.2813 -0.0169 -0.0503
 1959SOL    HW117336   2.533   1.987   2.880 -1.1975 -0.0460 -0.6889
 1959SOL    HW217337   2.496   1.880   2.787 -0.4629  0.5918 -0.3313
 1960SOL     OW17338   0.265   2.818   5.707 -0.4438  0.1083 -0.2966
 1960SOL    HW117339   0.282   2.731   5.743 -0.7515  0.1874  0.0408
 1960SOL    HW217340   0.345   2.816   5.654 -0.8247 -2.7833 -0.7474
 1961SOL     OW17341   1.202   1.855   6.081 -0.0613  0.2101 -0.8830
 1961SOL    HW117342   1.117   1.835   6.041  0.2061 -0.5087 -1.0737
 1961SOL    HW217343   1.173   1.857   6.173 -0.1008 -1.5046 -0.8661
 1962SOL     OW17344   2.379   3.009   2.540 -0.0916  0.0953 -0.8106
 1962SOL    HW117345   2.428   3.042   2.465  0.0041 -1.5277 -1.4621
 1962SOL    HW217346   2.421   3.052   2.615  0.8815 -1.9267 -0.1775
 1963SOL     OW17347   1.944   2.826   1.765  0.1131 -0.0977 -0.1893
 1963SOL    HW117348   1.961   2.874   1.846 -1.3873 -1.3049  0.8374
 1963SOL    HW217349   1.931   2.739   1.803  0.0586 -0.5567 -1.2455
 1964SOL     OW17350   2.421   1.941   8.890  0.1170  0.2230 -0.0506
 1964SOL    HW117351   2.477   1.863   8.890 -1.2786 -0.7457 -2.2533
 1964SOL    HW217352   2.474   2.017   8.915 -0.7963  1.1796 -1.0454
 1965SOL     OW17353   2.890   3.021   7.110  0.1343 -0.1260  0.5200
 1965SOL    HW117354   2.936   3.051   7.031 -0.3691  1.1309  0.6942
 1965SOL    HW217355   2.888   3.103   7.159  0.9422 -0.3733  0.9777
 1966SOL     OW17356   1.354   4.387  17.448 -0.0155  0.4482 -0.3768
 1966SOL    HW117357   1.338   4.320  17.382 -3.3508  0.5540  0.3559
 1966SOL    HW217358   1.380   4.462  17.393  0.5833  0.8601  0.4693
 1967SOL     OW17359   0.297   3.463   5.973 -0.1470 -0.0987  0.3244
 1967SOL    HW117360   0.339   3.489   5.890  1.5593  2.6883  2.0397
 1967SOL    HW217361   0.324   3.371   5.975 -1.5032 -0.4816  0.8270
 1968SOL     OW17362   2.287   1.675   4.768  0.2767  0.0793  0.1695
 1968SOL    HW117363   2.208   1.627   4.793  1.8158 -2.1581  0.7024
 1968SOL    HW217364   2.331   1.600   4.728 -1.7140 -0.1431 -1.6615
 1969SOL     OW17365   1.328   1.136   7.666  0.4665 -0.0730  0.6404
 1969SOL    HW117366   1.422   1.151   7.675  0.3520  1.9865 -1.7144
 1969SOL    HW217367   1.320   1.061   7.725  1.3815 -0.3175  0.4481
 1970SOL     OW17368   2.556   1.800   5.616  0.3836  0.0900 -0.3774
 1970SOL    HW117369   2.591   1.773   5.531 -0.2346  0.9942 -0.9209
 1970SOL    HW217370   2.520   1.715   5.643 -0.0377  0.1444 -0.7629
 1971SOL     OW17371   3.808   1.516   7.348 -0.0406 -0.0788  0.5164
 1971SOL    HW117372   3.810   1.423   7.370 -1.5571 -0.0732  0.6548
 1971SOL    HW217373   3.903   1.526   7.337 -0.4069  1.6083 -1.1281
 1972SOL     OW17374   2.436   1.032  14.645  0.0500 -0.1960 -0.6951
 1972SOL    HW117375   2.415   0.942  14.671 -1.7949  0.8561  1.4252
 1972SOL    HW217376   2.512   1.057  14.697  0.5065 -1.9343 -0.5169
 1973SOL     OW17377   3.491   4.002   2.739  0.0756 -0.6156  0.2674
 1973SOL    HW117378   3.460   3.937   2.676  2.8187 -1.2757 -0.3738
 1973SOL    HW217379   3.476   4.085   2.693  0.4879 -0.1917  0.8879
 1974SOL     OW17380   0.866   1.270  14.846 -0.6113 -0.4312  0.1738
 1974SOL    HW117381   0.934   1.231  14.791 -0.9243  0.9073 -1.1489
 1974SOL    HW217382   0.829   1.188  14.879  1.4096 -1.4567 -0.1289
 1975SOL     OW17383   0.430   2.966   6.274  0.3648  0.1586 -0.1180
 1975SOL    HW117384   0.432   2.939   6.183 -0.5010 -0.1090 -0.0574
 1975SOL    HW217385   0.503   2.918   6.313 -1.3408 -2.7440 -0.5119
 1976SOL     OW17386   4.264   3.764   5.753  0.4861  0.1569 -0.6667
 1976SOL    HW117387   4.195   3.799   5.810 -0.1994  2.5427 -2.9459
 1976SOL    HW217388   4.291   3.846   5.711 -0.1863  0.2993 -0.8319
 1977SOL     OW17389   0.765   2.571   6.128 -0.1570 -0.0980  0.1527
 1977SOL    HW117390   0.772   2.479   6.103 -0.0219 -0.5502  1.9073
 1977SOL    HW217391   0.677   2.566   6.164 -0.2573  1.4114  0.0980
 1978SOL     OW17392   0.281   4.065  14.604  0.2772 -0.7183  0.4628
 1978SOL    HW117393   0.360   4.057  14.551  1.0964 -1.5147  1.8258
 1978SOL    HW217394   0.328   4.065  14.687  1.0570  1.9661  0.0205
 1979SOL     OW17395   0.604   2.609   8.949  0.2263  0.1693 -0.3426
 1979SOL    HW117396   0.645   2.579   9.030 -1.6370  1.8281  1.2034
 1979SOL    HW217397   0.628   2.702   8.945  1.6073 -0.2206 -1.1062
 1980SOL     OW17398   2.347   0.068   9.013  0.3133  0.3543 -0.1866
 1980SOL    HW117399   2.319   0.158   9.032  1.1085  1.5300 -4.5823
 1980SOL    HW217400   2.419   0.081   8.952  0.3957  0.5042 -0.0568
 1981SOL     OW17401   0.886   2.963  14.409  0.5149  0.2631 -0.2287
 1981SOL    HW117402   0.801   2.939  14.446  0.1464 -2.7780 -3.0653
 1981SOL    HW217403   0.918   3.015  14.483 -2.7156  1.1491  0.5409
 1982SOL     OW17404   0.144   2.950   7.422  0.3835  0.1706  0.3996
 1982SOL    HW117405   0.239   2.958   7.410  0.5506  1.6828  2.7506
 1982SOL    HW217406   0.132   2.861   7.388 -1.1415  0.6844 -0.3921
 1983SOL     OW17407   3.806   4.345   6.683  0.1093  0.3040 -0.1400
 1983SOL    HW117408   3.885   4.300   6.712  0.4440 -0.7810 -2.7201
 1983SOL    HW217409   3.735   4.281   6.692  0.8722 -0.6624 -0.9282
 1984SOL     OW17410   1.965   1.546  16.803 -0.5708  0.1096  0.0706
 1984SOL    HW117411   2.036   1.587  16.753  1.0070  2.1128  3.9899
 1984SOL    HW217412   1.929   1.501  16.726  0.4762 -1.3174  0.4192
 1985SOL     OW17413   4.546   0.945   8.381  0.1134 -0.1472  0.4050
 1985SOL    HW117414   4.496   1.015   8.339  3.5613  1.4780 -1.0030
 1985SOL    HW217415   4.519   0.874   8.323  0.4460 -0.0213  0.0931
 1986SOL     OW17416   2.613   0.234   4.788 -0.7460 -0.1750  0.0991
 1986SOL    HW117417   2.518   0.244   4.777 -0.2611  2.5843 -1.5751
 1986SOL    HW217418   2.614   0.222   4.883  0.7641 -0.3121  0.0588
 1987SOL     OW17419   1.582   4.672  14.205  0.1731  0.5395  0.1878
 1987SOL    HW117420   1.540   4.626  14.133 -1.0204 -1.1321  1.9505
 1987SOL    HW217421   1.558   0.041  14.200 -0.4407  0.2965 -1.2760
 1988SOL     OW17422   4.385   2.368   5.011 -0.3560 -0.6266  0.9016
 1988SOL    HW117423   4.383   2.456   5.048 -0.6060  0.5851 -1.9662
 1988SOL    HW217424   4.479   2.352   5.000 -0.2157 -0.1497  1.3875
 1989SOL     OW17425   1.951   0.855  13.818 -0.3131 -0.2410 -0.3960
 1989SOL    HW117426   2.041   0.849  13.786 -1.0220 -1.0463 -2.1934
 1989SOL    HW217427   1.944   0.948  13.837 -0.0451 -0.6000  1.4750
 1990SOL     OW17428   0.260   1.045   2.855 -0.1328  0.9660  0.0526
 1990SOL    HW117429   0.283   1.017   2.766 -0.5262  0.0481  0.2383
 1990SOL    HW217430   0.219   0.962   2.880  0.6440  0.7540  0.6119
 1991SOL     OW17431   3.106   3.806  14.688  0.3970 -0.2745 -0.0354
 1991SOL    HW117432   3.046   3.828  14.617 -1.6367 -1.7704  1.1794
 1991SOL    HW217433   3.133   3.721  14.652 -1.5493  0.7844 -3.8918
 1992SOL     OW17434   3.556   1.517   0.681 -0.4901  0.0653  0.7777
 1992SOL    HW117435   3.515   1.571   0.748 -0.1236 -0.1768  1.1923
 1992SOL    HW217436   3.649   1.529   0.702 -0.1642 -0.7735 -0.1737
 1993SOL     OW17437   2.272   4.232   4.722  0.7509 -0.0356  0.5916
 1993SOL    HW117438   2.178   4.215   4.726  0.8262 -0.1635  1.7806
 1993SOL    HW217439   2.272   4.302   4.657 -1.5055 -2.1115 -1.6475
 1994SOL     OW17440   0.568   0.791   9.259  0.5588 -0.1365 -0.4130
 1994SOL    HW117441   0.543   0.716   9.205  3.5154 -2.1639  1.0344
 1994SOL    HW217442   0.660   0.773   9.281 -0.9005 -1.5355  4.3917
 1995SOL     OW17443   4.094   0.670   3.467  0.2851  0.1275  0.3656
 1995SOL    HW117444   4.073   0.586   3.506 -1.4304  1.2706  1.9365
 1995SOL    HW217445   4.055   0.726   3.534  1.3971 -0.9079  1.8621
 1996SOL     OW17446   3.427   2.577  14.707  0.1686  0.7521  0.6027
 1996SOL    HW117447   3.345   2.622  14.688  1.0977  2.2600  0.1231
 1996SOL    HW217448   3.402   2.491  14.740  0.1517  0.4217 -0.2814
 1997SOL     OW17449   2.326   3.271  10.403  0.1964  0.0727 -0.7772
 1997SOL    HW117450   2.390   3.300  10.338  1.5875 -2.0151 -0.3400
 1997SOL    HW217451   2.360   3.298  10.488 -0.3588  0.1543 -0.5840
 1998SOL     OW17452   1.821   0.179   7.673 -0.1401 -0.2262 -0.1334
 1998SOL    HW117453   1.730   0.180   7.700  0.0849  1.9347  0.5281
 1998SOL    HW217454   1.833   0.273   7.664 -1.6372  0.2204  2.5732
 1999SOL     OW17455   2.206   2.589   3.030 -0.2758  0.2405  0.1672
 1999SOL    HW117456   2.194   2.683   3.021  1.8463  0.4691 -0.4306
 1999SOL    HW217457   2.269   2.578   2.958  0.4778 -0.6105  0.9622
 2000SOL     OW17458   1.395   0.372   6.650  0.3346 -0.7723 -0.1676
 2000SOL    HW117459   1.433   0.356   6.564 -1.1851 -1.6502 -0.6742
 2000SOL    HW217460   1.457   0.325   6.706 -0.6341 -0.9172  0.7720
 2001SOL     OW17461   4.554   1.427  10.393  0.0448 -0.7994 -0.1346
 2001SOL    HW117462   4.511   1.455  10.474  0.3830 -2.3456  0.5797
 2001SOL    HW217463   4.479   1.377  10.360 -0.8956  2.3332 -2.7258
 2002SOL     OW17464   2.623   3.821   3.734 -0.3883 -0.1383  0.5712
 2002SOL    HW117465   2.653   3.912   3.736 -1.8061  0.3162  1.7040
 2002SOL    HW217466   2.703   3.785   3.772 -0.1566  2.1990  2.3107
 2003SOL     OW17467   0.591   1.981   9.779  0.2126 -0.4697  0.7786
 2003SOL    HW117468   0.583   2.020   9.865 -1.2147 -0.9407  0.8583
 2003SOL    HW217469   0.576   1.887   9.783 -1.8514 -0.1365  0.6250
 2004SOL     OW17470   0.515   3.072   0.355  0.7180 -0.2074  0.0868
 2004SOL    HW117471   0.431   3.027   0.343 -0.4201  1.1414  2.9799
 2004SOL    HW217472   0.481   3.144   0.407  2.4598 -1.7243  3.3278
 2005SOL     OW17473   3.369   3.353  15.180  0.0073  0.2477  0.0314
 2005SOL    HW117474   3.363   3.258  15.190 -2.1454  0.4324  0.5259
 2005SOL    HW217475   3.298   3.362  15.117  0.5451  1.3210 -0.4159
 2006SOL     OW17476   1.439   4.661   3.854 -0.5770  0.3004  0.0441
 2006SOL    HW117477   1.436   4.610   3.935 -1.6832 -1.6406 -1.2444
 2006SOL    HW217478   1.458   0.022   3.895  1.5756  1.6384 -3.7406
 2007SOL     OW17479   0.925   2.130  10.606  0.3237  0.0008 -0.0602
 2007SOL    HW117480   0.938   2.041  10.571  0.5181 -0.2348  0.6123
 2007SOL    HW217481   0.880   2.174  10.534 -0.5998 -0.2535  0.3607
 2008SOL     OW17482   2.767   1.567   5.678  0.0454  0.1155 -0.0641
 2008SOL    HW117483   2.677   1.533   5.680  0.4786 -0.8754  2.1659
 2008SOL    HW217484   2.784   1.566   5.584 -0.0127 -1.0897 -0.0585
 2009SOL     OW17485   3.601   4.644   2.917 -0.7554 -0.4843  0.2464
 2009SOL    HW117486   3.679   4.678   2.960  0.6280 -0.7169 -2.1119
 2009SOL    HW217487   3.542   4.610   2.985 -0.0456  0.3619  1.2854
 2010SOL     OW17488   4.197   2.161   3.369  0.1978 -0.1860 -0.4621
 2010SOL    HW117489   4.231   2.169   3.458 -0.6792 -2.4912  0.0846
 2010SOL    HW217490   4.185   2.254   3.348 -2.2528 -0.2829  0.5684
 2011SOL     OW17491   3.676   1.875   3.651 -0.6543  0.4915  0.4788
 2011SOL    HW117492   3.664   1.781   3.637  1.5319  0.4794 -1.2757
 2011SOL    HW217493   3.749   1.897   3.594  0.0324  2.7085  2.2449
 2012SOL     OW17494   0.783   0.817   0.649 -0.5726 -0.4403  0.7177
 2012SOL    HW117495   0.818   0.905   0.633  1.1980 -1.4668 -0.9838
 2012SOL    HW217496   0.701   0.834   0.695 -0.9648 -0.0196 -0.1537
 2013SOL     OW17497   0.558   4.197  13.319  0.4257 -0.4262  0.6452
 2013SOL    HW117498   0.552   4.256  13.244  3.4317  1.0648  1.5838
 2013SOL    HW217499   0.573   4.110  13.281 -0.8352 -0.6093  0.5623
 2014SOL     OW17500   4.214   2.569   4.418  0.3205 -0.1190  0.5476
 2014SOL    HW117501   4.212   2.477   4.390  0.7101  0.0134  0.0911
 2014SOL    HW217502   4.301   2.593   4.385  0.9644 -0.2407  2.1651
 2015SOL     OW17503   0.522   0.702   2.924 -0.2701  0.0277  0.0275
 2015SOL    HW117504   0.437   0.722   2.963  0.2304 -2.0100  2.1383
 2015SOL    HW217505   0.500   0.700   2.831 -1.6031 -1.6641  0.3779
 2016SOL     OW17506   1.248   1.362   7.773 -0.4815  0.2177 -0.1008
 2016SOL    HW117507   1.275   1.273   7.749 -2.0963 -0.0043 -1.0481
 2016SOL    HW217508   1.180   1.380   7.708 -0.3925  1.0849  0.0526
 2017SOL     OW17509   1.825   2.901  16.321 -0.2115 -0.2196 -0.8254
 2017SOL    HW117510   1.840   2.991  16.351 -0.6940 -1.2110  2.4235
 2017SOL    HW217511   1.915   2.870  16.309 -0.7557 -1.3171 -2.0783
 2018SOL     OW17512   0.344   3.404   6.266 -0.3590 -0.0229 -0.0115
 2018SOL    HW117513   0.277   3.336   6.254  0.3651 -0.7913  0.2326
 2018SOL    HW217514   0.312   3.459   6.195  0.5101 -2.7994 -2.6205
 2019SOL     OW17515   4.238   1.614  11.953 -0.0881  0.1859 -0.6327
 2019SOL    HW117516   4.181   1.614  12.030 -1.0286  1.6591 -1.3428
 2019SOL    HW217517   4.209   1.541  11.898 -2.0365  0.5069 -0.0243
 2020SOL     OW17518   1.125   3.085   4.776  0.1534  0.1293  0.0074
 2020SOL    HW117519   1.150   3.134   4.854  0.9742 -0.4691  0.1249
 2020SOL    HW217520   1.163   3.144   4.711  0.7857 -0.0413  0.2182
 2021SOL     OW17521   2.021   3.772   1.701  0.6561 -0.5611 -0.1077
 2021SOL    HW117522   2.040   3.865   1.714  0.6844 -0.3184 -1.9269
 2021SOL    HW217523   2.057   3.747   1.786 -0.4917 -1.7763  0.0124
 2022SOL     OW17524   2.367   1.294   7.752  0.3183  0.2390  0.0688
 2022SOL    HW117525   2.375   1.388   7.771 -0.2907  0.0192  1.4509
 2022SOL    HW217526   2.305   1.296   7.680  1.4203 -1.4708 -0.9220
 2023SOL     OW17527   0.776   0.743   3.028  0.1873  0.0431 -0.3125
 2023SOL    HW117528   0.681   0.734   3.017  0.2557 -1.0910  0.0837
 2023SOL    HW217529   0.806   0.667   2.978  1.7546  1.2301 -1.1847
 2024SOL     OW17530   4.145   0.500  15.113  0.1443  0.2048 -0.0091
 2024SOL    HW117531   4.233   0.533  15.129  1.0133 -1.7364 -0.7121
 2024SOL    HW217532   4.150   0.406  15.127  0.3178  0.4883  1.8219
 2025SOL     OW17533   2.024   2.562   5.463 -0.2623 -0.2354  0.0879
 2025SOL    HW117534   1.968   2.509   5.406  0.1749  1.2808 -1.7330
 2025SOL    HW217535   1.981   2.530   5.542 -0.4097  1.1864  0.5757
 2026SOL     OW17536   1.018   0.012   6.366  0.5518 -0.4929 -0.1933
 2026SOL    HW117537   1.050   4.656   6.408 -0.3723 -0.7924 -0.0624
 2026SOL    HW217538   1.101   0.038   6.325 -0.3780  1.1034 -1.0668
 2027SOL     OW17539   2.860   3.695   7.721  0.5779  0.1096  0.5164
 2027SOL    HW117540   2.920   3.721   7.791  0.2302 -2.0474  1.6058
 2027SOL    HW217541   2.778   3.698   7.769 -0.2361  2.1981 -1.0072
 2028SOL     OW17542   4.499   2.597   4.338 -0.5430  0.2215  0.3697
 2028SOL    HW117543   4.536   2.593   4.250 -0.1444  1.7033  0.4648
 2028SOL    HW217544   4.554   2.539   4.390 -0.9986  0.1010  0.7131
 2029SOL     OW17545   4.072   0.839   5.486 -0.7506  0.3981 -0.8298
 2029SOL    HW117546   3.992   0.890   5.477 -0.9911  0.2503  0.6254
 2029SOL    HW217547   4.125   0.869   5.560 -1.3140 -2.0972  0.5596
 2030SOL     OW17548   2.765   1.174   6.752  0.0011 -0.4039  0.8369
 2030SOL    HW117549   2.764   1.170   6.848  0.3329  1.1632  0.9027
 2030SOL    HW217550   2.675   1.156   6.726  0.4236 -0.9987 -0.2157
 2031SOL     OW17551   2.331   4.647   8.649  0.1792  0.4090  0.0466
 2031SOL    HW117552   2.354   0.016   8.651 -0.1267  0.4792  0.3477
 2031SOL    HW217553   2.275   4.662   8.573 -0.6873  0.9636  0.8013
 2032SOL     OW17554   3.364   2.134   5.048 -0.8708  0.4638  0.1466
 2032SOL    HW117555   3.275   2.115   5.021 -0.1077 -2.5700 -0.2591
 2032SOL    HW217556   3.359   2.157   5.141  2.1720  0.9396  0.2038
 2033SOL     OW17557   1.994   0.250   9.654 -0.1330  0.6463  0.1780
 2033SOL    HW117558   2.083   0.280   9.634  1.1968 -1.2951  3.0482
 2033SOL    HW217559   1.952   0.334   9.634  2.6850  1.9682 -0.2450
 2034SOL     OW17560   2.276   3.336   5.054  0.0178  0.3900 -0.4897
 2034SOL    HW117561   2.270   3.366   4.964  1.4163  2.7791  0.2090
 2034SOL    HW217562   2.368   3.353   5.072  0.1959 -1.1427  0.0529
 2035SOL     OW17563   2.804   3.608  12.022  0.5244  0.3855 -0.2161
 2035SOL    HW117564   2.725   3.568  11.985 -0.3212  1.4006  0.4908
 2035SOL    HW217565   2.782   3.698  11.997  1.0889  0.4176 -0.5944
 2036SOL     OW17566   1.916   4.015   4.415 -0.1478  0.0922  0.2887
 2036SOL    HW117567   1.911   4.066   4.496 -0.4446  2.1445 -1.0476
 2036SOL    HW217568   1.868   3.934   4.432 -0.7812  0.3125 -0.4721
 2037SOL     OW17569   2.316   1.764   1.662  0.2436 -0.6478  0.0602
 2037SOL    HW117570   2.225   1.794   1.653  0.0631 -1.5427 -1.1784
 2037SOL    HW217571   2.329   1.692   1.600  1.4704  0.3429 -0.8136
 2038SOL     OW17572   3.748   3.827  14.758 -0.2994  0.6662 -0.6599
 2038SOL    HW117573   3.693   3.772  14.814  2.4188 -2.0693 -0.6746
 2038SOL    HW217574   3.698   3.829  14.677 -3.2373  0.5575  1.1649
 2039SOL     OW17575   0.476   0.881  17.584 -0.4087  0.0571 -0.1623
 2039SOL    HW117576   0.410   0.880  17.653  0.1406 -1.1247  0.3346
 2039SOL    HW217577   0.522   0.962  17.607 -0.7410  0.5030 -1.0666
 2040SOL     OW17578   0.194   3.870   4.461  0.1118  0.0274  0.0919
 2040SOL    HW117579   0.184   3.849   4.368 -1.1480  0.6846  0.0844
 2040SOL    HW217580   0.117   3.926   4.468 -0.2614 -0.7335  2.1688
 2041SOL     OW17581   4.669   2.148   8.848 -0.3345 -0.2264 -0.2940
 2041SOL    HW117582   4.632   2.216   8.905  2.3429  3.1871 -2.6632
 2041SOL    HW217583   4.595   2.089   8.842 -0.8972  0.3951  0.4544
 2042SOL     OW17584   2.838   2.923   6.691  0.0612  0.4083 -0.1021
 2042SOL    HW117585   2.925   2.900   6.658  0.5581  0.5074  1.1434
 2042SOL    HW217586   2.849   2.935   6.785  0.1059  1.8274 -0.2856
 2043SOL     OW17587   0.368   0.886   7.926 -0.2489  0.6300  0.1182
 2043SOL    HW117588   0.293   0.932   7.889  0.3145  2.1421  0.8282
 2043SOL    HW217589   0.378   0.936   8.007 -0.2181 -3.0754  2.4057
 2044SOL     OW17590   0.929   2.813  17.322  0.4269 -0.2205  0.0942
 2044SOL    HW117591   0.906   2.786  17.233 -0.4116 -0.2459  0.3228
 2044SOL    HW217592   0.880   2.895  17.324 -0.6304 -0.8992  1.5019
 2045SOL     OW17593   3.328   4.623   0.649  0.4270 -0.0102  0.0719
 2045SOL    HW117594   3.371   4.633   0.733  1.3349  0.4876 -0.4550
 2045SOL    HW217595   3.287   4.709   0.641 -1.0683 -0.6695  0.5690
 2046SOL     OW17596   2.052   2.903  13.205  0.3148 -0.1735  0.4130
 2046SOL    HW117597   2.082   2.889  13.295 -0.3274 -1.0781  0.4799
 2046SOL    HW217598   2.139   2.907  13.165  0.8021 -0.2217  1.4557
 2047SOL     OW17599   1.190   2.646  15.806 -0.0296 -0.3199 -0.5176
 2047SOL    HW117600   1.118   2.614  15.859 -0.1749  1.3639  0.2934
 2047SOL    HW217601   1.258   2.655  15.873 -1.6259 -0.3253  1.0918
 2048SOL     OW17602   2.104   0.474   6.426  0.0512 -0.2653 -0.1433
 2048SOL    HW117603   2.010   0.467   6.439  0.0110  0.9616  0.2132
 2048SOL    HW217604   2.130   0.409   6.491 -0.3950 -0.5524 -0.2516
 2049SOL     OW17605   3.240   0.881   7.673 -0.3270 -0.2982  0.1610
 2049SOL    HW117606   3.150   0.913   7.669 -0.1014  0.4801  1.5122
 2049SOL    HW217607   3.248   0.876   7.768 -1.6866 -0.4556  0.2712
 2050SOL     OW17608   3.493   3.561   4.667  0.7397 -0.3091  0.4360
 2050SOL    HW117609   3.412   3.567   4.717 -0.9297 -2.4267 -2.0138
 2050SOL    HW217610   3.459   3.550   4.578  3.0373 -0.9289 -0.3697
 2051SOL     OW17611   2.678   0.428   4.379  0.3350  0.4097  0.5911
 2051SOL    HW117612   2.709   0.478   4.455 -0.5082 -0.2547  1.3691
 2051SOL    HW217613   2.666   0.490   4.308 -0.9320  1.9403  2.1401
 2052SOL     OW17614   2.408   1.174   2.570  0.1164  0.1317 -0.0191
 2052SOL    HW117615   2.492   1.148   2.608 -0.3754 -0.2055  0.8349
 2052SOL    HW217616   2.422   1.265   2.544  1.3973  0.5813  2.2529
 2053SOL     OW17617   4.483   4.079  11.894  0.3992 -0.2541 -0.0822
 2053SOL    HW117618   4.575   4.060  11.911 -0.0608 -0.7805  1.8112
 2053SOL    HW217619   4.459   4.015  11.828  0.4355 -1.1515  0.7799
 2054SOL     OW17620   2.366   2.886  12.774 -0.0042  0.0102 -0.0533
 2054SOL    HW117621   2.385   2.798  12.741  0.9041  1.0871 -2.4280
 2054SOL    HW217622   2.287   2.869  12.825 -2.1423 -1.0968 -3.7263
 2055SOL     OW17623   3.027   3.992   1.183 -0.0629  0.4625  0.3741
 2055SOL    HW117624   3.057   3.936   1.112 -0.0122  1.8438 -0.7153
 2055SOL    HW217625   2.941   3.956   1.201 -0.0064 -1.2298 -2.7221
 2056SOL     OW17626   2.665   4.216  17.649 -0.1226 -0.1647  0.2436
 2056SOL    HW117627   2.679   4.123  17.631 -1.6596 -0.2565 -0.4585
 2056SOL    HW217628   2.580   4.219  17.692  1.4723 -0.7076  3.3978
 2057SOL     OW17629   1.717   0.223  15.693  0.0551 -0.5225 -0.3762
 2057SOL    HW117630   1.738   0.243  15.601 -1.4443  0.3713 -0.5191
 2057SOL    HW217631   1.795   0.257  15.737 -0.1726 -0.9484  0.3533
 2058SOL     OW17632   0.833   3.920   3.059  0.3718  0.1889  0.0845
 2058SOL    HW117633   0.847   4.009   3.091 -0.9883  0.1459  0.7607
 2058SOL    HW217634   0.898   3.922   2.988 -0.6388  0.2032 -0.8476
 2059SOL     OW17635   1.220   4.210   0.384 -0.4503  0.8162  0.4875
 2059SOL    HW117636   1.182   4.281   0.436 -0.8342 -0.0301  1.3630
 2059SOL    HW217637   1.237   4.256   0.302  0.6407  2.0553  1.4052
 2060SOL     OW17638   2.494   0.677   3.306  0.0297  0.8329  0.4440
 2060SOL    HW117639   2.574   0.627   3.322 -1.3745 -1.4081  0.4712
 2060SOL    HW217640   2.432   0.631   3.362 -0.6877 -1.3675 -2.1505
 2061SOL     OW17641   1.516   0.067   3.623 -0.3430 -0.2929 -0.2200
 2061SOL    HW117642   1.539   0.041   3.713 -1.5742  0.0160  0.1854
 2061SOL    HW217643   1.524   4.703   3.586 -0.9145 -0.2970 -0.3282
 2062SOL     OW17644   2.948   3.431  17.214  0.0989 -0.0844 -0.3501
 2062SOL    HW117645   2.956   3.353  17.269  1.2896 -1.4156 -2.4166
 2062SOL    HW217646   3.036   3.435  17.175  0.6047  3.6903  1.2344
 2063SOL     OW17647   1.067   1.338  10.578 -0.0964  0.0297 -0.4014
 2063SOL    HW117648   1.034   1.316  10.491  0.4232 -0.5167 -0.4648
 2063SOL    HW217649   1.159   1.313  10.565 -0.3827  0.5349 -3.5037
 2064SOL     OW17650   2.975   2.203   9.014  0.6147  0.5326 -0.1249
 2064SOL    HW117651   3.009   2.120   9.047 -0.3653  0.4618  0.7298
 2064SOL    HW217652   2.893   2.210   9.063  0.9824  1.7914  0.3305
 2065SOL     OW17653   3.674   1.823  17.106 -0.1473  0.3896 -1.1170
 2065SOL    HW117654   3.716   1.802  17.190 -2.2929  0.9483  0.0856
 2065SOL    HW217655   3.601   1.875  17.139 -0.3933 -1.0358  0.5640
 2066SOL     OW17656   2.319   2.424   2.665 -0.7585  0.0030  0.6978
 2066SOL    HW117657   2.309   2.511   2.704 -0.4928  0.2860  0.1346
 2066SOL    HW217658   2.408   2.404   2.695  0.2377  0.8889 -1.6276
 2067SOL     OW17659   2.988   3.724   8.767 -0.1419  0.2179 -0.3994
 2067SOL    HW117660   2.959   3.675   8.844  1.6299 -0.6044 -0.2506
 2067SOL    HW217661   3.073   3.759   8.792 -1.1738  3.1774 -1.1294
 2068SOL     OW17662   0.522   0.904   4.347  0.0408 -0.5516  0.7585
 2068SOL    HW117663   0.444   0.952   4.320  0.4091  0.1821  1.0023
 2068SOL    HW217664   0.591   0.957   4.307 -1.8190  3.1619  2.5428
 2069SOL     OW17665   0.206   1.276   6.325 -0.0712 -0.1276 -0.7426
 2069SOL    HW117666   0.259   1.197   6.315 -0.5362 -0.2712 -2.0680
 2069SOL    HW217667   0.255   1.327   6.260 -0.9183  1.1117 -0.4127
 2070SOL     OW17668   1.390   1.203  14.092 -0.0295  0.5479 -0.2726
 2070SOL    HW117669   1.356   1.114  14.081  0.3989  0.2676  0.6491
 2070SOL    HW217670   1.479   1.172  14.110  0.1739  0.5647 -1.2465
 2071SOL     OW17671   2.459   4.481  10.527  0.0995  0.8626 -0.2038
 2071SOL    HW117672   2.402   4.501  10.453 -1.3660  0.3017  0.7621
 2071SOL    HW217673   2.543   4.507  10.489 -0.0503  0.7331 -0.6269
 2072SOL     OW17674   4.646   2.071  14.104  0.5365 -0.4931  0.1831
 2072SOL    HW117675   0.006   2.110  14.131 -0.2660  0.6986  0.9852
 2072SOL    HW217676   4.679   2.002  14.047  2.1958  0.3203  0.1396
 2073SOL     OW17677   1.956   4.506   8.092 -0.1295  0.0039  0.1269
 2073SOL    HW117678   1.922   4.454   8.019  0.0177  0.6530 -0.4029
 2073SOL    HW217679   1.964   4.433   8.153 -1.6574  0.6350  1.0924
 2074SOL     OW17680   4.544   4.651  12.776  0.0076  0.0392  0.0317
 2074SOL    HW117681   4.578   4.564  12.795  1.1720 -0.0261 -2.2364
 2074SOL    HW217682   4.451   4.632  12.782 -0.1490  0.8753  0.3102
 2075SOL     OW17683   0.400   0.687   2.179  0.4458  0.0734  0.4190
 2075SOL    HW117684   0.331   0.632   2.216  0.4429  0.3327  0.8045
 2075SOL    HW217685   0.445   0.619   2.129 -0.8554 -0.3151 -0.2220
 2076SOL     OW17686   3.715   3.120   3.944  0.8741 -0.5947 -0.4943
 2076SOL    HW117687   3.728   3.143   4.036  0.2738  0.3816 -0.6577
 2076SOL    HW217688   3.797   3.148   3.904 -0.5428  0.7968 -2.4418
 2077SOL     OW17689   4.467   2.618   0.705  0.4357 -0.2837 -0.0299
 2077SOL    HW117690   4.422   2.535   0.723  1.3930 -0.5877  0.9086
 2077SOL    HW217691   4.396   2.667   0.662  1.4702 -1.4168 -3.0481
 2078SOL     OW17692   4.245   3.483  14.302 -0.3543 -0.1487 -0.4102
 2078SOL    HW117693   4.167   3.429  14.312 -0.4170 -0.1265 -0.7631
 2078SOL    HW217694   4.306   3.423  14.258  1.5888  1.1108  0.5820
 2079SOL     OW17695   3.638   2.803   7.038  0.7579  0.1672 -0.2322
 2079SOL    HW117696   3.732   2.814   7.024  1.1514 -0.4693  1.9290
 2079SOL    HW217697   3.626   2.860   7.114 -0.7888 -1.1464  0.5112
 2080SOL     OW17698   1.621   2.283  11.320  0.4731 -0.3190 -0.1134
 2080SOL    HW117699   1.543   2.322  11.359  0.2951 -0.1652 -0.6204
 2080SOL    HW217700   1.592   2.205  11.274 -1.7112 -0.6710  1.8570
 2081SOL     OW17701   4.426   3.385   4.568 -0.3178 -0.8402 -0.5300
 2081SOL    HW117702   4.507   3.416   4.528  0.0678 -2.1898 -0.7981
 2081SOL    HW217703   4.372   3.463   4.584  1.1721 -0.0402  0.6036
 2082SOL     OW17704   1.342   0.863   4.336  0.1161 -0.0182 -0.1918
 2082SOL    HW117705   1.436   0.850   4.348  0.3226  0.8554 -0.9477
 2082SOL    HW217706   1.339   0.958   4.341  0.2013 -0.0810  1.1732
 2083SOL     OW17707   2.816   3.761  17.566  0.4357 -0.2242  0.1870
 2083SOL    HW117708   2.821   3.845  17.520  0.9205 -0.5321 -0.3083
 2083SOL    HW217709   2.782   3.712  17.491  0.4838  0.9003 -0.5722
 2084SOL     OW17710   0.770   3.753  16.179  0.3319  0.1054 -0.2440
 2084SOL    HW117711   0.813   3.832  16.147  0.6671 -0.6559 -1.6538
 2084SOL    HW217712   0.689   3.798  16.202  0.7020  0.5356  0.1998
 2085SOL     OW17713   1.337   0.917   5.860  0.4329  0.0350  0.3381
 2085SOL    HW117714   1.313   0.825   5.865 -1.3189  0.3582 -2.1667
 2085SOL    HW217715   1.320   0.955   5.947 -1.1041 -0.7853  0.4015
 2086SOL     OW17716   1.421   1.544   7.090 -0.2330 -0.3100 -0.4903
 2086SOL    HW117717   1.432   1.628   7.136  3.4410 -1.5345  0.8831
 2086SOL    HW217718   1.418   1.571   6.998  1.0266  1.0149 -0.1453
 2087SOL     OW17719   0.576   1.989   8.916 -0.1333  0.0902 -0.5409
 2087SOL    HW117720   0.587   2.084   8.922 -0.2882 -0.0053  1.3182
 2087SOL    HW217721   0.663   1.958   8.891  0.3733  1.5798 -0.6233
 2088SOL     OW17722   4.390   3.495   4.116 -0.1305 -0.7332  0.5307
 2088SOL    HW117723   4.355   3.581   4.092  1.7982  0.0298  0.5306
 2088SOL    HW217724   4.434   3.480   4.032  1.5893 -0.9905  1.4891
 2089SOL     OW17725   4.678   3.874  14.959  0.4619 -0.1131 -0.3010
 2089SOL    HW117726   4.594   3.890  15.003  1.0131 -0.8974  1.0485
 2089SOL    HW217727   4.651   3.858  14.869  0.3498  0.0908 -0.3033
 2090SOL     OW17728   4.620   1.354  11.437  0.1477 -0.2248 -0.3869
 2090SOL    HW117729   4.654   1.269  11.410 -0.8526 -0.4823 -0.8335
 2090SOL    HW217730   4.578   1.383  11.356 -2.7316  2.2343  2.0137
 2091SOL     OW17731   1.686   1.540  15.949 -0.2971  0.0156  0.1943
 2091SOL    HW117732   1.617   1.599  15.919  0.4633  0.4779 -0.6497
 2091SOL    HW217733   1.654   1.512  16.034  1.5433 -1.2216  0.4864
 2092SOL     OW17734   4.439   3.479   6.688  0.3639 -0.3542 -0.0746
 2092SOL    HW117735   4.401   3.552   6.639 -1.4393 -0.8072  0.6677
 2092SOL    HW217736   4.442   3.417   6.615  0.3045 -0.4824  0.0331
 2093SOL     OW17737   1.445   0.595  12.784 -0.3078 -0.2755  0.6436
 2093SOL    HW117738   1.449   0.645  12.866 -2.8135 -1.3436  1.4459
 2093SOL    HW217739   1.377   0.528  12.797  0.5832 -1.6961 -2.0468
 2094SOL     OW17740   3.848   0.496  17.324  0.0160 -0.7458  0.2945
 2094SOL    HW117741   3.791   0.447  17.265 -2.3235 -0.7050  2.5070
 2094SOL    HW217742   3.822   0.469  17.412 -0.5678  0.3143  0.4492
 2095SOL     OW17743   2.352   1.738  15.457  0.6161  0.3363  0.3781
 2095SOL    HW117744   2.296   1.749  15.380  1.5121  0.4609 -0.2631
 2095SOL    HW217745   2.444   1.731  15.431 -0.0054 -0.2641 -1.7333
 2096SOL     OW17746   0.580   1.769   9.273 -0.1365 -1.1966 -0.2511
 2096SOL    HW117747   0.549   1.842   9.220  2.1637 -0.8515 -1.1092
 2096SOL    HW217748   0.642   1.727   9.214  1.9965 -0.5547  1.5219
 2097SOL     OW17749   1.129   1.238   2.769 -0.0037  0.9287  0.2617
 2097SOL    HW117750   1.112   1.152   2.731  1.0010  0.4117  0.9906
 2097SOL    HW217751   1.051   1.242   2.824  0.5190  2.8148  0.8615
 2098SOL     OW17752   3.239   4.440   7.917 -0.3289 -0.1626  0.9042
 2098SOL    HW117753   3.314   4.415   7.972  0.1363  0.4209  0.5338
 2098SOL    HW217754   3.301   4.474   7.852  0.7694 -1.7880  1.0728
 2099SOL     OW17755   1.403   0.175   0.675 -0.4315 -0.3183 -0.3878
 2099SOL    HW117756   1.491   0.143   0.693  0.0700  2.0437  1.2614
 2099SOL    HW217757   1.419   0.268   0.690 -0.9137 -0.0584 -1.4994
 2100SOL     OW17758   1.163   0.905   7.027 -0.0042 -0.3038  0.4125
 2100SOL    HW117759   1.120   0.860   7.100 -1.7026  0.6249 -0.0037
 2100SOL    HW217760   1.241   0.934   7.075 -0.5806  0.0272  1.1480
 2101SOL     OW17761   3.578   2.369   2.994  0.0654  0.4828 -0.0162
 2101SOL    HW117762   3.601   2.277   2.978 -1.3981  0.2723 -0.9921
 2101SOL    HW217763   3.500   2.362   3.049 -1.1140  2.0608 -1.4746
 2102SOL     OW17764   4.630   3.869   2.745  0.0748  0.2800 -0.1403
 2102SOL    HW117765   4.560   3.922   2.784 -0.8899 -0.9265 -0.2168
 2102SOL    HW217766   4.586   3.786   2.728  1.8622 -0.6932  0.0635
 2103SOL     OW17767   2.849   2.556   8.004 -0.1181 -0.5032 -0.7416
 2103SOL    HW117768   2.772   2.509   7.973  0.4297 -1.4427 -0.6732
 2103SOL    HW217769   2.836   2.548   8.098 -0.8947 -0.1834 -0.8248
 2104SOL     OW17770   2.501   1.006   2.962 -0.4992 -0.4197 -0.3499
 2104SOL    HW117771   2.505   1.101   2.962 -0.4211 -0.4294  1.1260
 2104SOL    HW217772   2.528   0.985   2.872  1.8100 -0.6869  0.4020
 2105SOL     OW17773   3.277   2.386  11.276  0.5288 -0.5465  0.1356
 2105SOL    HW117774   3.214   2.317  11.299  0.9771 -0.4893  1.5405
 2105SOL    HW217775   3.209   2.444  11.242  2.2062 -0.2463 -2.6797
 2106SOL     OW17776   0.844   1.026  16.803 -0.1488  0.2335  1.0342
 2106SOL    HW117777   0.870   1.016  16.895  0.3208  1.5922  1.0430
 2106SOL    HW217778   0.893   1.103  16.776  2.2455 -0.6032  2.9779
 2107SOL     OW17779   0.296   1.447  12.409 -0.2101  0.0702  0.0818
 2107SOL    HW117780   0.355   1.518  12.435 -0.3929 -0.1098  0.9939
 2107SOL    HW217781   0.213   1.494  12.423  0.4650  1.0422  0.7776
 2108SOL     OW17782   1.812   2.668   4.855  0.2743 -0.5053  0.2721
 2108SOL    HW117783   1.828   2.580   4.889  1.5198  0.0438  1.1006
 2108SOL    HW217784   1.897   2.711   4.862 -0.8701  1.5561  1.7206
 2109SOL     OW17785   2.924   0.565   8.100 -0.1503 -0.5222 -0.4569
 2109SOL    HW117786   2.883   0.495   8.150 -1.6114  0.8039  0.2201
 2109SOL    HW217787   2.848   0.616   8.072  0.0766  0.8234  1.3348
 2110SOL     OW17788   4.645   2.984   5.212  0.1515 -0.2794 -0.2975
 2110SOL    HW117789   4.713   2.920   5.234  0.6503  0.2454 -0.3393
 2110SOL    HW217790   4.632   3.013   5.302 -1.6165 -0.9341 -0.3380
 2111SOL     OW17791   2.529   3.305  13.318  0.7096  0.0673  0.2504
 2111SOL    HW117792   2.520   3.306  13.413  0.1084 -1.6446  0.2185
 2111SOL    HW217793   2.469   3.375  13.291  1.3509  0.0663 -1.1902
 2112SOL     OW17794   2.948   1.385   6.724  0.1962 -0.2235 -0.3442
 2112SOL    HW117795   2.870   1.332   6.740 -0.3226  1.1695  1.7592
 2112SOL    HW217796   2.983   1.341   6.646  0.3018  0.1128 -0.4855
 2113SOL     OW17797   4.656   3.978   7.827 -0.0410 -0.3190  0.7224
 2113SOL    HW117798   4.584   4.003   7.886 -0.4778  1.9552 -0.7479
 2113SOL    HW217799   0.005   3.958   7.886  0.7708  0.0745 -0.1633
 2114SOL     OW17800   2.755   4.603   1.088  0.1118  0.1766 -0.3787
 2114SOL    HW117801   2.825   4.553   1.129  0.6106 -0.0671 -1.5372
 2114SOL    HW217802   2.786   4.594   0.998 -0.4105  1.1015 -0.6502
 2115SOL     OW17803   0.867   3.259   9.118 -0.3106 -0.1277  0.1763
 2115SOL    HW117804   0.885   3.306   9.199  1.1920 -1.7683  0.7992
 2115SOL    HW217805   0.858   3.337   9.064  1.8316 -0.9828 -1.4315
 2116SOL     OW17806   1.795   3.889   5.518  0.5674  0.6556  0.4978
 2116SOL    HW117807   1.767   3.849   5.600  1.1371 -1.3377 -0.2705
 2116SOL    HW217808   1.710   3.923   5.489 -0.1079  0.3298  2.0892
 2117SOL     OW17809   1.565   1.971   6.581 -0.2695  0.3136  1.3395
 2117SOL    HW117810   1.509   2.032   6.534 -1.0170 -1.4222 -0.0443
 2117SOL    HW217811   1.631   2.021   6.629  1.5791 -0.1997 -0.6102
 2118SOL     OW17812   0.239   1.010   5.075  0.5927 -0.3144 -0.1380
 2118SOL    HW117813   0.296   1.040   5.146 -0.0475  1.7969 -0.5197
 2118SOL    HW217814   0.235   0.915   5.087 -0.1376 -0.1450  1.0255
 2119SOL     OW17815   1.911   1.938   8.148  0.4882 -0.2012  0.2419
 2119SOL    HW117816   1.986   1.889   8.115 -0.8924 -1.5997 -0.8745
 2119SOL    HW217817   1.940   1.949   8.238 -1.2707 -0.7192  0.8779
 2120SOL     OW17818   0.058   3.498   7.602 -0.4128 -0.2966 -0.3684
 2120SOL    HW117819   4.709   3.493   7.664 -0.6120  0.1186 -0.5709
 2120SOL    HW217820   0.065   3.592   7.591 -0.2432 -0.1740  0.7632
 2121SOL     OW17821   2.914   2.263   9.809  0.0370 -0.0948  0.4497
 2121SOL    HW117822   2.969   2.317   9.866 -1.9924  1.7661  0.6242
 2121SOL    HW217823   2.911   2.179   9.855  1.0427 -0.8770 -0.8932
 2122SOL     OW17824   4.639   2.838   0.491  0.2362 -0.7746 -0.1714
 2122SOL    HW117825   4.692   2.782   0.547 -1.7282 -0.5268  1.9400
 2122SOL    HW217826   4.571   2.870   0.550  1.2141 -1.6129  1.3902
 2123SOL     OW17827   3.755   3.563   4.809  0.0634  0.2404  0.3544
 2123SOL    HW117828   3.672   3.608   4.824  0.1835  0.4032  0.5337
 2123SOL    HW217829   3.819   3.626   4.843  1.0579  0.1970 -1.4500
 2124SOL     OW17830   4.558   4.297   4.079  0.7953  0.1098  0.0059
 2124SOL    HW117831   4.566   4.302   3.984 -1.1547 -1.1029 -0.2263
 2124SOL    HW217832   4.464   4.279   4.077  0.7893  0.2033 -0.3712
 2125SOL     OW17833   4.155   4.030   8.081 -0.2961 -0.0885 -0.9262
 2125SOL    HW117834   4.161   4.123   8.104 -0.8131 -0.4361  0.6344
 2125SOL    HW217835   4.143   3.988   8.166 -2.1376 -0.3617 -1.3154
 2126SOL     OW17836   3.978   4.153   4.414 -0.0711  1.1008  0.2205
 2126SOL    HW117837   3.932   4.115   4.488 -0.4387  4.8144  1.9042
 2126SOL    HW217838   3.906   4.190   4.363  0.1791 -0.5881 -1.3645
 2127SOL     OW17839   3.687   1.956   0.104  0.1138  0.4978  0.1420
 2127SOL    HW117840   3.768   1.937   0.151  1.5742  0.3875 -2.4188
 2127SOL    HW217841   3.624   1.937   0.174  0.8056  0.8680  0.8635
 2128SOL     OW17842   0.778   3.000  10.070 -0.0572 -0.4812  0.1270
 2128SOL    HW117843   0.765   3.082  10.117  0.0242 -0.9362  0.9505
 2128SOL    HW217844   0.728   3.013   9.990 -0.9748 -0.6793  0.6576
 2129SOL     OW17845   2.314   1.079   2.313 -0.3207 -0.3380 -0.2684
 2129SOL    HW117846   2.386   1.115   2.261 -1.8248  1.5237 -1.0666
 2129SOL    HW217847   2.354   1.085   2.399  0.9525  0.6833 -0.9214
 2130SOL     OW17848   1.848   4.270   9.320  0.0302 -0.6775 -0.7298
 2130SOL    HW117849   1.820   4.178   9.316 -1.4421 -0.3204  1.7405
 2130SOL    HW217850   1.937   4.259   9.285  0.7858  1.0926  0.6580
 2131SOL     OW17851   2.499   1.768   7.007  0.0110 -0.3351 -0.1020
 2131SOL    HW117852   2.538   1.691   7.048  2.6882  1.5207  0.9056
 2131SOL    HW217853   2.493   1.741   6.916  0.5077 -1.7163  0.2852
 2132SOL     OW17854   3.221   1.431  10.140 -0.4292 -0.3795 -0.0422
 2132SOL    HW117855   3.236   1.427  10.045  2.2523  1.2979  0.3065
 2132SOL    HW217856   3.255   1.349  10.175 -0.6329  0.4025  1.9776
 2133SOL     OW17857   0.371   3.966   4.654 -0.6211 -0.0908 -0.3161
 2133SOL    HW117858   0.369   4.061   4.665 -0.8728 -0.1016 -0.2752
 2133SOL    HW217859   0.297   3.944   4.598 -0.5700  0.2085 -0.4988
 2134SOL     OW17860   2.231   1.669   5.271 -0.7049 -0.1884  0.6705
 2134SOL    HW117861   2.224   1.585   5.227 -1.2194 -0.3236  1.0185
 2134SOL    HW217862   2.326   1.674   5.275 -0.8618  2.0976  2.0137
 2135SOL     OW17863   3.501   3.441  16.041 -0.3485  0.4854 -0.0871
 2135SOL    HW117864   3.491   3.379  16.114  0.7653 -0.3083 -0.6090
 2135SOL    HW217865   3.451   3.399  15.971  2.6853 -1.8972 -0.8191
 2136SOL     OW17866   1.944   0.684   8.836 -0.8676  0.6226  0.0366
 2136SOL    HW117867   1.914   0.751   8.897  0.1799  1.9142 -0.8722
 2136SOL    HW217868   1.914   0.727   8.756 -0.2816 -0.6127 -0.8576
 2137SOL     OW17869   2.804   0.405   2.405  0.0122  0.0260 -0.0583
 2137SOL    HW117870   2.835   0.354   2.330  0.2304 -2.0544  1.4387
 2137SOL    HW217871   2.723   0.439   2.368 -0.1488 -0.1603  0.1223
 2138SOL     OW17872   3.299   1.612  14.286  0.1144  0.3519 -0.3827
 2138SOL    HW117873   3.252   1.601  14.204  0.1674  1.0949 -0.5144
 2138SOL    HW217874   3.222   1.604  14.343  1.1036 -0.6796  0.7976
 2139SOL     OW17875   2.749   0.402  10.078 -0.1598  0.0493  0.5249
 2139SOL    HW117876   2.706   0.422   9.995  0.1692 -2.1911 -0.1851
 2139SOL    HW217877   2.818   0.468  10.080  0.6434 -0.7517 -0.2680
 2140SOL     OW17878   2.090   0.715   4.686  0.4632 -0.2658  0.2928
 2140SOL    HW117879   2.119   0.766   4.610  0.6578  1.0273  1.2251
 2140SOL    HW217880   2.166   0.718   4.744  0.5956 -0.2678  0.1190
 2141SOL     OW17881   0.953   1.244   5.520 -0.3546  0.4109  0.2557
 2141SOL    HW117882   1.001   1.183   5.575  2.4395  0.5094 -2.0541
 2141SOL    HW217883   0.896   1.285   5.585  0.6377 -0.0995  1.4319
 2142SOL     OW17884   3.580   4.654   1.932 -0.0918  0.0355 -0.1759
 2142SOL    HW117885   3.500   4.608   1.907  0.1470 -0.2834 -0.3507
 2142SOL    HW217886   3.549   4.711   2.003 -0.8170 -1.3060  0.5969
 2143SOL     OW17887   0.846   0.991   4.366 -0.1942  0.1974 -0.8628
 2143SOL    HW117888   0.866   0.898   4.380  0.7031  1.0256  3.5966
 2143SOL    HW217889   0.932   1.033   4.368 -0.4051  0.6561 -1.5277
 2144SOL     OW17890   4.191   4.542   5.062  0.2707  0.4002 -0.1117
 2144SOL    HW117891   4.242   4.461   5.063  1.1234  0.9463  1.9946
 2144SOL    HW217892   4.148   4.543   5.148 -1.3319 -0.7390 -0.8997
 2145SOL     OW17893   4.108   4.176   1.428  0.3044  0.6667  0.0796
 2145SOL    HW117894   4.199   4.159   1.451  0.7779  1.2101 -1.4026
 2145SOL    HW217895   4.095   4.271   1.432  0.8355  0.6262  2.6435
 2146SOL     OW17896   2.571   3.823  13.099 -0.3317 -0.6023  0.1129
 2146SOL    HW117897   2.661   3.844  13.125 -0.0549  0.5180 -1.7502
 2146SOL    HW217898   2.546   3.772  13.176 -1.3400 -0.0402  0.1551
 2147SOL     OW17899   3.381   3.790   0.197 -0.0333 -0.7131 -0.4239
 2147SOL    HW117900   3.419   3.834   0.121 -0.9624 -0.2727 -0.6432
 2147SOL    HW217901   3.403   3.701   0.171 -1.1972 -0.7460 -1.2853
 2148SOL     OW17902   1.381   4.529  16.473  0.2306  0.0868 -0.1855
 2148SOL    HW117903   1.436   4.526  16.394 -0.7386  0.3265 -0.8675
 2148SOL    HW217904   1.441   4.506  16.544 -0.6408  0.4284  0.6631
 2149SOL     OW17905   1.034   0.292   8.713 -0.1591  0.3523  0.2105
 2149SOL    HW117906   1.078   0.301   8.798  1.1348  2.5991 -0.7005
 2149SOL    HW217907   0.980   0.218   8.739  2.2965 -2.5461 -2.8730
 2150SOL     OW17908   2.111   2.946   6.365 -0.5816  0.1395  0.2639
 2150SOL    HW117909   2.094   2.889   6.290 -1.6584 -0.1979  0.7599
 2150SOL    HW217910   2.024   2.978   6.391 -0.7912  1.8874 -2.5546
 2151SOL     OW17911   2.667   2.867  16.697 -0.1923  0.2822 -0.0445
 2151SOL    HW117912   2.750   2.825  16.722 -0.1076 -0.5597 -1.7630
 2151SOL    HW217913   2.617   2.846  16.777 -0.0301 -1.1845 -0.3344
 2152SOL     OW17914   4.320   0.223  17.453 -0.0304  0.0178  0.0602
 2152SOL    HW117915   4.362   0.305  17.426  0.9703 -0.3862  0.3948
 2152SOL    HW217916   4.234   0.246  17.416 -0.2277 -1.5930 -0.4774
 2153SOL     OW17917   1.247   0.681   6.925  0.1190 -0.2132  0.0625
 2153SOL    HW117918   1.296   0.728   6.857 -1.0656  0.6788 -0.1847
 2153SOL    HW217919   1.204   0.761   6.956 -0.8027 -0.9261  0.6258
 2154SOL     OW17920   0.732   4.597   6.614  0.0036 -0.7840 -0.7344
 2154SOL    HW117921   0.673   4.545   6.560  0.2658 -1.5904 -0.2381
 2154SOL    HW217922   0.690   4.683   6.621 -1.8597 -1.6483 -1.1445
 2155SOL     OW17923   0.970   1.406   7.677  0.3092  0.1741  0.3804
 2155SOL    HW117924   0.921   1.355   7.613 -0.5573  1.4377  0.0240
 2155SOL    HW217925   0.946   1.375   7.764 -1.2452  2.5399  0.8022
 2156SOL     OW17926   3.652   1.407  15.871 -0.3247  0.2188  0.1393
 2156SOL    HW117927   3.678   1.473  15.806 -0.7411  0.2797  0.0361
 2156SOL    HW217928   3.582   1.361  15.824 -1.7810  1.0031  1.5471
 2157SOL     OW17929   1.696   1.643   7.888 -0.0954 -0.5720  0.0825
 2157SOL    HW117930   1.623   1.588   7.861 -0.7005  0.8397 -1.1470
 2157SOL    HW217931   1.690   1.637   7.983  0.7598  0.5537  0.2045
 2158SOL     OW17932   0.271   3.718   6.270 -0.1789 -0.0955 -0.0521
 2158SOL    HW117933   0.215   3.673   6.207  1.6125 -1.2419 -0.7980
 2158SOL    HW217934   0.336   3.753   6.209 -0.8680 -0.5072 -1.0239
 2159SOL     OW17935   2.033   3.604   3.696 -0.4314  0.4377  0.1539
 2159SOL    HW117936   2.061   3.645   3.615 -0.3922  2.1913  1.0381
 2159SOL    HW217937   1.987   3.681   3.732  1.3611 -0.7194  4.9930
 2160SOL     OW17938   3.441   1.206   7.138  0.5740 -0.1494  0.2326
 2160SOL    HW117939   3.521   1.163   7.168  0.3592 -0.2165  0.7098
 2160SOL    HW217940   3.436   1.283   7.195  0.3183  0.4407 -0.5865
 2161SOL     OW17941   3.894   2.325   7.438  0.4988 -0.5349  0.8975
 2161SOL    HW117942   3.947   2.269   7.495  0.0054 -1.9696 -0.0426
 2161SOL    HW217943   3.944   2.318   7.356  0.0651 -0.5048  0.6337
 2162SOL     OW17944   4.557   2.731  15.831  0.2230  0.3879  0.2729
 2162SOL    HW117945   4.635   2.776  15.798 -0.5936  0.8823 -1.0106
 2162SOL    HW217946   4.482   2.760  15.778 -1.7583 -0.8254  2.4196
 2163SOL     OW17947   3.660   2.592   3.567  0.0219  0.4072 -0.6967
 2163SOL    HW117948   3.705   2.582   3.652 -0.9875  0.4455 -0.1600
 2163SOL    HW217949   3.704   2.671   3.537  1.0674 -0.2253 -0.8402
 2164SOL     OW17950   4.280   2.757   8.636  0.1339 -0.2019 -0.7453
 2164SOL    HW117951   4.287   2.672   8.678 -0.8531  0.2721  0.3808
 2164SOL    HW217952   4.187   2.777   8.623  0.1303 -0.3410 -0.9251
 2165SOL     OW17953   0.965   1.572   9.135  0.4069 -0.1321  0.4809
 2165SOL    HW117954   1.013   1.617   9.205  2.6418 -2.7356  0.6814
 2165SOL    HW217955   0.939   1.494   9.185  0.1137  1.7207  3.2022
 2166SOL     OW17956   4.359   2.507   1.646  1.1033 -0.3422  0.2211
 2166SOL    HW117957   4.385   2.593   1.679 -1.9583  0.3849  0.6696
 2166SOL    HW217958   4.286   2.476   1.699  0.8639  2.7804  1.7384
 2167SOL     OW17959   3.837   0.305   6.639 -0.3302 -0.3386  0.3390
 2167SOL    HW117960   3.848   0.319   6.733  3.7382 -2.1407  0.1351
 2167SOL    HW217961   3.767   0.241   6.630 -0.5118 -0.0830 -0.0506
 2168SOL     OW17962   0.393   3.290   9.039  0.5305 -0.2892  0.4340
 2168SOL    HW117963   0.444   3.325   9.112 -0.1636 -1.1154  1.3228
 2168SOL    HW217964   0.316   3.247   9.076  1.1276 -0.2474  1.7082
 2169SOL     OW17965   2.886   4.134   7.306  0.2466  0.2927 -0.3083
 2169SOL    HW117966   2.843   4.089   7.378 -0.1169  1.9314  0.4946
 2169SOL    HW217967   2.978   4.108   7.313  0.6795  1.6766 -0.8417
 2170SOL     OW17968   3.486   2.870   2.358  0.0514  0.1879  0.5130
 2170SOL    HW117969   3.410   2.870   2.416  0.0038 -1.2304  0.4596
 2170SOL    HW217970   3.441   2.872   2.274  1.4184 -0.5213 -0.2272
 2171SOL     OW17971   2.958   3.152   5.766 -0.2300 -0.0200 -0.1472
 2171SOL    HW117972   2.903   3.193   5.699 -0.8252 -0.6134 -0.0322
 2171SOL    HW217973   2.940   3.061   5.743 -0.7774  0.3211 -1.0713
 2172SOL     OW17974   3.591   2.304   4.611 -0.6494 -0.3749 -0.2010
 2172SOL    HW117975   3.642   2.287   4.531 -2.0454 -0.0514 -1.1593
 2172SOL    HW217976   3.656   2.274   4.675  0.4928  2.3495 -0.0948
 2173SOL     OW17977   1.485   0.551  12.181  0.3817  0.5463 -0.1127
 2173SOL    HW117978   1.396   0.551  12.146  0.9587 -0.9153 -1.5373
 2173SOL    HW217979   1.473   0.577  12.272 -1.0773  1.3029 -0.5251
 2174SOL     OW17980   1.666   2.253   5.670 -0.1916  0.3595  0.5556
 2174SOL    HW117981   1.636   2.317   5.734  1.8791 -0.1123  2.0266
 2174SOL    HW217982   1.667   2.169   5.716 -0.5714 -1.5934 -3.0024
 2175SOL     OW17983   3.757   3.558   5.743 -0.3114  0.3046  0.1253
 2175SOL    HW117984   3.787   3.496   5.809  0.8564  0.8268  0.0859
 2175SOL    HW217985   3.726   3.631   5.797 -2.2420  0.5860 -1.3485
 2176SOL     OW17986   0.364   4.373   1.746  0.1869 -0.0438  0.1289
 2176SOL    HW117987   0.295   4.326   1.699  0.3519 -0.8060  0.6416
 2176SOL    HW217988   0.435   4.309   1.752  1.3332  1.3121  0.9037
 2177SOL     OW17989   1.263   4.061   4.948 -0.1442 -0.4555 -0.1638
 2177SOL    HW117990   1.343   4.007   4.949  1.1533  1.4512 -1.2420
 2177SOL    HW217991   1.293   4.143   4.986  0.8654 -1.6065  1.5510
 2178SOL     OW17992   4.486   0.015   6.300  0.5341  0.3244  0.1718
 2178SOL    HW117993   4.429   4.666   6.324  2.1942 -1.0092  0.0272
 2178SOL    HW217994   4.504   0.053   6.385 -0.9146  3.7169 -1.0238
 2179SOL     OW17995   1.282   3.103   6.049 -0.4195  0.3535 -0.5403
 2179SOL    HW117996   1.360   3.158   6.061 -0.5436  1.1881 -3.5961
 2179SOL    HW217997   1.212   3.166   6.065 -0.9007 -0.5370  0.9067
 2180SOL     OW17998   1.000   3.480   0.213  0.0609 -0.6111  0.5283
 2180SOL    HW117999   1.080   3.502   0.261  1.3180 -2.0112 -0.9823
 2180SOL    HW218000   1.048   3.447   0.138 -0.1820 -0.1995  0.1939
 2181SOL     OW18001   4.366   3.885   9.638 -0.0751 -0.0458 -0.1679
 2181SOL    HW118002   4.457   3.912   9.653 -0.9744  1.9514  1.5262
 2181SOL    HW218003   4.323   3.970   9.633  0.3498  0.4299  3.6039
 2182SOL     OW18004   0.172   2.015  14.254 -0.0608  0.0963 -0.4774
 2182SOL    HW118005   0.188   2.003  14.161 -0.1351  1.9567 -0.7105
 2182SOL    HW218006   0.260   1.994  14.287 -0.6373 -1.9147 -0.1785
 2183SOL     OW18007   1.711   3.492   9.329 -0.5463  0.5289 -0.0524
 2183SOL    HW118008   1.714   3.446   9.412 -2.6865 -1.1115 -0.8720
 2183SOL    HW218009   1.728   3.426   9.262  1.2963  0.7792  0.1810
 2184SOL     OW18010   3.743   2.590  17.081 -0.3225 -0.3749 -0.1804
 2184SOL    HW118011   3.832   2.621  17.099  0.2855 -2.4990  0.4536
 2184SOL    HW218012   3.697   2.658  17.131  1.7884 -0.4331  1.8369
 2185SOL     OW18013   2.317   1.966   7.729 -0.1453 -0.0589  0.1964
 2185SOL    HW118014   2.260   1.929   7.661 -1.0865 -0.4094  1.1819
 2185SOL    HW218015   2.298   2.059   7.718 -0.0988 -0.0816 -0.0732
 2186SOL     OW18016   0.763   0.300   2.481 -0.1320 -0.1130  0.9386
 2186SOL    HW118017   0.784   0.313   2.574 -0.7592  2.3268  0.7404
 2186SOL    HW218018   0.785   0.209   2.464  0.4506  0.4204 -1.2278
 2187SOL     OW18019   2.195   3.082   4.397  0.1758  0.2997 -0.6291
 2187SOL    HW118020   2.154   3.161   4.362 -1.9573  0.2396  1.6506
 2187SOL    HW218021   2.164   3.083   4.488 -0.8319  2.9237 -1.0111
 2188SOL     OW18022   1.127   2.480   0.225  0.0153  0.0101  0.0514
 2188SOL    HW118023   1.070   2.405   0.243 -1.0996  0.7526 -0.3898
 2188SOL    HW218024   1.208   2.436   0.250  0.2980 -0.7082 -2.1873
 2189SOL     OW18025   1.650   1.545   6.516 -0.1662 -0.2697  0.0382
 2189SOL    HW118026   1.567   1.593   6.527 -1.1920 -1.9321 -0.4482
 2189SOL    HW218027   1.669   1.579   6.429  0.1016  1.1210  0.6421
 2190SOL     OW18028   2.231   2.517   5.302  0.7842  0.0553 -0.0043
 2190SOL    HW118029   2.253   2.425   5.316  0.8749  0.4559  2.6361
 2190SOL    HW218030   2.168   2.535   5.372  0.0419  0.9865 -0.9130
 2191SOL     OW18031   2.240   1.724   7.220 -0.0207  0.1068  0.1473
 2191SOL    HW118032   2.265   1.639   7.185  0.1942  0.2382 -0.0209
 2191SOL    HW218033   2.147   1.723   7.199 -0.0170  0.2964  0.1196
 2192SOL     OW18034   2.590   1.273   2.337 -0.0751  0.1290 -0.1994
 2192SOL    HW118035   2.551   1.353   2.373  0.6369 -0.3141  1.5794
 2192SOL    HW218036   2.614   1.305   2.250  3.2469 -2.1452 -0.1185
 2193SOL     OW18037   0.377   4.154  16.287  1.0551 -0.0738  0.0869
 2193SOL    HW118038   0.310   4.163  16.354  0.3666 -0.9762 -0.4843
 2193SOL    HW218039   0.451   4.197  16.331  2.6152 -3.0502  0.4140
 2194SOL     OW18040   0.562   3.893   3.110  0.2313  0.7106  0.4513
 2194SOL    HW118041   0.652   3.924   3.121  0.4681 -0.1089  0.7824
 2194SOL    HW218042   0.580   3.815   3.058  0.1195 -0.4266  2.1320
 2195SOL     OW18043   1.203   1.239   0.821  0.5557 -0.7498  0.0077
 2195SOL    HW118044   1.233   1.324   0.854 -1.1470 -0.3235  0.4155
 2195SOL    HW218045   1.272   1.217   0.757  0.6238  1.6407 -0.7729
 2196SOL     OW18046   3.789   2.080   7.701 -0.3837 -0.0167 -0.3189
 2196SOL    HW118047   3.780   2.144   7.771 -0.0864 -0.0278 -0.2687
 2196SOL    HW218048   3.856   2.121   7.646 -0.5130 -0.1717 -0.5920
 2197SOL     OW18049   2.736   0.936   3.438  0.4136  0.3959  0.4236
 2197SOL    HW118050   2.680   0.924   3.361  1.0166  1.0080 -0.1040
 2197SOL    HW218051   2.758   1.029   3.435 -1.9448  1.0076  1.9197
 2198SOL     OW18052   2.760   0.823   2.473  0.3354  0.3059 -0.1022
 2198SOL    HW118053   2.773   0.888   2.403  0.4109  0.4749  0.0694
 2198SOL    HW218054   2.766   0.887   2.544 -3.2300 -1.8645  2.1422
 2199SOL     OW18055   2.324   1.670  12.164  0.8138 -0.3918  0.0803
 2199SOL    HW118056   2.365   1.587  12.190 -0.1337 -0.6609  0.7409
 2199SOL    HW218057   2.392   1.693  12.101  1.2813 -0.6040  0.5095
 2200SOL     OW18058   2.750   1.044   2.311 -0.2910 -0.4023 -0.0262
 2200SOL    HW118059   2.754   1.070   2.219  3.3701  0.7111  0.4166
 2200SOL    HW218060   2.680   1.102   2.339  0.3456 -0.0598  0.8504
 2201SOL     OW18061   0.974   1.982   5.383 -0.0078 -0.2966 -0.9739
 2201SOL    HW118062   0.959   1.909   5.442 -0.7465  0.1054 -0.6642
 2201SOL    HW218063   1.067   1.983   5.358  0.3930  1.1489  0.4951
 2202SOL     OW18064   2.020   3.398   8.183 -0.4558  0.1536  0.6158
 2202SOL    HW118065   2.087   3.427   8.244 -0.6898 -0.6671  1.2620
 2202SOL    HW218066   2.015   3.303   8.199  0.1548 -0.1944 -1.1978
 2203SOL     OW18067   1.153   2.954   6.830 -0.1011  0.1132  0.6182
 2203SOL    HW118068   1.103   3.000   6.763  1.1340 -0.1107 -0.4551
 2203SOL    HW218069   1.158   2.867   6.789 -2.8156  0.7973 -1.1560
 2204SOL     OW18070   1.242   4.415  16.703  0.1334  0.1300  0.9566
 2204SOL    HW118071   1.234   4.469  16.624  1.4049  1.7725  1.9419
 2204SOL    HW218072   1.221   4.328  16.669 -2.5424  0.8849  0.6675
 2205SOL     OW18073   0.294   2.654   6.243  0.2360  0.1423 -0.0601
 2205SOL    HW118074   0.223   2.599   6.209 -0.1096  0.2223  0.5365
 2205SOL    HW218075   0.301   2.710   6.166 -1.9878  1.2621  0.5613
 2206SOL     OW18076   2.132   1.717   3.545  0.7417  0.1676  0.2006
 2206SOL    HW118077   2.121   1.687   3.455 -1.0997 -2.2883  1.2617
 2206SOL    HW218078   2.104   1.809   3.542  0.2335  0.0013 -0.1870
 2207SOL     OW18079   1.704   4.216   3.706 -0.0655  0.4076 -0.2325
 2207SOL    HW118080   1.670   4.304   3.720 -0.5675  0.1581  0.1236
 2207SOL    HW218081   1.776   4.218   3.643 -2.3263 -0.9556 -2.8372
 2208SOL     OW18082   3.051   3.841   0.974  0.2410 -0.0681 -0.6727
 2208SOL    HW118083   3.113   3.859   0.903  1.0213  2.0382  0.5140
 2208SOL    HW218084   3.062   3.747   0.964  2.8750  0.1975 -0.3930
 2209SOL     OW18085   2.831   1.014   9.312  0.0624  0.3008 -0.2793
 2209SOL    HW118086   2.800   0.939   9.363  0.1941  0.6276  0.2845
 2209SOL    HW218087   2.838   1.088   9.373 -0.6471 -0.8985  1.2598
 2210SOL     OW18088   1.224   0.064  16.716  0.2575  0.0861  0.4531
 2210SOL    HW118089   1.289   0.134  16.714  0.1406  0.1701 -0.4405
 2210SOL    HW218090   1.270   4.713  16.753  0.3268  1.6539  3.5288
 2211SOL     OW18091   2.557   2.631   0.615 -0.3625 -0.0159 -0.3929
 2211SOL    HW118092   2.623   2.700   0.624 -1.1651  0.9538 -1.9220
 2211SOL    HW218093   2.616   2.570   0.572  0.5688 -1.8325  3.4237
 2212SOL     OW18094   0.292   1.724   5.170 -0.0803  0.2567 -0.1223
 2212SOL    HW118095   0.263   1.803   5.124  1.6651  0.7748 -0.3394
 2212SOL    HW218096   0.222   1.700   5.230 -0.8788 -2.1486 -1.9762
 2213SOL     OW18097   3.997   4.370   4.626 -0.1444  0.5036  0.4462
 2213SOL    HW118098   4.080   4.359   4.673  0.6729  1.9980 -0.6281
 2213SOL    HW218099   3.975   4.277   4.620  0.2437  0.3682  1.1369
 2214SOL     OW18100   3.499   3.609   7.815  0.0313 -0.0480  0.1169
 2214SOL    HW118101   3.557   3.533   7.816  1.3636  0.9631 -0.5113
 2214SOL    HW218102   3.452   3.613   7.898 -0.4081  0.8314 -0.1778
 2215SOL     OW18103   0.695   0.830   3.607 -0.5101  0.5444  0.5043
 2215SOL    HW118104   0.656   0.747   3.633  0.7968 -0.0941  0.4213
 2215SOL    HW218105   0.711   0.817   3.513 -2.2343  0.8214  0.1642
 2216SOL     OW18106   4.191   4.114   8.497  0.2938 -1.2563  0.0197
 2216SOL    HW118107   4.124   4.135   8.562  2.5520  1.8503  1.2998
 2216SOL    HW218108   4.132   4.122   8.422  1.6722  1.1439 -0.7937
 2217SOL     OW18109   3.863   0.729   2.821  0.2610 -0.5174  0.3745
 2217SOL    HW118110   3.801   0.750   2.751 -2.2790  0.9432  3.0686
 2217SOL    HW218111   3.797   0.716   2.889  0.2293 -0.4318  0.3604
 2218SOL     OW18112   2.020   4.500  10.484 -0.4514  0.2637  0.4494
 2218SOL    HW118113   2.000   4.483  10.577 -0.0678 -1.3775  0.2421
 2218SOL    HW218114   1.997   4.415  10.447  2.1480 -0.7890  1.2537
 2219SOL     OW18115   3.695   3.465  11.161 -0.0636  0.2571 -0.1358
 2219SOL    HW118116   3.648   3.457  11.244 -1.1611  2.1834 -0.5804
 2219SOL    HW218117   3.741   3.546  11.183  0.4530  0.0575 -0.4932
 2220SOL     OW18118   2.376   1.503  10.071  0.2835  0.2179  0.1230
 2220SOL    HW118119   2.440   1.569  10.043  0.2443  0.3119  0.2537
 2220SOL    HW218120   2.421   1.479  10.151 -0.6984 -1.1209  0.2667
 2221SOL     OW18121   4.325   2.306   8.213  0.4165 -0.1821  0.6895
 2221SOL    HW118122   4.391   2.315   8.144 -0.6562 -0.9399 -0.4219
 2221SOL    HW218123   4.334   2.213   8.233 -2.1067 -0.8381 -1.1781
 2222SOL     OW18124   2.637   1.401  11.617  0.1833 -0.1660  0.0904
 2222SOL    HW118125   2.684   1.484  11.606 -0.8458  0.7555  2.6596
 2222SOL    HW218126   2.551   1.422  11.653  0.9645 -0.1655  1.9523
 2223SOL     OW18127   2.580   2.785   7.261 -0.0372  0.5903 -0.4616
 2223SOL    HW118128   2.599   2.839   7.337  1.7721 -1.0039  0.1924
 2223SOL    HW218129   2.671   2.768   7.240  0.2329  0.9809  0.3890
 2224SOL     OW18130   2.892   3.032   4.358 -0.4701 -0.4259 -0.2066
 2224SOL    HW118131   2.883   2.948   4.312 -1.2420 -0.9846  0.9525
 2224SOL    HW218132   2.928   3.007   4.443 -1.6807 -1.5962 -0.0412
 2225SOL     OW18133   1.036   1.989  15.363 -0.9335  0.5729 -0.1615
 2225SOL    HW118134   1.070   1.945  15.442  1.4784  1.1243 -0.8766
 2225SOL    HW218135   0.988   2.061  15.403 -0.6611 -0.9009  2.8515
 2226SOL     OW18136   1.618   3.160  10.803 -0.1151 -0.3761 -0.2598
 2226SOL    HW118137   1.642   3.188  10.715  1.0804  0.0523  0.2026
 2226SOL    HW218138   1.537   3.111  10.791 -0.9174  1.0041 -0.5241
 2227SOL     OW18139   3.848   3.781   6.110 -0.2411  0.5177  0.3674
 2227SOL    HW118140   3.812   3.731   6.183  1.7264  1.0985  1.7555
 2227SOL    HW218141   3.856   3.866   6.155  1.1507  0.9993 -0.8094
 2228SOL     OW18142   0.912   4.685   3.281  0.3890 -0.2784 -0.1711
 2228SOL    HW118143   0.897   4.593   3.264  1.2672 -0.5903  0.7559
 2228SOL    HW218144   0.823   4.718   3.298  0.5748  0.4517 -0.5804
 2229SOL     OW18145   1.355   0.276  12.122 -0.1689  0.1098  0.0174
 2229SOL    HW118146   1.418   0.339  12.157 -0.6239  0.0244  1.0199
 2229SOL    HW218147   1.324   0.315  12.041 -0.5019 -1.0805 -0.4273
 2230SOL     OW18148   0.895   2.599   3.546 -0.1782  0.3356  0.3544
 2230SOL    HW118149   0.906   2.594   3.452 -0.8730 -1.0514  0.3573
 2230SOL    HW218150   0.983   2.618   3.579  0.4469 -3.5629  0.8464
 2231SOL     OW18151   3.442   3.299  17.467 -0.4768  0.4115  0.1680
 2231SOL    HW118152   3.466   3.274  17.377 -0.8955 -3.0055  0.9751
 2231SOL    HW218153   3.361   3.249  17.470 -0.5053  0.4240 -0.3436
 2232SOL     OW18154   0.907   0.487   2.351 -0.4000  0.0413  0.7135
 2232SOL    HW118155   0.841   0.427   2.384 -1.2225  0.1470 -0.7194
 2232SOL    HW218156   0.990   0.469   2.395  0.0036  0.7188  0.2301
 2233SOL     OW18157   1.446   2.103   8.334 -0.1399 -0.1742 -0.2736
 2233SOL    HW118158   1.358   2.129   8.361  0.0140 -0.1719  0.2185
 2233SOL    HW218159   1.464   2.026   8.388  0.1324 -0.3135 -0.5610
 2234SOL     OW18160   1.089   3.138   3.191  0.0196 -0.3753  0.1782
 2234SOL    HW118161   1.151   3.188   3.138  0.0806  1.3248  1.8634
 2234SOL    HW218162   1.032   3.206   3.226  0.1900  0.3662 -0.9651
 2235SOL     OW18163   0.218   4.260  15.811 -0.6891 -0.1409  0.1498
 2235SOL    HW118164   0.157   4.282  15.881  0.9321 -1.7842  2.0701
 2235SOL    HW218165   0.252   4.172  15.827 -1.6312 -0.6044 -0.3477
 2236SOL     OW18166   4.563   2.225   3.489  0.3020 -0.7936  0.1983
 2236SOL    HW118167   4.567   2.303   3.432 -0.9216 -1.1714 -0.4111
 2236SOL    HW218168   4.654   2.202   3.507  0.3178  0.2716  1.4686
 2237SOL     OW18169   0.908   0.056   1.795  0.6666  0.8459  0.1517
 2237SOL    HW118170   0.925   4.710   1.733  1.2080  0.1932  1.0402
 2237SOL    HW218171   0.996   0.078   1.826  0.8446  0.4610 -0.0842
 2238SOL     OW18172   1.930   3.378   1.018  0.4513 -0.8751 -0.1047
 2238SOL    HW118173   2.021   3.375   1.046  0.7553  3.0577 -0.6943
 2238SOL    HW218174   1.891   3.368   1.105 -3.2557 -1.3863 -1.8228
 2239SOL     OW18175   2.628   0.074   9.247 -0.3207 -0.0865 -0.3543
 2239SOL    HW118176   2.668   0.009   9.189  2.3903  0.1383  1.2457
 2239SOL    HW218177   2.704   0.133   9.256  0.3749 -0.9896 -0.2923
 2240SOL     OW18178   2.048   1.549  11.490 -0.0772 -0.3316  0.2742
 2240SOL    HW118179   1.965   1.597  11.485 -0.6779 -1.5603 -1.4327
 2240SOL    HW218180   2.032   1.476  11.430 -0.3459 -0.8403  0.9494
 2241SOL     OW18181   3.648   0.733  11.616  0.2332 -0.1018  0.3599
 2241SOL    HW118182   3.708   0.660  11.633  0.6668  0.5625  1.6650
 2241SOL    HW218183   3.654   0.738  11.521  1.2087  0.2509  0.4413
 2242SOL     OW18184   4.146   3.315   7.457 -0.4794  0.0160  0.2655
 2242SOL    HW118185   4.146   3.359   7.373 -1.1182 -0.4739  0.0123
 2242SOL    HW218186   4.236   3.332   7.485 -0.2300  0.2881 -0.7236
 2243SOL     OW18187   2.360   0.231   1.031  0.8283 -0.0188  0.3943
 2243SOL    HW118188   2.428   0.246   0.966  0.5626  0.7757  0.2947
 2243SOL    HW218189   2.369   0.140   1.060 -0.6502 -0.4595 -0.5315
 2244SOL     OW18190   2.935   0.506   6.644  0.5472  0.5304  0.3683
 2244SOL    HW118191   2.923   0.555   6.563  0.5942  1.9724  1.2329
 2244SOL    HW218192   3.030   0.506   6.653  0.6539 -2.8851 -0.6190
 2245SOL     OW18193   1.953   2.934   5.261  0.1910  0.3400  0.2725
 2245SOL    HW118194   1.888   2.880   5.215  2.2258 -0.7158 -1.3862
 2245SOL    HW218195   2.024   2.873   5.277  1.1134  1.6411  1.0858
 2246SOL     OW18196   3.485   3.301  10.011 -0.3574  0.1922  0.2479
 2246SOL    HW118197   3.515   3.341   9.929 -2.0276 -1.7557 -1.3423
 2246SOL    HW218198   3.393   3.300   9.982 -1.0708  0.6563  2.5379
 2247SOL     OW18199   1.424   0.268  15.608 -0.0274  0.8626 -0.2890
 2247SOL    HW118200   1.426   0.299  15.698  0.1189  1.1807 -0.4020
 2247SOL    HW218201   1.508   0.298  15.573  0.5396 -0.3436  0.0068
 2248SOL     OW18202   3.698   3.036   3.517 -0.1868  0.8323 -0.2836
 2248SOL    HW118203   3.683   3.010   3.608 -0.8941  1.0884 -0.3228
 2248SOL    HW218204   3.778   3.087   3.526 -0.0173  1.0477 -3.0522
 2249SOL     OW18205   0.935   0.114   7.522 -0.1222  0.0027 -0.1310
 2249SOL    HW118206   0.941   0.164   7.603  1.4519 -2.7880  1.4994
 2249SOL    HW218207   0.895   0.174   7.459 -0.5180 -1.1724 -1.0026
 2250SOL     OW18208   2.715   3.475   3.074  0.0178 -0.6846 -0.1004
 2250SOL    HW118209   2.695   3.497   3.165 -0.1238 -0.0010 -0.2937
 2250SOL    HW218210   2.809   3.489   3.074 -0.3161  1.5736 -1.0379
 2251SOL     OW18211   0.817   1.947   6.668  0.4065  0.2138 -0.4946
 2251SOL    HW118212   0.757   1.873   6.682 -2.0324  1.8024 -2.6139
 2251SOL    HW218213   0.875   1.942   6.745  1.5981  0.5844 -1.3669
 2252SOL     OW18214   0.703   0.407   4.033  0.0937 -0.3609 -0.5821
 2252SOL    HW118215   0.689   0.315   4.056 -0.0159 -0.6162 -1.6661
 2252SOL    HW218216   0.612   0.431   4.053  0.0657  1.1520 -2.6251
 2253SOL     OW18217   1.170   3.800   3.812  0.1013 -0.5898 -0.0951
 2253SOL    HW118218   1.180   3.772   3.903 -1.8977  2.3415  1.0569
 2253SOL    HW218219   1.079   3.777   3.794  0.1434 -0.3943 -0.5401
 2254SOL     OW18220   0.959   2.575  15.619  0.2168  0.0408  0.6170
 2254SOL    HW118221   0.929   2.485  15.606 -0.9839  0.2131  2.2277
 2254SOL    HW218222   0.885   2.621  15.658 -0.0446  1.9217 -2.0255
 2255SOL     OW18223   1.431   3.910   0.528 -0.0468  0.2191 -0.2525
 2255SOL    HW118224   1.411   3.820   0.552  0.8916  0.3877  1.1680
 2255SOL    HW218225   1.356   3.927   0.470  0.8329  1.4610 -1.0199
 2256SOL     OW18226   2.445   4.355   0.900 -0.1684  1.1521 -0.1531
 2256SOL    HW118227   2.446   4.336   0.994 -0.7867  0.8657 -0.2028
 2256SOL    HW218228   2.369   4.413   0.903 -1.4952 -0.5952  0.1306
 2257SOL     OW18229   2.349   3.279   6.147  0.5463 -0.2868  0.0212
 2257SOL    HW118230   2.400   3.294   6.226 -2.4291 -0.3866  1.9678
 2257SOL    HW218231   2.416   3.248   6.086  1.1583 -0.3082  0.7098
 2258SOL     OW18232   3.070   4.661  13.050 -0.1716  0.5652  0.2811
 2258SOL    HW118233   3.067   4.632  13.141 -0.8116  0.0945  0.1038
 2258SOL    HW218234   2.980   4.679  13.026 -0.5678 -1.2378  0.4537
 2259SOL     OW18235   1.356   2.328   0.659 -0.2170  0.0106  0.2058
 2259SOL    HW118236   1.330   2.418   0.681 -0.9460 -0.0096 -0.5427
 2259SOL    HW218237   1.312   2.325   0.574 -1.6372  0.0875  0.9351
 2260SOL     OW18238   3.369   4.310  10.582  0.1554 -0.5208  1.0149
 2260SOL    HW118239   3.329   4.376  10.526  0.0233 -1.5370 -0.0717
 2260SOL    HW218240   3.459   4.306  10.550 -0.4915  2.0011 -1.1619
 2261SOL     OW18241   2.136   1.181  12.195  0.1469  0.2566  0.2280
 2261SOL    HW118242   2.108   1.270  12.218 -0.5918 -0.4024  1.8699
 2261SOL    HW218243   2.133   1.174  12.100 -1.0911 -2.1770  0.4491
 2262SOL     OW18244   1.516   3.043   2.879 -0.3387 -0.2603  0.1976
 2262SOL    HW118245   1.482   2.953   2.875 -3.3495  0.8003  1.6718
 2262SOL    HW218246   1.478   3.094   2.807  0.8627  2.0680  1.2464
 2263SOL     OW18247   0.615   0.994  11.430 -0.2075  0.3632  0.0492
 2263SOL    HW118248   0.617   1.014  11.524 -0.2812  0.2421  0.0758
 2263SOL    HW218249   0.556   1.061  11.396  0.0353  1.2334  1.3128
 2264SOL     OW18250   3.965   1.842   5.693 -0.7401  0.5307 -0.4425
 2264SOL    HW118251   3.986   1.912   5.754 -1.4624  0.5760 -0.2431
 2264SOL    HW218252   4.052   1.810   5.672 -0.3140 -0.0416  2.1468
 2265SOL     OW18253   1.766   0.511   9.050  0.2532 -0.4457  0.0878
 2265SOL    HW118254   1.834   0.558   9.002  0.6431 -1.4275 -0.3256
 2265SOL    HW218255   1.690   0.567   9.034  0.7612  0.1482 -0.2326
 2266SOL     OW18256   1.518   1.144   9.200  0.3901 -0.4303 -0.0977
 2266SOL    HW118257   1.587   1.101   9.149  1.4755 -0.1478  1.1396
 2266SOL    HW218258   1.558   1.161   9.286 -0.5196  0.1112  0.2127
 2267SOL     OW18259   0.764   0.921   5.631  0.0718  0.8712 -0.1870
 2267SOL    HW118260   0.846   0.910   5.584  0.3732 -1.5306  0.8565
 2267SOL    HW218261   0.791   0.897   5.720  2.8217 -0.9956 -1.5389
 2268SOL     OW18262   2.913   3.964   5.955  0.3616 -0.2480  0.6235
 2268SOL    HW118263   2.969   4.038   5.979  0.6792 -0.0880 -0.5715
 2268SOL    HW218264   2.980   3.897   5.964 -0.5989 -1.5284 -1.6935
 2269SOL     OW18265   2.684   2.334  13.073 -0.5734 -0.6949  0.0339
 2269SOL    HW118266   2.631   2.391  13.016 -0.9695 -1.6645 -0.5598
 2269SOL    HW218267   2.650   2.366  13.157  0.2465 -0.3561  0.2328
 2270SOL     OW18268   3.633   1.833   3.299  0.0953 -0.3734 -0.4995
 2270SOL    HW118269   3.727   1.815   3.309 -0.3257 -2.6409 -0.6513
 2270SOL    HW218270   3.600   1.744   3.289 -2.6615  0.4950  1.0236
 2271SOL     OW18271   2.440   3.176   3.598  0.2659  0.0535  0.5675
 2271SOL    HW118272   2.408   3.097   3.641  1.3613 -0.5954  0.2067
 2271SOL    HW218273   2.367   3.237   3.601 -1.2384 -1.8279  1.8248
 2272SOL     OW18274   4.574   2.408   6.245  0.1906 -0.2645 -0.2505
 2272SOL    HW118275   4.556   2.499   6.223 -0.8279 -0.9665 -2.4245
 2272SOL    HW218276   4.614   2.387   6.160  0.5024 -1.0853  0.0981
 2273SOL     OW18277   3.177   0.923   3.697  0.5569 -0.1925 -0.0484
 2273SOL    HW118278   3.175   0.839   3.743 -0.0133  1.1027  2.2549
 2273SOL    HW218279   3.121   0.977   3.753 -0.2964  1.1217 -2.1556
 2274SOL     OW18280   0.473   4.069   1.820  0.5200  0.1012 -0.4048
 2274SOL    HW118281   0.489   4.014   1.745  0.2100 -1.3870  0.6266
 2274SOL    HW218282   0.378   4.077   1.822  0.4633 -0.5640 -0.6818
 2275SOL     OW18283   1.783   1.435   9.576 -0.1872 -0.0931  0.0819
 2275SOL    HW118284   1.857   1.439   9.637 -1.9736 -0.2465  2.2797
 2275SOL    HW218285   1.709   1.462   9.631  1.3285 -1.1605  2.6891
 2276SOL     OW18286   3.040   0.760   9.937  0.4766  0.6464  0.6579
 2276SOL    HW118287   3.128   0.778   9.968  0.7628  1.4280 -0.5917
 2276SOL    HW218288   3.003   0.703  10.004  0.7066  0.7870  0.9049
 2277SOL     OW18289   4.669   3.327   7.424  0.2599 -0.6046 -0.7921
 2277SOL    HW118290   4.605   3.389   7.459  0.0403 -1.9111  1.0976
 2277SOL    HW218291   4.642   3.237   7.442  1.8987 -0.9030  0.1292
 2278SOL     OW18292   3.012   3.160   6.931  0.4330 -0.3666  0.1887
 2278SOL    HW118293   2.985   3.249   6.908 -2.4212 -1.0427  0.9095
 2278SOL    HW218294   3.067   3.146   6.854  0.5103  0.6692  0.0532
 2279SOL     OW18295   3.426   4.052  10.257 -0.2207 -0.2941 -0.3458
 2279SOL    HW118296   3.392   4.025  10.172  0.2347  0.9876 -0.9391
 2279SOL    HW218297   3.517   4.074  10.238  0.6545 -2.7527  1.0130
 2280SOL     OW18298   3.513   4.144   7.326  0.1133  0.2079  0.1095
 2280SOL    HW118299   3.467   4.061   7.338  2.2292 -1.3253 -2.3567
 2280SOL    HW218300   3.485   4.181   7.243  0.3719  1.0062  0.3747
 2281SOL     OW18301   3.937   3.007   8.578  0.5570 -0.1017  0.1095
 2281SOL    HW118302   3.869   2.973   8.636 -0.7748  2.1671 -0.0960
 2281SOL    HW218303   3.977   2.925   8.549 -0.3692 -0.2538 -0.7281
 2282SOL     OW18304   3.265   2.305   2.836 -0.3606  0.0497  0.6148
 2282SOL    HW118305   3.185   2.265   2.872 -0.9411  0.2870 -0.4063
 2282SOL    HW218306   3.229   2.393   2.824 -0.1144  0.2157  1.0879
 2283SOL     OW18307   0.364   4.216   5.852  0.0547 -0.3353 -0.4444
 2283SOL    HW118308   0.414   4.170   5.784  0.1104  0.7895 -1.1669
 2283SOL    HW218309   0.430   4.283   5.866 -0.7531  0.6265 -1.2321
 2284SOL     OW18310   1.320   2.576  17.548 -0.3642  0.0864 -0.4064
 2284SOL    HW118311   1.251   2.566  17.613  0.3797 -1.1262  0.1813
 2284SOL    HW218312   1.275   2.639  17.491 -0.5789 -0.2130 -0.5640
 2285SOL     OW18313   4.061   3.126   2.643 -0.3146  0.3376 -0.0832
 2285SOL    HW118314   4.016   3.048   2.612 -0.6204 -0.0798  1.4081
 2285SOL    HW218315   4.060   3.112   2.738 -1.4105  1.4236  0.0686
 2286SOL     OW18316   4.416   3.449  13.226  0.1358  0.6658  0.1767
 2286SOL    HW118317   4.459   3.403  13.153  2.1283  0.4794  1.4831
 2286SOL    HW218318   4.424   3.537  13.190 -0.6351  0.7032  0.0913
 2287SOL     OW18319   4.239   3.909  17.644  0.0772 -0.4139  0.3670
 2287SOL    HW118320   4.196   3.968   0.008  1.6533  0.2496  0.8216
 2287SOL    HW218321   4.325   3.899  17.684 -0.3586  0.5458  1.5606
 2288SOL     OW18322   1.898   1.171   2.596 -0.4312  0.2669  0.1243
 2288SOL    HW118323   1.927   1.194   2.508 -0.3781  1.1238  0.3687
 2288SOL    HW218324   1.974   1.128   2.634 -1.6518 -1.4662  0.6267
 2289SOL     OW18325   4.105   2.903  14.543  0.3447  0.1459 -0.4753
 2289SOL    HW118326   4.048   2.844  14.494  0.1711 -0.3503  0.3119
 2289SOL    HW218327   4.155   2.944  14.473 -0.1672  0.1972 -0.8118
 2290SOL     OW18328   4.350   3.506   6.430  0.4703 -0.2785 -0.0035
 2290SOL    HW118329   4.350   3.571   6.360  1.4329  1.8612  1.9870
 2290SOL    HW218330   4.334   3.427   6.378 -0.1501  0.6621 -1.2448
 2291SOL     OW18331   4.674   1.258   6.696 -0.1303 -0.0120  0.1359
 2291SOL    HW118332   4.665   1.178   6.645 -3.7866  1.2198 -1.1507
 2291SOL    HW218333   0.006   1.313   6.641 -0.1074 -1.7068 -1.4921
 2292SOL     OW18334   1.846   1.298   7.994 -0.0113  0.8726  0.2195
 2292SOL    HW118335   1.777   1.307   8.060 -0.5346  0.6154 -0.2909
 2292SOL    HW218336   1.921   1.350   8.023  0.8651  0.2532 -0.9448
 2293SOL     OW18337   0.556   2.667   3.021  0.1481 -0.5115 -0.1097
 2293SOL    HW118338   0.592   2.591   3.067 -1.8010  0.0231  2.2830
 2293SOL    HW218339   0.560   2.632   2.932 -0.2711  1.6434 -0.9701
 2294SOL     OW18340   0.358   3.964   2.445 -0.1534 -0.1890  0.7363
 2294SOL    HW118341   0.271   3.983   2.479 -0.6816 -0.8449 -0.2668
 2294SOL    HW218342   0.395   4.052   2.456  0.3805 -0.4176  0.7789
 2295SOL     OW18343   2.162   1.412   5.179 -0.4856 -0.3633  0.8003
 2295SOL    HW118344   2.150   1.348   5.249 -2.7492  0.1892  0.9026
 2295SOL    HW218345   2.101   1.385   5.110  1.2486 -4.4441  0.8666
 2296SOL     OW18346   1.194   4.052   6.732 -0.2900 -0.0222 -0.1235
 2296SOL    HW118347   1.118   4.010   6.691 -0.2119 -1.9159  1.6630
 2296SOL    HW218348   1.163   4.065   6.822 -2.4804 -1.0891 -0.7368
 2297SOL     OW18349   4.587   3.011   5.486  0.4347 -0.3974  0.1777
 2297SOL    HW118350   4.558   2.927   5.522  0.4267 -0.0169  1.0530
 2297SOL    HW218351   4.680   2.990   5.486  0.3878 -0.6534 -2.5896
 2298SOL     OW18352   1.551   3.299   9.636 -0.0498  0.1805 -0.0017
 2298SOL    HW118353   1.581   3.253   9.557  1.3880 -0.8595  1.1491
 2298SOL    HW218354   1.629   3.354   9.643 -0.0682  0.2587 -0.4057
 2299SOL     OW18355   4.492   0.562  16.030 -0.4485 -0.5023  0.1650
 2299SOL    HW118356   4.498   0.516  15.946 -1.5124 -0.3316 -0.0074
 2299SOL    HW218357   4.537   0.643  16.004 -0.9798 -0.6723 -1.2677
 2300SOL     OW18358   2.868   4.559  14.387  0.6472 -0.9932 -0.5693
 2300SOL    HW118359   2.963   4.552  14.392  0.6394 -0.7814 -0.1204
 2300SOL    HW218360   2.851   4.644  14.348 -1.9697 -1.0097  0.5018
 2301SOL     OW18361   0.106   0.948   7.866  0.3430 -0.5326  0.5724
 2301SOL    HW118362   0.081   0.939   7.774 -0.7665  2.5940  0.5404
 2301SOL    HW218363   0.074   0.873   7.916  0.1403 -0.9834 -0.2285
 2302SOL     OW18364   4.080   1.552   5.994 -0.1097  0.1883  0.2695
 2302SOL    HW118365   4.095   1.623   6.057 -2.1433 -1.3720  2.5333
 2302SOL    HW218366   4.058   1.614   5.925  0.9869 -0.4129 -0.6255
 2303SOL     OW18367   1.067   0.959   8.532  1.1318 -0.5637 -0.0994
 2303SOL    HW118368   1.028   0.881   8.572 -1.1718  0.4137 -0.4465
 2303SOL    HW218369   1.069   1.012   8.612 -1.2832 -2.0431  0.9509
 2304SOL     OW18370   3.378   1.419   6.452  0.1592  0.1998 -0.3940
 2304SOL    HW118371   3.449   1.384   6.397 -2.6473 -2.9354 -2.0267
 2304SOL    HW218372   3.344   1.487   6.394 -0.8626 -0.8160 -0.9906
 2305SOL     OW18373   2.776   4.613   3.050 -0.2431  0.2117  0.7140
 2305SOL    HW118374   2.758   4.598   3.143 -0.1305 -0.3165  0.6523
 2305SOL    HW218375   2.689   4.642   3.024  0.3213 -1.1757 -2.7452
 2306SOL     OW18376   0.799   3.242  10.182  0.1049  0.4305  0.2628
 2306SOL    HW118377   0.751   3.307  10.130 -1.6988 -0.2655  1.0849
 2306SOL    HW218378   0.887   3.237  10.144 -0.2400  2.2480 -0.8078
 2307SOL     OW18379   1.871   2.596  11.608  0.5235  0.1310 -0.0979
 2307SOL    HW118380   1.893   2.673  11.660  2.0850  0.1241 -0.7556
 2307SOL    HW218381   1.777   2.582  11.609  0.2933  1.5235 -2.1045
 2308SOL     OW18382   2.983   1.766  16.722 -0.6164 -0.2325 -0.3307
 2308SOL    HW118383   2.907   1.725  16.764 -1.1168  0.3024 -0.7065
 2308SOL    HW218384   3.023   1.689  16.682  0.0079  0.6934 -1.4824
 2309SOL     OW18385   1.731   2.581   4.093  0.2303  0.0488  0.7535
 2309SOL    HW118386   1.675   2.586   4.170 -0.3415 -0.6885  0.3822
 2309SOL    HW218387   1.755   2.674   4.087  1.3184 -0.2895 -0.2727
 2310SOL     OW18388   4.146   4.337   6.093 -0.0357 -0.2182 -0.6431
 2310SOL    HW118389   4.057   4.348   6.061  0.1207  1.5648 -0.4915
 2310SOL    HW218390   4.149   4.270   6.162  0.3680  0.4863  0.0232
 2311SOL     OW18391   1.849   0.489   3.495  0.1180  0.0521 -0.3253
 2311SOL    HW118392   1.775   0.438   3.527 -0.4669  0.1559 -1.5349
 2311SOL    HW218393   1.888   0.441   3.421  0.0141  1.2076 -1.1185
 2312SOL     OW18394   1.442   0.129  15.959  0.5329 -0.3559 -0.1637
 2312SOL    HW118395   1.444   0.222  15.934 -3.1912 -0.5099 -1.0300
 2312SOL    HW218396   1.486   0.094  15.882 -1.5160  0.8355 -1.8713
 2313SOL     OW18397   2.935   2.229   1.828 -0.1398  0.0276 -0.5295
 2313SOL    HW118398   2.910   2.305   1.881 -0.0035  0.2999 -0.8544
 2313SOL    HW218399   2.846   2.195   1.818  0.3615 -1.1679 -0.9237
 2314SOL     OW18400   0.934   1.542   4.747  0.6849 -0.4516  0.1831
 2314SOL    HW118401   1.016   1.558   4.699  1.0398 -0.0305  0.9289
 2314SOL    HW218402   0.899   1.632   4.745 -0.1456 -0.8081 -1.3625
 2315SOL     OW18403   4.661   3.978   4.546  1.0994  0.3601  0.9851
 2315SOL    HW118404   4.618   4.040   4.487  0.6477  0.1749  1.1194
 2315SOL    HW218405   4.614   3.896   4.531  2.5545 -0.1540 -0.8521
 2316SOL     OW18406   2.769   1.812   7.394  0.1792  0.3155 -0.0884
 2316SOL    HW118407   2.799   1.801   7.304  0.0554  2.0472 -0.3458
 2316SOL    HW218408   2.791   1.905   7.401 -2.0515  0.8109  0.1329
 2317SOL     OW18409   4.023   0.843   7.539  0.5953  0.2002  0.0798
 2317SOL    HW118410   4.062   0.928   7.560 -3.2463  2.4695 -1.9958
 2317SOL    HW218411   4.074   0.786   7.597 -2.1682 -0.7171  1.5886
 2318SOL     OW18412   0.993   1.447  13.398  0.2158  0.1388 -0.0995
 2318SOL    HW118413   0.917   1.504  13.393 -1.0786 -1.9466 -5.2078
 2318SOL    HW218414   0.958   1.364  13.364 -1.1565  0.6794  0.0264
 2319SOL     OW18415   2.073   2.106   4.699  0.0848 -0.3543 -0.2458
 2319SOL    HW118416   2.138   2.052   4.655  2.3008  0.0607  2.5198
 2319SOL    HW218417   2.013   2.047   4.746 -0.2064  1.4570  1.6731
 2320SOL     OW18418   4.303   2.973   4.596 -0.3926 -0.5747 -0.2060
 2320SOL    HW118419   4.251   2.907   4.641  0.7800 -2.3242 -1.3806
 2320SOL    HW218420   4.325   2.925   4.516 -1.5767 -1.0901 -0.2126
 2321SOL     OW18421   4.469   3.860   1.897 -0.6180  0.1282  0.2122
 2321SOL    HW118422   4.474   3.918   1.821  0.0917 -1.0387 -0.6352
 2321SOL    HW218423   4.407   3.797   1.861 -0.1002 -0.4486  0.3209
 2322SOL     OW18424   2.138   3.129   2.512 -0.3144  0.3353 -0.2560
 2322SOL    HW118425   2.223   3.085   2.520  0.3652  1.9501  1.4358
 2322SOL    HW218426   2.162   3.215   2.478  2.5308  0.1846  1.2717
 2323SOL     OW18427   0.613   0.043   7.831 -0.6277  0.2608  0.2269
 2323SOL    HW118428   0.635   0.051   7.738  0.6694  0.5138  0.5641
 2323SOL    HW218429   0.611   4.671   7.838  1.4156  0.2651  0.8511
 2324SOL     OW18430   1.453   0.196   3.103 -0.4336 -0.1581 -0.3684
 2324SOL    HW118431   1.473   0.289   3.102 -1.9422  0.1822  2.1072
 2324SOL    HW218432   1.393   0.190   3.177 -0.6809  0.3113 -0.5342
 2325SOL     OW18433   1.262   0.536   4.275 -0.0926  0.0679 -0.0915
 2325SOL    HW118434   1.279   0.631   4.276 -0.1472  0.1035 -1.5708
 2325SOL    HW218435   1.331   0.499   4.330  0.6776 -0.7331 -1.5979
 2326SOL     OW18436   1.140   3.578   4.489  0.0612 -0.0123  0.3154
 2326SOL    HW118437   1.074   3.554   4.424  0.9921 -0.0269 -0.6337
 2326SOL    HW218438   1.104   3.654   4.534 -2.9679 -0.8244 -0.8072
 2327SOL     OW18439   2.508   1.017   5.600  0.5342  0.0382 -0.2625
 2327SOL    HW118440   2.461   0.975   5.671  1.3060 -1.7937 -0.8322
 2327SOL    HW218441   2.553   0.943   5.558  1.7133 -0.2809  1.6064
 2328SOL     OW18442   4.442   4.656   8.124 -0.6449  0.0095  0.2688
 2328SOL    HW118443   4.405   4.702   8.049  0.6032 -1.0072 -1.0024
 2328SOL    HW218444   4.530   4.639   8.088 -1.1620  1.5336 -1.6752
 2329SOL     OW18445   3.261   3.568   2.209  0.4106  0.1022  0.0677
 2329SOL    HW118446   3.311   3.649   2.219 -2.0354  1.6000 -0.0878
 2329SOL    HW218447   3.177   3.605   2.236 -0.7369 -0.0844 -3.2607
 2330SOL     OW18448   4.333   1.854   4.816  0.4077 -0.1582  0.1255
 2330SOL    HW118449   4.384   1.777   4.841 -2.2331 -1.7897  0.4642
 2330SOL    HW218450   4.340   1.903   4.898 -1.7269 -3.3002  2.1483
 2331SOL     OW18451   3.896   2.744   3.148  0.8067 -0.0370  0.0514
 2331SOL    HW118452   3.968   2.762   3.088  1.6010 -0.9366  0.7316
 2331SOL    HW218453   3.873   2.652   3.133 -1.4346  0.4594  0.4704
 2332SOL     OW18454   2.544   1.510   7.429 -0.1748  0.7192  0.3308
 2332SOL    HW118455   2.449   1.525   7.437 -0.3663 -0.4274  0.2403
 2332SOL    HW218456   2.571   1.576   7.493 -0.0588  0.6728  0.3294
 2333SOL     OW18457   3.225   2.775   8.559 -0.2196 -0.5177  0.4148
 2333SOL    HW118458   3.269   2.690   8.552 -2.7371 -1.5200 -2.9171
 2333SOL    HW218459   3.293   2.825   8.605  0.4809  0.7101 -1.9816
 2334SOL     OW18460   3.830   3.279   7.561 -0.8591 -0.3432 -0.4414
 2334SOL    HW118461   3.894   3.281   7.631 -1.8055 -1.2038  0.4439
 2334SOL    HW218462   3.819   3.370   7.533 -0.5682 -0.4387 -0.8654
 2335SOL     OW18463   3.338   4.254   7.086 -0.6242 -0.2232 -0.0631
 2335SOL    HW118464   3.260   4.258   7.141 -0.8837  1.5791 -0.5756
 2335SOL    HW218465   3.291   4.241   7.003 -1.7409 -1.0640  0.6894
 2336SOL     OW18466   2.140   2.325   5.992 -0.6539 -0.0181 -1.0636
 2336SOL    HW118467   2.198   2.356   5.922 -0.0172  1.2683  0.0456
 2336SOL    HW218468   2.140   2.398   6.054 -2.6669 -0.1411 -0.9296
 2337SOL     OW18469   4.467   3.803   1.579  0.3027 -0.5103 -0.0635
 2337SOL    HW118470   4.384   3.847   1.599  0.3360 -0.1834 -0.6409
 2337SOL    HW218471   4.466   3.803   1.484  1.8508 -2.5357 -0.0727
 2338SOL     OW18472   2.798   2.160   3.420 -0.0429 -0.5050 -0.1063
 2338SOL    HW118473   2.751   2.129   3.342 -0.6641  3.4767 -1.3191
 2338SOL    HW218474   2.733   2.142   3.487  0.7703 -2.0451  0.2613
 2339SOL     OW18475   2.839   1.104  17.123  0.0631  0.6470 -0.0572
 2339SOL    HW118476   2.769   1.111  17.058 -0.8533  1.6466  1.0231
 2339SOL    HW218477   2.790   1.094  17.205  0.5431  0.6860  0.2356
 2340SOL     OW18478   2.233   2.588   3.495 -0.3033  0.4171 -0.0288
 2340SOL    HW118479   2.168   2.642   3.540  0.2122 -0.5308  1.8561
 2340SOL    HW218480   2.180   2.590   3.415 -0.2454 -0.2464 -0.0844
 2341SOL     OW18481   4.235   2.203  11.401 -0.2487 -0.0954 -0.4713
 2341SOL    HW118482   4.200   2.267  11.338 -1.0529  0.0374  0.1078
 2341SOL    HW218483   4.189   2.125  11.369 -0.4825  0.2308 -0.9431
 2342SOL     OW18484   2.847   4.639   6.435  0.3012 -0.1644 -0.0895
 2342SOL    HW118485   2.796   4.720   6.441  1.3189  0.5089 -0.5819
 2342SOL    HW218486   2.826   4.604   6.348 -0.7435  0.4749 -0.0988
 2343SOL     OW18487   3.152   1.142   3.175 -0.0508  0.6771  0.3629
 2343SOL    HW118488   3.236   1.144   3.220 -0.3034  2.0423  0.7509
 2343SOL    HW218489   3.159   1.072   3.109 -0.1728 -1.5281  2.7045
 2344SOL     OW18490   2.850   4.471  10.637 -0.6076 -0.0925  0.2179
 2344SOL    HW118491   2.816   4.520  10.562 -0.1181 -1.3439 -0.8093
 2344SOL    HW218492   2.772   4.475  10.692  0.5530 -1.2435  1.9712
 2345SOL     OW18493   3.339   0.324  11.460 -0.0726  0.1945  0.2387
 2345SOL    HW118494   3.282   0.248  11.451  0.7961 -0.6523  2.0404
 2345SOL    HW218495   3.401   0.290  11.396 -1.5134  1.3635 -1.7967
 2346SOL     OW18496   1.789   2.963   1.046 -0.1048  0.1353 -0.3893
 2346SOL    HW118497   1.822   2.994   1.130  1.1130 -0.0310 -0.8005
 2346SOL    HW218498   1.694   2.967   1.057  0.2618  2.3920  1.7806
 2347SOL     OW18499   3.348   1.626   4.854 -0.7085 -0.1506 -0.0687
 2347SOL    HW118500   3.318   1.578   4.931 -1.5152  2.5481  1.3235
 2347SOL    HW218501   3.359   1.552   4.795 -0.1853 -0.5262  0.5109
 2348SOL     OW18502   3.710   2.360  15.902  0.0879  0.2752 -0.2970
 2348SOL    HW118503   3.633   2.394  15.857 -0.6855 -0.3521  0.5715
 2348SOL    HW218504   3.700   2.392  15.991 -0.6779  0.1127 -0.3286
 2349SOL     OW18505   3.011   3.445   3.012  0.1897 -0.3272  0.4013
 2349SOL    HW118506   3.052   3.489   2.938 -1.1359  2.3584  1.2748
 2349SOL    HW218507   2.990   3.360   2.972 -0.6599  0.3768 -0.6401
 2350SOL     OW18508   4.474   1.606  14.870  0.5346  0.1016 -0.1731
 2350SOL    HW118509   4.541   1.658  14.914 -0.7094  0.6047  1.1444
 2350SOL    HW218510   4.503   1.594  14.780  0.9854  0.5133 -0.0771
 2351SOL     OW18511   1.131   3.172   9.553 -0.3470 -0.1206  0.4549
 2351SOL    HW118512   1.180   3.224   9.617  1.4880  0.2417 -1.2500
 2351SOL    HW218513   1.083   3.241   9.509  1.5375  1.0511  0.2482
 2352SOL     OW18514   1.136   4.019   7.079 -0.4721  0.5862  0.0781
 2352SOL    HW118515   1.109   4.016   7.171  2.1225 -1.9125  0.7759
 2352SOL    HW218516   1.085   4.097   7.060 -0.4309  0.7769  0.7462
 2353SOL     OW18517   0.032   3.663   5.812  0.3537 -0.1855 -0.3925
 2353SOL    HW118518   4.692   3.622   5.870  1.4132 -1.3049 -0.0293
 2353SOL    HW218519   0.053   3.593   5.750 -0.4574 -0.7579 -0.0143
 2354SOL     OW18520   1.948   1.253   7.764  0.9414 -0.1790  0.5858
 2354SOL    HW118521   1.959   1.348   7.761  0.2910 -0.0461  2.3555
 2354SOL    HW218522   1.911   1.232   7.850 -0.1190 -0.6336  0.0153
 2355SOL     OW18523   1.718   1.185   5.388 -0.7240  0.0054  0.0125
 2355SOL    HW118524   1.774   1.129   5.334  0.9903  1.3393  0.4148
 2355SOL    HW218525   1.759   1.189   5.475  1.5434  0.7715 -1.1000
 2356SOL     OW18526   0.601   3.666   6.832 -0.1628 -0.1639  0.3802
 2356SOL    HW118527   0.544   3.605   6.785  0.4742 -1.1244  0.8663
 2356SOL    HW218528   0.689   3.647   6.799  0.9002  1.8547  2.0177
 2357SOL     OW18529   2.911   2.179   5.182 -0.3507  0.0926  0.2081
 2357SOL    HW118530   2.846   2.190   5.251 -0.2353 -2.2295  0.6717
 2357SOL    HW218531   2.859   2.137   5.113  2.5579  0.0528 -2.0158
 2358SOL     OW18532   4.348   1.090  10.471  0.6131  0.2857 -0.8953
 2358SOL    HW118533   4.373   1.039  10.548 -0.1218  1.8773  0.3947
 2358SOL    HW218534   4.348   1.180  10.501  3.2062  0.6222 -1.8829
 2359SOL     OW18535   1.724   4.040   9.260  0.2674 -0.0921 -0.0839
 2359SOL    HW118536   1.667   4.021   9.186 -0.1732  2.1912 -0.3189
 2359SOL    HW218537   1.727   3.958   9.310 -0.0443  0.4851  0.8801
 2360SOL     OW18538   2.104   2.159  11.747  0.0580 -0.0002  0.1086
 2360SOL    HW118539   2.143   2.072  11.741 -0.4506 -0.1160 -1.2856
 2360SOL    HW218540   2.167   2.213  11.699  3.6277 -3.0442  1.4108
 2361SOL     OW18541   2.129   2.957   8.672 -0.2427  0.3843 -0.3449
 2361SOL    HW118542   2.046   2.935   8.630 -0.5909 -0.3619  0.7399
 2361SOL    HW218543   2.173   2.873   8.657  3.0352  1.7179  1.6034
 2362SOL     OW18544   1.154   2.055   6.804 -0.4460 -0.3617  0.2503
 2362SOL    HW118545   1.133   2.135   6.853 -1.7917 -0.4183 -0.2427
 2362SOL    HW218546   1.090   1.995   6.840  1.2902 -1.7038  1.0828
 2363SOL     OW18547   3.397   1.935   4.648  0.0256  0.7312  0.2470
 2363SOL    HW118548   3.467   1.903   4.591 -1.5501  0.5445 -1.5571
 2363SOL    HW218549   3.447   1.973   4.720 -0.1813  1.7599 -0.1562
 2364SOL     OW18550   1.589   3.783   5.149 -0.0862  0.1797 -0.5727
 2364SOL    HW118551   1.683   3.778   5.167 -0.0870  1.8507 -0.0770
 2364SOL    HW218552   1.574   3.695   5.115 -1.0184 -0.7783  2.3132
 2365SOL     OW18553   4.184   1.802   8.702  0.5236 -0.1728 -0.1439
 2365SOL    HW118554   4.166   1.851   8.783 -1.0415 -1.2846  0.1580
 2365SOL    HW218555   4.194   1.716   8.742  0.2730 -0.2375 -0.2274
 2366SOL     OW18556   1.726   2.945   5.466  1.0057  0.6787  0.1407
 2366SOL    HW118557   1.795   2.975   5.407  2.0108 -0.0149  0.9583
 2366SOL    HW218558   1.654   2.972   5.409  0.9502  0.6895  0.2148
 2367SOL     OW18559   3.588   3.506  15.125  0.2245 -0.0757 -0.0513
 2367SOL    HW118560   3.508   3.458  15.146 -0.2423  0.0678 -1.5348
 2367SOL    HW218561   3.608   3.546  15.210 -0.2060  1.3897 -0.6486
 2368SOL     OW18562   4.706   0.895   2.996  1.1279 -0.4862 -0.0558
 2368SOL    HW118563   0.058   0.846   2.964  1.6624  0.4578 -0.2469
 2368SOL    HW218564   0.004   0.891   3.089 -3.4539 -1.7738  0.9465
 2369SOL     OW18565   3.823   3.989   0.772 -0.1353  0.4420  0.1375
 2369SOL    HW118566   3.762   3.952   0.708  1.0984  1.0267 -1.3598
 2369SOL    HW218567   3.763   4.060   0.794 -0.2486  0.2038  0.6126
 2370SOL     OW18568   1.981   4.239  17.594 -1.0986  0.8187  0.1557
 2370SOL    HW118569   1.914   4.254  17.660 -2.2564  1.3214 -1.1392
 2370SOL    HW218570   2.058   4.273  17.641 -1.9186  2.6346  0.1824
 2371SOL     OW18571   1.287   4.245   1.653  0.1198 -0.2864  0.7433
 2371SOL    HW118572   1.232   4.323   1.663 -0.9454 -0.7639 -1.5115
 2371SOL    HW218573   1.222   4.178   1.635 -0.9045  1.0548 -0.5251
 2372SOL     OW18574   3.050   3.135   4.775 -0.2372 -0.2075  0.6318
 2372SOL    HW118575   2.992   3.095   4.840  0.1458  1.0343  1.7313
 2372SOL    HW218576   3.086   3.206   4.828 -0.1631 -0.0517  0.3723
 2373SOL     OW18577   0.720   3.910  12.185 -0.5112  0.0151  0.3005
 2373SOL    HW118578   0.659   3.920  12.112  0.3662 -1.0311 -0.5862
 2373SOL    HW218579   0.666   3.854  12.241 -4.0641 -0.4167 -3.5923
 2374SOL     OW18580   0.446   1.263   3.767 -0.7240 -0.5525 -0.0175
 2374SOL    HW118581   0.361   1.306   3.757 -0.3407 -0.2318 -1.7851
 2374SOL    HW218582   0.465   1.288   3.857  3.3828 -3.7928  0.0103
 2375SOL     OW18583   1.394   2.772   1.981 -0.1693 -0.3896 -0.9890
 2375SOL    HW118584   1.311   2.817   1.965  0.9438  1.8836 -0.3390
 2375SOL    HW218585   1.353   2.689   2.007 -2.6215  1.2711  0.4148
 2376SOL     OW18586   1.901   0.752   0.831 -0.0179  0.0549 -0.0995
 2376SOL    HW118587   1.933   0.670   0.793 -0.2210  1.3765 -3.0638
 2376SOL    HW218588   1.948   0.807   0.769 -1.2893  1.6243  0.3410
 2377SOL     OW18589   3.374   1.041   6.928 -0.3544  0.3846  0.0655
 2377SOL    HW118590   3.375   1.105   6.858  1.3986  1.5554  1.1511
 2377SOL    HW218591   3.394   1.094   7.006  1.4329  0.5369 -0.4857
 2378SOL     OW18592   1.133   4.579   7.155 -0.8473  0.7752  0.1242
 2378SOL    HW118593   1.127   4.654   7.096  2.0944  1.2256  0.3949
 2378SOL    HW218594   1.174   4.627   7.227 -0.9376  2.0641 -0.6861
 2379SOL     OW18595   0.209   0.287   1.185 -0.0339  0.6648  0.6575
 2379SOL    HW118596   0.288   0.253   1.145 -1.0796 -0.7442 -0.1934
 2379SOL    HW218597   0.209   0.381   1.164 -1.6222  0.1461 -1.7290
 2380SOL     OW18598   0.180   3.374  11.739  0.0845 -0.6270 -0.1274
 2380SOL    HW118599   0.276   3.379  11.744  0.0700  1.3985 -1.9673
 2380SOL    HW218600   0.168   3.398  11.647  0.5667 -1.6715 -0.4628
 2381SOL     OW18601   0.147   0.898   4.440 -0.2418  0.1072 -0.3115
 2381SOL    HW118602   0.090   0.953   4.386  0.6662 -0.2518 -1.6535
 2381SOL    HW218603   0.184   0.968   4.493 -2.5447  1.4378 -0.4608
 2382SOL     OW18604   4.475   1.883  15.430 -0.7712 -0.0131 -0.2019
 2382SOL    HW118605   4.461   1.890  15.336 -1.7984  0.8088  0.0147
 2382SOL    HW218606   4.508   1.793  15.432 -1.6825 -0.3469 -0.6158
 2383SOL     OW18607   3.661   2.555   1.501  0.2523  0.2323  0.1240
 2383SOL    HW118608   3.644   2.543   1.408  2.6232  2.2535 -0.5833
 2383SOL    HW218609   3.708   2.475   1.523 -1.9068 -0.3652  2.6566
 2384SOL     OW18610   1.279   1.513   9.040  0.3471 -0.9930  0.3228
 2384SOL    HW118611   1.211   1.487   9.102 -0.5336 -0.3882 -0.3840
 2384SOL    HW218612   1.315   1.425   9.023  1.7984 -0.5928  1.3006
 2385SOL     OW18613   0.424   1.278   8.364  0.0327  0.2799  0.1411
 2385SOL    HW118614   0.395   1.239   8.446  0.0602  1.6592  0.7975
 2385SOL    HW218615   0.509   1.310   8.395  0.8282 -1.0874 -0.5993
 2386SOL     OW18616   0.227   1.454   3.737  0.1520 -0.2043 -0.3494
 2386SOL    HW118617   0.133   1.472   3.729 -0.0241  0.2886  3.0049
 2386SOL    HW218618   0.239   1.526   3.799 -0.8494 -0.5953  0.2953
 2387SOL     OW18619   1.439   2.407   6.560  0.9273 -0.3836 -0.1211
 2387SOL    HW118620   1.391   2.331   6.594  2.4323 -1.2413  0.0764
 2387SOL    HW218621   1.511   2.364   6.515 -0.0054 -0.5169 -1.4690
 2388SOL     OW18622   3.757   0.403   3.592  0.4026 -0.1538 -0.3202
 2388SOL    HW118623   3.845   0.366   3.589  0.5211 -0.0999  2.8516
 2388SOL    HW218624   3.786   0.491   3.617 -1.5541  0.1646  0.8144
 2389SOL     OW18625   1.117   0.603   0.290 -0.2160  0.1077  0.9956
 2389SOL    HW118626   1.176   0.611   0.216 -1.2640 -0.3383  0.1075
 2389SOL    HW218627   1.180   0.569   0.353  1.3224  0.6317 -0.2595
 2390SOL     OW18628   3.561   3.162  17.678  0.5380  0.1368  0.5043
 2390SOL    HW118629   3.551   3.239  17.622 -1.2203  1.5265  2.7370
 2390SOL    HW218630   3.566   3.080  17.629 -1.5039 -0.0570  0.6157
 2391SOL     OW18631   1.229   0.927   0.488  0.4235  0.3756  0.1655
 2391SOL    HW118632   1.149   0.883   0.460 -0.6407  1.7794  0.9441
 2391SOL    HW218633   1.254   0.871   0.561  0.2658 -3.2858 -2.6218
 2392SOL     OW18634   2.215   0.324   9.536 -0.3835 -0.3608  0.0450
 2392SOL    HW118635   2.272   0.391   9.499 -0.6362 -0.8761 -1.2872
 2392SOL    HW218636   2.269   0.251   9.504  0.8261  1.0252 -1.0954
 2393SOL     OW18637   2.801   2.139  12.350 -0.2538 -0.0792 -0.1717
 2393SOL    HW118638   2.759   2.180  12.426 -0.0628  0.6317 -0.4484
 2393SOL    HW218639   2.891   2.126  12.381  0.7181  2.9962 -1.6973
 2394SOL     OW18640   1.392   2.253   6.075 -0.4474  0.1704  0.2974
 2394SOL    HW118641   1.359   2.335   6.038  2.2595  1.8937  1.7406
 2394SOL    HW218642   1.467   2.285   6.124 -0.7398 -0.8674  1.4386
 2395SOL     OW18643   2.185   4.252   1.619  0.1995  0.4189 -0.3622
 2395SOL    HW118644   2.269   4.285   1.587  0.4528 -1.4491 -1.5838
 2395SOL    HW218645   2.133   4.331   1.605  0.3135  0.7263  0.9016
 2396SOL     OW18646   0.054   2.653  17.354  0.2469  0.2125 -0.1850
 2396SOL    HW118647   0.071   2.580  17.294  3.2628  0.0007  0.9484
 2396SOL    HW218648   0.134   2.702  17.335  0.8633  0.0467  2.0703
 2397SOL     OW18649   3.945   3.251   6.476  0.1031  0.2192  0.5240
 2397SOL    HW118650   4.008   3.315   6.444 -0.1110 -0.6171 -1.5735
 2397SOL    HW218651   3.959   3.180   6.414  1.3433  0.4191  0.5761
 2398SOL     OW18652   4.304   4.205  10.790 -0.1737  0.8601 -0.3914
 2398SOL    HW118653   4.351   4.233  10.711  1.8148  2.3687  1.3270
 2398SOL    HW218654   4.291   4.286  10.840 -0.8118  0.1935  0.5266
 2399SOL     OW18655   1.819   3.100  15.058 -1.0146  0.8576 -0.0081
 2399SOL    HW118656   1.886   3.158  15.093  2.8203 -1.3173 -3.7975
 2399SOL    HW218657   1.859   3.043  14.992 -0.0413  1.9170 -0.3332
 2400SOL     OW18658   0.193   3.363   7.355 -0.6790 -0.4969  0.0538
 2400SOL    HW118659   0.106   3.343   7.387 -0.6599  0.5717  0.7887
 2400SOL    HW218660   0.224   3.403   7.436  2.9386 -1.7514 -0.6839
 2401SOL     OW18661   4.560   4.656   3.394 -0.6489 -0.0812 -0.1754
 2401SOL    HW118662   4.593   0.000   3.452  0.6444 -0.7065 -0.1883
 2401SOL    HW218663   4.525   4.714   3.326 -0.9320 -0.0920 -0.0403
 2402SOL     OW18664   0.607   1.378  13.249  0.4950  0.0168  0.0860
 2402SOL    HW118665   0.535   1.440  13.234  1.1186  0.7254 -0.0452
 2402SOL    HW218666   0.644   1.420  13.326 -4.2822  0.3720  2.1651
 2403SOL     OW18667   0.037   0.889   8.713 -0.3853 -0.7035 -0.0206
 2403SOL    HW118668   4.694   0.830   8.680  0.8947 -1.6274 -0.9622
 2403SOL    HW218669   0.109   0.831   8.689 -0.9151 -1.8882  1.2778
 2404SOL     OW18670   1.584   4.421   4.942  0.0489 -0.1268 -0.2800
 2404SOL    HW118671   1.571   4.421   4.847  1.8096  1.2431 -0.5175
 2404SOL    HW218672   1.491   4.422   4.966  0.0966 -0.0169 -0.1019
 2405SOL     OW18673   3.005   1.687   4.599 -0.2081  0.6501 -0.0914
 2405SOL    HW118674   3.016   1.754   4.532  0.9428  0.4479 -0.1077
 2405SOL    HW218675   3.044   1.733   4.674  2.1930 -0.9504 -0.3739
 2406SOL     OW18676   0.274   3.466   7.984  0.3566  0.1882 -0.9054
 2406SOL    HW118677   0.182   3.442   7.996  1.0852 -1.2402  1.9526
 2406SOL    HW218678   0.310   3.377   7.988 -1.5265 -0.6036 -1.1388
 2407SOL     OW18679   0.310   0.720   5.092  0.3069 -0.2494  0.4869
 2407SOL    HW118680   0.370   0.646   5.083  1.1194  0.3820  0.7703
 2407SOL    HW218681   0.362   0.784   5.044 -0.5183  0.7066  0.8509
 2408SOL     OW18682   3.522   2.728  15.676 -0.0171  0.0817  0.8778
 2408SOL    HW118683   3.592   2.780  15.716  1.3082  0.1070 -1.4761
 2408SOL    HW218684   3.448   2.788  15.665  1.8719  2.0497 -0.9478
 2409SOL     OW18685   1.057   2.719   2.076 -0.2929 -0.0287  0.0304
 2409SOL    HW118686   1.100   2.796   2.038  0.2594 -0.5090 -0.3209
 2409SOL    HW218687   1.113   2.651   2.039  0.5358  1.0816 -0.7984
 2410SOL     OW18688   3.077   1.199   2.757 -0.6386 -0.6191 -0.2533
 2410SOL    HW118689   3.026   1.186   2.677 -0.1920 -0.4732 -0.5615
 2410SOL    HW218690   3.092   1.109   2.784  2.5060  0.1227  0.3533
 2411SOL     OW18691   3.011   3.488  11.877 -0.0778 -0.7337 -0.0306
 2411SOL    HW118692   2.942   3.532  11.926  3.9933  1.3198  3.7743
 2411SOL    HW218693   3.087   3.478  11.934 -0.6624  2.4882  1.3293
 2412SOL     OW18694   2.601   2.142   6.088 -0.4087 -0.2013 -0.2745
 2412SOL    HW118695   2.609   2.211   6.154  0.3879  2.9463 -3.6449
 2412SOL    HW218696   2.626   2.188   6.007 -3.0723  1.9265  0.1569
 2413SOL     OW18697   0.468   2.239   0.875  0.8226  0.0116  0.2361
 2413SOL    HW118698   0.480   2.325   0.836 -0.7992 -0.4204 -1.2572
 2413SOL    HW218699   0.373   2.223   0.878  0.3108  2.7959 -1.3464
 2414SOL     OW18700   0.605   3.767   8.658 -0.2413 -0.0996  0.1020
 2414SOL    HW118701   0.552   3.842   8.684 -1.3337 -1.7259  2.5170
 2414SOL    HW218702   0.536   3.716   8.614 -0.6105 -0.1385  0.7395
 2415SOL     OW18703   3.137   2.058   4.985  0.7775 -0.0392  0.0656
 2415SOL    HW118704   3.057   2.109   5.002 -0.1101 -1.7500  1.0298
 2415SOL    HW218705   3.107   2.012   4.907  0.9630  0.6071 -0.3918
 2416SOL     OW18706   3.101   3.393   8.672  0.2637 -0.1129 -0.5128
 2416SOL    HW118707   3.103   3.478   8.627 -0.0584 -1.4224 -3.0272
 2416SOL    HW218708   3.171   3.344   8.628 -1.0335 -0.3062 -2.3558
 2417SOL     OW18709   4.114   1.820  13.379 -0.0376  0.3242 -0.5266
 2417SOL    HW118710   4.038   1.874  13.400  0.4607 -0.3212  2.8606
 2417SOL    HW218711   4.185   1.881  13.400 -1.4834  1.8970 -0.2225
 2418SOL     OW18712   2.443   0.647   1.713 -0.3541  0.3713  0.1283
 2418SOL    HW118713   2.412   0.729   1.674 -0.5510 -0.1959 -0.9205
 2418SOL    HW218714   2.427   0.654   1.807  1.2629  0.8402  0.3569
 2419SOL     OW18715   4.222   2.340   7.402  0.3569 -0.1295 -0.1059
 2419SOL    HW118716   4.305   2.362   7.359  0.2579  0.7399  0.1546
 2419SOL    HW218717   4.256   2.346   7.492  0.1817 -0.8262  0.0062
 2420SOL     OW18718   4.062   1.458   8.529  0.5503 -0.3300 -0.1157
 2420SOL    HW118719   3.998   1.505   8.476  0.8688  1.4790  1.1043
 2420SOL    HW218720   4.004   1.386   8.554 -1.5555  2.1020  2.0163
 2421SOL     OW18721   3.209   2.592   3.663 -0.0268  0.2708 -0.6033
 2421SOL    HW118722   3.129   2.621   3.708 -0.0128  0.0567 -0.4421
 2421SOL    HW218723   3.236   2.682   3.645 -0.1494  0.3042 -0.6177
 2422SOL     OW18724   3.975   4.703   5.486 -0.1444 -0.2722 -0.0726
 2422SOL    HW118725   4.063   4.665   5.495 -0.0685  0.0230  0.4404
 2422SOL    HW218726   3.975   0.048   5.552  3.0030 -1.3327  1.0387
 2423SOL     OW18727   2.666   1.205   8.674  0.0472 -0.3159  0.3105
 2423SOL    HW118728   2.615   1.172   8.600  0.6368  0.0521 -0.2558
 2423SOL    HW218729   2.605   1.206   8.748  0.1393 -0.8522  0.3950
 2424SOL     OW18730   3.938   4.190  12.189  0.1580  0.3116  0.7041
 2424SOL    HW118731   3.952   4.130  12.116  0.0397 -0.7110  1.5242
 2424SOL    HW218732   4.012   4.168  12.246  2.0772  2.0420 -1.0901
 2425SOL     OW18733   0.553   0.135   4.463  0.3742  0.0937  0.2794
 2425SOL    HW118734   0.489   0.072   4.497 -1.1098  0.6528 -1.4841
 2425SOL    HW218735   0.534   0.148   4.370 -0.0149 -0.6880  0.2525
 2426SOL     OW18736   0.130   3.376   0.931  0.2450 -0.1790  0.2641
 2426SOL    HW118737   0.127   3.472   0.932 -0.5731 -0.1944 -0.6175
 2426SOL    HW218738   0.175   3.364   1.015  0.1148  1.6093  0.6006
 2427SOL     OW18739   0.918   2.728   4.876 -0.1117 -0.2129  0.4067
 2427SOL    HW118740   0.972   2.745   4.953  0.9841 -2.5602  0.1624
 2427SOL    HW218741   0.840   2.707   4.927 -0.1026 -0.8545  0.1495
 2428SOL     OW18742   3.470   1.812   7.695 -0.0103  0.3826 -0.0542
 2428SOL    HW118743   3.439   1.782   7.781  1.9926 -0.4866  0.3645
 2428SOL    HW218744   3.406   1.775   7.635  0.9901 -1.4010 -0.0096
 2429SOL     OW18745   2.788   0.055  16.305  0.4590  0.0957 -0.2602
 2429SOL    HW118746   2.754   0.100  16.382 -0.1673  1.3882 -1.3082
 2429SOL    HW218747   2.854   0.114  16.270  2.6130 -1.5150  1.0872
 2430SOL     OW18748   4.525   3.570   3.097 -0.2740 -0.2012 -0.0693
 2430SOL    HW118749   4.449   3.514   3.111 -0.4594  0.2191  0.6076
 2430SOL    HW218750   4.495   3.659   3.079  0.9899  0.2427  0.0136
 2431SOL     OW18751   3.652   2.783   8.092  0.6429  0.6223 -0.4208
 2431SOL    HW118752   3.592   2.752   8.024  0.8503  1.9768 -1.2131
 2431SOL    HW218753   3.711   2.707   8.098 -0.1557  0.0471  0.0927
 2432SOL     OW18754   3.366   3.545   1.865 -0.4154 -0.1920  0.2730
 2432SOL    HW118755   3.435   3.609   1.847 -1.1015  0.3917 -0.2647
 2432SOL    HW218756   3.330   3.516   1.781  1.7913 -3.4790  0.4558
 2433SOL     OW18757   3.654   0.068   6.711  0.4246  0.3404 -0.3895
 2433SOL    HW118758   3.669   0.032   6.623 -1.5106  2.1765 -1.4673
 2433SOL    HW218759   3.641   4.717   6.769  0.6977 -0.0822 -0.8729
 2434SOL     OW18760   3.036   2.883  16.574  0.1493 -0.3722 -0.4569
 2434SOL    HW118761   3.038   2.978  16.561 -0.0814 -0.2510  0.3355
 2434SOL    HW218762   2.947   2.863  16.604 -0.1597  1.0880 -0.3942
 2435SOL     OW18763   2.537   4.652   2.053 -0.3642  0.0833  0.0581
 2435SOL    HW118764   2.624   4.636   2.088  0.4213  0.3545 -1.7619
 2435SOL    HW218765   2.511   4.560   2.063  1.9122 -0.6640 -0.9773
 2436SOL     OW18766   0.694   2.918   7.158  0.1296 -0.3301 -1.0575
 2436SOL    HW118767   0.606   2.937   7.125  1.0378 -0.0121 -3.3078
 2436SOL    HW218768   0.737   3.004   7.151  0.6587 -0.5233 -0.2175
 2437SOL     OW18769   0.959   2.818  15.228  0.0853  0.5452 -0.0280
 2437SOL    HW118770   0.968   2.724  15.213  0.4835  0.2859  1.8975
 2437SOL    HW218771   0.901   2.840  15.155 -0.5370  0.8089  0.5393
 2438SOL     OW18772   0.021   3.767   0.529  0.3109 -0.3300  0.0329
 2438SOL    HW118773   4.719   3.852   0.563 -0.2420 -1.3357  2.1326
 2438SOL    HW218774   0.115   3.785   0.531 -0.2255  2.2078  1.9767
 2439SOL     OW18775   2.407   0.114   3.397 -0.4154 -1.1053  0.3768
 2439SOL    HW118776   2.502   0.109   3.392 -0.4534 -1.3299 -0.1087
 2439SOL    HW218777   2.404   0.146   3.307  0.3684  1.5861  1.2896
 2440SOL     OW18778   2.133   2.842   9.175  0.2882 -0.2201  0.3368
 2440SOL    HW118779   2.101   2.902   9.242  0.4895 -1.1624  1.2877
 2440SOL    HW218780   2.187   2.793   9.237  0.9675  2.0027  1.4892
 2441SOL     OW18781   1.948   2.305   8.437 -0.0929  0.5158 -0.7550
 2441SOL    HW118782   1.858   2.284   8.412  0.3718 -1.0986 -1.0596
 2441SOL    HW218783   1.958   2.244   8.510 -0.7878  1.5920  0.2199
 2442SOL     OW18784   4.569   4.537   4.560 -0.0486  0.2786 -0.4951
 2442SOL    HW118785   4.596   4.593   4.487 -1.9760  0.9686 -0.6794
 2442SOL    HW218786   4.650   4.487   4.569 -0.3396  0.1589  1.4460
 2443SOL     OW18787   3.929   0.279  17.536  0.0437  0.1623 -0.2358
 2443SOL    HW118788   3.967   0.295  17.623  0.9075 -1.0930 -0.3849
 2443SOL    HW218789   3.844   0.322  17.542  1.1761  2.1236  1.7695
 2444SOL     OW18790   1.534   0.510  11.814  0.1634  0.1103 -0.1854
 2444SOL    HW118791   1.553   0.601  11.835 -0.7332  0.2731 -0.0735
 2444SOL    HW218792   1.618   0.463  11.813 -0.0431 -0.2940  1.2200
 2445SOL     OW18793   0.870   1.747  15.542 -0.2313 -0.6572  0.5291
 2445SOL    HW118794   0.832   1.694  15.612 -0.8793  2.7978  2.7874
 2445SOL    HW218795   0.793   1.766  15.489 -0.1682 -2.7946 -0.3603
 2446SOL     OW18796   1.897   1.028   4.453  0.0634 -0.3043 -0.4305
 2446SOL    HW118797   1.938   1.110   4.427  0.9141 -0.3423  0.8003
 2446SOL    HW218798   1.892   0.982   4.369  1.3741 -0.0787 -0.6301
 2447SOL     OW18799   1.504   2.990   3.723 -0.1457 -0.3901 -0.4581
 2447SOL    HW118800   1.589   2.979   3.682 -0.0257 -1.5499  0.1135
 2447SOL    HW218801   1.465   3.031   3.645  0.2836 -1.6939 -1.3567
 2448SOL     OW18802   4.672   3.335   5.133  0.2344  0.6530 -0.2804
 2448SOL    HW118803   4.697   3.355   5.223  0.8704  1.0468 -0.5423
 2448SOL    HW218804   4.627   3.416   5.107 -1.6578  0.1996  1.5859
 2449SOL     OW18805   0.182   4.566   3.000  0.4367  0.4164  0.7112
 2449SOL    HW118806   0.148   4.477   2.987 -0.8182  1.2986 -1.9431
 2449SOL    HW218807   0.204   4.550   3.092  1.3876  0.0349  0.4174
 2450SOL     OW18808   0.995   2.332   5.924 -0.7302 -0.6654 -0.0825
 2450SOL    HW118809   0.997   2.421   5.959  1.0490 -1.5658  2.1336
 2450SOL    HW218810   1.082   2.304   5.954 -0.2384 -0.8565 -1.6501
 2451SOL     OW18811   1.715   3.897  16.562 -0.0980  0.3878  0.1196
 2451SOL    HW118812   1.715   3.938  16.475  1.2638  2.1868  0.9662
 2451SOL    HW218813   1.654   3.825  16.545 -0.8787  1.2811 -0.8533
 2452SOL     OW18814   3.932   1.523   7.787  0.7776  0.5694 -0.0633
 2452SOL    HW118815   3.837   1.523   7.776  0.7393  2.1511  0.3162
 2452SOL    HW218816   3.931   1.525   7.883  0.2321  1.4026 -0.0925
 2453SOL     OW18817   0.503   0.448   5.705  0.5833  0.3652  0.6552
 2453SOL    HW118818   0.584   0.440   5.655  0.2130 -1.3642  0.3220
 2453SOL    HW218819   0.510   0.544   5.705  1.4802  0.3001 -1.5817
 2454SOL     OW18820   0.521   0.529  10.761  0.6421  0.6168  0.0975
 2454SOL    HW118821   0.547   0.608  10.714 -1.3169  1.0891 -0.1896
 2454SOL    HW218822   0.426   0.523  10.749  0.8349 -0.5694 -0.8447
 2455SOL     OW18823   2.409   0.440   0.237  0.1478  0.7240  0.1649
 2455SOL    HW118824   2.343   0.500   0.202  0.6050  1.4716  0.5897
 2455SOL    HW218825   2.486   0.481   0.199  0.0098  2.6985  1.9742
 2456SOL     OW18826   0.788   2.671   4.503  0.0015  0.1718 -0.4118
 2456SOL    HW118827   0.839   2.747   4.531 -1.7173  1.3417 -0.4396
 2456SOL    HW218828   0.719   2.676   4.569  0.9893 -0.1855  0.6318
 2457SOL     OW18829   2.560   1.712  10.026 -0.3383  0.4052  0.2819
 2457SOL    HW118830   2.544   1.764   9.947 -0.7506  0.1781  0.2176
 2457SOL    HW218831   2.643   1.756  10.043  0.4244 -0.5824 -0.9074
 2458SOL     OW18832   4.075   2.866  13.675 -0.0353 -0.4164 -0.3193
 2458SOL    HW118833   3.993   2.817  13.689 -0.9598  1.1180 -0.3893
 2458SOL    HW218834   4.121   2.843  13.756 -0.0151 -2.7884 -1.0010
 2459SOL     OW18835   2.657   2.474   7.402 -1.1761 -0.2059  0.4271
 2459SOL    HW118836   2.742   2.450   7.437 -1.6073 -2.1874  0.0827
 2459SOL    HW218837   2.669   2.435   7.316 -0.1128  2.8777 -0.8029
 2460SOL     OW18838   0.518   0.044  14.214  0.5446  0.7285 -0.0197
 2460SOL    HW118839   0.568   4.708  14.269  0.3981  0.5959 -0.0301
 2460SOL    HW218840   0.442   4.714  14.192  0.4218  1.2552 -0.9152
 2461SOL     OW18841   2.388   4.529   3.419  0.2067 -0.6758  0.4796
 2461SOL    HW118842   2.358   4.584   3.491 -0.7880 -1.0827  0.3765
 2461SOL    HW218843   2.342   4.580   3.351 -0.1602 -2.4635 -0.6141
 2462SOL     OW18844   0.023   2.287  13.025 -0.1622 -0.3513 -0.5484
 2462SOL    HW118845   0.047   2.315  13.113  0.1871  0.1218 -0.7922
 2462SOL    HW218846   0.081   2.340  12.969 -1.0731 -1.4190 -2.5243
 2463SOL     OW18847   0.896   3.259   7.748 -0.3215 -0.9313 -0.0254
 2463SOL    HW118848   0.904   3.164   7.756  1.8469 -0.6102  1.4658
 2463SOL    HW218849   0.870   3.266   7.656  3.3739  3.3190 -0.7545
 2464SOL     OW18850   3.247   0.452   4.725  0.3443  0.7627  0.1061
 2464SOL    HW118851   3.154   0.466   4.704  0.1228 -1.0481 -0.1595
 2464SOL    HW218852   3.284   0.443   4.637  1.6916 -0.5785  0.8180
 2465SOL     OW18853   3.598   1.422   4.486  0.3118  0.3173  0.5954
 2465SOL    HW118854   3.596   1.456   4.576 -1.7167 -0.2032  0.7499
 2465SOL    HW218855   3.540   1.480   4.436  1.8974  1.0035 -0.4169
 2466SOL     OW18856   3.291   3.351   5.678  0.5110 -0.3620  0.8862
 2466SOL    HW118857   3.279   3.281   5.742  1.2304  0.0146  1.4244
 2466SOL    HW218858   3.384   3.368   5.693 -0.0748  1.6410  2.1597
 2467SOL     OW18859   2.616   3.701   8.998  0.0960  0.2536  0.1715
 2467SOL    HW118860   2.580   3.758   8.930 -0.9826 -2.0277 -1.1852
 2467SOL    HW218861   2.566   3.621   8.981 -1.5496  2.0846 -3.5319
 2468SOL     OW18862   1.135   1.011   5.688 -0.4722 -0.1153  0.4762
 2468SOL    HW118863   1.121   0.916   5.682 -0.9902  0.1040 -1.9183
 2468SOL    HW218864   1.207   1.034   5.746  1.8481 -1.6525 -1.8194
 2469SOL     OW18865   4.456   2.208   7.993 -0.6476  0.8162  0.3165
 2469SOL    HW118866   4.528   2.167   7.945 -1.6007 -2.1825  1.4482
 2469SOL    HW218867   4.375   2.174   7.957 -0.3451  0.0720  0.3413
 2470SOL     OW18868   2.775   3.009   5.602  0.2695 -0.2258  0.0475
 2470SOL    HW118869   2.797   2.928   5.648 -1.0158 -0.8088 -0.3434
 2470SOL    HW218870   2.683   3.000   5.576 -0.0520 -0.4419  1.2591
 2471SOL     OW18871   1.841   4.547  14.290  0.2634  0.1828  0.6658
 2471SOL    HW118872   1.833   4.579  14.380  2.1712  0.8834  0.5893
 2471SOL    HW218873   1.768   4.594  14.249 -0.4471 -2.5818 -1.2593
 2472SOL     OW18874   3.762   1.058   2.365  0.5673  0.5474  0.1329
 2472SOL    HW118875   3.714   1.140   2.377  0.0045  0.1285  0.7000
 2472SOL    HW218876   3.684   1.025   2.321  0.8611  0.1856 -0.1188
 2473SOL     OW18877   4.490   2.925   7.311  0.3153  0.1497 -0.4171
 2473SOL    HW118878   4.552   2.955   7.245  1.4656 -1.8981 -0.2613
 2473SOL    HW218879   4.418   2.895   7.254 -0.3008  0.0880  0.3946
 2474SOL     OW18880   3.359   4.715   4.712  0.6091  0.1094  0.5100
 2474SOL    HW118881   3.414   0.061   4.748 -1.0961  1.2021  0.9691
 2474SOL    HW218882   3.271   0.028   4.710  0.9150  0.8207  0.2436
 2475SOL     OW18883   4.362   3.032  12.996 -0.2264  0.0420  0.0423
 2475SOL    HW118884   4.294   2.999  12.937  0.5615  0.3565 -1.0516
 2475SOL    HW218885   4.425   3.059  12.929 -2.3599  0.7428 -1.6723
 2476SOL     OW18886   3.955   4.207   7.742  0.1937 -0.1123 -0.3727
 2476SOL    HW118887   3.937   4.170   7.829 -1.3256  1.9933  0.2044
 2476SOL    HW218888   3.946   4.296   7.775 -2.9822 -0.7962  0.6350
 2477SOL     OW18889   1.270   0.455   7.112  0.1953  0.2762 -0.1809
 2477SOL    HW118890   1.338   0.495   7.168 -0.4368 -1.1598  1.6007
 2477SOL    HW218891   1.266   0.528   7.050  0.4157 -0.4760 -1.0671
 2478SOL     OW18892   1.638   0.028   0.152  0.0829 -0.6384 -0.8146
 2478SOL    HW118893   1.560   0.004   0.102 -0.6160  0.6201 -0.3649
 2478SOL    HW218894   1.683   0.067   0.077 -1.5063  0.4572 -1.2250
 2479SOL     OW18895   2.353   2.830   7.577  0.0093  0.0092  0.1497
 2479SOL    HW118896   2.430   2.822   7.633 -0.4201  1.6132  0.9747
 2479SOL    HW218897   2.298   2.754   7.596 -1.3458  0.8478 -0.4463
 2480SOL     OW18898   0.519   0.924   7.620 -1.0738  0.5069 -0.2203
 2480SOL    HW118899   0.545   1.008   7.658  1.8726  0.1660 -1.5488
 2480SOL    HW218900   0.481   0.952   7.537 -0.0135  0.9671 -0.5464
 2481SOL     OW18901   0.073   0.662   3.562  0.9083  0.0861 -0.8270
 2481SOL    HW118902   0.042   0.692   3.648 -1.5898 -1.2063 -1.2912
 2481SOL    HW218903   4.710   0.658   3.523 -0.3451  0.8360  1.8577
 2482SOL     OW18904   1.291   4.269  12.131  0.2172  0.6539  0.3373
 2482SOL    HW118905   1.208   4.290  12.173 -1.2117  0.1437 -2.2373
 2482SOL    HW218906   1.339   4.352  12.126  1.6721 -0.1348  0.9611
 2483SOL     OW18907   2.974   2.087   7.261 -0.0864  0.0353 -0.0360
 2483SOL    HW118908   3.024   2.160   7.298 -0.6232  1.3104 -1.8555
 2483SOL    HW218909   2.927   2.061   7.340 -0.9917  0.6420 -0.3789
 2484SOL     OW18910   0.620   3.068   7.648  0.1884  0.4675 -0.2380
 2484SOL    HW118911   0.570   3.097   7.724 -1.8841 -2.2143 -0.5760
 2484SOL    HW218912   0.577   3.126   7.586 -2.1551 -1.3741 -0.3480
 2485SOL     OW18913   0.297   1.717   6.496 -0.1700 -0.0059 -0.2024
 2485SOL    HW118914   0.332   1.714   6.406 -0.1137 -1.2223 -0.1498
 2485SOL    HW218915   0.331   1.803   6.520  2.1757 -1.6429  2.2650
 2486SOL     OW18916   0.785   1.593   7.342 -0.1283 -0.1683 -0.2422
 2486SOL    HW118917   0.801   1.612   7.434  1.4700  0.4332 -0.6378
 2486SOL    HW218918   0.731   1.669   7.319 -0.8771 -0.9292 -0.9645
 2487SOL     OW18919   1.784   3.096  16.699 -0.1389 -0.4945  0.0295
 2487SOL    HW118920   1.805   3.076  16.791 -0.4096 -3.6880 -0.6000
 2487SOL    HW218921   1.740   3.016  16.670 -2.8769  1.8979 -2.4369
 2488SOL     OW18922   2.711   3.774   1.913 -0.3411 -0.2038  0.3130
 2488SOL    HW118923   2.675   3.712   1.849  0.8407 -0.1775 -0.3878
 2488SOL    HW218924   2.790   3.804   1.867 -0.5997  0.7823  0.5237
 2489SOL     OW18925   2.837   0.015   0.282 -0.4005  0.0808 -0.2902
 2489SOL    HW118926   2.765   0.078   0.285 -0.8422 -0.4171 -0.4853
 2489SOL    HW218927   2.806   4.662   0.329 -0.5869 -0.3290 -1.0743
 2490SOL     OW18928   4.574   3.022   6.158 -0.2082  0.0693  0.3144
 2490SOL    HW118929   4.516   2.956   6.119 -2.1111  1.5765  0.5578
 2490SOL    HW218930   4.655   2.972   6.148  0.1155  0.6365  0.0790
 2491SOL     OW18931   0.354   4.444   4.564  0.0693 -0.1959 -0.1183
 2491SOL    HW118932   0.306   4.380   4.513 -1.3230  1.2135 -0.5776
 2491SOL    HW218933   0.295   4.453   4.638  0.6321 -0.6657  0.3862
 2492SOL     OW18934   1.999   1.538   3.025 -0.3856  0.0928 -0.2145
 2492SOL    HW118935   2.094   1.548   3.031 -0.3424  0.5439 -1.5146
 2492SOL    HW218936   1.979   1.595   2.950 -0.9177  1.0000  0.6134
 2493SOL     OW18937   3.366   3.890  12.502 -0.2587 -0.0297  0.3715
 2493SOL    HW118938   3.348   3.930  12.587  0.4306  0.2337  0.3915
 2493SOL    HW218939   3.430   3.821  12.521 -0.3651 -0.0391  0.6994
 2494SOL     OW18940   2.366   4.186   6.855 -0.2187  0.3272 -0.0537
 2494SOL    HW118941   2.458   4.162   6.841 -0.4954 -0.6998 -0.1316
 2494SOL    HW218942   2.322   4.101   6.863  0.2104  0.0704 -0.3973
 2495SOL     OW18943   2.487   1.714  17.307  0.1875 -0.2485  0.2339
 2495SOL    HW118944   2.434   1.672  17.374 -0.1998 -1.5175 -0.8541
 2495SOL    HW218945   2.439   1.709  17.224 -0.3727  1.3355  0.4793
 2496SOL     OW18946   3.111   4.552   5.826 -0.1333 -0.1522  0.6281
 2496SOL    HW118947   3.129   4.559   5.733 -0.6273  2.6974  0.7483
 2496SOL    HW218948   3.053   4.628   5.837  0.9616  0.4516  2.2958
 2497SOL     OW18949   2.768   2.112   2.918 -0.0417 -0.0868 -0.4444
 2497SOL    HW118950   2.777   2.035   2.973 -0.1940  0.4612  0.3440
 2497SOL    HW218951   2.712   2.073   2.851  1.6535 -2.0922 -0.7022
 2498SOL     OW18952   2.435   2.530   2.160  0.0312  0.4501 -0.1427
 2498SOL    HW118953   2.355   2.519   2.210  0.7412  1.0938  1.1407
 2498SOL    HW218954   2.409   2.611   2.116 -1.1125 -1.0505 -2.1977
 2499SOL     OW18955   0.650   4.169   8.397 -0.4819  0.7626 -0.4200
 2499SOL    HW118956   0.732   4.120   8.396 -1.7879 -1.5164  3.0526
 2499SOL    HW218957   0.584   4.101   8.383  0.4929 -0.8300  2.8142
 2500SOL     OW18958   4.137   1.490  10.130 -0.3323 -0.0499 -0.3768
 2500SOL    HW118959   4.219   1.469  10.085 -1.0796 -1.0368 -1.2897
 2500SOL    HW218960   4.090   1.410  10.107  0.3144 -0.7086  0.5890
 2501SOL     OW18961   2.324   3.811   8.113  0.4036 -0.3171 -0.2372
 2501SOL    HW118962   2.317   3.755   8.035 -1.0656 -1.1086  0.4621
 2501SOL    HW218963   2.259   3.783   8.177 -0.9849  1.4585 -0.8713
 2502SOL     OW18964   2.807   4.594   2.751  0.0952 -0.4652 -0.0386
 2502SOL    HW118965   2.721   4.561   2.725  0.0875  0.5382 -1.2949
 2502SOL    HW218966   2.789   4.619   2.842 -0.6209  2.6652 -1.0177
 2503SOL     OW18967   2.032   1.701   7.052  0.4262 -0.3299  0.1735
 2503SOL    HW118968   2.031   1.789   7.014 -0.7752  0.6923  2.5404
 2503SOL    HW218969   1.998   1.646   6.982  1.0963 -1.0575  0.4276
 2504SOL     OW18970   4.389   0.688   5.859 -0.1630  0.0595 -0.3247
 2504SOL    HW118971   4.484   0.690   5.865 -0.1251  0.9854 -1.3069
 2504SOL    HW218972   4.373   0.595   5.873  0.9062 -0.1972 -0.8100
 2505SOL     OW18973   0.777   4.686  17.561 -0.2501  0.1007 -0.1332
 2505SOL    HW118974   0.745   4.620  17.622 -0.6994  1.1385  0.7490
 2505SOL    HW218975   0.853   4.717  17.609 -0.5913 -0.7205  0.9286
 2506SOL     OW18976   3.486   2.766   3.039 -0.3931 -0.9450 -0.2996
 2506SOL    HW118977   3.487   2.690   3.098 -3.6283 -0.9427 -0.1932
 2506SOL    HW218978   3.502   2.838   3.099 -3.1182  1.7669 -2.8256
 2507SOL     OW18979   4.652   3.707   6.725 -0.0173 -0.2065  0.3695
 2507SOL    HW118980   4.622   3.618   6.711  0.2986 -0.1303 -0.8094
 2507SOL    HW218981   4.691   3.721   6.639 -0.1801 -1.6247  0.0729
 2508SOL     OW18982   1.258   4.325  13.799 -0.3516  0.2011 -0.1489
 2508SOL    HW118983   1.231   4.372  13.878 -0.0348  0.9057 -0.4568
 2508SOL    HW218984   1.339   4.278  13.821 -0.6360 -0.1984  0.0502
 2509SOL     OW18985   3.857   2.550   8.944 -0.4560  0.8410  0.3229
 2509SOL    HW118986   3.771   2.511   8.929 -0.3278 -0.5634  3.1036
 2509SOL    HW218987   3.896   2.470   8.980 -0.3910  0.6243 -0.2380
 2510SOL     OW18988   0.027   4.404   5.664  0.2488 -0.9525 -0.2966
 2510SOL    HW118989   0.028   4.325   5.609  1.4255 -1.5715  0.6117
 2510SOL    HW218990   4.656   4.412   5.661  0.3447  0.5373  0.5497
 2511SOL     OW18991   2.919   0.194   7.110 -0.4403  0.9433  0.3869
 2511SOL    HW118992   2.865   0.115   7.119 -0.0792  0.6851  0.3278
 2511SOL    HW218993   2.910   0.210   7.016  1.3943 -1.7790 -0.2673
 2512SOL     OW18994   1.542   3.006   5.282 -0.0752  0.0060 -0.0401
 2512SOL    HW118995   1.567   3.097   5.300  0.3468  0.5743 -3.4938
 2512SOL    HW218996   1.528   3.021   5.188 -2.3050  2.4907  0.6988
 2513SOL     OW18997   2.876   2.426   2.422 -0.1303 -0.0404  0.0901
 2513SOL    HW118998   2.853   2.516   2.399  1.1337  0.1129 -0.6014
 2513SOL    HW218999   2.826   2.373   2.359  0.2797  1.0341 -1.1414
 2514SOL     OW19000   2.005   0.080   1.894  0.2380 -0.2061 -0.6512
 2514SOL    HW119001   1.980   4.721   1.935  1.4046 -0.0541  0.3597
 2514SOL    HW219002   2.031   0.054   1.805 -1.4815 -0.4527 -1.0680
 2515SOL     OW19003   3.550   3.395   5.765  0.2885  0.2446 -0.8231
 2515SOL    HW119004   3.613   3.335   5.728  1.3770  0.6213  0.4288
 2515SOL    HW219005   3.602   3.476   5.763 -0.2450  0.6808  1.9762
 2516SOL     OW19006   0.853   1.247  13.263 -0.0856  0.1376 -0.4394
 2516SOL    HW119007   0.761   1.274  13.259 -0.5423 -1.6126 -1.8072
 2516SOL    HW219008   0.847   1.159  13.225  0.0933  0.4891 -1.2582
 2517SOL     OW19009   1.162   1.330  14.013 -0.4488 -0.4909 -0.1375
 2517SOL    HW119010   1.167   1.396  14.082  0.9248 -0.4027 -0.3303
 2517SOL    HW219011   1.251   1.296  14.008 -0.0788  0.3238  1.1326
 2518SOL     OW19012   4.669   1.955   4.319 -0.2733 -0.1967 -0.1731
 2518SOL    HW119013   4.645   2.045   4.294 -1.6699 -0.6004 -0.2796
 2518SOL    HW219014   4.672   1.908   4.236 -0.9220 -0.9257  0.2137
 2519SOL     OW19015   4.006   0.291   6.896  0.2164 -0.3078 -0.0457
 2519SOL    HW119016   4.020   0.221   6.960  1.7662  1.0043  1.0629
 2519SOL    HW219017   4.093   0.313   6.863 -0.4031  0.2326 -1.3083
 2520SOL     OW19018   1.908   3.910   6.639  0.5332 -0.2773 -0.2227
 2520SOL    HW119019   1.848   3.893   6.567  0.8965 -0.7706 -0.4101
 2520SOL    HW219020   1.854   3.962   6.699  1.2145 -0.2527  0.3727
 2521SOL     OW19021   0.272   2.869  11.817 -0.2137  0.2585 -0.2419
 2521SOL    HW119022   0.271   2.847  11.910  2.0238  1.4690  0.0831
 2521SOL    HW219023   0.214   2.945  11.825 -0.5138  0.1632 -1.4181
 2522SOL     OW19024   3.945   2.535   4.324 -0.7275  0.3614  0.0957
 2522SOL    HW119025   3.872   2.481   4.352 -2.4825  1.6769 -1.9699
 2522SOL    HW219026   4.025   2.488   4.349 -1.6773 -0.9879  0.5594
 2523SOL     OW19027   0.707   1.905   9.510 -0.2753  0.7546 -0.0051
 2523SOL    HW119028   0.658   1.902   9.428  0.9094 -1.2581 -0.6500
 2523SOL    HW219029   0.649   1.937   9.580 -1.4026  0.6873 -0.9206
 2524SOL     OW19030   2.992   0.097   1.189  0.0951 -0.4469 -0.0214
 2524SOL    HW119031   3.057   0.168   1.193  0.6687 -0.9535 -0.4469
 2524SOL    HW219032   3.049   0.023   1.210  1.4688 -0.2270 -2.9763
 2525SOL     OW19033   2.148   2.583   1.867  0.3302  0.2339  0.3056
 2525SOL    HW119034   2.212   2.607   1.934  2.4864 -0.5655 -1.4850
 2525SOL    HW219035   2.207   2.598   1.793  0.5023 -0.8488  0.2196
 2526SOL     OW19036   2.952   1.833   9.275 -0.3370 -0.0631  0.0240
 2526SOL    HW119037   3.008   1.831   9.353 -0.2956 -1.7753 -0.0577
 2526SOL    HW219038   2.944   1.739   9.265  0.8242  0.0384 -1.8502
 2527SOL     OW19039   3.508   2.516   1.037  0.0983  0.2648  0.0159
 2527SOL    HW119040   3.584   2.510   1.095 -1.0717 -1.8350  1.3239
 2527SOL    HW219041   3.437   2.536   1.098  0.7720 -0.2505  0.9617
 2528SOL     OW19042   0.210   1.229   3.184 -0.1165 -0.1177 -0.1777
 2528SOL    HW119043   0.275   1.194   3.123 -0.4214 -1.2528  0.1432
 2528SOL    HW219044   0.221   1.163   3.253 -1.9342 -0.2189  0.0295
 2529SOL     OW19045   2.171   0.269   3.926 -0.0401 -0.0725  0.3085
 2529SOL    HW119046   2.095   0.227   3.886  0.4555 -1.9246  1.2903
 2529SOL    HW219047   2.224   0.290   3.849 -0.9557 -0.6215 -0.4720
 2530SOL     OW19048   1.804   4.663   9.012  0.0466 -0.1629 -0.1371
 2530SOL    HW119049   1.867   0.001   8.975 -1.6493  2.5154  1.4941
 2530SOL    HW219050   1.734   0.003   9.021 -1.1664 -1.6201  0.7878
 2531SOL     OW19051   1.789   0.245   5.068  0.2066 -0.4707  0.3404
 2531SOL    HW119052   1.804   0.230   5.161 -1.8051  0.1552  0.7633
 2531SOL    HW219053   1.845   0.321   5.053 -3.6049  2.0773 -0.9371
 2532SOL     OW19054   1.594   0.607   5.030 -0.0659 -0.2347 -0.3089
 2532SOL    HW119055   1.507   0.621   5.068 -0.9887 -1.7400 -1.8861
 2532SOL    HW219056   1.603   0.670   4.959 -0.1902 -2.1695 -2.0189
 2533SOL     OW19057   4.507   1.539  16.840 -0.1225  0.5192  0.1457
 2533SOL    HW119058   4.438   1.490  16.885 -0.9607 -0.4718 -2.1654
 2533SOL    HW219059   4.532   1.583  16.921  0.0190 -0.1650  0.4715
 2534SOL     OW19060   4.589   3.760  14.450  0.0056  0.1195 -0.0173
 2534SOL    HW119061   4.508   3.734  14.493  0.5430  3.2308  2.8512
 2534SOL    HW219062   4.567   3.733  14.361 -0.5644  2.9265 -0.7157
 2535SOL     OW19063   0.961   3.384   3.039 -0.1068 -0.1445 -0.2603
 2535SOL    HW119064   0.949   3.469   2.998  1.2965 -0.6468 -1.6817
 2535SOL    HW219065   0.996   3.333   2.967  1.1623 -0.4565  0.5865
 2536SOL     OW19066   3.361   0.374   3.433  0.5749  0.2400 -0.0522
 2536SOL    HW119067   3.292   0.441   3.423  0.2742 -0.1654 -0.7558
 2536SOL    HW219068   3.320   0.297   3.393 -0.6666  0.7258  0.2807
 2537SOL     OW19069   4.116   0.678   1.379  0.0154 -0.3658 -0.1229
 2537SOL    HW119070   4.066   0.684   1.460  0.0983 -0.6012 -0.0536
 2537SOL    HW219071   4.209   0.672   1.402 -0.3005  2.6959  1.9385
 2538SOL     OW19072   3.228   3.689  13.610  0.2003  0.0365 -0.0698
 2538SOL    HW119073   3.267   3.751  13.671  1.0646 -0.1149 -0.4707
 2538SOL    HW219074   3.298   3.624  13.620  0.9012  0.6976 -0.6425
 2539SOL     OW19075   2.188   4.396  11.221 -0.3096 -0.0616 -0.2302
 2539SOL    HW119076   2.283   4.387  11.224 -0.0664  1.7158 -2.9940
 2539SOL    HW219077   2.182   4.361  11.310 -0.6636  0.4698 -0.0435
 2540SOL     OW19078   4.617   0.227   8.250  0.0928 -0.2717 -0.0517
 2540SOL    HW119079   4.555   0.184   8.309  0.8880  0.7903  1.5812
 2540SOL    HW219080   4.681   0.157   8.261  0.3116 -0.3667 -1.9954
 2541SOL     OW19081   0.671   1.210   4.372 -0.0063 -0.1960 -0.1168
 2541SOL    HW119082   0.720   1.128   4.384  0.6808  0.2706  0.2654
 2541SOL    HW219083   0.713   1.259   4.302  0.0845 -0.1483 -0.0300
 2542SOL     OW19084   3.258   0.287   0.367  0.1522 -0.3011  0.4424
 2542SOL    HW119085   3.254   0.288   0.272 -2.7437 -0.0052  0.5407
 2542SOL    HW219086   3.231   0.377   0.387  2.3597  1.0759 -2.8602
 2543SOL     OW19087   2.531   1.006   6.357  0.4830 -0.2616  0.2066
 2543SOL    HW119088   2.529   0.911   6.343  0.4060  0.3953 -4.4310
 2543SOL    HW219089   2.446   1.030   6.320  0.1075 -0.9653  0.6226
 2544SOL     OW19090   2.539   0.273   1.670 -0.5979  0.1586  0.0289
 2544SOL    HW119091   2.459   0.223   1.683 -1.7678  2.0116 -0.0515
 2544SOL    HW219092   2.577   0.226   1.596 -1.7110  0.0909 -0.5041
 2545SOL     OW19093   0.399   4.493   8.874  0.0281 -0.6007 -0.2455
 2545SOL    HW119094   0.342   4.458   8.806 -1.1759 -0.7852  0.8443
 2545SOL    HW219095   0.384   4.435   8.949 -3.1378 -0.0077 -0.3927
 2546SOL     OW19096   2.133   3.291   4.786 -0.0327  0.2052  0.2835
 2546SOL    HW119097   2.041   3.274   4.806 -0.3881 -0.0418 -1.5835
 2546SOL    HW219098   2.170   3.222   4.841 -0.2258  0.0763  0.2505
 2547SOL     OW19099   0.669   0.174   8.813 -0.1793  0.4550 -0.6841
 2547SOL    HW119100   0.652   0.086   8.846  1.3950  0.1356 -0.7461
 2547SOL    HW219101   0.744   0.157   8.756 -1.7249 -2.5823 -1.8106
 2548SOL     OW19102   2.638   0.853   8.130  0.1561  0.5301  0.5630
 2548SOL    HW119103   2.554   0.885   8.096  1.7487  1.5145 -2.4417
 2548SOL    HW219104   2.629   0.885   8.220  0.8086 -2.6292  1.7745
 2549SOL     OW19105   1.075   0.760   5.552  0.3212 -0.2800 -0.4790
 2549SOL    HW119106   1.134   0.787   5.482  0.6842 -0.3307 -0.1940
 2549SOL    HW219107   1.111   0.692   5.609  0.2858 -0.8717 -1.1749
 2550SOL     OW19108   2.298   0.764  10.398 -0.7383  0.4342  0.3955
 2550SOL    HW119109   2.280   0.820  10.323  1.7189  1.8586  0.8504
 2550SOL    HW219110   2.296   0.676  10.360  0.4878  0.5006  0.1663
 2551SOL     OW19111   1.218   3.995   4.213 -0.1112 -0.0955 -0.1719
 2551SOL    HW119112   1.141   3.968   4.162 -1.1029  1.2833  0.6168
 2551SOL    HW219113   1.174   4.009   4.297 -1.0098 -1.0063 -0.4855
 2552SOL     OW19114   0.624   2.406  14.967 -0.7713 -0.1077  0.5452
 2552SOL    HW119115   0.583   2.491  14.982 -2.2978 -0.6203 -0.7569
 2552SOL    HW219116   0.649   2.412  14.875 -0.5801  0.2096  0.6206
 2553SOL     OW19117   0.332   1.266   0.433 -0.1507 -0.8058 -0.1598
 2553SOL    HW119118   0.390   1.192   0.454  0.8026  0.1493  0.5833
 2553SOL    HW219119   0.306   1.289   0.522 -2.4080  0.4240 -1.1580
 2554SOL     OW19120   1.907   0.949  13.490  0.6390 -0.6454 -0.1623
 2554SOL    HW119121   1.883   0.997  13.411  0.3835  1.1155  0.9941
 2554SOL    HW219122   1.829   0.977  13.537 -0.0911 -0.8063 -1.2643
 2555SOL     OW19123   0.403   2.471   0.672  0.5622 -0.5830  0.4518
 2555SOL    HW119124   0.330   2.499   0.727 -0.1063  0.5103 -0.9776
 2555SOL    HW219125   0.473   2.514   0.721 -0.7191  3.3841 -1.1905
 2556SOL     OW19126   3.372   0.058   7.567 -0.8624 -0.3084  0.8128
 2556SOL    HW119127   3.390   0.088   7.478 -1.7653  0.5336  0.9162
 2556SOL    HW219128   3.328   4.703   7.536 -0.8670 -0.4448  1.1689
 2557SOL     OW19129   4.364   4.032  16.327 -0.1110 -0.1603 -0.7788
 2557SOL    HW119130   4.387   4.092  16.256  2.1693 -0.3290 -0.1828
 2557SOL    HW219131   4.395   4.084  16.401 -3.5202  0.1054  0.4473
 2558SOL     OW19132   2.179   1.185   4.693 -0.5363 -0.1498  0.2843
 2558SOL    HW119133   2.087   1.195   4.718  0.0731  0.9624  2.0695
 2558SOL    HW219134   2.216   1.145   4.771 -1.2615 -0.8867  0.2423
 2559SOL     OW19135   0.168   3.604   4.593 -0.7186 -0.7374  0.2538
 2559SOL    HW119136   0.254   3.573   4.565 -1.8198 -3.0504 -0.5290
 2559SOL    HW219137   0.171   3.695   4.564  1.2470 -0.9388 -0.1436
 2560SOL     OW19138   1.979   1.227   4.283  0.8441 -0.2196  0.3252
 2560SOL    HW119139   1.930   1.207   4.203  0.2596  0.2019  0.5774
 2560SOL    HW219140   2.039   1.296   4.254  2.0465 -0.9135  1.1578
 2561SOL     OW19141   1.940   1.908   6.810  0.4861 -0.1327 -0.3111
 2561SOL    HW119142   1.895   1.958   6.878  0.6977  1.4929 -1.3503
 2561SOL    HW219143   1.868   1.865   6.766 -1.7906  2.3720  0.9448
 2562SOL     OW19144   1.978   1.877   7.600  0.4601  0.6461 -0.1542
 2562SOL    HW119145   2.025   1.912   7.676  0.4913 -3.0838  1.5859
 2562SOL    HW219146   1.927   1.813   7.650 -0.5501  1.4627 -0.1510
 2563SOL     OW19147   3.959   0.093   0.334  0.3978 -0.1846  1.0201
 2563SOL    HW119148   3.999   0.176   0.358  0.3556  0.0126  0.4213
 2563SOL    HW219149   3.869   0.100   0.365  0.4269  0.0387  1.0520
 2564SOL     OW19150   2.418   1.229   5.786 -0.4363 -0.3482  0.4236
 2564SOL    HW119151   2.484   1.176   5.830 -0.3644 -1.4997 -1.0681
 2564SOL    HW219152   2.450   1.246   5.697 -0.8458 -0.3181  0.2843
 2565SOL     OW19153   1.257   1.298   9.672 -0.1504  0.0582  0.3018
 2565SOL    HW119154   1.173   1.289   9.716 -0.9795  1.6843 -0.9354
 2565SOL    HW219155   1.254   1.391   9.648  1.7931 -0.0643 -0.4933
 2566SOL     OW19156   1.367   0.930   3.997 -0.4010 -0.2286 -0.3335
 2566SOL    HW119157   1.395   0.909   4.086  0.0090  2.8885  0.2714
 2566SOL    HW219158   1.427   0.995   3.961  0.4812 -1.2471 -0.6906
 2567SOL     OW19159   0.070   1.890  15.226  0.3778 -0.5966 -0.8313
 2567SOL    HW119160   0.083   1.953  15.297  1.2006  0.3725 -1.8331
 2567SOL    HW219161   0.114   1.942  15.158  0.0403  0.9970  0.1512
 2568SOL     OW19162   0.317   0.384   5.068  0.1579  0.4777 -0.3512
 2568SOL    HW119163   0.325   0.421   4.980  2.7178 -0.3927 -0.4919
 2568SOL    HW219164   0.369   0.439   5.126 -1.3202  0.2551  1.1612
 2569SOL     OW19165   0.903   2.066   3.357 -0.0709  0.0633 -0.3269
 2569SOL    HW119166   0.966   2.041   3.289 -0.1080  0.3966 -0.4826
 2569SOL    HW219167   0.887   1.976   3.388  0.1084 -0.0555 -0.5779
 2570SOL     OW19168   3.303   4.486   6.903 -0.4309  0.2123  0.5177
 2570SOL    HW119169   3.236   4.554   6.899 -0.3827  0.1671 -1.0494
 2570SOL    HW219170   3.288   4.446   6.988 -0.8088  0.3069  0.4974
 2571SOL     OW19171   2.079   4.033   1.754  0.1718  0.0831  0.1083
 2571SOL    HW119172   2.107   4.095   1.686  1.0697 -0.0532  0.3440
 2571SOL    HW219173   2.128   4.061   1.831 -0.8363 -0.1007  0.8098
 2572SOL     OW19174   1.815   2.908   4.323  0.4638  0.6855  0.4905
 2572SOL    HW119175   1.906   2.907   4.293 -0.1717 -0.2614 -1.4504
 2572SOL    HW219176   1.765   2.890   4.243  1.4099  1.1104 -0.1946
 2573SOL     OW19177   0.454   0.087   1.844 -0.1290  0.3486 -0.3028
 2573SOL    HW119178   0.372   0.050   1.813  0.2058 -0.3884 -0.3171
 2573SOL    HW219179   0.414   0.142   1.911  1.2839  2.9088 -1.5832
 2574SOL     OW19180   0.240   2.168   2.054 -0.4439  0.1016 -0.2889
 2574SOL    HW119181   0.289   2.222   2.117 -0.2552 -2.1003  1.4442
 2574SOL    HW219182   0.147   2.161   2.076 -0.1614  0.1978  0.9049
 2575SOL     OW19183   0.866   3.677   0.427 -0.5125  0.3185  0.1022
 2575SOL    HW119184   0.858   3.598   0.481 -0.2753  1.4234  1.7529
 2575SOL    HW219185   0.940   3.658   0.369  0.1316  4.0326 -0.2612
 2576SOL     OW19186   0.801   1.812   8.253  0.0044  0.5044 -0.0069
 2576SOL    HW119187   0.787   1.778   8.342 -1.8356  1.1591 -0.0475
 2576SOL    HW219188   0.814   1.738   8.194 -1.9708  1.5727 -1.7953
 2577SOL     OW19189   2.967   3.346  13.866 -0.0118  0.2981 -0.1468
 2577SOL    HW119190   2.937   3.401  13.938  0.3468  2.2024 -1.4788
 2577SOL    HW219191   3.061   3.359  13.869  0.0613 -0.0544 -0.8315
 2578SOL     OW19192   2.632   1.504   4.882 -0.5960 -0.6098  0.0612
 2578SOL    HW119193   2.556   1.459   4.920 -1.3806 -0.2560 -1.0881
 2578SOL    HW219194   2.612   1.508   4.789 -0.1048 -1.3619 -0.0776
 2579SOL     OW19195   2.009   4.486   9.124  0.0196  0.5729  0.2170
 2579SOL    HW119196   1.964   4.534   9.054 -3.2364 -1.6074  0.7723
 2579SOL    HW219197   1.977   4.530   9.202 -2.3332  0.6408 -0.7756
 2580SOL     OW19198   3.003   2.914   1.729  0.1301  0.3940  0.3127
 2580SOL    HW119199   3.097   2.916   1.745  0.5988 -0.7595 -2.3096
 2580SOL    HW219200   2.977   2.999   1.765  1.1029  0.8547 -0.0486
 2581SOL     OW19201   0.045   0.766   8.071  0.2966  0.4824  0.4219
 2581SOL    HW119202   0.069   0.688   8.121 -0.7709 -0.3261 -0.3141
 2581SOL    HW219203   4.686   0.746   8.028 -0.0925  2.4784  0.2273
 2582SOL     OW19204   3.074   2.141  17.535  0.2335 -0.7833 -0.5692
 2582SOL    HW119205   3.156   2.181  17.565  0.9368 -1.3810 -1.7015
 2582SOL    HW219206   3.018   2.162  17.610 -0.1966 -4.6459  0.1883
 2583SOL     OW19207   3.960   4.617   6.712  0.6975 -0.8695  0.1547
 2583SOL    HW119208   3.890   4.553   6.725 -0.6468  0.3821 -0.9218
 2583SOL    HW219209   4.032   4.561   6.740  2.1764 -0.7190 -3.3156
 2584SOL     OW19210   4.371   4.241  12.106 -0.3248  0.4978  0.6644
 2584SOL    HW119211   4.380   4.331  12.077  0.2945  0.7037  1.5119
 2584SOL    HW219212   4.405   4.192  12.031 -0.1259  0.9376  0.4705
 2585SOL     OW19213   1.884   3.419   9.095 -0.2490  0.0597  0.0414
 2585SOL    HW119214   1.940   3.488   9.131 -1.1573  0.3895  0.8440
 2585SOL    HW219215   1.899   3.346   9.155  0.1107 -0.0519 -0.1897
 2586SOL     OW19216   2.744   4.309   0.887 -0.3207 -0.0003  0.0882
 2586SOL    HW119217   2.650   4.306   0.904 -0.3202 -3.2236 -0.5658
 2586SOL    HW219218   2.777   4.220   0.881 -1.1836 -0.3948  1.2415
 2587SOL     OW19219   3.536   4.024   5.720  0.1911 -0.0155  0.0050
 2587SOL    HW119220   3.558   4.116   5.714  0.3818 -0.0501  0.1929
 2587SOL    HW219221   3.577   4.013   5.805  0.0594 -0.0095  0.0699
 2588SOL     OW19222   0.978   2.413   7.148 -0.4404 -0.1025  0.5099
 2588SOL    HW119223   0.912   2.417   7.217  0.7202  2.3714  1.4701
 2588SOL    HW219224   1.042   2.469   7.192 -0.3844 -1.3578  2.0253
 2589SOL     OW19225   4.110   2.663   6.991  0.1923  0.2996  0.2479
 2589SOL    HW119226   4.148   2.617   6.916 -1.1947 -1.1636  0.4284
 2589SOL    HW219227   4.049   2.596   7.023  1.8792 -2.0501 -1.3902
 2590SOL     OW19228   2.814   4.194   5.318  0.0957 -0.1920 -0.2996
 2590SOL    HW119229   2.907   4.210   5.332  0.5483 -0.9729 -2.4887
 2590SOL    HW219230   2.799   4.254   5.245 -0.3755 -1.2622 -1.0791
 2591SOL     OW19231   4.505   3.099   3.362 -0.4855 -0.1897  0.0482
 2591SOL    HW119232   4.551   3.183   3.364 -2.6641  1.0121 -0.4247
 2591SOL    HW219233   4.427   3.120   3.310  1.3093 -0.3007 -2.6849
 2592SOL     OW19234   3.665   2.882   0.931  0.1350  1.0740  0.1261
 2592SOL    HW119235   3.713   2.802   0.948  1.4060  1.5063 -1.4617
 2592SOL    HW219236   3.688   2.922   1.015 -2.3450  1.2082  0.7589
 2593SOL     OW19237   3.237   1.838  16.128 -0.2642 -0.3492  0.2178
 2593SOL    HW119238   3.328   1.836  16.098  0.0858 -1.8380  1.3912
 2593SOL    HW219239   3.246   1.916  16.183 -2.2657 -0.6937  1.0453
 2594SOL     OW19240   1.056   2.095   7.888 -0.0069  0.2747 -0.5530
 2594SOL    HW119241   1.132   2.143   7.856 -0.5191  0.5270 -1.3981
 2594SOL    HW219242   1.088   2.064   7.973 -1.8490  1.4573  0.5807
 2595SOL     OW19243   4.101   1.616  10.358 -0.7763  0.2030  0.0997
 2595SOL    HW119244   4.125   1.579  10.273  0.2811  1.7195 -0.2463
 2595SOL    HW219245   4.178   1.671  10.369 -0.9389  0.4648 -0.0942
 2596SOL     OW19246   4.074   4.112   0.388 -0.1877  0.1238 -0.0093
 2596SOL    HW119247   3.984   4.096   0.358 -0.2105  0.2120  0.0113
 2596SOL    HW219248   4.104   4.024   0.410 -0.3222 -0.1672 -0.9973
 2597SOL     OW19249   0.842   1.700   9.925 -0.0756  0.1981 -0.2698
 2597SOL    HW119250   0.774   1.743   9.977  0.8379  1.4806 -0.1300
 2597SOL    HW219251   0.807   1.713   9.837 -1.2217 -1.0964  0.0012
 2598SOL     OW19252   2.264   3.850   9.459  0.5409  0.3017 -0.1047
 2598SOL    HW119253   2.171   3.831   9.448  0.3929 -0.3433  2.2772
 2598SOL    HW219254   2.307   3.765   9.463  1.0278  0.4374 -2.2450
 2599SOL     OW19255   0.125   4.591   8.866  0.2256 -0.0389  0.1428
 2599SOL    HW119256   0.182   4.625   8.797 -1.4743 -0.8673 -1.6745
 2599SOL    HW219257   0.138   4.497   8.862 -1.6106 -0.2875 -0.0608
 2600SOL     OW19258   0.500   0.853   4.945 -0.5193 -0.3295  0.0441
 2600SOL    HW119259   0.577   0.806   4.911 -0.9470 -1.5401  0.7499
 2600SOL    HW219260   0.470   0.885   4.860  0.6207  2.2446  0.6201
 2601SOL     OW19261   3.162   0.426   8.851  0.0576  0.8465  0.4437
 2601SOL    HW119262   3.245   0.437   8.804 -0.0930 -0.2132 -0.0808
 2601SOL    HW219263   3.186   0.427   8.943  2.1254  0.3233 -0.0696
 2602SOL     OW19264   3.981   4.047   5.603  0.4670 -0.5272  0.5263
 2602SOL    HW119265   3.969   3.952   5.606  1.8078 -0.7073  0.3748
 2602SOL    HW219266   4.048   4.055   5.534  0.2038  4.3175  0.8335
 2603SOL     OW19267   1.667   4.337  16.253 -0.0039 -0.1620 -0.7265
 2603SOL    HW119268   1.572   4.333  16.242  0.4001 -0.1037 -4.2303
 2603SOL    HW219269   1.684   4.399  16.183 -1.0854  2.6370  1.5036
 2604SOL     OW19270   2.700   3.364  13.779 -0.2128 -0.4171  0.0953
 2604SOL    HW119271   2.737   3.374  13.691  0.9994 -1.8565  0.4281
 2604SOL    HW219272   2.782   3.355  13.828 -0.8949 -1.6498  1.0215
 2605SOL     OW19273   2.390   1.269   1.441  0.4370  0.1567 -0.0405
 2605SOL    HW119274   2.458   1.202   1.441  0.2287 -0.0521 -0.5682
 2605SOL    HW219275   2.331   1.236   1.374  0.0632 -1.4897  1.1034
 2606SOL     OW19276   0.410   3.962   9.108 -0.8184  0.1349 -0.5890
 2606SOL    HW119277   0.317   3.970   9.087 -0.7003  2.0802 -0.4137
 2606SOL    HW219278   0.417   3.971   9.203  0.2262  0.6773 -0.7154
 2607SOL     OW19279   3.164   1.203  15.368  0.2676 -0.3385  0.0819
 2607SOL    HW119280   3.246   1.248  15.348 -0.2745  0.1727 -0.9625
 2607SOL    HW219281   3.187   1.111  15.355 -0.4865 -0.0821 -2.9077
 2608SOL     OW19282   3.846   0.132   0.803 -0.0610  0.2755  0.2552
 2608SOL    HW119283   3.899   0.059   0.771  0.4394  1.7986 -2.3664
 2608SOL    HW219284   3.920   0.192   0.811 -0.3623  0.5138  1.3888
 2609SOL     OW19285   0.866   0.918  14.336  0.6290 -0.3025  0.6032
 2609SOL    HW119286   0.868   0.830  14.299  0.7758 -0.5453  1.1951
 2609SOL    HW219287   0.946   0.909  14.387  1.6019  0.0651 -0.8496
 2610SOL     OW19288   2.217   2.278   7.656  0.0296  0.4989 -0.4763
 2610SOL    HW119289   2.146   2.315   7.709 -2.0705 -1.1618 -2.1569
 2610SOL    HW219290   2.193   2.303   7.567 -0.4045 -1.1655 -0.8250
 2611SOL     OW19291   4.471   2.944  10.502 -0.4893  0.6001  0.1134
 2611SOL    HW119292   4.494   2.899  10.421  0.8639 -2.1605  2.0466
 2611SOL    HW219293   4.453   2.873  10.564  0.3777 -0.5060 -0.8992
 2612SOL     OW19294   3.736   4.561   1.697 -0.6778 -0.4218  0.1438
 2612SOL    HW119295   3.678   4.625   1.738 -1.2004  1.3295 -3.2653
 2612SOL    HW219296   3.735   4.596   1.608 -2.0815  1.4614  0.8938
 2613SOL     OW19297   2.383   0.588   3.679  0.3411  0.4256  0.1506
 2613SOL    HW119298   2.415   0.658   3.736  1.4199  0.9214 -1.0594
 2613SOL    HW219299   2.350   0.636   3.603  3.6646 -1.0680 -2.2477
 2614SOL     OW19300   1.102   4.378   0.208 -0.7680  0.4387  0.1659
 2614SOL    HW119301   1.080   4.444   0.274  2.4757 -1.0129  2.6766
 2614SOL    HW219302   1.181   4.416   0.169 -0.8856  0.5349  0.0183
 2615SOL     OW19303   2.721   1.096   2.052 -0.0352  0.1398  0.6937
 2615SOL    HW119304   2.654   1.033   2.025  3.1334 -3.1396  0.4344
 2615SOL    HW219305   2.772   1.100   1.971  2.0263 -2.9826  1.8140
 2616SOL     OW19306   2.467   3.583   6.372 -0.4920  0.1874  0.6133
 2616SOL    HW119307   2.514   3.644   6.315 -0.4048 -0.8362 -0.4126
 2616SOL    HW219308   2.502   3.496   6.352 -0.0467 -0.0215  2.3228
 2617SOL     OW19309   2.601   1.325   5.287  0.1066  0.0066 -0.0470
 2617SOL    HW119310   2.661   1.384   5.241  0.6497 -1.6865 -1.5321
 2617SOL    HW219311   2.568   1.275   5.213  0.7536  0.8371 -0.9053
 2618SOL     OW19312   2.348   1.065   1.220  0.1310 -0.1276  0.6975
 2618SOL    HW119313   2.419   1.032   1.275  1.3911  0.0272 -0.8436
 2618SOL    HW219314   2.295   0.986   1.209  1.3558 -0.8881  0.2097
 2619SOL     OW19315   1.836   1.339   1.046 -0.1687  0.4157  0.1340
 2619SOL    HW119316   1.927   1.328   1.019 -0.5527  0.8924 -1.3233
 2619SOL    HW219317   1.836   1.253   1.088 -0.6073  0.4179  0.1385
 2620SOL     OW19318   0.493   2.980  16.111  0.4576  0.4357 -0.0160
 2620SOL    HW119319   0.543   2.926  16.049 -0.3673 -0.5451  0.1708
 2620SOL    HW219320   0.559   3.047  16.129  1.2622 -0.3631  0.0018
 2621SOL     OW19321   2.660   3.943   0.053 -0.5089  0.4597 -0.5961
 2621SOL    HW119322   2.668   3.855   0.091  0.1435  0.0632 -1.6684
 2621SOL    HW219323   2.640   3.914  17.662 -0.4877 -1.4407  0.0089
 2622SOL     OW19324   3.300   3.558  17.358 -0.0923  0.1743 -0.6500
 2622SOL    HW119325   3.290   3.614  17.281 -1.1893 -0.1524 -0.7406
 2622SOL    HW219326   3.211   3.532  17.380 -0.5702  2.5645  0.2350
 2623SOL     OW19327   3.494   1.324  14.869 -0.0703  0.3718 -0.4175
 2623SOL    HW119328   3.464   1.276  14.792  3.2028  0.3631 -1.6947
 2623SOL    HW219329   3.459   1.411  14.853 -1.3345  0.0031  0.3665
 2624SOL     OW19330   0.659   3.250   6.730 -0.2594  0.0679 -0.0470
 2624SOL    HW119331   0.751   3.258   6.758  0.6679 -1.5779 -2.6757
 2624SOL    HW219332   0.610   3.267   6.811 -0.3698 -0.2838 -0.0390
 2625SOL     OW19333   2.232   2.429   2.319  0.5989  0.2845 -0.5257
 2625SOL    HW119334   2.235   2.334   2.321 -2.0186  0.2282  0.1391
 2625SOL    HW219335   2.138   2.443   2.305  0.4782  2.3451  2.2280
 2626SOL     OW19336   0.221   0.208   3.663  0.1498  0.3573 -1.0853
 2626SOL    HW119337   0.176   0.257   3.731  1.6389  1.3158 -0.8027
 2626SOL    HW219338   0.223   0.274   3.593  0.8970  1.4794  0.0177
 2627SOL     OW19339   4.619   0.052  13.047  0.5278  0.0181 -0.6741
 2627SOL    HW119340   4.586   0.034  12.959  2.1408 -0.1185 -1.2536
 2627SOL    HW219341   4.564   0.127  13.068 -1.8585 -2.0295  0.3988
 2628SOL     OW19342   1.352   0.602   3.982  0.3161 -0.2137  0.1127
 2628SOL    HW119343   1.325   0.572   4.069 -0.5361  1.7395  0.5311
 2628SOL    HW219344   1.266   0.600   3.940 -1.1465 -0.4925  3.1299
 2629SOL     OW19345   3.888   4.388   6.415 -0.1410 -0.6290 -0.1701
 2629SOL    HW119346   3.861   4.357   6.502  1.3550 -1.1211  0.1328
 2629SOL    HW219347   3.960   4.448   6.435 -1.7391  1.2277 -0.0252
 2630SOL     OW19348   1.530   4.651   5.412 -0.2354  0.3194  0.3572
 2630SOL    HW119349   1.536   4.660   5.317  0.7026 -0.3042  0.3581
 2630SOL    HW219350   1.540   4.556   5.413  0.7550  0.4241  0.7151
 2631SOL     OW19351   1.951   0.218   5.852 -0.2119 -0.0807  0.1700
 2631SOL    HW119352   2.020   0.283   5.843  0.5822 -0.8395  0.8569
 2631SOL    HW219353   1.922   0.208   5.942  0.1130 -3.4648 -0.0926
 2632SOL     OW19354   2.367   2.699   6.038  0.1506  0.0064 -0.4488
 2632SOL    HW119355   2.338   2.710   5.947 -0.4883  0.9417 -0.1297
 2632SOL    HW219356   2.405   2.612   6.026  1.4652  0.5618 -0.2898
 2633SOL     OW19357   1.529   4.457   5.952 -0.3069  0.0183 -0.3807
 2633SOL    HW119358   1.548   4.396   6.024  3.5561  0.2986 -1.1655
 2633SOL    HW219359   1.591   4.526   5.975  0.2367 -0.5768 -0.0685
 2634SOL     OW19360   0.667   3.396  13.353  0.2103  0.3620 -0.0923
 2634SOL    HW119361   0.624   3.325  13.401 -0.0983  0.9835  0.5522
 2634SOL    HW219362   0.724   3.427  13.424  1.7287 -1.7648 -0.4027
 2635SOL     OW19363   2.885   3.572   0.329 -0.3355 -0.0703 -0.4259
 2635SOL    HW119364   2.975   3.602   0.313 -0.1350 -1.0839 -1.2425
 2635SOL    HW219365   2.880   3.558   0.423 -0.0049  1.0637 -0.2428
 2636SOL     OW19366   0.666   0.397   2.792  0.4913  0.0125  0.5826
 2636SOL    HW119367   0.644   0.404   2.885  0.7675  0.6938  0.5970
 2636SOL    HW219368   0.649   0.487   2.763  0.3021  0.1582  1.1410
 2637SOL     OW19369   4.307   4.385   2.773 -0.1477 -0.3944  0.2065
 2637SOL    HW119370   4.380   4.348   2.723  1.3452  1.2598  1.1590
 2637SOL    HW219371   4.343   4.474   2.779  1.6157 -1.2015  1.5565
 2638SOL     OW19372   1.841   1.831   9.099 -0.0878 -0.2910 -0.6198
 2638SOL    HW119373   1.790   1.766   9.146  1.5264 -1.2962 -0.2463
 2638SOL    HW219374   1.916   1.778   9.068 -1.0430 -1.7197 -0.4896
 2639SOL     OW19375   3.394   3.074   8.489 -0.2637 -0.0800  0.5220
 2639SOL    HW119376   3.467   3.042   8.437  0.8687 -1.2418  2.8640
 2639SOL    HW219377   3.392   3.011   8.561 -2.0852 -0.8518 -0.1935
 2640SOL     OW19378   0.135   3.302   8.593  0.0581 -0.2966 -0.2731
 2640SOL    HW119379   0.172   3.370   8.650 -2.2223  1.0305 -0.3848
 2640SOL    HW219380   0.135   3.235   8.661  0.1284  0.6372  0.6569
 2641SOL     OW19381   3.839   1.977   2.076  0.5487 -0.5714  0.0713
 2641SOL    HW119382   3.751   1.954   2.106  0.7595  0.9399  1.8487
 2641SOL    HW219383   3.889   1.923   2.137  2.2249  0.7662 -0.1237
 2642SOL     OW19384   3.276   4.127   5.589 -0.3580  0.1232 -0.6298
 2642SOL    HW119385   3.316   4.103   5.505 -0.8337 -1.7229 -0.3419
 2642SOL    HW219386   3.351   4.147   5.645  1.2409 -2.6710 -1.7774
 2643SOL     OW19387   0.821   1.122   0.385 -0.1966  0.4961  0.0514
 2643SOL    HW119388   0.848   1.105   0.475  1.5735  2.3800 -0.1256
 2643SOL    HW219389   0.907   1.136   0.345 -1.1873  0.3197 -2.1092
 2644SOL     OW19390   1.161   1.912   5.682 -0.2590  0.2463 -0.3751
 2644SOL    HW119391   1.119   1.843   5.630 -0.5653 -0.3766  0.6906
 2644SOL    HW219392   1.111   1.901   5.764  0.1294 -1.1014 -0.3122
 2645SOL     OW19393   2.184   0.059   2.979  0.4704 -0.0490  0.3032
 2645SOL    HW119394   2.119   0.084   2.912  0.9392  0.3451 -0.0026
 2645SOL    HW219395   2.265   0.075   2.930  1.1402 -2.4551  0.6102
 2646SOL     OW19396   1.570   3.461  17.497  0.5632  0.3804  0.5611
 2646SOL    HW119397   1.658   3.454  17.535  1.7599  3.1604 -1.7010
 2646SOL    HW219398   1.567   3.402  17.422 -1.3984 -0.6387  1.4426
 2647SOL     OW19399   3.661   2.457  14.663 -0.2641 -0.7461 -0.3870
 2647SOL    HW119400   3.607   2.536  14.669  2.1178  0.9561 -1.3437
 2647SOL    HW219401   3.616   2.414  14.590 -2.2910  0.1678  0.3306
 2648SOL     OW19402   0.006   3.674   8.744  0.1077 -0.0848  0.0565
 2648SOL    HW119403   0.006   3.612   8.671  3.0652 -0.9803  0.8143
 2648SOL    HW219404   4.637   3.694   8.756  0.3206 -0.0478  1.7441
 2649SOL     OW19405   0.303   1.965   2.635  0.2524 -0.8813 -0.0263
 2649SOL    HW119406   0.382   1.917   2.611  1.4130  1.2222 -0.3661
 2649SOL    HW219407   0.228   1.906   2.629  0.1198 -0.7894  0.6727
 2650SOL     OW19408   1.859   4.441   5.278 -0.0340  0.6156  0.7689
 2650SOL    HW119409   1.918   4.369   5.301 -1.3110 -0.5561  0.4468
 2650SOL    HW219410   1.851   4.495   5.356  0.3991  1.1399  0.4461
 2651SOL     OW19411   3.130   0.326   1.724 -0.2029  0.4966  0.5969
 2651SOL    HW119412   3.071   0.400   1.707 -2.2006 -1.4875 -1.0923
 2651SOL    HW219413   3.163   0.314   1.635  0.5993 -1.1293  1.1238
 2652SOL     OW19414   0.455   0.835   5.445 -0.3240  0.1704  0.1459
 2652SOL    HW119415   0.403   0.897   5.394 -0.2169 -0.9724 -1.3531
 2652SOL    HW219416   0.528   0.842   5.383  1.8663  0.2589  2.7335
 2653SOL     OW19417   2.804   1.808  10.106  0.2565  0.7297  0.5318
 2653SOL    HW119418   2.899   1.818  10.101  0.6919 -3.4102  1.0105
 2653SOL    HW219419   2.788   1.818  10.200 -2.0432  0.0810  0.2045
 2654SOL     OW19420   3.304   2.525   0.080  0.6464  0.5162 -0.4772
 2654SOL    HW119421   3.298   2.555  17.688 -1.3752  0.0751 -0.4805
 2654SOL    HW219422   3.262   2.592   0.133 -0.8671  0.0607 -1.1119
 2655SOL     OW19423   3.480   1.020   5.862  0.3642 -1.2080 -0.2831
 2655SOL    HW119424   3.502   1.109   5.889  1.6339 -1.2540 -1.1899
 2655SOL    HW219425   3.491   0.976   5.946 -2.1138 -1.8841 -0.3207
 2656SOL     OW19426   0.284   1.140   1.717 -0.3730 -0.4854  0.0054
 2656SOL    HW119427   0.336   1.221   1.717  0.6911 -1.1661  0.3921
 2656SOL    HW219428   0.198   1.178   1.700  0.4134  1.2794 -0.1171
 2657SOL     OW19429   2.800   3.006   1.421  0.1621  0.1631 -0.0349
 2657SOL    HW119430   2.780   3.033   1.511  0.9662  0.1590  0.1499
 2657SOL    HW219431   2.766   3.078   1.369 -0.7556 -0.8591 -0.8501
 2658SOL     OW19432   3.646   4.640   8.942 -0.2059  0.1584  0.4598
 2658SOL    HW119433   3.580   4.633   8.874  1.7578 -1.6405 -1.2513
 2658SOL    HW219434   3.723   4.608   8.896 -1.0784  1.5798 -1.9444
 2659SOL     OW19435   4.677   0.978   3.475  0.1403  0.4756 -0.2924
 2659SOL    HW119436   0.022   1.015   3.531 -0.4289  0.8647  0.1545
 2659SOL    HW219437   4.605   0.975   3.538 -1.4722  0.5874 -2.1229
 2660SOL     OW19438   0.769   3.805  10.940 -0.1018 -0.2734  0.1330
 2660SOL    HW119439   0.686   3.853  10.948  0.6499  1.3922 -2.0170
 2660SOL    HW219440   0.769   3.802  10.844 -3.5382  1.4386  0.0493
 2661SOL     OW19441   4.292   0.178   5.410  0.2317  0.2804 -0.2718
 2661SOL    HW119442   4.275   0.184   5.504  0.2056 -1.0015 -0.1876
 2661SOL    HW219443   4.259   0.089   5.399  2.0528 -0.5742  0.9978
 2662SOL     OW19444   2.082   1.886   1.681  0.1792  0.0489 -0.0475
 2662SOL    HW119445   2.053   1.977   1.684 -2.2889 -0.7258 -0.9961
 2662SOL    HW219446   2.005   1.838   1.651  1.1141 -1.3971 -0.1572
 2663SOL     OW19447   4.126   3.779   1.120  0.7268 -0.1422  0.1748
 2663SOL    HW119448   4.207   3.776   1.069  0.3223 -3.0611 -0.2703
 2663SOL    HW219449   4.125   3.872   1.143 -0.0642 -0.6169  1.9760
 2664SOL     OW19450   4.290   0.828   7.083  0.6123 -0.5168 -0.1802
 2664SOL    HW119451   4.253   0.776   7.011  0.2666 -0.1456 -0.2707
 2664SOL    HW219452   4.212   0.874   7.114 -0.2602 -0.1354 -2.8949
 2665SOL     OW19453   2.237   4.603   5.323 -0.1446  0.1391 -0.1759
 2665SOL    HW119454   2.252   4.516   5.362  0.8638  0.5907  0.4674
 2665SOL    HW219455   2.174   4.573   5.257  1.0917 -2.6723 -0.1136
 2666SOL     OW19456   2.173   4.629   3.193  0.2806  0.6057 -0.1266
 2666SOL    HW119457   2.185   4.681   3.113  0.4021  1.3193  0.3552
 2666SOL    HW219458   2.083   4.644   3.222 -0.0321 -0.3748 -0.5982
 2667SOL     OW19459   1.264   1.481   3.678  0.0817  0.2607 -0.1264
 2667SOL    HW119460   1.297   1.568   3.657 -0.8992  0.7202  0.2483
 2667SOL    HW219461   1.269   1.428   3.599 -1.6348 -1.1658  0.7329
 2668SOL     OW19462   3.890   4.603   0.954 -0.6068  0.0634  0.1591
 2668SOL    HW119463   3.801   4.625   0.983 -0.5716  0.8108 -0.2910
 2668SOL    HW219464   3.886   4.587   0.860  0.1722 -0.7094  0.2563
 2669SOL     OW19465   3.887   3.548  14.856  0.8835 -0.2354 -0.3815
 2669SOL    HW119466   3.793   3.563  14.866  0.8463 -0.9836  0.3608
 2669SOL    HW219467   3.917   3.637  14.836  0.7902  0.0506  0.7573
 2670SOL     OW19468   0.058   2.247   4.238  0.0967  0.0053 -0.0748
 2670SOL    HW119469   0.029   2.337   4.254 -1.7641 -0.1452 -2.6116
 2670SOL    HW219470   0.152   2.262   4.234  0.4678 -2.7471 -1.6858
 2671SOL     OW19471   0.623   4.191   8.672 -0.4414  0.6970 -0.7168
 2671SOL    HW119472   0.707   4.146   8.676 -1.7162 -1.9632 -4.3769
 2671SOL    HW219473   0.617   4.192   8.577  0.3866  0.1198 -0.7735
 2672SOL     OW19474   1.977   1.307  17.578  0.2549 -0.3353  0.5434
 2672SOL    HW119475   1.885   1.280  17.584  0.2434 -0.6725 -0.9589
 2672SOL    HW219476   1.999   1.336  17.666 -0.6684 -0.9689  0.9823
 2673SOL     OW19477   1.198   4.334   5.904  0.3569 -0.2368 -0.0870
 2673SOL    HW119478   1.123   4.281   5.931 -1.3340  1.8098 -0.8009
 2673SOL    HW219479   1.229   4.283   5.829 -2.0245 -2.8421  0.6910
 2674SOL     OW19480   1.818   0.900   6.926 -0.0185  0.0177  0.3636
 2674SOL    HW119481   1.754   0.960   6.964 -0.3439  0.4202 -0.7975
 2674SOL    HW219482   1.870   0.879   7.003  1.0026 -0.6008 -0.4908
 2675SOL     OW19483   3.069   1.168   5.634  0.2640 -0.2958  0.2839
 2675SOL    HW119484   3.097   1.144   5.723  1.8965  0.1520 -0.1143
 2675SOL    HW219485   2.977   1.180   5.656 -0.2821  0.3161 -2.4828
 2676SOL     OW19486   0.467   3.806  11.503  0.7881 -0.2215  0.0431
 2676SOL    HW119487   0.493   3.821  11.594  1.6319  1.2960 -0.4694
 2676SOL    HW219488   0.387   3.857  11.489 -0.4617 -2.0895  0.3566
 2677SOL     OW19489   2.178   2.365   4.828 -0.0064 -0.2901 -0.1658
 2677SOL    HW119490   2.166   2.352   4.734 -1.5136 -1.2554  0.1653
 2677SOL    HW219491   2.097   2.316   4.844  0.9124 -1.6469  0.3781
 2678SOL     OW19492   2.388   0.091   1.296  0.0152  0.5413 -0.3149
 2678SOL    HW119493   2.293   0.088   1.309  0.3226 -1.3099  1.3853
 2678SOL    HW219494   2.395   0.007   1.252 -1.7163  0.9366 -1.3681
 2679SOL     OW19495   4.680   0.158   4.444  0.8828 -0.0134 -0.2653
 2679SOL    HW119496   0.035   0.108   4.465 -0.6179 -1.0670  2.8691
 2679SOL    HW219497   4.700   0.243   4.483 -1.7480  0.5030 -0.0372
 2680SOL     OW19498   3.944   0.857   2.108  0.1503  0.3146  0.4226
 2680SOL    HW119499   3.929   0.951   2.095 -0.8164 -0.2334 -2.3735
 2680SOL    HW219500   3.887   0.845   2.184 -1.4160  1.1635 -0.6152
 2681SOL     OW19501   1.894   2.528   1.897  0.6076 -0.5920  0.3486
 2681SOL    HW119502   1.927   2.544   1.986  0.9575  3.3281 -0.5027
 2681SOL    HW219503   1.980   2.521   1.857  0.1103  0.2337 -0.8595
 2682SOL     OW19504   3.834   0.741   8.688 -0.9810  0.1692  0.0997
 2682SOL    HW119505   3.811   0.831   8.666 -1.1627  0.5426  1.8748
 2682SOL    HW219506   3.892   0.757   8.762  0.3686 -0.8670 -0.7260
 2683SOL     OW19507   2.439   3.246  13.574 -0.1253 -0.4327 -0.0249
 2683SOL    HW119508   2.397   3.322  13.615  1.6636 -0.1944  1.3765
 2683SOL    HW219509   2.452   3.194  13.653  0.5642 -1.4709 -0.8270
 2684SOL     OW19510   3.114   0.856  13.355 -0.3991 -0.0328 -0.0228
 2684SOL    HW119511   3.061   0.797  13.302 -0.8135 -2.3688  2.9897
 2684SOL    HW219512   3.050   0.922  13.382 -2.7005 -1.0316 -3.0433
 2685SOL     OW19513   2.836   1.437  10.165  0.3614 -0.6932 -0.1458
 2685SOL    HW119514   2.749   1.428  10.202  0.1815  1.1448 -0.0960
 2685SOL    HW219515   2.850   1.531  10.183 -0.9216 -1.0483  2.7385
 2686SOL     OW19516   1.504   2.555   3.391  0.3290  0.4303 -0.4377
 2686SOL    HW119517   1.452   2.477   3.411 -2.2719  1.9676 -1.1355
 2686SOL    HW219518   1.441   2.603   3.337 -0.4342 -0.1253 -0.0437
 2687SOL     OW19519   2.869   2.416   2.000 -0.5991  0.2558  0.7042
 2687SOL    HW119520   2.788   2.422   2.052 -1.4950 -0.5466 -0.5857
 2687SOL    HW219521   2.869   2.512   1.995  0.5358  0.1751 -0.6166
 2688SOL     OW19522   3.775   1.652   5.536  0.2218 -0.3041  0.0073
 2688SOL    HW119523   3.819   1.694   5.610  4.2669 -1.7701 -1.5842
 2688SOL    HW219524   3.850   1.618   5.487 -0.7405 -3.9581  1.0613
 2689SOL     OW19525   2.428   0.430   7.308  0.2270 -0.2908 -0.4997
 2689SOL    HW119526   2.505   0.449   7.361  0.3341  0.5011 -0.9313
 2689SOL    HW219527   2.468   0.373   7.244  0.2472  0.3179 -1.0301
 2690SOL     OW19528   3.901   2.755   6.373 -0.1924 -0.0609  0.2239
 2690SOL    HW119529   3.936   2.800   6.450 -0.8408  2.1574 -0.7642
 2690SOL    HW219530   3.831   2.696   6.399 -0.2843  1.2085  2.8102
 2691SOL     OW19531   0.836   2.718  11.309 -0.1453 -0.4428  0.6985
 2691SOL    HW119532   0.744   2.734  11.290 -0.2936 -0.9286  1.0029
 2691SOL    HW219533   0.826   2.623  11.310  0.5196 -0.5590 -3.3132
 2692SOL     OW19534   2.913   4.568   8.853  0.3092 -0.6296 -0.0225
 2692SOL    HW119535   2.849   4.614   8.799 -0.8430 -0.5436  1.4086
 2692SOL    HW219536   2.871   4.559   8.938  0.9255  1.7272  0.5456
 2693SOL     OW19537   0.374   4.560  16.890 -0.1445  0.0890  0.3973
 2693SOL    HW119538   0.435   4.558  16.965  0.2171  2.8740  0.1695
 2693SOL    HW219539   0.419   4.494  16.838 -0.1688 -0.0570  0.5595
 2694SOL     OW19540   1.115   1.873   3.380  0.7981 -0.0373 -0.2460
 2694SOL    HW119541   1.137   1.929   3.455  2.4322 -0.8419 -0.1363
 2694SOL    HW219542   1.159   1.790   3.394 -0.7363 -1.1014 -1.7474
 2695SOL     OW19543   1.231   2.056  15.707  0.4338  0.0429 -1.4133
 2695SOL    HW119544   1.182   2.022  15.781 -0.2147  2.9975 -0.5058
 2695SOL    HW219545   1.241   1.985  15.643 -0.5022 -1.1012 -0.2947
 2696SOL     OW19546   2.482   0.665   1.356 -0.1397 -0.4471  0.4645
 2696SOL    HW119547   2.413   0.620   1.404 -0.6337  0.8572  0.9718
 2696SOL    HW219548   2.509   0.584   1.312 -1.5540 -1.4811  1.4978
 2697SOL     OW19549   2.988   0.840  11.709  0.2453  0.5386 -0.0413
 2697SOL    HW119550   3.071   0.825  11.754  0.6285  2.5812 -0.0478
 2697SOL    HW219551   2.985   0.935  11.695  1.9332  0.2057 -2.5737
 2698SOL     OW19552   2.237   0.327   5.906 -0.4724 -0.1735 -0.5585
 2698SOL    HW119553   2.311   0.387   5.896 -0.2339 -1.0992 -4.5151
 2698SOL    HW219554   2.266   0.257   5.964 -2.4802 -1.3308 -0.9508
 2699SOL     OW19555   0.196   0.491   8.229  0.1977  1.0166 -0.0110
 2699SOL    HW119556   0.102   0.479   8.211  0.9202 -1.6758 -2.0179
 2699SOL    HW219557   0.215   0.408   8.272 -0.4495 -0.6785 -2.9862
 2700SOL     OW19558   1.271   3.231   9.238 -0.1928 -0.0460  0.1221
 2700SOL    HW119559   1.240   3.302   9.181  0.9513 -0.0759 -0.5495
 2700SOL    HW219560   1.237   3.256   9.324 -0.1549 -2.1772  0.7525
 2701SOL     OW19561   3.636   2.084   3.816  0.4674 -0.8950 -0.0175
 2701SOL    HW119562   3.680   2.047   3.893 -0.2198  0.9401  1.2788
 2701SOL    HW219563   3.644   2.010   3.757  0.7620 -0.9009  0.0307
 2702SOL     OW19564   3.224   4.044   6.552 -0.0888 -0.0562  0.4689
 2702SOL    HW119565   3.173   4.088   6.483 -1.0652  0.3642  1.4544
 2702SOL    HW219566   3.293   4.108   6.570 -0.6245  0.6156  0.1472
 2703SOL     OW19567   1.264   3.696   5.943 -0.2727  0.6159  0.6140
 2703SOL    HW119568   1.339   3.649   5.907 -1.2694 -1.3182  1.0802
 2703SOL    HW219569   1.303   3.782   5.927  0.5935  0.3424  1.3000
 2704SOL     OW19570   4.396   4.668  17.509  0.2228 -1.2666  0.6900
 2704SOL    HW119571   4.322   4.666  17.449 -0.5153  0.6726  1.5438
 2704SOL    HW219572   4.396   0.039  17.524  0.3198 -0.6944 -2.9904
 2705SOL     OW19573   1.199   2.869   7.881 -0.1286  0.4535  0.3364
 2705SOL    HW119574   1.162   2.935   7.822  2.6773  0.3981 -1.4477
 2705SOL    HW219575   1.281   2.909   7.907  0.4263  1.2685 -2.6173
 2706SOL     OW19576   1.357   0.720  13.295  0.1196  0.1216  0.7552
 2706SOL    HW119577   1.295   0.669  13.347  0.2490 -1.1786 -0.3578
 2706SOL    HW219578   1.411   0.758  13.364  0.4417  3.0935 -1.1364
 2707SOL     OW19579   2.995   0.552  10.096 -0.8798  0.3110  0.2761
 2707SOL    HW119580   3.053   0.505  10.156  1.7528  1.5331 -1.3065
 2707SOL    HW219581   2.996   0.488  10.026 -2.2802  1.3893 -0.7146
 2708SOL     OW19582   3.358   0.125   6.933 -0.3800 -0.5509  0.0286
 2708SOL    HW119583   3.350   0.210   6.977  2.1136  0.1974 -0.9291
 2708SOL    HW219584   3.428   0.089   6.987  1.0088  0.1458 -1.2830
 2709SOL     OW19585   3.026   3.137   3.339 -0.1834 -0.6079  0.1414
 2709SOL    HW119586   3.031   3.224   3.379  0.1083 -0.6109  0.1105
 2709SOL    HW219587   3.001   3.086   3.416  0.3372 -0.4766  0.3939
 2710SOL     OW19588   2.752   1.499   2.508  0.9721 -0.4265  0.6207
 2710SOL    HW119589   2.744   1.584   2.551 -0.5186  0.1944 -0.8699
 2710SOL    HW219590   2.686   1.451   2.559  0.2503  0.0963  0.1865
 2711SOL     OW19591   3.079   0.518   5.606 -0.3011 -0.3839  0.1431
 2711SOL    HW119592   2.992   0.512   5.645  0.4586  0.9512  2.0805
 2711SOL    HW219593   3.058   0.554   5.520  0.7284 -2.6951 -1.0602
 2712SOL     OW19594   2.684   1.547   9.741  0.7204 -0.5605  0.1458
 2712SOL    HW119595   2.706   1.510   9.656 -2.7988 -2.5779  0.1270
 2712SOL    HW219596   2.591   1.553   9.720  0.8393 -2.3029 -0.8682
 2713SOL     OW19597   1.826   1.559  12.785  0.2834  0.4224 -0.0306
 2713SOL    HW119598   1.732   1.570  12.797 -0.2263 -1.6891 -2.1649
 2713SOL    HW219599   1.824   1.477  12.737 -2.4092  0.1591  0.5413
 2714SOL     OW19600   3.633   1.517   5.224 -0.1705 -0.4584  0.0379
 2714SOL    HW119601   3.675   1.601   5.239  0.8267 -0.5674 -2.1868
 2714SOL    HW219602   3.712   1.470   5.251  0.9119  1.8317  0.8570
 2715SOL     OW19603   1.092   3.528  10.869  0.0882  0.0484  0.1798
 2715SOL    HW119604   1.090   3.442  10.912  1.2138 -0.3955 -0.6760
 2715SOL    HW219605   1.097   3.502  10.777 -1.2900  2.0388 -0.4708
 2716SOL     OW19606   3.010   0.680  12.957 -0.2620 -0.3220  0.2089
 2716SOL    HW119607   3.012   0.590  12.923  2.2463  0.0692 -0.6755
 2716SOL    HW219608   3.033   0.738  12.884  2.3262 -0.7955  0.6628
 2717SOL     OW19609   0.401   3.276   6.499 -0.5222  0.1673 -0.4437
 2717SOL    HW119610   0.368   3.309   6.416  0.0262  1.4786 -0.1261
 2717SOL    HW219611   0.447   3.193   6.486  0.6012  0.6948  0.2241
 2718SOL     OW19612   4.097   1.331   8.096  0.5865 -0.1567 -0.7791
 2718SOL    HW119613   4.046   1.410   8.078  0.9573  0.3262  0.2808
 2718SOL    HW219614   4.033   1.273   8.135  0.7250  0.6948  0.7283
 2719SOL     OW19615   1.595   3.405   2.985  0.3671  0.3953  0.1677
 2719SOL    HW119616   1.683   3.368   2.992 -0.3866 -1.9208 -2.5121
 2719SOL    HW219617   1.586   3.413   2.891  3.9050 -0.2871 -0.2304
 2720SOL     OW19618   3.814   1.493  12.460  0.6033 -0.3422  0.3555
 2720SOL    HW119619   3.803   1.398  12.448  0.2075 -0.4592  1.6101
 2720SOL    HW219620   3.829   1.531  12.374 -0.2906  2.0084  1.2398
 2721SOL     OW19621   0.271   3.867   3.969 -0.3358  0.4606 -0.5486
 2721SOL    HW119622   0.225   3.937   3.923  0.6378  1.2755 -0.2850
 2721SOL    HW219623   0.287   3.802   3.901  1.4013 -1.5884  1.8125
 2722SOL     OW19624   4.023   1.721   6.399 -0.3988 -0.0092  0.2189
 2722SOL    HW119625   3.932   1.691   6.394 -0.7131  1.1964 -1.4202
 2722SOL    HW219626   4.037   1.760   6.485 -1.7296  0.3551  0.2702
 2723SOL     OW19627   0.705   2.669  15.575  0.0711  0.2992 -0.7013
 2723SOL    HW119628   0.696   2.643  15.484  1.1669  1.6644 -1.1885
 2723SOL    HW219629   0.709   2.765  15.577 -1.2985  0.3539 -0.5593
 2724SOL     OW19630   3.992   0.501   5.031 -0.1595 -0.1154  0.2667
 2724SOL    HW119631   4.025   0.413   5.050  0.1377  0.2771  1.4996
 2724SOL    HW219632   3.902   0.515   5.062 -0.1792 -0.8197  0.5263
 2725SOL     OW19633   2.801   0.575  11.070 -0.4174  0.2864  0.2869
 2725SOL    HW119634   2.722   0.623  11.094 -1.4863 -0.8381 -0.9788
 2725SOL    HW219635   2.861   0.595  11.142 -2.1872 -0.5877  2.0052
 2726SOL     OW19636   2.415   1.372   4.996  0.2044  0.1820 -0.2287
 2726SOL    HW119637   2.333   1.358   5.042  0.4836 -0.5529  0.0414
 2726SOL    HW219638   2.457   1.288   5.013 -2.3184 -1.0249 -0.1223
 2727SOL     OW19639   2.193   1.395   9.309 -0.1814 -0.0721 -0.0166
 2727SOL    HW119640   2.166   1.417   9.398 -0.4000  0.9399 -0.3293
 2727SOL    HW219641   2.243   1.473   9.285 -0.4459 -0.5435 -2.1426
 2728SOL     OW19642   2.790   1.037   9.037  0.2361  0.0517  0.0458
 2728SOL    HW119643   2.735   1.113   9.056 -2.9647 -1.4890 -3.0533
 2728SOL    HW219644   2.813   1.016   9.128  1.5842 -0.1957 -0.3523
 2729SOL     OW19645   1.197   4.645   8.915  0.2222 -0.4531 -0.0069
 2729SOL    HW119646   1.279   4.598   8.927  0.2358 -0.1656  1.0477
 2729SOL    HW219647   1.229   0.011   8.924  0.2604 -0.4820  0.1469
 2730SOL     OW19648   1.479   1.756   6.031 -0.2754  0.3877  0.0805
 2730SOL    HW119649   1.385   1.775   6.033 -0.8905 -2.2655 -3.1280
 2730SOL    HW219650   1.488   1.703   6.110 -0.4150 -0.9425 -0.8004
 2731SOL     OW19651   1.247   2.643   1.181 -0.4503 -0.6763 -0.4280
 2731SOL    HW119652   1.304   2.627   1.257 -1.8012  2.6497  1.2778
 2731SOL    HW219653   1.178   2.585   1.213 -2.6657  1.8932 -0.5890
 2732SOL     OW19654   3.074   0.056   7.714  0.1525  0.2494  0.2126
 2732SOL    HW119655   3.028   4.698   7.701  1.0754 -0.4426  1.3667
 2732SOL    HW219656   3.112   0.072   7.627 -1.2398 -2.0132 -0.8125
 2733SOL     OW19657   1.945   3.206  11.508  0.0633 -0.3709 -0.2210
 2733SOL    HW119658   1.895   3.182  11.429 -1.6310 -0.3935  0.8569
 2733SOL    HW219659   1.884   3.259  11.559  0.6128 -1.4872  1.5916
 2734SOL     OW19660   3.152   1.444   2.174 -0.1253 -0.5569 -0.5831
 2734SOL    HW119661   3.165   1.374   2.238 -0.2878 -0.7385 -0.7485
 2734SOL    HW219662   3.246   1.461   2.163 -0.0326  0.5340  1.7609
 2735SOL     OW19663   1.142   2.961  11.072  0.2921 -0.2735  0.4173
 2735SOL    HW119664   1.130   2.994  10.983 -1.7220  0.4148  0.9532
 2735SOL    HW219665   1.113   2.870  11.078 -2.6376  0.4481 -3.1614
 2736SOL     OW19666   3.325   3.848  16.324  0.1908  0.3628  0.1287
 2736SOL    HW119667   3.331   3.889  16.237  0.4675 -0.0741 -0.0622
 2736SOL    HW219668   3.373   3.770  16.294 -2.5305 -1.4049  0.4346
 2737SOL     OW19669   2.885   0.285   6.326 -1.0494 -0.2900  0.9071
 2737SOL    HW119670   2.844   0.225   6.388 -1.6152  1.4466  2.1811
 2737SOL    HW219671   2.944   0.231   6.272  0.1798  2.4258 -0.4882
 2738SOL     OW19672   3.585   3.989   3.011  0.5992 -0.1512 -0.0196
 2738SOL    HW119673   3.658   4.044   2.983  0.9318 -0.6528 -0.1373
 2738SOL    HW219674   3.566   3.957   2.923  0.3690 -0.6331  0.2042
 2739SOL     OW19675   1.005   0.453   5.107 -0.0145 -0.7165  0.0524
 2739SOL    HW119676   1.054   0.535   5.098 -1.2789  0.4567  3.7411
 2739SOL    HW219677   1.074   0.393   5.080 -0.9068 -1.0984 -1.3522
 2740SOL     OW19678   3.824   0.545   5.857 -0.2433  0.8240 -0.3970
 2740SOL    HW119679   3.900   0.490   5.873 -1.3797 -0.5518  0.2457
 2740SOL    HW219680   3.864   0.631   5.842  1.0273  0.3396  0.2941
 2741SOL     OW19681   1.629   4.325   5.366 -0.0001 -0.5398  0.9478
 2741SOL    HW119682   1.712   4.345   5.323 -0.4745  0.2749  0.4088
 2741SOL    HW219683   1.574   4.382   5.311  3.0070  2.2277  0.8209
 2742SOL     OW19684   3.899   1.238  16.613 -0.3899  0.0886 -0.4851
 2742SOL    HW119685   3.980   1.270  16.653 -0.3321  0.0878 -0.6005
 2742SOL    HW219686   3.844   1.315  16.622  0.5726  0.9489 -1.8483
 2743SOL     OW19687   2.259   4.232   1.173 -0.1226 -0.1769  0.2010
 2743SOL    HW119688   2.309   4.165   1.126  0.1908  0.4965 -0.4229
 2743SOL    HW219689   2.252   4.185   1.257 -0.2236 -0.0830  0.2452
 2744SOL     OW19690   3.744   2.768  12.425 -0.0530  0.4863 -0.3151
 2744SOL    HW119691   3.704   2.749  12.510 -2.1156  2.8437 -0.7631
 2744SOL    HW219692   3.749   2.682  12.383  0.2277  0.2707  0.1621
 2745SOL     OW19693   1.051   2.939   2.813 -0.2601  0.1218  0.1862
 2745SOL    HW119694   0.960   2.919   2.793  0.2781 -0.6109 -1.5508
 2745SOL    HW219695   1.065   3.034   2.817 -1.4479  0.3156 -0.3195
 2746SOL     OW19696   3.066   2.645   9.283 -0.6710 -0.1493  0.0347
 2746SOL    HW119697   2.972   2.664   9.273 -0.0835  2.1806 -1.0734
 2746SOL    HW219698   3.055   2.555   9.315  1.5417 -0.3150  0.2817
 2747SOL     OW19699   2.171   1.424   4.265 -0.2860 -0.0852 -0.3400
 2747SOL    HW119700   2.135   1.511   4.247 -1.8081 -0.4263  1.0166
 2747SOL    HW219701   2.245   1.433   4.206 -0.9062  0.0015 -1.0982
 2748SOL     OW19702   1.582   4.351   7.861 -0.4803 -0.3146 -0.1423
 2748SOL    HW119703   1.642   4.293   7.909  0.2542  1.7784  1.4586
 2748SOL    HW219704   1.651   4.416   7.850 -0.7948  0.1531  0.6628
 2749SOL     OW19705   1.329   4.125   7.989 -0.5642  0.3853 -0.5178
 2749SOL    HW119706   1.418   4.092   7.999 -0.7488  0.0048 -0.1325
 2749SOL    HW219707   1.283   4.071   8.053  1.2228  1.3576  1.5631
 2750SOL     OW19708   3.262   0.507  12.801  0.2911 -0.0552 -0.0983
 2750SOL    HW119709   3.169   0.488  12.806 -0.1681  2.6332  1.7296
 2750SOL    HW219710   3.311   0.425  12.802 -1.9842 -1.4017 -0.4052
 2751SOL     OW19711   1.043   4.611   5.887  0.4466  0.5864 -0.0619
 2751SOL    HW119712   1.137   4.605   5.906  0.2550  0.2638  0.7698
 2751SOL    HW219713   1.040   4.600   5.792  0.4685  1.4660 -0.1597
 2752SOL     OW19714   0.417   3.816   0.532  0.3911  0.7117  0.0767
 2752SOL    HW119715   0.376   3.871   0.598  1.1689  0.6316  0.6264
 2752SOL    HW219716   0.360   3.842   0.460  3.6482  2.4158 -1.8853
 2753SOL     OW19717   1.950   0.281   7.095 -0.2851  0.4297  0.2347
 2753SOL    HW119718   1.995   0.203   7.127 -0.1551  1.0526  1.5885
 2753SOL    HW219719   2.024   0.335   7.065 -1.0879  0.6232 -1.3835
 2754SOL     OW19720   1.267   1.315   3.457 -0.3013 -0.6442 -0.4586
 2754SOL    HW119721   1.226   1.351   3.379  1.7952  0.4869 -1.0092
 2754SOL    HW219722   1.207   1.242   3.478  0.4952 -1.1427  0.0899
 2755SOL     OW19723   2.096   1.146   2.044  0.2127 -0.2057  0.1640
 2755SOL    HW119724   2.017   1.103   2.010 -0.4552 -1.5664  3.4420
 2755SOL    HW219725   2.068   1.234   2.017  2.5602 -0.0398 -1.6761
 2756SOL     OW19726   2.653   3.615   4.709 -0.3838  0.2129  0.1720
 2756SOL    HW119727   2.629   3.705   4.730 -2.0428 -0.2901  0.3918
 2756SOL    HW219728   2.748   3.623   4.719 -0.2507 -1.9167  0.4546
 2757SOL     OW19729   0.301   2.820  15.861 -0.5725  0.2979  0.2038
 2757SOL    HW119730   0.339   2.757  15.800  1.4661  0.5161  1.2428
 2757SOL    HW219731   0.378   2.859  15.904 -1.0116 -0.0180  1.2804
 2758SOL     OW19732   1.703   3.559   8.959  0.6035  0.6096  0.1199
 2758SOL    HW119733   1.774   3.532   9.017  0.4389 -1.3177 -0.5958
 2758SOL    HW219734   1.638   3.493   8.985  0.5680  1.2095  1.6014
 2759SOL     OW19735   3.519   3.366   4.076 -0.0986 -0.5031 -0.0039
 2759SOL    HW119736   3.446   3.374   4.015  1.0317 -0.3225 -1.3205
 2759SOL    HW219737   3.489   3.304   4.142 -2.0328 -0.6053 -0.9811
 2760SOL     OW19738   3.151   2.729   7.634 -0.6112  0.1718  0.6393
 2760SOL    HW119739   3.116   2.689   7.714  2.0562 -1.0751  1.1662
 2760SOL    HW219740   3.175   2.816   7.666  1.7584  0.9518 -3.3006
 2761SOL     OW19741   3.193   1.779   2.583 -0.0049  0.2441  0.3613
 2761SOL    HW119742   3.229   1.730   2.510  3.2927 -0.2155  2.3229
 2761SOL    HW219743   3.111   1.806   2.541 -0.0088  1.4852  1.1628
 2762SOL     OW19744   1.050   4.592   4.151  0.2597  0.4694 -0.0001
 2762SOL    HW119745   1.024   4.551   4.069 -1.6173 -0.4427  1.0420
 2762SOL    HW219746   0.969   4.634   4.182  0.4379  1.6974 -1.1970
 2763SOL     OW19747   2.949   3.507  17.667  0.1532  0.3658 -0.2520
 2763SOL    HW119748   2.858   3.492  17.643 -0.2633 -0.3100  1.6931
 2763SOL    HW219749   2.975   3.548  17.585 -1.2809  1.2492 -0.2535
 2764SOL     OW19750   4.305   3.495   2.311 -0.2812  0.0621 -0.0589
 2764SOL    HW119751   4.291   3.562   2.377 -2.2836 -0.7719  0.3653
 2764SOL    HW219752   4.247   3.425   2.339 -0.7463 -0.5434 -2.5028
 2765SOL     OW19753   1.762   2.109   6.691 -0.3793  0.2558  0.1038
 2765SOL    HW119754   1.856   2.128   6.699 -0.2775  0.4568 -1.5502
 2765SOL    HW219755   1.733   2.120   6.781  2.2871  1.0511  0.8804
 2766SOL     OW19756   3.312   1.984   3.176  0.4210  0.5603 -0.4366
 2766SOL    HW119757   3.289   1.892   3.164  0.6504 -0.0246  3.6493
 2766SOL    HW219758   3.293   1.994   3.269 -0.2006  0.0311 -0.5071
 2767SOL     OW19759   1.002   1.401   3.828  0.4575 -0.2108  0.1445
 2767SOL    HW119760   1.036   1.343   3.896  1.0655  1.9288  1.6808
 2767SOL    HW219761   1.075   1.405   3.767 -0.8745  1.6261 -1.3220
 2768SOL     OW19762   1.078   1.682   8.887 -0.0018  0.1690 -0.3637
 2768SOL    HW119763   1.085   1.600   8.937  0.7958  0.8194  0.6006
 2768SOL    HW219764   1.131   1.736   8.946 -1.1066  1.1740 -0.3030
 2769SOL     OW19765   3.847   3.123  11.030  0.7834  0.3271  0.5985
 2769SOL    HW119766   3.788   3.067  11.081 -0.0411  1.0687  0.4685
 2769SOL    HW219767   3.918   3.151  11.088  0.7064 -1.0029  1.3414
 2770SOL     OW19768   3.973   2.136   8.811 -0.3435 -0.2063  0.5700
 2770SOL    HW119769   4.010   2.220   8.785 -0.5687 -0.1086  0.5604
 2770SOL    HW219770   3.905   2.171   8.868 -1.5918  0.2723 -1.2047
 2771SOL     OW19771   3.776   3.311  11.373  0.3294  0.0782  0.7638
 2771SOL    HW119772   3.858   3.264  11.357 -0.6070 -1.1363 -0.4231
 2771SOL    HW219773   3.763   3.358  11.291 -2.0394  2.5543  2.5542
 2772SOL     OW19774   0.573   3.277  13.647  0.4044  0.3443  0.5279
 2772SOL    HW119775   0.556   3.372  13.651  1.8758  0.7222 -2.4389
 2772SOL    HW219776   0.486   3.237  13.651 -0.6911  2.4396 -1.6798
 2773SOL     OW19777   2.448   4.243  16.928 -0.0082 -0.0385  1.0323
 2773SOL    HW119778   2.374   4.278  16.879  0.4190  1.8432  1.7251
 2773SOL    HW219779   2.462   4.323  16.979 -0.6500 -0.7104  2.2361
 2774SOL     OW19780   1.254   1.055  10.307  0.1954  0.3933 -0.2005
 2774SOL    HW119781   1.263   1.128  10.245  0.0829  0.1574 -0.4953
 2774SOL    HW219782   1.276   1.087  10.395  1.9580  3.1045 -1.6246
 2775SOL     OW19783   2.631   1.017  11.903  0.1935 -0.1046  0.0352
 2775SOL    HW119784   2.594   1.029  11.815 -1.4730  1.0435  0.9088
 2775SOL    HW219785   2.663   0.926  11.901 -2.1824 -0.9717  1.4484
 2776SOL     OW19786   4.305   3.211   3.920 -0.6090 -0.0395 -0.1212
 2776SOL    HW119787   4.297   3.125   3.880  1.6368  0.8717 -2.5132
 2776SOL    HW219788   4.269   3.264   3.849 -2.0094  0.6675  1.1155
 2777SOL     OW19789   2.373   0.624   6.390  0.4244  0.2168  0.0001
 2777SOL    HW119790   2.460   0.584   6.387  0.2353 -0.2076  0.1994
 2777SOL    HW219791   2.323   0.557   6.436  0.9279 -1.2543 -1.6067
 2778SOL     OW19792   3.009   0.573   4.605 -0.0624 -0.1929  0.2061
 2778SOL    HW119793   2.914   0.564   4.601  0.0210 -0.7536 -0.5954
 2778SOL    HW219794   3.024   0.658   4.646 -2.5502  0.8071 -0.9535
 2779SOL     OW19795   0.431   3.434   5.734 -0.0227  0.2023 -0.4520
 2779SOL    HW119796   0.483   3.373   5.681 -0.7106 -0.7367 -0.0481
 2779SOL    HW219797   0.371   3.470   5.669 -0.4176 -0.9926 -0.7449
 2780SOL     OW19798   1.553   0.880   8.982 -0.8619 -0.1441 -0.0991
 2780SOL    HW119799   1.458   0.891   8.981 -0.5438  2.6551 -0.0688
 2780SOL    HW219800   1.564   0.923   8.898 -0.8357  0.6348  0.3018
 2781SOL     OW19801   1.295   0.093   2.917 -0.5030 -0.2424 -0.3123
 2781SOL    HW119802   1.359   0.139   2.971 -1.5097  0.3358  0.3919
 2781SOL    HW219803   1.229   0.103   2.986 -2.3430 -3.2404 -1.6341
 2782SOL     OW19804   1.485   1.057   8.510  0.2113  0.1616 -0.4132
 2782SOL    HW119805   1.436   0.976   8.524  0.2217  0.1827 -0.2570
 2782SOL    HW219806   1.552   1.021   8.453  1.8144  1.1463  0.8572
 2783SOL     OW19807   1.175   0.694   2.251  0.2087 -0.1767  0.5337
 2783SOL    HW119808   1.086   0.719   2.224  0.5339  0.5375  0.1075
 2783SOL    HW219809   1.185   0.732   2.338  1.2592 -0.6942  0.6298
 2784SOL     OW19810   4.684   0.498   7.466 -0.3171  0.5509 -0.1938
 2784SOL    HW119811   4.667   0.439   7.393 -0.5925 -1.0484  1.1567
 2784SOL    HW219812   0.051   0.527   7.458  0.0502 -0.1341  1.6059
 2785SOL     OW19813   3.839   3.805   9.915  0.4125  0.2040 -0.1232
 2785SOL    HW119814   3.834   3.710   9.926 -2.4287  0.3128 -0.4503
 2785SOL    HW219815   3.747   3.825   9.895  0.4846 -2.1455 -2.8464
 2786SOL     OW19816   3.387   0.205  14.863  0.6104 -0.3336 -0.2145
 2786SOL    HW119817   3.366   0.216  14.770  0.4828  0.0985 -0.1342
 2786SOL    HW219818   3.402   0.294  14.896 -1.6464 -0.6652  1.7119
 2787SOL     OW19819   0.708   0.268  14.181 -0.0278  0.0050 -0.2513
 2787SOL    HW119820   0.726   0.264  14.275 -2.7944 -0.5707  0.2358
 2787SOL    HW219821   0.653   0.190  14.172 -1.5082  1.1878 -1.5551
 2788SOL     OW19822   2.746   3.154  14.538 -0.4823  0.4813  0.4734
 2788SOL    HW119823   2.790   3.157  14.623  2.3908  0.1302 -0.9790
 2788SOL    HW219824   2.657   3.181  14.561 -0.5879  2.4160 -2.2626
 2789SOL     OW19825   2.100   0.459   7.932  0.1118  0.6542  0.1076
 2789SOL    HW119826   2.030   0.409   7.972  1.8837 -2.4643 -0.6794
 2789SOL    HW219827   2.161   0.386   7.925 -1.5417 -0.4983 -2.1576
 2790SOL     OW19828   3.189   2.225   1.976 -0.0518  0.2158 -0.3615
 2790SOL    HW119829   3.094   2.221   1.987 -0.0752 -0.0645 -0.6799
 2790SOL    HW219830   3.200   2.308   2.023 -0.7528  1.2226 -1.9671
 2791SOL     OW19831   1.836   0.665  16.512  0.1257  0.3656  0.0010
 2791SOL    HW119832   1.821   0.573  16.533  0.4860 -0.3785 -3.0414
 2791SOL    HW219833   1.761   0.702  16.560 -0.5954 -0.1865 -0.6940
 2792SOL     OW19834   2.775   1.268  16.183  0.4320  0.1087 -0.2969
 2792SOL    HW119835   2.860   1.258  16.225 -0.1293 -0.5207  0.7065
 2792SOL    HW219836   2.737   1.193  16.230  1.1481 -0.4969 -0.6955
 2793SOL     OW19837   4.697   3.425   4.542  0.1206 -0.2196  0.2570
 2793SOL    HW119838   0.053   3.477   4.546  0.5174 -0.8173  0.1495
 2793SOL    HW219839   4.705   3.398   4.633 -0.4263 -0.3320  0.2708
 2794SOL     OW19840   3.907   3.143  15.656  0.6265 -0.8478  0.2387
 2794SOL    HW119841   3.877   3.153  15.746 -1.1121 -0.8393 -0.3313
 2794SOL    HW219842   3.964   3.067  15.666 -1.7737 -2.4157  2.0243
 2795SOL     OW19843   1.192   0.920   1.700 -0.0204 -0.2487 -0.6634
 2795SOL    HW119844   1.190   0.951   1.610  0.7507  2.2899  0.1926
 2795SOL    HW219845   1.266   0.967   1.738 -0.0787  0.9390 -1.9928
 2796SOL     OW19846   3.839   3.177  10.621 -0.5966  0.2995  0.0248
 2796SOL    HW119847   3.885   3.164  10.704  1.7006 -1.6308 -1.5310
 2796SOL    HW219848   3.906   3.236  10.587  1.0162 -2.3395 -1.3358
 2797SOL     OW19849   4.030   1.820   2.614  0.3917 -0.3671 -0.1938
 2797SOL    HW119850   3.960   1.765   2.580  0.2211  0.7094 -1.6050
 2797SOL    HW219851   4.038   1.777   2.699  2.7049  1.0523  0.3276
 2798SOL     OW19852   4.279   3.435   5.274 -0.2755 -0.2727  0.8424
 2798SOL    HW119853   4.203   3.468   5.322 -1.6498 -0.6387 -1.1100
 2798SOL    HW219854   4.260   3.342   5.282 -1.8961 -0.1778 -1.9448
 2799SOL     OW19855   1.926   4.161   5.067 -0.7710 -0.3352 -0.3080
 2799SOL    HW119856   1.916   4.082   5.121  1.0982  1.2421  2.3004
 2799SOL    HW219857   1.833   4.183   5.054 -0.7347  0.4334  0.7605
 2800SOL     OW19858   0.243   1.249   5.782  0.3329 -0.0603 -0.0797
 2800SOL    HW119859   0.262   1.295   5.700 -0.5765 -0.1797 -0.3598
 2800SOL    HW219860   0.310   1.181   5.778 -1.2213 -1.5913 -0.1557
 2801SOL     OW19861   2.411   3.051   1.229  0.2567  0.0204 -0.1324
 2801SOL    HW119862   2.426   3.143   1.207 -0.9252  0.8416  2.4952
 2801SOL    HW219863   2.387   3.060   1.321 -1.8044 -1.0709 -0.5525
 2802SOL     OW19864   3.680   2.392   9.196 -0.5869  0.0783 -0.4642
 2802SOL    HW119865   3.640   2.426   9.276 -2.3090 -1.8827 -0.4968
 2802SOL    HW219866   3.604   2.343   9.166  0.0062 -1.9450  1.3439
 2803SOL     OW19867   0.695   4.298   5.966  0.1769  0.1923 -0.2813
 2803SOL    HW119868   0.620   4.345   6.002  0.7236  1.1629 -0.4035
 2803SOL    HW219869   0.709   4.346   5.885  1.5476  0.6962  0.2556
 2804SOL     OW19870   0.422   1.756   8.261  0.0502  0.0358  0.5000
 2804SOL    HW119871   0.438   1.665   8.238  1.0420  0.0866  1.0050
 2804SOL    HW219872   0.342   1.783   8.216 -1.0243  0.8470  2.8914
 2805SOL     OW19873   0.349   4.216   3.984  0.3536  0.1581 -0.0087
 2805SOL    HW119874   0.327   4.252   4.070  1.0222 -0.2281  0.3251
 2805SOL    HW219875   0.420   4.156   4.004 -3.2851 -4.5375 -1.3586
 2806SOL     OW19876   3.460   3.569   3.702  0.0639 -0.7257 -0.5679
 2806SOL    HW119877   3.470   3.634   3.772  2.3489  0.0611 -1.6276
 2806SOL    HW219878   3.534   3.509   3.708  0.6271 -0.2329 -2.6183
 2807SOL     OW19879   0.766   0.783   8.447 -0.2596 -0.1602 -0.2153
 2807SOL    HW119880   0.849   0.802   8.403  0.6236 -0.0325  1.5212
 2807SOL    HW219881   0.740   0.874   8.465  0.1268 -0.3660  1.3330
 2808SOL     OW19882   4.711   1.416   8.843  0.6462 -0.0830 -0.0982
 2808SOL    HW119883   0.047   1.484   8.810 -1.5670  2.5534  1.3702
 2808SOL    HW219884   4.696   1.436   8.935 -0.1256 -2.8274  0.3529
 2809SOL     OW19885   1.767   2.802   3.929 -0.0144 -0.4813 -0.6405
 2809SOL    HW119886   1.705   2.870   3.956  0.6279  0.3016 -1.1217
 2809SOL    HW219887   1.787   2.836   3.842  0.7993 -0.1941 -0.3438
 2810SOL     OW19888   3.705   0.036   1.501 -0.4997 -0.1783 -0.4706
 2810SOL    HW119889   3.650   0.102   1.545 -0.1492 -0.5798  0.5773
 2810SOL    HW219890   3.657   0.037   1.418  0.7906 -0.1248 -1.2130
 2811SOL     OW19891   2.401   3.087   4.756 -0.1817 -0.6160  0.3151
 2811SOL    HW119892   2.307   3.080   4.745 -0.2989  2.5720 -0.5435
 2811SOL    HW219893   2.424   3.118   4.668 -0.2351 -1.0251  0.1544
 2812SOL     OW19894   4.657   3.091   4.264 -0.0373 -0.2745  0.3040
 2812SOL    HW119895   4.565   3.089   4.238 -0.0195 -2.4209  0.4027
 2812SOL    HW219896   4.653   3.027   4.335  2.8824 -0.7425  0.0369
 2813SOL     OW19897   1.639   3.395   3.724  0.0687  0.4204 -0.0731
 2813SOL    HW119898   1.557   3.386   3.772 -2.3095 -0.5434 -4.3716
 2813SOL    HW219899   1.618   3.480   3.686  0.7623  0.9119  0.6443
 2814SOL     OW19900   2.213   3.243   5.722 -0.6003 -0.4077  0.2213
 2814SOL    HW119901   2.272   3.264   5.795 -1.9546  0.4642  1.0553
 2814SOL    HW219902   2.135   3.296   5.736 -0.0098  0.9032 -1.3881
 2815SOL     OW19903   3.407   2.244  15.851 -0.0469 -0.0498 -0.3541
 2815SOL    HW119904   3.451   2.316  15.806 -1.9419 -0.4999 -2.9452
 2815SOL    HW219905   3.384   2.283  15.936  2.7405  0.4702  0.1462
 2816SOL     OW19906   0.256   1.103  12.477  0.0204 -0.3722  0.3238
 2816SOL    HW119907   0.293   1.040  12.539  1.9846  1.0207  0.5442
 2816SOL    HW219908   0.278   1.185  12.522  1.7249 -0.3843 -0.4944
 2817SOL     OW19909   2.047   0.020   7.993 -0.1447 -0.0182 -0.0568
 2817SOL    HW119910   2.012   4.661   8.025 -0.5505 -0.0844 -0.6962
 2817SOL    HW219911   2.080   0.003   7.905 -0.3093 -2.7328  0.3971
 2818SOL     OW19912   3.239   1.378   9.818  0.3385 -0.2504 -0.3653
 2818SOL    HW119913   3.188   1.301   9.793 -0.8020  1.1025 -2.2269
 2818SOL    HW219914   3.197   1.447   9.768 -0.1548 -1.4155 -1.5549
 2819SOL     OW19915   0.012   4.586   5.951 -0.0143 -0.1796 -0.4973
 2819SOL    HW119916   0.039   4.503   5.911 -1.2439 -0.1546 -1.3739
 2819SOL    HW219917   4.687   4.545   6.022 -1.6780  3.1490  0.2364
 2820SOL     OW19918   0.158   4.139   0.999  0.7410  0.7022 -0.0990
 2820SOL    HW119919   0.176   4.119   1.090  1.0463  2.6934  0.2788
 2820SOL    HW219920   0.083   4.197   1.013  0.9819  0.7957  0.7915
 2821SOL     OW19921   4.666   1.061   2.118 -0.2273 -0.1114  0.6605
 2821SOL    HW119922   0.029   1.081   2.084 -1.6168 -0.6859 -3.2353
 2821SOL    HW219923   4.624   1.146   2.119 -2.1587 -1.0429 -0.5073
 2822SOL     OW19924   4.412   4.596  14.509  0.1756  0.1808  0.7818
 2822SOL    HW119925   4.353   4.647  14.454 -0.6655  0.0908  1.6001
 2822SOL    HW219926   4.367   4.511  14.518  0.8246 -0.3417 -0.9304
 2823SOL     OW19927   1.894   2.592   8.239 -0.4969 -0.3722  0.2188
 2823SOL    HW119928   1.823   2.556   8.293 -0.2054  0.5982  1.2610
 2823SOL    HW219929   1.949   2.514   8.233 -1.4728 -1.0857  0.4884
 2824SOL     OW19930   3.623   2.238   8.386 -0.2580  0.3511 -0.1424
 2824SOL    HW119931   3.656   2.322   8.353  0.3523  0.2292  0.1479
 2824SOL    HW219932   3.566   2.262   8.458  1.1749 -0.8280  1.3893
 2825SOL     OW19933   3.703   1.253   4.291 -0.0784  0.0352  0.5359
 2825SOL    HW119934   3.693   1.188   4.360  1.3870 -0.9779 -0.2077
 2825SOL    HW219935   3.671   1.332   4.335 -1.3975  0.6938 -1.6482
 2826SOL     OW19936   3.416   4.226   3.351 -0.0189  0.2217  0.2473
 2826SOL    HW119937   3.359   4.152   3.332 -1.3613  0.3772  3.8028
 2826SOL    HW219938   3.472   4.232   3.274 -0.1508  2.2317  0.3160
 2827SOL     OW19939   1.738   1.720   8.741  0.3205 -0.3228 -0.0132
 2827SOL    HW119940   1.725   1.792   8.680 -2.0060 -1.0171 -0.3231
 2827SOL    HW219941   1.650   1.723   8.779  0.9412  0.2805  1.3889
 2828SOL     OW19942   2.495   0.269  12.112 -0.0030  0.6013  0.0149
 2828SOL    HW119943   2.463   0.328  12.045 -0.8320  2.6939  2.2582
 2828SOL    HW219944   2.582   0.308  12.122 -0.6495  2.3613 -1.2853
 2829SOL     OW19945   4.437   0.984   3.077  0.2872  0.1656 -0.5260
 2829SOL    HW119946   4.517   0.950   3.037 -0.0954 -2.6247  1.0573
 2829SOL    HW219947   4.389   0.902   3.067 -0.6801  0.6892 -0.1081
 2830SOL     OW19948   2.009   1.514  11.792  0.1584  0.5169 -0.0384
 2830SOL    HW119949   2.028   1.606  11.776  1.9340 -0.1534 -1.6977
 2830SOL    HW219950   2.024   1.473  11.707  4.8181 -0.2399  1.1379
 2831SOL     OW19951   4.225   1.995   1.065 -0.2746  0.0840  0.3673
 2831SOL    HW119952   4.287   2.067   1.076 -1.8407  1.2773  1.2261
 2831SOL    HW219953   4.178   1.999   1.148  1.1619 -2.2514  1.3190
 2832SOL     OW19954   3.263   2.795  15.207 -0.1458 -0.2084  0.4653
 2832SOL    HW119955   3.266   2.746  15.125 -2.8610  0.4293 -0.0221
 2832SOL    HW219956   3.321   2.742  15.261 -0.2922 -0.1045  0.7265
 2833SOL     OW19957   0.330   2.395   6.623  0.0560 -0.4712  0.0701
 2833SOL    HW119958   0.271   2.329   6.588  0.8933 -0.6929 -0.9026
 2833SOL    HW219959   0.280   2.472   6.596  1.2563 -1.1109 -3.9919
 2834SOL     OW19960   2.232   4.554   0.907 -0.2214 -0.2872 -0.3674
 2834SOL    HW119961   2.169   4.589   0.970 -1.5007 -0.7397 -1.4065
 2834SOL    HW219962   2.198   4.576   0.820 -1.1108  0.0034  0.0533
 2835SOL     OW19963   1.164   4.257   2.471  0.0830  0.5140 -0.8091
 2835SOL    HW119964   1.224   4.262   2.397  0.2062 -1.8506 -0.8571
 2835SOL    HW219965   1.146   4.350   2.489 -0.4772  0.5568 -1.5851
 2836SOL     OW19966   3.352   3.569  14.844  0.1822 -0.0476 -0.2361
 2836SOL    HW119967   3.313   3.492  14.885 -1.9300  0.3102 -1.5280
 2836SOL    HW219968   3.313   3.559  14.757 -2.3367  1.8802  0.6570
 2837SOL     OW19969   3.436   0.756   8.739 -0.2914  0.5723  0.1658
 2837SOL    HW119970   3.515   0.756   8.792  0.0722 -0.7079 -0.3762
 2837SOL    HW219971   3.393   0.829   8.784 -0.5713  0.9331 -0.6728
 2838SOL     OW19972   2.625   3.583   5.921  0.0891 -0.1033 -0.2391
 2838SOL    HW119973   2.612   3.518   5.853 -1.5900 -0.9873  0.9121
 2838SOL    HW219974   2.692   3.538   5.973 -0.6139  0.5816  1.2585
 2839SOL     OW19975   0.450   2.510   6.955  0.2859 -0.0424 -0.0559
 2839SOL    HW119976   0.424   2.599   6.931  2.0790  0.4722 -0.0392
 2839SOL    HW219977   0.370   2.462   6.930  1.3845 -2.4268  1.0225
 2840SOL     OW19978   2.235   1.029   7.232  0.6581 -0.1634 -0.4347
 2840SOL    HW119979   2.224   0.953   7.174  1.2620 -1.9824  1.8434
 2840SOL    HW219980   2.146   1.063   7.232 -0.1784 -2.3954  0.8095
 2841SOL     OW19981   3.902   1.974   8.270 -0.3778 -0.1148  0.1466
 2841SOL    HW119982   3.934   2.060   8.243 -0.3502 -0.9341 -2.4990
 2841SOL    HW219983   3.810   1.976   8.242  0.6739 -1.5963 -3.4772
 2842SOL     OW19984   1.470   0.443   2.091  0.1347  0.2555 -0.1502
 2842SOL    HW119985   1.560   0.473   2.077  0.2105 -0.3790 -0.9977
 2842SOL    HW219986   1.448   0.404   2.007  2.2384  0.3657 -0.7597
 2843SOL     OW19987   1.833   4.218   8.899 -0.4573  0.0140  0.5227
 2843SOL    HW119988   1.810   4.126   8.905  0.1180 -0.2745 -1.5428
 2843SOL    HW219989   1.751   4.245   8.940 -0.7229 -1.5717  1.0296
 2844SOL     OW19990   2.860   2.410  11.095  0.1816  0.1227 -0.1405
 2844SOL    HW119991   2.788   2.431  11.154  1.5319 -0.8294  1.8407
 2844SOL    HW219992   2.865   2.315  11.088  0.7335  0.0551  1.1494
 2845SOL     OW19993   3.046   3.118   7.648  0.5874 -0.0530 -0.1238
 2845SOL    HW119994   3.124   3.067   7.671  1.0225  0.8270  0.3185
 2845SOL    HW219995   3.074   3.202   7.613  1.9796 -0.6867 -0.5054
 2846SOL     OW19996   4.028   3.535  12.540  0.2624  0.4681  0.0172
 2846SOL    HW119997   4.049   3.463  12.599 -2.6693 -0.6511 -0.2970
 2846SOL    HW219998   4.050   3.616  12.586 -0.0466  0.2740  0.5070
 2847SOL     OW19999   1.631   1.301  14.020  0.5184 -0.4886 -0.2880
 2847SOL    HW120000   1.698   1.350  14.068 -0.5374  0.3742  0.3040
 2847SOL    HW220001   1.556   1.359  14.032  1.8048  1.4014 -1.4981
 2848SOL     OW20002   1.842   4.186  11.515 -0.2814  0.3826 -0.7952
 2848SOL    HW120003   1.767   4.208  11.459  0.5274  0.3140 -1.8993
 2848SOL    HW220004   1.901   4.255  11.487 -1.1569  1.0550 -0.9830
 2849SOL     OW20005   0.171   0.892   5.976  0.3128  0.4395 -0.3094
 2849SOL    HW120006   0.256   0.854   5.999  0.4706  0.5955 -0.6301
 2849SOL    HW220007   0.158   0.858   5.888 -0.9173 -0.1570  0.1089
 2850SOL     OW20008   2.087   4.166   8.530  0.3246  0.5486 -0.0464
 2850SOL    HW120009   2.123   4.159   8.618  0.4839  2.3860  0.0466
 2850SOL    HW220010   2.034   4.087   8.534 -0.4134  0.9653 -1.4868
 2851SOL     OW20011   4.719   2.668   7.510  0.1723  0.5003  0.2055
 2851SOL    HW120012   4.718   2.572   7.512  1.1867  0.4612 -1.0171
 2851SOL    HW220013   0.072   2.676   7.454 -1.2976  3.1661 -1.4174
 2852SOL     OW20014   4.121   3.938   4.838 -0.2773 -0.6512 -0.4711
 2852SOL    HW120015   4.215   3.952   4.849 -0.6291  1.0205  0.5321
 2852SOL    HW220016   4.081   4.011   4.886  1.5409 -0.7392  1.1451
 2853SOL     OW20017   1.183   3.376   1.475 -0.1976 -0.3118 -0.6177
 2853SOL    HW120018   1.139   3.302   1.433  1.1906 -0.7204 -1.3316
 2853SOL    HW220019   1.161   3.364   1.567  1.1458  0.5076 -0.1854
 2854SOL     OW20020   4.381   2.229   5.255 -0.6697 -0.4262  0.5727
 2854SOL    HW120021   4.323   2.272   5.318 -1.4131  0.1853 -0.5343
 2854SOL    HW220022   4.379   2.274   5.171 -0.1800  1.4783  1.5932
 2855SOL     OW20023   1.786   1.692   3.256  0.0692  0.1961  0.2575
 2855SOL    HW120024   1.818   1.780   3.237  0.4210 -0.0120 -0.1074
 2855SOL    HW220025   1.865   1.644   3.231  0.2460  0.5457  0.1461
 2856SOL     OW20026   4.673   2.163   2.072 -0.0783 -0.4289  0.1095
 2856SOL    HW120027   4.653   2.188   1.982  2.6699 -1.1780 -0.7339
 2856SOL    HW220028   4.593   2.182   2.121 -0.3015  0.6446 -0.6668
 2857SOL     OW20029   3.564   0.107   5.278 -0.1502  0.1440  0.9783
 2857SOL    HW120030   3.658   0.088   5.281  0.2396  1.9113 -0.0589
 2857SOL    HW220031   3.545   0.102   5.184 -1.8630  1.1841  1.2762
 2858SOL     OW20032   3.580   4.347   2.325  0.2845 -0.3744 -0.0951
 2858SOL    HW120033   3.550   4.410   2.391 -1.8957  0.1137 -1.5697
 2858SOL    HW220034   3.516   4.372   2.258  0.4317  1.8856  0.6087
 2859SOL     OW20035   3.683   1.502   4.724  0.2235  0.3558  0.4578
 2859SOL    HW120036   3.724   1.492   4.810 -1.6643 -1.3447  1.1756
 2859SOL    HW220037   3.677   1.597   4.713  0.4695  0.2093 -0.8743
 2860SOL     OW20038   2.947   3.201   8.236 -0.0739  0.3100 -0.4063
 2860SOL    HW120039   2.953   3.288   8.276  0.1210  1.0898 -2.1553
 2860SOL    HW220040   2.854   3.180   8.245 -0.0337  0.9615  1.5042
 2861SOL     OW20041   0.753   2.943   4.148 -0.0005  0.1902 -0.1070
 2861SOL    HW120042   0.846   2.932   4.166 -0.6831 -2.0453  2.0162
 2861SOL    HW220043   0.739   2.876   4.081  1.0568 -2.3852  2.2436
 2862SOL     OW20044   4.179   3.151   8.397 -0.1092 -0.6927  0.4137
 2862SOL    HW120045   4.135   3.112   8.473  0.4786 -1.3428  0.4237
 2862SOL    HW220046   4.247   3.085   8.381  1.0852  0.2813  1.5120
 2863SOL     OW20047   4.044   2.393   4.840  0.3790  0.4513  0.0104
 2863SOL    HW120048   3.986   2.444   4.784  0.3034  0.0070 -0.3163
 2863SOL    HW220049   3.990   2.386   4.919  1.5493  2.0423  0.9473
 2864SOL     OW20050   2.476   2.197   9.465 -0.2399  0.5216 -0.0839
 2864SOL    HW120051   2.487   2.270   9.526 -1.5950  1.0484 -0.4763
 2864SOL    HW220052   2.400   2.151   9.502 -0.8424  1.4222 -0.2170
 2865SOL     OW20053   2.908   0.225   7.865  0.8033 -0.2695  0.5390
 2865SOL    HW120054   2.967   0.179   7.806 -1.3862 -0.0714 -1.7742
 2865SOL    HW220055   2.925   0.318   7.849  1.6756 -0.1965  1.8131
 2866SOL     OW20056   0.354   1.824   4.268  0.4316  0.2941  0.0912
 2866SOL    HW120057   0.399   1.740   4.273 -0.8314 -0.3222  1.1340
 2866SOL    HW220058   0.268   1.783   4.266 -1.0883  3.4431  0.9369
 2867SOL     OW20059   2.332   2.211   5.019  0.2428  0.7339 -0.4174
 2867SOL    HW120060   2.260   2.262   4.982 -0.5130 -0.6786 -0.9026
 2867SOL    HW220061   2.286   2.160   5.086  2.7228 -0.9470  0.0085
 2868SOL     OW20062   4.663   3.848  14.687  0.0592  0.1778 -0.0448
 2868SOL    HW120063   4.619   3.831  14.604 -1.4495 -1.9233  1.1750
 2868SOL    HW220064   0.019   3.798  14.675 -1.0301 -1.1390 -1.7785
 2869SOL     OW20065   1.499   0.120  10.969 -0.2005 -0.3375 -1.0060
 2869SOL    HW120066   1.561   0.176  11.016 -1.5342  0.7266 -0.5334
 2869SOL    HW220067   1.475   0.057  11.037 -0.6292  0.5551 -0.3296
 2870SOL     OW20068   3.757   3.100   5.222  0.4920 -1.2468 -0.4862
 2870SOL    HW120069   3.758   3.096   5.127  3.0352  0.6532 -0.5391
 2870SOL    HW220070   3.782   3.192   5.229 -2.0383 -0.7555  1.9950
 2871SOL     OW20071   2.338   2.215  11.532 -0.7612 -0.1777  0.5225
 2871SOL    HW120072   2.330   2.291  11.589  2.7130 -0.4657  1.3694
 2871SOL    HW220073   2.371   2.265  11.458 -1.2998 -0.8405 -0.1721
 2872SOL     OW20074   1.847   2.878   5.709  0.4387 -0.0721  0.4385
 2872SOL    HW120075   1.791   2.907   5.636  0.3661 -1.7696 -0.1827
 2872SOL    HW220076   1.796   2.899   5.787 -1.3811 -0.7648 -0.5581
 2873SOL     OW20077   0.946   1.785   5.563 -0.3609  0.0603 -0.1651
 2873SOL    HW120078   0.868   1.798   5.616 -0.6465 -1.7204 -0.1581
 2873SOL    HW220079   0.919   1.702   5.524 -0.3682  0.6816 -1.4981
 2874SOL     OW20080   3.281   4.688   6.516 -0.0291 -0.1596  0.1539
 2874SOL    HW120081   3.287   0.027   6.444  0.4659  0.6127  0.8608
 2874SOL    HW220082   3.340   4.621   6.483 -0.4551 -1.3894  1.8960
 2875SOL     OW20083   3.893   4.398   5.993  0.4008  0.2290  0.4623
 2875SOL    HW120084   3.941   4.454   5.931  2.7925 -0.8997  1.2669
 2875SOL    HW220085   3.904   4.311   5.956 -0.1091 -1.3532  4.0477
 2876SOL     OW20086   1.351   0.527   5.507 -0.0079  0.6624  0.2190
 2876SOL    HW120087   1.273   0.512   5.454 -0.4761 -0.1042  1.1193
 2876SOL    HW220088   1.308   0.563   5.585  1.2791  3.0304 -0.1632
 2877SOL     OW20089   3.221   0.939   9.511  0.2712 -0.2726 -0.2015
 2877SOL    HW120090   3.239   0.846   9.523  0.6395  0.1213  2.3433
 2877SOL    HW220091   3.294   0.991   9.544 -1.0884  1.4287  0.1488
 2878SOL     OW20092   3.617   1.423   1.958 -0.0639 -0.0910  0.0693
 2878SOL    HW120093   3.546   1.472   1.916  1.5718  1.3314 -1.0342
 2878SOL    HW220094   3.683   1.488   1.979  0.4699 -0.1219 -1.5132
 2879SOL     OW20095   3.949   1.522  10.609 -0.3141 -0.2989  0.2622
 2879SOL    HW120096   3.920   1.431  10.608 -2.0254  0.2357  0.7016
 2879SOL    HW220097   4.022   1.522  10.547 -0.6524 -0.5163 -0.1368
 2880SOL     OW20098   4.560   4.306   3.827  0.3635  0.1509 -0.3558
 2880SOL    HW120099   4.571   4.355   3.745 -0.5690 -2.4878 -2.0516
 2880SOL    HW220100   4.502   4.233   3.808 -2.0018  1.4091  1.9468
 2881SOL     OW20101   4.068   0.923   7.234 -0.7263  0.4009  0.2245
 2881SOL    HW120102   4.039   0.886   7.317  0.8202 -3.2644 -0.8660
 2881SOL    HW220103   3.992   0.935   7.178  0.3208  1.6712 -0.9359
 2882SOL     OW20104   2.808   1.475   2.245  0.0832  0.3561  0.5266
 2882SOL    HW120105   2.852   1.554   2.214  0.5175  0.3475  1.1193
 2882SOL    HW220106   2.825   1.481   2.339  0.5559  0.3622  0.4372
 2883SOL     OW20107   2.665   1.780   3.930  0.0637  0.0918  0.1700
 2883SOL    HW120108   2.578   1.801   3.897  0.2930  0.7205 -0.0398
 2883SOL    HW220109   2.713   1.852   3.888 -0.2041  0.9762  1.3525
 2884SOL     OW20110   3.915   3.176   2.337  0.0188  0.0214  0.6439
 2884SOL    HW120111   3.866   3.216   2.409 -1.6800 -1.0883  0.1173
 2884SOL    HW220112   3.845   3.137   2.285  2.6430 -1.3419 -1.8810
 2885SOL     OW20113   1.385   1.956  10.698  0.4841 -0.1249 -0.2249
 2885SOL    HW120114   1.350   1.872  10.670  2.1187 -0.7359 -0.4364
 2885SOL    HW220115   1.305   2.006  10.685 -0.3837 -1.1386  1.2806
 2886SOL     OW20116   2.934   2.518  14.013 -0.2338  0.2040  0.1744
 2886SOL    HW120117   2.948   2.486  13.924 -0.1528 -0.0529  0.2806
 2886SOL    HW220118   3.018   2.510  14.058  0.3439  0.6130 -0.8391
 2887SOL     OW20119   0.404   3.031   1.160  0.5179  0.0840  0.1856
 2887SOL    HW120120   0.463   3.089   1.111 -1.2734  2.1539  0.5224
 2887SOL    HW220121   0.383   3.090   1.232 -0.6060  0.1533 -0.2110
 2888SOL     OW20122   3.081   4.525   0.388 -0.2961 -0.1581  0.4184
 2888SOL    HW120123   3.089   4.603   0.333  0.1989 -1.1142 -0.8795
 2888SOL    HW220124   3.030   4.467   0.330  2.0761  0.5482 -2.3766
 2889SOL     OW20125   3.118   0.812   6.732  0.4065 -0.1079 -0.6975
 2889SOL    HW120126   3.035   0.777   6.764  1.0007 -1.3475 -0.5033
 2889SOL    HW220127   3.087   0.858   6.654 -2.1574  0.9375  0.9483
 2890SOL     OW20128   1.528   3.148   8.372  0.1513  0.1570 -0.4026
 2890SOL    HW120129   1.569   3.067   8.342 -0.9356 -0.3886 -0.4327
 2890SOL    HW220130   1.498   3.184   8.289  0.1301 -1.9872 -1.3211
 2891SOL     OW20131   3.401   0.617   8.435  0.0347  0.0488 -0.3468
 2891SOL    HW120132   3.490   0.637   8.408  0.8048  0.0017  2.1195
 2891SOL    HW220133   3.423   0.572   8.517  0.4392 -0.0306 -0.4994
 2892SOL     OW20134   1.257   3.804   3.334 -0.4879  0.7677  0.0687
 2892SOL    HW120135   1.346   3.840   3.338 -0.8529  1.3215  2.9438
 2892SOL    HW220136   1.254   3.736   3.402 -2.1821 -0.2162 -0.9831
 2893SOL     OW20137   1.362   4.404   4.499  0.0404  0.0137 -0.3891
 2893SOL    HW120138   1.290   4.446   4.546  2.8758  1.7935  2.3189
 2893SOL    HW220139   1.355   4.440   4.410 -2.0070 -1.7600 -0.9417
 2894SOL     OW20140   1.334   1.273   8.450 -0.1717 -0.6625 -0.6306
 2894SOL    HW120141   1.307   1.281   8.541 -1.5163  0.5448 -1.1355
 2894SOL    HW220142   1.404   1.207   8.450  0.6305  0.2026  1.6795
 2895SOL     OW20143   2.294   0.059   1.607  0.0353 -0.6839  0.5739
 2895SOL    HW120144   2.304   0.073   1.701 -2.2811 -0.6005  0.8008
 2895SOL    HW220145   2.199   0.065   1.603  0.2134  0.9308 -1.1520
 2896SOL     OW20146   4.365   0.555  11.376 -0.0463 -0.0354  0.2339
 2896SOL    HW120147   4.351   0.492  11.305  1.9292 -0.3806  0.1570
 2896SOL    HW220148   4.460   0.568  11.382  0.0600  0.8330 -3.3194
 2897SOL     OW20149   3.461   3.996  10.784 -0.1106  0.0518 -0.0889
 2897SOL    HW120150   3.381   4.033  10.747 -0.6415 -2.1980 -1.2027
 2897SOL    HW220151   3.478   3.936  10.712  2.0643 -0.0254  0.5115
 2898SOL     OW20152   1.846   4.485   4.955 -0.2111 -0.1350 -0.2470
 2898SOL    HW120153   1.823   4.524   5.040  3.0502  1.8535 -0.2628
 2898SOL    HW220154   1.770   4.430   4.939  0.5927 -1.5489  0.8528
 2899SOL     OW20155   0.361   1.624   9.064  0.0216  0.0866  0.5331
 2899SOL    HW120156   0.400   1.628   8.976  1.2315 -0.9080  1.0350
 2899SOL    HW220157   0.357   1.716   9.090 -0.0374  0.0465  0.6639
 2900SOL     OW20158   0.235   1.887   3.630  0.3002  0.7548  0.1587
 2900SOL    HW120159   0.263   1.802   3.597  0.0948  0.6960  0.1336
 2900SOL    HW220160   0.282   1.946   3.571 -0.5295  0.7163 -0.5487
 2901SOL     OW20161   0.836   3.197   3.403 -0.5523  0.1269 -0.4395
 2901SOL    HW120162   0.882   3.277   3.376 -1.2483  0.6199 -0.1745
 2901SOL    HW220163   0.749   3.209   3.366 -0.3030 -0.2003 -1.1259
 2902SOL     OW20164   2.204   2.387  17.318 -0.1053  0.2726 -0.6616
 2902SOL    HW120165   2.214   2.423  17.406 -0.4961  2.2197 -1.4059
 2902SOL    HW220166   2.108   2.390  17.320 -0.1621 -0.7361 -2.1915
 2903SOL     OW20167   3.523   2.324   9.595 -0.1416 -0.2053  0.5835
 2903SOL    HW120168   3.512   2.231   9.610  2.7126 -0.5190  0.8064
 2903SOL    HW220169   3.581   2.353   9.666  1.3071 -0.2111 -0.6003
 2904SOL     OW20170   1.175   0.130   4.086 -0.6194 -0.1689  0.3128
 2904SOL    HW120171   1.142   0.041   4.100  1.5035 -0.7774  1.3367
 2904SOL    HW220172   1.108   0.160   4.025  0.7732  0.4523 -0.9117
 2905SOL     OW20173   3.792   3.682   0.515 -0.3851  0.4558 -0.3274
 2905SOL    HW120174   3.736   3.610   0.543  0.1355  0.1719 -0.0168
 2905SOL    HW220175   3.784   3.684   0.420 -3.0981  0.9787 -0.0799
 2906SOL     OW20176   3.970   1.149   3.212 -0.2326  0.0440  0.0151
 2906SOL    HW120177   4.027   1.199   3.153 -1.2678  1.6848  0.4125
 2906SOL    HW220178   4.019   1.067   3.220  0.7026  0.3674 -2.1540
 2907SOL     OW20179   1.405   2.044  11.544 -0.0823  0.7532 -0.4794
 2907SOL    HW120180   1.327   2.081  11.503  0.2686  1.5622 -0.4224
 2907SOL    HW220181   1.466   2.116  11.561  0.4615  0.5363 -1.5004
 2908SOL     OW20182   0.916   2.724   8.855 -0.5463 -0.0074 -0.2439
 2908SOL    HW120183   0.917   2.819   8.867 -2.9011 -0.2305  1.5874
 2908SOL    HW220184   0.984   2.695   8.917  0.4976 -0.1514 -1.4442
 2909SOL     OW20185   2.242   0.950   6.830  0.0356  0.3069 -0.0148
 2909SOL    HW120186   2.218   0.910   6.914  0.9697  2.7384  1.4132
 2909SOL    HW220187   2.211   0.883   6.769 -1.2570 -0.5443  1.5516
 2910SOL     OW20188   4.135   1.715   0.323  1.0142  0.0099  0.0678
 2910SOL    HW120189   4.145   1.722   0.418  3.0734 -0.1803 -0.1369
 2910SOL    HW220190   4.188   1.636   0.312  2.2113  0.7567  0.5026
 2911SOL     OW20191   4.354   1.098   7.984  0.1322  0.0947  0.7113
 2911SOL    HW120192   4.370   1.124   8.075  1.4246 -1.5891  0.9713
 2911SOL    HW220193   4.281   1.035   7.991  1.1654 -0.9910  1.7251
 2912SOL     OW20194   2.004   2.866   0.647 -0.4557  0.1041  0.4360
 2912SOL    HW120195   2.032   2.792   0.593  0.8372  1.0461 -0.1727
 2912SOL    HW220196   1.943   2.918   0.594  1.7790 -1.8112 -3.9756
 2913SOL     OW20197   2.928   1.209   2.461 -0.1362 -0.1511 -0.1725
 2913SOL    HW120198   2.842   1.245   2.482  0.4805  1.2431 -0.0255
 2913SOL    HW220199   2.907   1.150   2.388  0.6947 -0.2532 -0.3242
 2914SOL     OW20200   4.225   0.583   0.608 -0.3388 -0.2476  0.6355
 2914SOL    HW120201   4.248   0.669   0.572  0.3356 -0.8581 -0.3975
 2914SOL    HW220202   4.209   0.542   0.523 -0.0311 -2.7569  1.7872
 2915SOL     OW20203   1.601   3.253  14.284  0.2987  0.0618  0.3343
 2915SOL    HW120204   1.540   3.197  14.236  2.3482  0.1076 -2.3283
 2915SOL    HW220205   1.615   3.317  14.214 -0.1145 -0.1206  0.0861
 2916SOL     OW20206   0.492   3.820  11.245  0.2593  0.4090  0.2952
 2916SOL    HW120207   0.580   3.857  11.240  0.7144 -1.0914 -2.5905
 2916SOL    HW220208   0.481   3.809  11.340 -0.2505 -0.6472  0.1099
 2917SOL     OW20209   2.971   0.639   2.419 -0.1133 -0.4590 -0.0683
 2917SOL    HW120210   2.900   0.695   2.450  0.1774  1.2905 -2.5328
 2917SOL    HW220211   2.922   0.558   2.401 -0.7233  0.4524 -2.4394
 2918SOL     OW20212   4.578   2.123   3.165 -0.0308 -0.3719 -0.3736
 2918SOL    HW120213   4.615   2.170   3.240  0.4458 -1.2539 -0.0634
 2918SOL    HW220214   4.606   2.034   3.183 -0.8980 -0.1944  1.7979
 2919SOL     OW20215   3.892   0.495  12.157  0.0342  0.5836 -0.8942
 2919SOL    HW120216   3.897   0.404  12.186 -1.2665  0.8989  0.2957
 2919SOL    HW220217   3.841   0.537  12.227  0.1379 -1.5107  0.4264
 2920SOL     OW20218   2.656   4.112  13.917  0.3855  0.4460 -0.3368
 2920SOL    HW120219   2.633   4.110  14.010 -2.6550 -0.9523 -1.1408
 2920SOL    HW220220   2.742   4.148  13.940  0.9889  0.1471 -2.1739
 2921SOL     OW20221   3.097   4.092   7.583  0.4932  0.2043 -0.4084
 2921SOL    HW120222   3.073   4.055   7.668  0.7816  1.2138  0.1123
 2921SOL    HW220223   3.174   4.145   7.604  0.3827  0.6049 -0.9928
 2922SOL     OW20224   2.639   3.995  13.680  0.1237  0.4745 -0.1361
 2922SOL    HW120225   2.654   4.033  13.767  0.1157  2.7122 -1.1276
 2922SOL    HW220226   2.704   3.928  13.662  1.3116  1.4664  0.4771
 2923SOL     OW20227   0.272   0.718  10.857  0.9338  0.2524 -0.0548
 2923SOL    HW120228   0.281   0.747  10.766 -1.5222  0.5749 -0.1762
 2923SOL    HW220229   0.275   0.623  10.852 -2.8988 -0.0323  2.5732
 2924SOL     OW20230   3.042   1.280  10.287 -0.0082  0.5373 -0.2649
 2924SOL    HW120231   3.091   1.357  10.259  0.4524  1.1269  2.1446
 2924SOL    HW220232   2.970   1.292  10.225  0.1024 -0.3496 -0.5719
 2925SOL     OW20233   0.142   0.139   6.005  0.3959  0.3151  0.7935
 2925SOL    HW120234   0.151   0.153   6.099 -1.2360  0.0015  0.9987
 2925SOL    HW220235   0.086   0.062   5.996  0.0130  0.6006  0.7406
 2926SOL     OW20236   2.898   0.887   2.086  0.2451  0.0903 -0.7691
 2926SOL    HW120237   2.823   0.945   2.075 -0.6247 -0.9397 -0.3243
 2926SOL    HW220238   2.956   0.948   2.133 -0.6489  0.2138  0.1679
 2927SOL     OW20239   2.564   0.494   5.106  0.0625 -0.3537 -0.6113
 2927SOL    HW120240   2.609   0.566   5.062  0.3735 -0.6163 -0.7249
 2927SOL    HW220241   2.495   0.470   5.044 -0.6459  0.0238  0.0489
 2928SOL     OW20242   2.706   2.326   3.886 -0.5081  0.4525 -0.3129
 2928SOL    HW120243   2.748   2.243   3.864  3.2622  1.3711  3.4323
 2928SOL    HW220244   2.739   2.355   3.971 -2.2649  0.0460  0.5108
 2929SOL     OW20245   4.511   0.735   7.231 -0.1888  0.2250  0.1122
 2929SOL    HW120246   4.436   0.741   7.172 -0.2673  3.1531  0.4910
 2929SOL    HW220247   4.467   0.703   7.309  1.0826  1.2231  1.2268
 2930SOL     OW20248   1.206   3.732   4.808 -0.8558 -0.0170 -0.0262
 2930SOL    HW120249   1.260   3.791   4.756  0.0790  0.1873  1.1793
 2930SOL    HW220250   1.128   3.713   4.755 -1.5134  0.4815  0.7573
 2931SOL     OW20251   3.400   0.858   9.859 -0.1660  0.4339 -0.1245
 2931SOL    HW120252   3.421   0.847   9.767  1.1128 -0.6353  0.3026
 2931SOL    HW220253   3.482   0.837   9.903 -1.2504 -2.0034  0.7033
 2932SOL     OW20254   1.696   2.182   8.659 -0.4582  0.0704 -0.1854
 2932SOL    HW120255   1.663   2.264   8.622 -0.3963  1.0959  2.0308
 2932SOL    HW220256   1.649   2.183   8.742 -0.7647  2.3610 -0.3855
 2933SOL     OW20257   3.872   3.402   5.903 -0.4155  0.3185  0.3209
 2933SOL    HW120258   3.815   3.422   5.977 -0.4657 -3.1004  1.2204
 2933SOL    HW220259   3.857   3.309   5.885  0.0509  0.1241  0.9707
 2934SOL     OW20260   1.641   2.511   8.328 -0.0071 -0.4034  0.6561
 2934SOL    HW120261   1.647   2.417   8.314 -1.8711 -0.4735  0.3680
 2934SOL    HW220262   1.552   2.512   8.363 -0.1214  1.8124  0.3406
 2935SOL     OW20263   4.171   3.324   4.251  0.7420 -0.6379  0.1772
 2935SOL    HW120264   4.204   3.376   4.178 -2.3256  0.6243 -0.2922
 2935SOL    HW220265   4.258   3.304   4.287  1.6037 -0.1774 -1.6904
 2936SOL     OW20266   1.748   3.954   7.451  0.6823 -0.0521  0.4380
 2936SOL    HW120267   1.654   3.936   7.448  0.5110  1.1013 -1.2275
 2936SOL    HW220268   1.776   3.905   7.374 -1.5390  0.5407 -0.7503
 2937SOL     OW20269   4.023   2.804   5.186 -0.5836 -0.0537 -0.1733
 2937SOL    HW120270   4.032   2.709   5.200 -0.5128  0.1767  1.3951
 2937SOL    HW220271   4.012   2.842   5.273 -0.5592  0.7093 -0.5084
 2938SOL     OW20272   2.722   0.414  12.088  0.2914  0.0556 -0.1653
 2938SOL    HW120273   2.703   0.445  11.999 -2.2544  0.1042  0.4096
 2938SOL    HW220274   2.762   0.490  12.131  1.1540 -0.6928  0.3424
 2939SOL     OW20275   2.665   0.242   2.027  0.2311 -0.2125 -0.2132
 2939SOL    HW120276   2.703   0.215   1.944 -1.8966 -0.0404 -1.2408
 2939SOL    HW220277   2.678   0.336   2.041 -2.6246  0.1925 -0.1530
 2940SOL     OW20278   0.412   2.095   6.045  0.1870  0.3397  0.2112
 2940SOL    HW120279   0.452   2.008   6.040  0.3422  0.5525 -2.2412
 2940SOL    HW220280   0.464   2.138   6.112  0.5215 -1.0075  0.8119
 2941SOL     OW20281   0.902   0.400   3.720  0.2697  1.2140 -0.0936
 2941SOL    HW120282   0.970   0.335   3.736 -0.4201  0.1538 -1.4807
 2941SOL    HW220283   0.833   0.337   3.702 -0.4600  0.9775  3.4266
 2942SOL     OW20284   3.392   1.371   4.755  0.2627  0.3170 -0.3917
 2942SOL    HW120285   3.456   1.342   4.820 -1.1131  1.5008  1.5349
 2942SOL    HW220286   3.331   1.299   4.738  0.7664 -0.2805  0.3567
 2943SOL     OW20287   2.782   0.638   3.136  0.0246 -0.3505 -0.0886
 2943SOL    HW120288   2.875   0.627   3.120 -0.4627  0.0274 -3.2728
 2943SOL    HW220289   2.790   0.711   3.197 -0.5824 -0.1515 -0.2461
 2944SOL     OW20290   1.846   1.559   1.218 -0.6594 -0.5266  0.1884
 2944SOL    HW120291   1.810   1.541   1.305 -2.0200  0.0830 -0.2428
 2944SOL    HW220292   1.827   1.478   1.170  0.4422 -0.9711  0.5119
 2945SOL     OW20293   0.005   2.993   3.832 -0.5346 -1.0879 -0.5538
 2945SOL    HW120294   4.701   2.936   3.904  0.0614 -0.1434  0.4238
 2945SOL    HW220295   0.046   3.050   3.897 -3.7865  0.2569  0.3521
 2946SOL     OW20296   1.236   2.230   5.083 -0.1923  0.3052 -0.1936
 2946SOL    HW120297   1.230   2.304   5.144  0.6247  1.2215 -1.2111
 2946SOL    HW220298   1.207   2.152   5.130  0.2506 -0.2293 -0.8009
 2947SOL     OW20299   3.004   1.072   4.859  0.1232 -0.1500  0.8318
 2947SOL    HW120300   3.011   1.096   4.951  0.9622  0.0217  0.7302
 2947SOL    HW220301   3.045   0.986   4.858  0.4715  0.0568 -3.2293
 2948SOL     OW20302   3.184   2.504   2.129 -0.5968 -0.1890  0.0611
 2948SOL    HW120303   3.244   2.462   2.192 -1.0854  1.0977  1.3824
 2948SOL    HW220304   3.143   2.565   2.190 -0.4947  1.4180 -1.4773
 2949SOL     OW20305   3.175   2.951  17.188  0.5119 -0.1085 -0.4618
 2949SOL    HW120306   3.259   2.927  17.226  0.5551 -0.6102 -0.8902
 2949SOL    HW220307   3.115   2.904  17.247 -1.3495  1.3589 -1.1899
 2950SOL     OW20308   3.874   3.391  10.367 -0.4780 -0.3526 -0.2174
 2950SOL    HW120309   3.892   3.433  10.283  1.4028 -0.8992 -0.0882
 2950SOL    HW220310   3.961   3.399  10.404 -0.2259  0.2732 -0.9490
 2951SOL     OW20311   0.506   0.908   6.283  0.1881 -0.7758  0.8508
 2951SOL    HW120312   0.585   0.917   6.337  0.4968 -0.8746  0.4155
 2951SOL    HW220313   0.536   0.828   6.239  0.8269 -0.2371  0.3092
 2952SOL     OW20314   4.203   3.668  13.650  0.4328 -0.1123  0.1883
 2952SOL    HW120315   4.119   3.703  13.623 -0.7016 -1.0100  2.5359
 2952SOL    HW220316   4.176   3.656  13.741 -0.6091  0.1819 -0.0863
 2953SOL     OW20317   1.742   0.150   1.862  0.3978 -0.9350  0.1785
 2953SOL    HW120318   1.835   0.125   1.868  0.1246 -1.6674  1.5131
 2953SOL    HW220319   1.706   0.070   1.825  1.5254 -1.3642 -0.0099
 2954SOL     OW20320   3.773   3.054   9.422  0.5570  0.0050  0.4075
 2954SOL    HW120321   3.700   2.997   9.398 -0.7894  1.1981  1.6297
 2954SOL    HW220322   3.842   3.034   9.359 -0.7047  1.4010 -1.3964
 2955SOL     OW20323   3.737   4.547   0.225 -0.0039  0.6927  0.3012
 2955SOL    HW120324   3.807   4.551   0.160 -1.7289 -0.8520 -1.6656
 2955SOL    HW220325   3.707   4.461   0.197  0.7784 -0.0242  1.7032
 2956SOL     OW20326   1.521   1.327   8.073  0.2114  0.7295 -0.2609
 2956SOL    HW120327   1.561   1.317   8.159  2.2984  0.7153 -1.2149
 2956SOL    HW220328   1.483   1.239   8.066 -0.3313  0.9470  0.0325
 2957SOL     OW20329   0.627   3.643   3.280 -0.3220 -0.0450  0.1705
 2957SOL    HW120330   0.672   3.726   3.263  1.3295 -0.9333  0.1515
 2957SOL    HW220331   0.693   3.590   3.235  1.3952  2.3586 -0.1740
 2958SOL     OW20332   2.734   1.021  16.375  0.6187 -0.4360 -0.6550
 2958SOL    HW120333   2.686   0.951  16.331  1.4548 -1.0004 -0.6696
 2958SOL    HW220334   2.811   0.976  16.410  0.1749 -0.1432  0.6846
 2959SOL     OW20335   2.120   1.709   1.925 -0.0155  0.0597 -0.1930
 2959SOL    HW120336   2.053   1.764   1.965  1.3830  0.8555  1.0579
 2959SOL    HW220337   2.109   1.733   1.833  2.0203 -0.2388 -0.5245
 2960SOL     OW20338   2.195   2.096  15.866 -0.2401  0.0997  0.5366
 2960SOL    HW120339   2.185   2.155  15.941 -4.2839  0.2055 -0.0879
 2960SOL    HW220340   2.112   2.049  15.854  0.1815 -0.5769  0.2796
 2961SOL     OW20341   2.216   3.045   8.891  0.3998  0.1764  0.1139
 2961SOL    HW120342   2.188   3.037   8.800  0.8608  2.1442 -0.2226
 2961SOL    HW220343   2.249   2.956   8.900  1.8220  0.5439 -1.4085
 2962SOL     OW20344   3.307   2.124   8.958  0.0802  0.3580 -0.1053
 2962SOL    HW120345   3.275   2.068   8.887 -0.2027  2.2966 -1.5083
 2962SOL    HW220346   3.240   2.103   9.023 -0.3544 -0.7271 -0.9049
 2963SOL     OW20347   2.566   1.989   3.698 -0.3576 -0.6140 -0.5097
 2963SOL    HW120348   2.634   2.056   3.692  0.4915 -1.3216  1.4092
 2963SOL    HW220349   2.604   1.922   3.640 -1.0173 -0.6495 -0.9022
 2964SOL     OW20350   4.288   3.303   3.490  0.1535 -0.5159  0.1237
 2964SOL    HW120351   4.367   3.297   3.544  0.1882 -0.5070  0.0738
 2964SOL    HW220352   4.224   3.317   3.561 -0.4222 -1.1055 -0.2812
 2965SOL     OW20353   2.497   1.540   4.639 -0.3156  0.3093 -0.2725
 2965SOL    HW120354   2.522   1.465   4.585 -1.0192  0.3766 -0.6952
 2965SOL    HW220355   2.502   1.613   4.577 -0.9327  1.7750  1.4178
 2966SOL     OW20356   2.085   2.687  13.741  0.1307 -0.0832 -0.2831
 2966SOL    HW120357   1.993   2.689  13.767  0.3665  0.9068  0.4600
 2966SOL    HW220358   2.097   2.780  13.723 -0.3857 -0.1474 -0.9846
 2967SOL     OW20359   1.324   1.774  12.323  0.4402  0.1621 -0.2082
 2967SOL    HW120360   1.339   1.820  12.406 -1.5788  3.0052 -1.4228
 2967SOL    HW220361   1.413   1.741  12.311  1.6565  2.9736  1.2306
 2968SOL     OW20362   3.775   1.537   8.567  0.2734  0.8282  0.6296
 2968SOL    HW120363   3.701   1.508   8.513 -0.5777  2.6160  0.8554
 2968SOL    HW220364   3.753   1.629   8.559  1.2918  0.7860 -2.9856
 2969SOL     OW20365   3.597   1.045   9.191  0.3609  0.0219 -0.1567
 2969SOL    HW120366   3.556   1.110   9.248 -3.3686 -1.4061 -1.1803
 2969SOL    HW220367   3.518   0.996   9.166 -1.2352  2.0717  0.8337
 2970SOL     OW20368   3.964   2.830  12.222 -0.4548 -0.4074  1.0184
 2970SOL    HW120369   3.990   2.918  12.249  0.0622 -0.5229  0.8916
 2970SOL    HW220370   3.890   2.824  12.282 -0.8838  0.4275  0.5769
 2971SOL     OW20371   0.017   1.071   4.852 -0.0914 -0.5511  1.0458
 2971SOL    HW120372   0.107   1.058   4.883  0.0091 -0.9746  0.5689
 2971SOL    HW220373   4.722   1.162   4.874  0.1855 -0.4130  0.7160
 2972SOL     OW20374   3.651   4.352   7.756  0.3223 -0.4225 -0.7686
 2972SOL    HW120375   3.667   4.309   7.672  1.3951  1.1814 -1.3964
 2972SOL    HW220376   3.624   4.282   7.816  1.8429 -0.1798  0.1930
 2973SOL     OW20377   2.227   1.915   4.614 -0.6507  0.0537 -0.3141
 2973SOL    HW120378   2.253   1.852   4.681  1.4717 -1.3630 -2.4582
 2973SOL    HW220379   2.160   1.871   4.563 -0.4591 -1.6934  0.9482
 2974SOL     OW20380   1.113   1.440  15.803  0.1658 -0.3430 -0.1618
 2974SOL    HW120381   1.205   1.456  15.822  0.0975 -3.0210  2.6189
 2974SOL    HW220382   1.117   1.346  15.825  0.1352 -0.0903  0.9394
 2975SOL     OW20383   4.107   1.332  10.408  0.6758  0.4004  1.2431
 2975SOL    HW120384   4.100   1.428  10.412  0.4274  0.4172  0.2643
 2975SOL    HW220385   4.150   1.329  10.323 -0.9676 -0.8181  0.4762
 2976SOL     OW20386   2.061   2.594   6.885  0.7753  0.0517 -0.5236
 2976SOL    HW120387   2.067   2.616   6.978  0.0529 -1.7074 -0.0580
 2976SOL    HW220388   2.145   2.626   6.852  1.5123 -1.9965 -0.6259
 2977SOL     OW20389   3.334   3.472  17.649 -0.6260 -0.4618  0.3120
 2977SOL    HW120390   3.383   3.401  17.608  1.0519  0.4247  0.7836
 2977SOL    HW220391   3.311   3.518  17.568 -0.0934 -0.4757  0.1567
 2978SOL     OW20392   4.652   1.902  14.352  0.4374  0.6776  0.1914
 2978SOL    HW120393   4.718   1.837  14.325 -2.9376 -2.0782 -1.3941
 2978SOL    HW220394   4.657   1.962  14.277 -3.6517 -0.7312 -1.1979
 2979SOL     OW20395   4.124   2.612  12.139 -0.0427  0.0675 -0.0394
 2979SOL    HW120396   4.173   2.600  12.220 -1.5609  0.6349  0.9575
 2979SOL    HW220397   4.078   2.695  12.147  1.1555  0.6923  0.2781
 2980SOL     OW20398   2.648   1.959   7.935 -0.6161 -0.0539  0.2942
 2980SOL    HW120399   2.725   2.015   7.925  1.9732 -3.7234 -0.4023
 2980SOL    HW220400   2.620   1.933   7.848  1.5712  1.0806 -0.7452
 2981SOL     OW20401   2.837   1.846   7.714 -0.4012 -0.2217 -0.4128
 2981SOL    HW120402   2.894   1.922   7.723  0.5216 -0.8504 -0.9826
 2981SOL    HW220403   2.755   1.896   7.706 -0.3246 -0.3427 -1.8538
 2982SOL     OW20404   1.632   1.393   8.297  0.2602 -0.4357 -0.2138
 2982SOL    HW120405   1.647   1.479   8.258 -1.2196  1.2844  3.0472
 2982SOL    HW220406   1.578   1.398   8.375  1.5986 -0.8262  0.7356
 2983SOL     OW20407   4.210   4.128   0.112  0.0219  0.1007 -0.2093
 2983SOL    HW120408   4.286   4.184   0.129 -0.1244  0.8450 -2.0721
 2983SOL    HW220409   4.180   4.103   0.200  0.5778 -1.3221 -0.4304
 2984SOL     OW20410   0.926   0.570  11.403 -0.5827 -0.5291  0.0072
 2984SOL    HW120411   0.915   0.597  11.494 -1.0066 -0.6201 -0.0193
 2984SOL    HW220412   1.022   0.572  11.397 -0.6387  1.3522 -0.3594
 2985SOL     OW20413   2.141   2.685  14.934  0.1650  0.7232  0.0050
 2985SOL    HW120414   2.113   2.736  14.858  3.5957  1.3158 -0.8702
 2985SOL    HW220415   2.079   2.712  15.002  0.1736 -1.1627  0.7710
 2986SOL     OW20416   1.006   1.122   9.661  0.7058 -0.5129  0.4389
 2986SOL    HW120417   0.999   1.085   9.749 -1.1763  0.5407  0.7377
 2986SOL    HW220418   1.067   1.065   9.614  0.1453 -0.1112 -0.7762
 2987SOL     OW20419   3.808   1.813   7.753 -0.0702  0.1683 -0.0627
 2987SOL    HW120420   3.850   1.809   7.840  0.1352 -1.7639 -0.2456
 2987SOL    HW220421   3.797   1.907   7.745  0.2671  0.4003  1.9739
 2988SOL     OW20422   1.227   1.651   3.047 -0.5369  0.2531 -0.1395
 2988SOL    HW120423   1.270   1.688   2.971 -1.4941 -0.1068 -0.8587
 2988SOL    HW220424   1.228   1.559   3.022  1.0007  0.2093  0.1004
 2989SOL     OW20425   3.402   3.687  14.578 -0.8702 -0.3160 -0.7333
 2989SOL    HW120426   3.495   3.665  14.579 -1.0145 -0.9444 -1.6279
 2989SOL    HW220427   3.365   3.616  14.526  0.8956  0.1384 -2.5788
 2990SOL     OW20428   0.528   1.730   1.872  0.2819 -0.0412 -0.1393
 2990SOL    HW120429   0.581   1.780   1.810 -0.7347  0.4047 -0.6508
 2990SOL    HW220430   0.454   1.788   1.891 -0.5458 -1.3300  0.6215
 2991SOL     OW20431   4.032   3.663   2.600 -0.3488  0.0119  0.6398
 2991SOL    HW120432   4.108   3.698   2.553 -0.6986 -0.7383 -0.4934
 2991SOL    HW220433   4.072   3.593   2.652  0.2162 -0.9226 -1.0074
 2992SOL     OW20434   1.284   1.792   1.567 -0.4296 -0.3784  0.5623
 2992SOL    HW120435   1.231   1.799   1.646 -1.5005 -0.1234 -0.1803
 2992SOL    HW220436   1.264   1.703   1.537  3.6112 -1.9172  2.3318
 2993SOL     OW20437   2.670   0.476   3.970  0.6045 -0.3077 -0.2209
 2993SOL    HW120438   2.761   0.447   3.970  0.3041 -1.2394 -1.3155
 2993SOL    HW220439   2.680   0.567   3.944 -2.7103 -0.3033 -1.4817
 2994SOL     OW20440   2.191   4.646   6.144 -0.1182 -0.0786  1.2572
 2994SOL    HW120441   2.178   4.586   6.218 -2.4008  1.0193  1.7568
 2994SOL    HW220442   2.137   4.616   6.071  1.1822 -0.9245  0.6543
 2995SOL     OW20443   0.438   0.456  15.281  0.6402 -0.0386  0.4771
 2995SOL    HW120444   0.415   0.364  15.267  1.2049 -0.3266  1.4737
 2995SOL    HW220445   0.401   0.466  15.368 -0.5289  2.8509 -0.3591
 2996SOL     OW20446   3.159   2.728   6.086  0.6637  0.1882 -0.0072
 2996SOL    HW120447   3.122   2.808   6.048 -1.3135  1.3713  4.3542
 2996SOL    HW220448   3.119   2.655   6.038  0.2106  0.6741 -0.3605
 2997SOL     OW20449   3.878   1.520   2.942 -0.0340 -0.0936 -0.5584
 2997SOL    HW120450   3.865   1.610   2.911  1.5657  0.1237 -0.5776
 2997SOL    HW220451   3.973   1.515   2.945 -0.2004 -2.1248  1.2463
 2998SOL     OW20452   0.427   0.449  16.608  0.1579  0.5934 -0.4814
 2998SOL    HW120453   0.475   0.532  16.608  1.9156 -0.4311 -1.0750
 2998SOL    HW220454   0.339   0.486  16.612  0.1460  0.7822 -2.6695
 2999SOL     OW20455   1.978   0.948   9.631  0.6813  0.4539 -1.1934
 2999SOL    HW120456   1.889   0.978   9.650  1.1706  1.0098  0.2666
 2999SOL    HW220457   2.012   0.934   9.720 -1.4978  1.7710 -0.1614
 3000SOL     OW20458   0.530   3.508   4.286  0.5334  0.3148  0.3014
 3000SOL    HW120459   0.465   3.558   4.236  1.5798  0.6201 -0.7271
 3000SOL    HW220460   0.595   3.484   4.220 -0.3052 -1.9366  0.2908
 3001SOL     OW20461   3.230   1.719   3.198 -0.1275 -0.9639 -0.3168
 3001SOL    HW120462   3.235   1.640   3.251 -1.5999 -0.3210  0.7934
 3001SOL    HW220463   3.282   1.681   3.127  1.7741  0.7054  0.1781
 3002SOL     OW20464   1.158   4.246   7.385  0.4829 -0.3214 -0.0625
 3002SOL    HW120465   1.128   4.273   7.298  2.9764  0.9220 -0.5342
 3002SOL    HW220466   1.201   4.324   7.419  1.0331 -1.1303  1.0682
 3003SOL     OW20467   1.743   3.432   3.361  0.3852 -0.0055 -0.7763
 3003SOL    HW120468   1.835   3.408   3.378  0.2422 -0.9278 -1.3001
 3003SOL    HW220469   1.756   3.520   3.397 -1.5706  0.4506 -1.2012
 3004SOL     OW20470   2.004   1.000   8.718  0.5100 -0.1030  0.7147
 3004SOL    HW120471   1.950   1.074   8.691 -1.4207 -1.2444  1.4302
 3004SOL    HW220472   1.947   0.927   8.692 -1.0089  1.1647  0.4606
 3005SOL     OW20473   1.304   0.500   2.886  0.2938  0.2169  0.6747
 3005SOL    HW120474   1.297   0.569   2.952  0.3525  0.8105  0.0572
 3005SOL    HW220475   1.233   0.446   2.921 -0.0840 -1.2406 -2.3261
 3006SOL     OW20476   3.673   0.244  14.700  0.0494 -0.0342  1.1086
 3006SOL    HW120477   3.764   0.254  14.673 -0.0436  1.7154  1.4838
 3006SOL    HW220478   3.635   0.291  14.626  1.0829 -2.3915 -0.9246
 3007SOL     OW20479   0.383   2.604   5.830 -0.1649 -0.1266  0.1409
 3007SOL    HW120480   0.461   2.560   5.864 -0.1425 -0.2674 -0.0895
 3007SOL    HW220481   0.337   2.534   5.783 -0.5095  0.1121  0.1294
 3008SOL     OW20482   4.032   4.654  15.513 -0.5464 -0.1101  0.7821
 3008SOL    HW120483   3.988   4.706  15.580 -2.9672 -1.2858  0.1305
 3008SOL    HW220484   4.106   4.629  15.568  0.5918 -1.2125 -1.2560
 3009SOL     OW20485   4.363   2.625   3.372 -0.1380  0.3159  0.2424
 3009SOL    HW120486   4.401   2.572   3.442  2.0260  0.5428 -0.7444
 3009SOL    HW220487   4.381   2.712   3.408 -1.7304  0.5982  0.3525
 3010SOL     OW20488   3.315   2.746   6.310 -0.2773  0.2792  0.1311
 3010SOL    HW120489   3.279   2.722   6.225  0.7417 -1.4168  0.1897
 3010SOL    HW220490   3.333   2.658   6.343  0.4450  1.2420  2.3026
 3011SOL     OW20491   0.224   4.349   5.389 -0.1757  0.6839  0.1078
 3011SOL    HW120492   0.253   4.403   5.463  0.5903  0.7344 -0.2320
 3011SOL    HW220493   0.180   4.287   5.447  1.3314  0.8940  1.4657
 3012SOL     OW20494   4.503   2.493  15.925  0.3631 -0.3340  0.0383
 3012SOL    HW120495   4.472   2.517  16.012 -0.6218 -0.3949 -0.2969
 3012SOL    HW220496   4.535   2.581  15.903  2.3370 -1.3448 -1.1362
 3013SOL     OW20497   0.524   0.619   4.333 -0.0034  0.6074  0.3136
 3013SOL    HW120498   0.510   0.711   4.312 -2.3527  0.7076  2.3433
 3013SOL    HW220499   0.597   0.619   4.394 -1.0854  0.0995  1.6155
 3014SOL     OW20500   2.583   4.091   3.086 -0.0312 -0.0180  0.8305
 3014SOL    HW120501   2.564   4.003   3.118 -1.1152 -0.3969 -0.8776
 3014SOL    HW220502   2.679   4.092   3.093  0.0943  0.7850 -1.0087
 3015SOL     OW20503   4.545   0.334   0.916  0.4924  0.2803 -0.2324
 3015SOL    HW120504   4.530   0.250   0.873  2.6835  0.1346 -0.7376
 3015SOL    HW220505   4.611   0.312   0.983 -2.0036  2.5685  3.0029
 3016SOL     OW20506   1.135   3.581  12.082  0.1794  0.0714 -0.0979
 3016SOL    HW120507   1.181   3.573  11.998  0.3441  3.0260 -0.3038
 3016SOL    HW220508   1.102   3.671  12.079 -3.1658 -1.1720 -1.2978
 3017SOL     OW20509   3.952   3.232   8.235 -0.5315  0.0768 -0.3316
 3017SOL    HW120510   3.983   3.299   8.175 -2.4937  0.5765 -0.7965
 3017SOL    HW220511   3.959   3.279   8.318 -1.1345  0.7411 -0.6576
 3018SOL     OW20512   3.523   1.975  15.903 -0.4931  0.3779 -0.4081
 3018SOL    HW120513   3.483   2.059  15.927  0.5308  0.8628 -0.3970
 3018SOL    HW220514   3.531   1.925  15.984 -0.8261  0.2714 -0.4388
 3019SOL     OW20515   4.366   2.190   8.580  0.3722  0.0731 -0.1243
 3019SOL    HW120516   4.389   2.126   8.647 -2.2478 -1.2759 -0.5372
 3019SOL    HW220517   4.277   2.164   8.556  0.1447 -1.2025  2.1300
 3020SOL     OW20518   4.324   3.477  12.752  0.2917  0.0126  0.2483
 3020SOL    HW120519   4.270   3.400  12.733 -2.1684  1.9891 -0.7718
 3020SOL    HW220520   4.263   3.551  12.757  1.3465  1.1244 -3.8462
 3021SOL     OW20521   2.075   2.725   3.873 -0.0903 -0.1304 -0.0679
 3021SOL    HW120522   1.999   2.759   3.920 -0.2974  0.2530 -0.6809
 3021SOL    HW220523   2.047   2.725   3.781 -1.0378 -3.6872  0.2083
 3022SOL     OW20524   3.944   3.131   5.999 -0.5906 -0.2322  0.2885
 3022SOL    HW120525   3.849   3.136   6.002 -0.4316  2.4551  0.9933
 3022SOL    HW220526   3.977   3.099   6.083 -2.9853 -2.2223  0.4702
 3023SOL     OW20527   2.918   0.624   3.432  0.7841 -0.0168 -0.3457
 3023SOL    HW120528   3.001   0.606   3.476 -0.0930 -1.8875  0.5851
 3023SOL    HW220529   2.936   0.695   3.371  0.6854  0.0755 -0.2670
 3024SOL     OW20530   4.444   4.361  12.711 -0.0895 -0.7146  0.1795
 3024SOL    HW120531   4.512   4.362  12.778 -1.2296  1.9967  1.3111
 3024SOL    HW220532   4.502   4.395  12.643 -4.0680  1.5027 -2.1335
 3025SOL     OW20533   2.319   2.363   3.635  0.5451  0.1397  0.5675
 3025SOL    HW120534   2.319   2.307   3.557 -1.7271  0.3749  0.3919
 3025SOL    HW220535   2.291   2.443   3.590 -0.3688  0.2324  1.3008
 3026SOL     OW20536   1.066   2.859   3.166  0.2095 -0.3900  0.0118
 3026SOL    HW120537   1.059   2.954   3.176 -1.3774 -0.5725  0.6671
 3026SOL    HW220538   1.156   2.865   3.136  0.6765 -0.1418  1.4500
 3027SOL     OW20539   2.594   2.478   8.934 -0.0175 -0.1358  0.6148
 3027SOL    HW120540   2.635   2.546   8.989  1.5265 -1.1223  0.6824
 3027SOL    HW220541   2.502   2.493   8.956  0.2656  0.5753  1.3375
 3028SOL     OW20542   0.272   0.900   6.642 -0.0619 -0.1270  0.1385
 3028SOL    HW120543   0.178   0.918   6.651  0.3244  1.1251  1.6302
 3028SOL    HW220544   0.304   0.977   6.688  1.2004 -0.8009  0.3918
 3029SOL     OW20545   3.715   2.103  14.085 -0.0191 -0.1727 -0.0945
 3029SOL    HW120546   3.693   2.176  14.027  0.8893  0.1377 -0.0487
 3029SOL    HW220547   3.682   2.023  14.043 -0.8128  0.0231  0.1642
 3030SOL     OW20548   3.108   0.695   2.022 -0.1419 -0.1506  0.4473
 3030SOL    HW120549   3.153   0.746   2.089 -0.6638  0.2271  0.5100
 3030SOL    HW220550   3.068   0.622   2.070  0.9635 -2.2668 -1.8136
 3031SOL     OW20551   1.749   1.507  16.610  0.0439 -0.1019  0.3623
 3031SOL    HW120552   1.741   1.603  16.610 -1.9440 -0.2810  1.6422
 3031SOL    HW220553   1.676   1.481  16.666  1.4938  0.4117  2.5068
 3032SOL     OW20554   4.185   0.835   1.757  0.1278 -0.2889 -0.1602
 3032SOL    HW120555   4.119   0.779   1.717 -1.2541  1.0625  0.2479
 3032SOL    HW220556   4.180   0.807   1.848 -0.9783 -0.2869 -0.2185
 3033SOL     OW20557   1.463   0.216   5.476 -0.1644 -0.3042 -0.5312
 3033SOL    HW120558   1.440   0.125   5.453  1.8791 -0.3057 -2.5102
 3033SOL    HW220559   1.386   0.236   5.530  0.0320 -1.8383  0.3293
 3034SOL     OW20560   2.916   0.057  10.545 -0.5051 -0.5786 -0.5418
 3034SOL    HW120561   2.859   4.713  10.510  0.4338 -0.7006 -1.8154
 3034SOL    HW220562   2.889   0.054  10.637  0.2840  0.0383 -0.2919
 3035SOL     OW20563   4.284   0.217   5.694 -0.0107 -0.3409 -0.2779
 3035SOL    HW120564   4.255   0.136   5.736 -1.5312  0.1035 -0.4596
 3035SOL    HW220565   4.210   0.277   5.706 -0.6271 -1.0822 -0.4351
 3036SOL     OW20566   0.863   3.616   5.393 -0.0747 -0.1019  0.5516
 3036SOL    HW120567   0.901   3.531   5.370  0.8842  0.5399 -0.2369
 3036SOL    HW220568   0.773   3.592   5.371 -0.1074  0.9278 -0.4142
 3037SOL     OW20569   0.017   1.405   7.074 -0.2568  0.5409  0.1506
 3037SOL    HW120570   4.667   1.350   7.048 -0.4935  0.7105  0.4746
 3037SOL    HW220571   0.010   1.403   7.169  2.7542  0.0335  0.3676
 3038SOL     OW20572   1.214   0.124   5.343 -0.2130 -0.0903  0.0488
 3038SOL    HW120573   1.236   0.070   5.266 -0.6347  0.2826 -0.3369
 3038SOL    HW220574   1.225   0.209   5.300 -0.7647 -0.3687 -0.6649
 3039SOL     OW20575   2.216   4.170  14.575  0.5043  0.4282  0.2232
 3039SOL    HW120576   2.168   4.242  14.533 -0.2147 -0.3137 -0.2213
 3039SOL    HW220577   2.297   4.215  14.598  0.8203 -0.6644  1.2450
 3040SOL     OW20578   4.272   2.116   4.150 -0.5807 -0.3086  0.0010
 3040SOL    HW120579   4.295   2.024   4.165  2.1607  0.6949  1.9351
 3040SOL    HW220580   4.357   2.158   4.142 -0.1805 -0.9156  1.0195
 3041SOL     OW20581   2.713   0.389   8.713 -0.1557  0.0411 -0.3917
 3041SOL    HW120582   2.709   0.314   8.653 -2.1617 -1.0145  1.0594
 3041SOL    HW220583   2.727   0.460   8.651  0.0126  0.4390  0.1021
 3042SOL     OW20584   3.507   0.237  11.271 -0.3114 -0.3216 -0.1461
 3042SOL    HW120585   3.506   0.142  11.258 -0.4270 -0.1075 -1.7372
 3042SOL    HW220586   3.592   0.250  11.312 -0.4977 -2.9865  1.1276
 3043SOL     OW20587   2.828   0.452   5.769 -0.0779  0.0552 -0.4200
 3043SOL    HW120588   2.790   0.385   5.826  1.9874 -0.6544  0.1216
 3043SOL    HW220589   2.755   0.469   5.709 -1.7929 -1.1475  1.3007
 3044SOL     OW20590   2.832   4.560   1.437 -0.3558  0.0173 -0.1694
 3044SOL    HW120591   2.770   4.614   1.388 -2.2862 -2.2106 -0.1651
 3044SOL    HW220592   2.772   4.498   1.479  0.1787 -0.4912 -0.1543
 3045SOL     OW20593   0.186   0.571   2.357 -0.0100  0.2769 -0.0897
 3045SOL    HW120594   0.123   0.639   2.333 -1.2508 -1.6059 -2.1297
 3045SOL    HW220595   0.126   0.520   2.410  0.5760 -1.2590 -0.9134
 3046SOL     OW20596   0.642   4.483   4.264 -0.1689  0.5011  0.5762
 3046SOL    HW120597   0.684   4.487   4.350 -1.4111  1.2380  1.1503
 3046SOL    HW220598   0.716   4.458   4.208 -0.5539  0.8263 -0.0723
 3047SOL     OW20599   2.542   0.941   3.242 -0.0537 -0.3222  0.3437
 3047SOL    HW120600   2.507   0.856   3.269 -0.6154  0.6299  2.6447
 3047SOL    HW220601   2.539   0.945   3.147  1.2111 -2.4585  0.2279
 3048SOL     OW20602   3.596   1.804   3.022 -0.0052  0.0837 -0.5668
 3048SOL    HW120603   3.607   1.816   3.116 -2.0686  0.5580 -0.3796
 3048SOL    HW220604   3.565   1.891   3.000 -2.1028 -0.1686  1.3719
 3049SOL     OW20605   1.804   2.529  13.572 -0.1431  0.4167 -0.3015
 3049SOL    HW120606   1.766   2.500  13.655  1.5185  2.7503  1.2723
 3049SOL    HW220607   1.804   2.625  13.582  1.2347  0.0765  3.1716
 3050SOL     OW20608   1.401   3.680   9.126  0.1639  0.2894 -0.0513
 3050SOL    HW120609   1.325   3.691   9.184 -0.5727  2.4700 -1.4593
 3050SOL    HW220610   1.391   3.585   9.114  0.1949  0.4752 -1.4820
 3051SOL     OW20611   4.468   2.954  14.667 -0.4973  0.2492  0.0874
 3051SOL    HW120612   4.488   3.048  14.667  0.1293  0.1193 -0.2523
 3051SOL    HW220613   4.375   2.948  14.647 -0.4703  0.4825 -0.1150
 3052SOL     OW20614   1.202   0.934   9.579  0.1435  0.0149  0.1465
 3052SOL    HW120615   1.266   0.935   9.508 -1.9143 -0.6990 -1.7424
 3052SOL    HW220616   1.168   0.846   9.560 -0.7166  0.7314 -1.7393
 3053SOL     OW20617   1.997   4.195   4.771  0.4949  0.7722 -0.2326
 3053SOL    HW120618   1.952   4.115   4.742  0.1738  0.0136  2.3802
 3053SOL    HW220619   1.979   4.200   4.865 -0.4911  0.0956 -0.3802
 3054SOL     OW20620   0.344   2.501   8.367  0.4159  0.0821 -0.3597
 3054SOL    HW120621   0.258   2.541   8.378  0.5888  0.0665  1.1514
 3054SOL    HW220622   0.318   2.412   8.395  1.0745 -0.2233 -0.7269
 3055SOL     OW20623   2.540   0.360  17.217  0.0782  0.1222 -0.5105
 3055SOL    HW120624   2.623   0.407  17.207 -1.1012  2.4362  0.6716
 3055SOL    HW220625   2.551   0.312  17.299  0.4953 -0.2600 -0.7868
 3056SOL     OW20626   0.860   3.958   2.462 -0.2256 -0.7574 -0.5784
 3056SOL    HW120627   0.949   3.941   2.495 -0.0094  1.1266 -0.1494
 3056SOL    HW220628   0.808   3.889   2.503 -0.5766 -0.4955 -0.5870
 3057SOL     OW20629   3.481   0.288   4.715  0.2119 -0.0060 -0.0500
 3057SOL    HW120630   3.470   0.344   4.638 -0.8295 -1.2505 -0.7968
 3057SOL    HW220631   3.414   0.326   4.771  1.7602  1.0740  1.0780
 3058SOL     OW20632   2.429   3.288   1.767  0.1477  0.0022  0.0171
 3058SOL    HW120633   2.420   3.380   1.791 -0.0835 -0.3215  1.1668
 3058SOL    HW220634   2.403   3.235   1.842 -1.7769 -1.5423 -1.7308
 3059SOL     OW20635   4.499   2.573   5.796 -0.8172  0.5426  0.3911
 3059SOL    HW120636   4.524   2.665   5.784 -1.3359  0.4222 -1.5817
 3059SOL    HW220637   4.411   2.573   5.760 -1.0598 -0.8053  1.0005
 3060SOL     OW20638   3.739   1.663   6.389  0.1191 -0.3818 -0.2476
 3060SOL    HW120639   3.718   1.583   6.436  0.4400 -1.8044 -2.5228
 3060SOL    HW220640   3.679   1.673   6.315 -1.2444  0.2165  0.9519
 3061SOL     OW20641   1.254   2.674   5.218 -0.5952 -0.6818 -0.1517
 3061SOL    HW120642   1.240   2.581   5.235 -0.0604 -0.6305  0.5796
 3061SOL    HW220643   1.170   2.702   5.183  0.2488 -0.0763 -1.7160
 3062SOL     OW20644   4.698   0.029   2.962  0.0593 -0.5194  0.2979
 3062SOL    HW120645   4.627   4.695   2.989 -1.4467  1.3288  0.2600
 3062SOL    HW220646   0.048   4.705   3.000  1.4997  1.8094  0.4750
 3063SOL     OW20647   3.067   2.955   7.390  0.3539 -0.0631 -0.0696
 3063SOL    HW120648   3.029   2.970   7.476  0.6153  0.2130 -0.0042
 3063SOL    HW220649   3.126   3.030   7.383  1.5938 -0.9894  0.4320
 3064SOL     OW20650   2.452   4.695   1.044  0.2321 -0.5317 -0.2421
 3064SOL    HW120651   2.502   4.702   0.963 -1.0222 -2.5256 -1.1804
 3064SOL    HW220652   2.390   4.626   1.022 -0.6163  0.1221  0.0964
 3065SOL     OW20653   0.171   0.472   2.881  0.4800 -0.4239 -0.1388
 3065SOL    HW120654   0.101   0.422   2.922  2.1276 -2.2180  0.5360
 3065SOL    HW220655   0.214   0.390   2.856  0.4265 -1.4665  3.1718
 3066SOL     OW20656   3.235   2.326   4.090 -0.0894 -0.7459 -0.2408
 3066SOL    HW120657   3.304   2.389   4.110  1.5387 -2.3849 -0.6858
 3066SOL    HW220658   3.177   2.326   4.167  0.4379  2.2929  0.1349
 3067SOL     OW20659   2.598   2.188   7.530 -0.1856 -0.0499  0.2143
 3067SOL    HW120660   2.539   2.170   7.456  2.2927  2.1109 -2.3233
 3067SOL    HW220661   2.606   2.283   7.520  0.5291 -0.1038  0.3007
 3068SOL     OW20662   3.156   4.385   0.599  0.2050 -0.1129 -0.0267
 3068SOL    HW120663   3.120   4.406   0.513 -1.3938  1.9281  1.1364
 3068SOL    HW220664   3.230   4.446   0.602 -1.1562  1.5893 -1.4606
 3069SOL     OW20665   0.206   4.260   4.398  0.0086 -0.1279 -0.2045
 3069SOL    HW120666   0.167   4.185   4.353 -1.6465  0.7761 -0.3067
 3069SOL    HW220667   0.261   4.304   4.333  0.9476  0.1479  0.7859
 3070SOL     OW20668   1.875   3.419   7.308  0.2945  0.2321 -0.2461
 3070SOL    HW120669   1.828   3.499   7.284 -0.8441 -0.1970  0.5416
 3070SOL    HW220670   1.963   3.457   7.315  0.5417 -0.4410  0.2222
 3071SOL     OW20671   4.335   1.672   7.168  0.3778 -0.4583  0.1184
 3071SOL    HW120672   4.364   1.593   7.216  0.4868 -2.2573 -2.9200
 3071SOL    HW220673   4.255   1.647   7.123 -0.1833  0.4835  0.5925
 3072SOL     OW20674   4.580   3.774   8.454 -0.2302 -0.1852  0.2048
 3072SOL    HW120675   4.574   3.685   8.489  2.5626 -1.0613 -1.5709
 3072SOL    HW220676   4.487   3.796   8.459 -0.1939  0.3541 -1.2409
 3073SOL     OW20677   1.751   0.434   6.134  0.4277  0.1186  0.5376
 3073SOL    HW120678   1.721   0.344   6.124  0.4925  0.0759  0.7387
 3073SOL    HW220679   1.838   0.406   6.160 -0.7549 -3.0368  1.1047
 3074SOL     OW20680   1.153   1.412   2.558  0.0162 -0.6276 -0.1012
 3074SOL    HW120681   1.134   1.351   2.630  2.3257 -0.9330  0.2407
 3074SOL    HW220682   1.099   1.366   2.493 -0.8896  1.0224 -0.5243
 3075SOL     OW20683   2.997   3.170  16.553 -0.5087  0.2457  0.0828
 3075SOL    HW120684   3.040   3.215  16.626 -0.6480 -1.2136  1.0648
 3075SOL    HW220685   2.912   3.159  16.594 -0.0399 -0.4248  0.8691
 3076SOL     OW20686   1.704   1.170  15.742 -0.4752  0.3628  0.4316
 3076SOL    HW120687   1.699   1.183  15.837  1.3802  0.9840  0.4518
 3076SOL    HW220688   1.611   1.186  15.729 -0.7053 -0.3769  1.1597
 3077SOL     OW20689   2.005   4.148   7.227 -0.1486  0.1249 -0.0171
 3077SOL    HW120690   1.933   4.130   7.166  0.0952 -2.0222  0.3174
 3077SOL    HW220691   2.030   4.238   7.206  0.2647  0.3895  1.6583
 3078SOL     OW20692   1.851   1.820   2.955 -0.0214 -0.1973  0.3715
 3078SOL    HW120693   1.923   1.758   2.968 -0.0921 -0.3352  0.1057
 3078SOL    HW220694   1.893   1.901   2.984  1.8105 -0.3825 -1.7625
 3079SOL     OW20695   2.342   2.888   5.112  0.3853  0.2197  0.1266
 3079SOL    HW120696   2.277   2.869   5.179 -0.4615  0.1758 -0.7048
 3079SOL    HW220697   2.397   2.811   5.127 -1.1283 -1.2229 -1.6323
 3080SOL     OW20698   1.041   0.865   0.247  1.0555 -0.0362 -0.4644
 3080SOL    HW120699   0.973   0.894   0.187 -0.1549  0.8085  1.2994
 3080SOL    HW220700   1.028   0.771   0.249  0.5170  0.0379 -0.5391
 3081SOL     OW20701   0.874   3.911   3.785  0.6274  0.2392  0.1888
 3081SOL    HW120702   0.892   3.833   3.731 -0.0075  1.9324 -2.4785
 3081SOL    HW220703   0.841   3.972   3.719  0.0659 -0.1195  0.1347
 3082SOL     OW20704   3.124   1.949   2.890  0.4812 -0.3717  0.2490
 3082SOL    HW120705   3.211   1.941   2.850  0.3140  1.3540 -0.4810
 3082SOL    HW220706   3.141   1.995   2.972  0.4725 -0.3770  0.2538
 3083SOL     OW20707   4.002   4.484   3.251 -0.6704 -0.1874  0.3161
 3083SOL    HW120708   3.985   4.473   3.157 -0.1417 -0.4554  0.2524
 3083SOL    HW220709   3.917   4.467   3.293 -0.9667  1.6466  0.4812
 3084SOL     OW20710   0.645   4.101   4.314 -0.1731 -0.0260  0.4524
 3084SOL    HW120711   0.597   4.140   4.240  1.6177  0.0801 -0.6434
 3084SOL    HW220712   0.585   4.026   4.317 -1.1873  0.8167  1.3584
 3085SOL     OW20713   3.539   1.724   8.473  0.2005  0.5648  0.3414
 3085SOL    HW120714   3.445   1.707   8.471  0.0726  1.3685 -0.7124
 3085SOL    HW220715   3.557   1.774   8.552  1.2190 -0.8503  0.9906
 3086SOL     OW20716   1.621   3.821   8.281 -0.1354  0.4342 -0.3871
 3086SOL    HW120717   1.606   3.733   8.246  0.4335  0.2458 -0.1602
 3086SOL    HW220718   1.563   3.820   8.357 -2.8749  0.9644 -2.5121
 3087SOL     OW20719   0.001   2.405   7.527 -0.2229  0.1725 -0.4813
 3087SOL    HW120720   0.082   2.371   7.488 -0.4029 -0.4844 -0.2944
 3087SOL    HW220721   4.652   2.356   7.491 -0.4071 -0.0063  0.1401
 3088SOL     OW20722   3.147   3.626   6.367 -0.0627  0.0299  0.2977
 3088SOL    HW120723   3.064   3.624   6.320  0.4720  1.2145 -0.6877
 3088SOL    HW220724   3.144   3.537   6.401 -0.7160  0.9434  2.5819
 3089SOL     OW20725   1.166   1.312  11.952  0.4754  0.1916 -0.0134
 3089SOL    HW120726   1.124   1.360  11.882  1.3031 -4.1782 -3.5026
 3089SOL    HW220727   1.253   1.301  11.914  0.8103  0.2362  0.7425
 3090SOL     OW20728   2.885   3.061   4.992 -0.4095 -1.1203 -0.2162
 3090SOL    HW120729   2.960   3.069   5.051 -0.9826  0.6816  0.2961
 3090SOL    HW220730   2.808   3.095   5.039 -0.0379  1.9336 -1.7897
 3091SOL     OW20731   3.501   3.295   3.470  0.0607 -0.2480 -0.1279
 3091SOL    HW120732   3.575   3.278   3.529 -1.4212  0.9320  2.0357
 3091SOL    HW220733   3.499   3.214   3.420 -1.2616 -0.7365  0.7199
 3092SOL     OW20734   0.337   3.950   3.238 -0.1378  0.0373  0.1804
 3092SOL    HW120735   0.422   3.920   3.206  1.2836  3.0938  1.1693
 3092SOL    HW220736   0.334   4.044   3.219 -1.1322 -0.0380 -0.0522
 3093SOL     OW20737   3.301   1.646   7.547 -0.1391  0.5969 -0.4163
 3093SOL    HW120738   3.249   1.656   7.468  0.7631  1.2989 -0.9160
 3093SOL    HW220739   3.242   1.593   7.601  0.8337 -2.4296 -2.3371
 3094SOL     OW20740   0.215   2.869  12.488  0.4190 -0.0893 -0.3657
 3094SOL    HW120741   0.238   2.855  12.397 -1.1974 -0.7806 -0.6573
 3094SOL    HW220742   0.188   2.788  12.532  0.6130  0.4733  0.8129
 3095SOL     OW20743   0.276   2.874  12.136 -0.7406 -0.0291 -0.1728
 3095SOL    HW120744   0.353   2.858  12.191 -1.4001 -1.0075  0.4642
 3095SOL    HW220745   0.254   2.966  12.152  2.2680  0.0896  3.2658
 3096SOL     OW20746   3.083   0.053   2.329 -0.1174  0.7949 -0.0554
 3096SOL    HW120747   3.007   0.109   2.315  0.2901  0.9469 -1.5709
 3096SOL    HW220748   3.065   0.006   2.411  1.8310  1.0320  0.5178
 3097SOL     OW20749   1.961   0.912   5.769 -0.4278 -0.2808  0.1011
 3097SOL    HW120750   1.920   0.997   5.781 -2.5148 -1.1854 -0.5453
 3097SOL    HW220751   2.018   0.917   5.846  0.2264 -1.5125 -0.2955
 3098SOL     OW20752   2.172   1.226   7.584  0.0947  0.1105  0.0054
 3098SOL    HW120753   2.116   1.192   7.653  0.7496  0.0136  0.4862
 3098SOL    HW220754   2.103   1.274   7.538  0.0820 -0.0800 -0.1743
 3099SOL     OW20755   1.542   2.390  13.944  0.1614 -0.6372  0.5512
 3099SOL    HW120756   1.563   2.429  14.028 -1.2969  3.4751 -0.9875
 3099SOL    HW220757   1.458   2.351  13.971 -1.2318  0.4403 -2.2628
 3100SOL     OW20758   0.840   1.549   5.022  0.4569  0.2733  0.4276
 3100SOL    HW120759   0.891   1.530   4.944 -1.3790 -1.0603 -0.4314
 3100SOL    HW220760   0.756   1.579   4.988 -1.3483 -4.4164  0.7331
 3101SOL     OW20761   0.354   0.104  13.853 -0.4530 -0.1660 -0.3461
 3101SOL    HW120762   0.293   0.030  13.861 -2.5158  1.3819 -1.5114
 3101SOL    HW220763   0.434   0.059  13.826  0.3600  0.1953  1.5051
 3102SOL     OW20764   3.430   3.327  17.049  0.0305  0.4983  0.2870
 3102SOL    HW120765   3.475   3.284  17.122  0.3792 -0.6750 -0.6279
 3102SOL    HW220766   3.451   3.269  16.976  0.6382  1.6167 -0.4458
 3103SOL     OW20767   0.549   0.506  14.134 -0.1458  0.1191  0.6354
 3103SOL    HW120768   0.627   0.501  14.190 -1.3187  0.0061  2.2705
 3103SOL    HW220769   0.536   0.412  14.117 -1.4118  0.7611 -1.8512
 3104SOL     OW20770   0.403   0.178  15.258 -0.5309 -0.0984 -0.0180
 3104SOL    HW120771   0.488   0.153  15.221 -1.9085 -0.8112 -2.6584
 3104SOL    HW220772   0.363   0.096  15.287 -2.2980  0.9648  0.5184
 3105SOL     OW20773   2.102   0.867   7.583 -0.1726  0.0904 -0.0362
 3105SOL    HW120774   2.114   0.911   7.667  0.0476 -1.0957  0.5616
 3105SOL    HW220775   2.188   0.881   7.544 -0.4724 -1.4778 -1.2745
 3106SOL     OW20776   4.278   0.472   4.425 -0.7947 -0.0068  0.5682
 3106SOL    HW120777   4.295   0.563   4.451 -2.1947  0.2243  0.6426
 3106SOL    HW220778   4.229   0.495   4.346 -0.0202 -0.7401 -0.1316
 3107SOL     OW20779   4.677   4.108   7.568  0.3549 -0.3438  0.0532
 3107SOL    HW120780   4.669   4.090   7.662  0.4070  0.0906  0.1425
 3107SOL    HW220781   4.602   4.062   7.532  0.3617 -1.1723  1.0730
 3108SOL     OW20782   3.778   3.233   6.241  0.5088  0.1980  0.0214
 3108SOL    HW120783   3.838   3.159   6.234 -1.3639 -1.4122  1.0266
 3108SOL    HW220784   3.798   3.270   6.327  1.0347  1.0306 -0.4554
 3109SOL     OW20785   0.987   1.824   3.945  0.0917  0.5453 -0.2145
 3109SOL    HW120786   0.923   1.895   3.955 -0.2305 -0.1539  2.6415
 3109SOL    HW220787   0.957   1.790   3.861  1.4517 -0.6028 -0.2298
 3110SOL     OW20788   2.628   2.932   9.728  0.2857  0.8087 -0.5084
 3110SOL    HW120789   2.719   2.950   9.705  0.6215  1.5377  1.3649
 3110SOL    HW220790   2.635   2.897   9.817  0.6346  1.1591 -0.3975
 3111SOL     OW20791   0.183   2.331   9.946  0.0296  0.4910 -0.0941
 3111SOL    HW120792   0.277   2.347   9.952  0.3117 -1.0383 -0.4035
 3111SOL    HW220793   0.180   2.246   9.991  0.5755 -0.2658 -1.4908
 3112SOL     OW20794   0.682   2.496   7.825 -0.3658 -0.2078 -0.3265
 3112SOL    HW120795   0.748   2.431   7.850 -0.4112 -0.5163 -0.9976
 3112SOL    HW220796   0.629   2.447   7.762  1.7819 -0.9007 -1.5788
 3113SOL     OW20797   3.562   2.680  17.509  0.0445  0.4451 -0.4370
 3113SOL    HW120798   3.504   2.607  17.488  2.2439 -0.6841 -2.6257
 3113SOL    HW220799   3.614   2.640  17.578  0.1277  1.0890 -0.1293
 3114SOL     OW20800   1.896   1.970   3.761  0.0526  0.2250 -0.5033
 3114SOL    HW120801   1.983   1.948   3.795 -0.0037  1.2820  0.3148
 3114SOL    HW220802   1.867   2.007   3.845  0.4663 -1.2733  0.2908
 3115SOL     OW20803   3.812   0.423   2.396 -0.4379  0.2392 -0.0802
 3115SOL    HW120804   3.783   0.378   2.474 -2.3301  1.2002 -0.2298
 3115SOL    HW220805   3.727   0.433   2.352 -0.7068  0.8113  0.5810
 3116SOL     OW20806   2.255   0.611  14.242 -0.3018 -0.2992 -0.4476
 3116SOL    HW120807   2.198   0.620  14.318 -0.3725  0.9937 -0.6491
 3116SOL    HW220808   2.200   0.628  14.165 -0.9676  0.8241  0.2767
 3117SOL     OW20809   0.276   3.402   9.680  0.7553 -0.2013 -0.0465
 3117SOL    HW120810   0.306   3.467   9.616 -0.6473 -0.6620 -1.1653
 3117SOL    HW220811   0.190   3.393   9.639  0.3354  0.6788  0.6304
 3118SOL     OW20812   3.977   3.646   1.294 -0.1466 -0.4798 -0.1296
 3118SOL    HW120813   4.034   3.650   1.371 -0.1397  0.7621 -0.1920
 3118SOL    HW220814   4.039   3.675   1.227 -1.0633  0.5462 -0.5264
 3119SOL     OW20815   1.127   4.520   2.510  0.2484  0.3300  0.1428
 3119SOL    HW120816   1.160   4.580   2.577  2.5485 -0.2414 -0.4996
 3119SOL    HW220817   1.037   4.552   2.502  0.6522  1.6580  0.9042
 3120SOL     OW20818   2.281   2.346  13.303  0.2332  0.9483 -0.6566
 3120SOL    HW120819   2.218   2.353  13.231 -0.1654 -0.2579 -0.4313
 3120SOL    HW220820   2.239   2.271  13.345  0.6145  0.7935 -0.5544
 3121SOL     OW20821   1.135   4.344   5.554 -0.0964 -0.5226  0.7561
 3121SOL    HW120822   1.166   4.434   5.556 -0.1806 -0.5090  1.4844
 3121SOL    HW220823   1.218   4.303   5.578  0.2483  1.4146  2.8173
 3122SOL     OW20824   1.702   1.507   3.435  0.2326  0.6017  1.1593
 3122SOL    HW120825   1.613   1.517   3.400  1.3837  1.1786 -1.6852
 3122SOL    HW220826   1.747   1.578   3.388  0.8177 -1.6064 -1.6438
 3123SOL     OW20827   1.716   2.419   3.876  0.0490  0.6533 -0.4516
 3123SOL    HW120828   1.719   2.475   3.953 -0.4705 -1.0494  0.8218
 3123SOL    HW220829   1.673   2.471   3.808  0.4152 -0.7383 -1.7497
 3124SOL     OW20830   3.447   1.768  10.984  0.1635  0.2329  0.4291
 3124SOL    HW120831   3.440   1.780  10.890 -2.9996  1.0795  0.7646
 3124SOL    HW220832   3.527   1.820  10.994  0.2966  0.2092 -0.4957
 3125SOL     OW20833   1.046   3.262   5.977  0.3723  0.6313  0.2811
 3125SOL    HW120834   1.011   3.345   6.009 -2.1519 -0.7263  1.0515
 3125SOL    HW220835   0.962   3.222   5.954  0.9232 -0.4646  0.1796
 3126SOL     OW20836   1.657   2.768  13.062 -0.2530  0.1341 -0.1407
 3126SOL    HW120837   1.583   2.777  13.123  0.7849 -0.1240  1.1517
 3126SOL    HW220838   1.629   2.693  13.010 -1.0896  0.3172  0.0397
 3127SOL     OW20839   3.782   0.047   6.986 -0.6168  0.1900 -0.5502
 3127SOL    HW120840   3.864   0.088   7.010 -1.1057  0.6824  0.2909
 3127SOL    HW220841   3.754   0.092   6.906 -1.3592  0.5039 -0.1143
 3128SOL     OW20842   4.026   0.137   6.560 -1.1763 -0.5060 -0.1782
 3128SOL    HW120843   3.948   0.193   6.566 -1.0768 -0.4936  1.0022
 3128SOL    HW220844   4.016   0.065   6.622  0.0188  0.1844  0.8196
 3129SOL     OW20845   2.851   2.077   7.491  0.2098 -0.2788  0.0671
 3129SOL    HW120846   2.771   2.124   7.513 -0.7020 -0.3599 -3.0840
 3129SOL    HW220847   2.896   2.068   7.575  1.4114 -0.3924 -0.5935
 3130SOL     OW20848   1.451   3.127  12.134 -0.0063  0.5964 -0.0722
 3130SOL    HW120849   1.403   3.070  12.074 -0.7844 -0.2271  1.3311
 3130SOL    HW220850   1.402   3.209  12.124  0.7645  1.0287 -0.3026
 3131SOL     OW20851   0.020   3.596  10.284  0.1582 -0.2753  0.1756
 3131SOL    HW120852   0.063   3.527  10.335 -0.1362 -0.7362 -0.2086
 3131SOL    HW220853   4.719   3.556  10.201  2.5972 -0.1767 -0.6050
 3132SOL     OW20854   1.570   4.069   0.813 -0.2317  0.3149  0.2603
 3132SOL    HW120855   1.594   3.986   0.854  0.1560  0.3786  0.1575
 3132SOL    HW220856   1.536   4.030   0.733  0.0198  2.9556 -1.1197
 3133SOL     OW20857   4.541   2.840  12.295 -0.6241 -0.0460 -0.3317
 3133SOL    HW120858   4.597   2.868  12.222 -0.8756 -0.0315 -0.5201
 3133SOL    HW220859   4.584   2.758  12.318 -1.9204 -0.8973 -0.9241
 3134SOL     OW20860   2.255   2.064   0.737 -0.4877  0.2575  0.5066
 3134SOL    HW120861   2.174   2.045   0.783 -0.1946  1.0642  1.3881
 3134SOL    HW220862   2.300   1.980   0.736  1.7330  1.4343  0.3138
 3135SOL     OW20863   3.239   1.055   9.953 -0.5424  0.3336  0.1361
 3135SOL    HW120864   3.275   1.074  10.040 -0.2731  2.4947 -0.4367
 3135SOL    HW220865   3.285   0.974   9.930  1.4947  0.9995  1.7923
 3136SOL     OW20866   2.652   2.654   7.618  0.3750 -0.0905  0.0109
 3136SOL    HW120867   2.627   2.638   7.527 -2.9676  3.3703  0.3126
 3136SOL    HW220868   2.733   2.604   7.626 -0.8573 -1.4032  4.0868
 3137SOL     OW20869   2.064   3.653   8.830 -0.1856  0.5462  0.2691
 3137SOL    HW120870   2.157   3.641   8.811 -0.1877  2.3869 -0.9335
 3137SOL    HW220871   2.028   3.565   8.845  0.0172  0.6331  1.2436
 3138SOL     OW20872   2.811   4.288   0.571  0.0207 -0.4164 -0.0129
 3138SOL    HW120873   2.858   4.287   0.654 -1.3479  0.5641  0.7718
 3138SOL    HW220874   2.839   4.206   0.531 -0.7742 -0.1604 -1.1096
 3139SOL     OW20875   1.386   3.061  10.620  0.0757  0.0600 -0.0480
 3139SOL    HW120876   1.432   3.008  10.686  1.1159 -2.5996 -2.8900
 3139SOL    HW220877   1.330   2.992  10.583 -2.2193  2.1310 -0.4036
 3140SOL     OW20878   2.032   3.388   8.864 -0.4697  0.1272 -0.0483
 3140SOL    HW120879   1.962   3.349   8.810 -1.4501 -0.5154  1.6804
 3140SOL    HW220880   1.991   3.385   8.950 -0.7336 -0.7317 -0.2030
 3141SOL     OW20881   2.933   3.092   8.943  0.2215  0.6067  1.0862
 3141SOL    HW120882   2.916   3.165   8.883 -0.7780  1.1547  2.0329
 3141SOL    HW220883   2.902   3.130   9.026 -0.1443  0.4469  1.0206
 3142SOL     OW20884   3.078   0.532  14.462 -0.3382  0.2780 -0.3687
 3142SOL    HW120885   3.083   0.465  14.393 -0.8950 -0.7384  0.5770
 3142SOL    HW220886   3.097   0.608  14.407 -0.4994 -0.5593 -1.5964
 3143SOL     OW20887   1.566   2.482  17.615  0.2282 -0.4166 -0.3286
 3143SOL    HW120888   1.635   2.521  17.562 -0.4581 -0.1549 -1.0219
 3143SOL    HW220889   1.493   2.535  17.582  0.3760 -0.1938 -0.3033
 3144SOL     OW20890   3.329   0.725   2.865  0.0287 -0.1796 -0.0454
 3144SOL    HW120891   3.423   0.743   2.861  0.2158 -0.9549  0.8158
 3144SOL    HW220892   3.330   0.629   2.860  0.3898 -0.1044 -1.6526
 3145SOL     OW20893   3.433   1.767  10.435  0.3803  0.0019  0.8090
 3145SOL    HW120894   3.383   1.787  10.356  1.0036  2.1948  0.9832
 3145SOL    HW220895   3.366   1.779  10.501  0.0210 -0.6135  0.5542
 3146SOL     OW20896   4.274   4.323   5.802 -0.0112  0.5135 -0.2317
 3146SOL    HW120897   4.252   4.354   5.889 -0.7285 -2.0726  0.5061
 3146SOL    HW220898   4.271   4.230   5.824  1.4492  0.5981  0.3141
 3147SOL     OW20899   2.792   1.608  11.609  0.1905 -0.1081 -0.0629
 3147SOL    HW120900   2.817   1.681  11.666  1.6345 -1.9376  1.6197
 3147SOL    HW220901   2.874   1.584  11.566  1.1024 -1.6411  2.4909
 3148SOL     OW20902   3.285   3.077  15.149 -0.1350 -0.1186 -0.4776
 3148SOL    HW120903   3.199   3.100  15.184  0.1228 -1.8697  1.3056
 3148SOL    HW220904   3.283   2.987  15.181  0.0487  0.4688  1.1837
 3149SOL     OW20905   0.859   1.962   7.472  0.0573 -0.2296 -0.1644
 3149SOL    HW120906   0.837   2.051   7.443  1.8059 -0.1764 -1.3554
 3149SOL    HW220907   0.954   1.957   7.461 -0.1340 -2.3994 -0.7858
 3150SOL     OW20908   2.185   3.554   4.835  0.6811 -0.2022  0.2814
 3150SOL    HW120909   2.154   3.463   4.834  0.1801 -0.0180 -0.5048
 3150SOL    HW220910   2.276   3.551   4.806  0.3341  1.3477 -0.9317
 3151SOL     OW20911   3.111   1.425   4.590 -0.0021  0.2585 -0.0869
 3151SOL    HW120912   3.074   1.513   4.587  0.1348  0.3384  0.6017
 3151SOL    HW220913   3.085   1.417   4.681  2.6563 -0.3779  0.6246
 3152SOL     OW20914   2.362   3.424   2.580  0.5045  0.0444 -0.3405
 3152SOL    HW120915   2.427   3.419   2.510  2.0688  5.1175  0.7742
 3152SOL    HW220916   2.402   3.490   2.636 -0.0552  1.2016 -1.3204
 3153SOL     OW20917   3.269   1.385  12.463  0.5067  0.2045  0.3982
 3153SOL    HW120918   3.240   1.313  12.519 -0.5720 -0.6659 -1.2545
 3153SOL    HW220919   3.339   1.341  12.414  0.7625 -1.0270  1.8747
 3154SOL     OW20920   3.470   2.135   6.141 -0.2244  0.0936 -0.2833
 3154SOL    HW120921   3.407   2.113   6.210  0.7399 -1.9965 -0.0800
 3154SOL    HW220922   3.551   2.154   6.188 -0.6753 -2.4845  1.5373
 3155SOL     OW20923   0.846   0.020   9.078 -0.1825 -0.0712  0.1354
 3155SOL    HW120924   0.870   4.652   9.084 -2.8543 -0.8435 -0.9504
 3155SOL    HW220925   0.767   0.008   9.025  0.9414 -0.1637 -1.5356
 3156SOL     OW20926   2.928   2.457   6.118  0.0717  0.6391  0.0692
 3156SOL    HW120927   2.981   2.430   6.043  1.0988  1.4131  0.5073
 3156SOL    HW220928   2.995   2.496   6.174  0.3747  0.8556 -0.4459
 3157SOL     OW20929   3.377   3.026   5.971 -0.4263 -0.4588 -0.0169
 3157SOL    HW120930   3.396   2.954   6.030 -0.3672 -1.7889 -1.6682
 3157SOL    HW220931   3.320   2.990   5.903 -1.1991 -0.4115  0.6003
 3158SOL     OW20932   2.039   2.196   2.472  0.0474 -0.1291  0.1239
 3158SOL    HW120933   1.993   2.117   2.444 -0.2503  0.9764 -2.5084
 3158SOL    HW220934   1.998   2.211   2.558  0.6379  0.0252  0.3776
 3159SOL     OW20935   0.206   3.487   4.228  0.2893 -0.8196 -0.4919
 3159SOL    HW120936   0.149   3.441   4.289  0.6573 -0.4433  0.1271
 3159SOL    HW220937   0.146   3.508   4.156  0.6527  0.5761 -0.3929
 3160SOL     OW20938   0.221   0.834  13.306  0.5703  0.6952 -0.4415
 3160SOL    HW120939   0.199   0.798  13.220  3.5847 -1.0897 -0.4705
 3160SOL    HW220940   0.227   0.929  13.297 -1.2824  1.0475  2.0247
 3161SOL     OW20941   3.614   2.557   9.406  0.4416 -0.1252 -0.2039
 3161SOL    HW120942   3.520   2.573   9.398  0.1790 -0.6514  1.8381
 3161SOL    HW220943   3.613   2.529   9.497 -1.3620  0.1205 -0.1362
 3162SOL     OW20944   2.797   0.412   8.288  0.3110  0.1464 -0.1662
 3162SOL    HW120945   2.819   0.484   8.347  0.8259 -0.9610  0.9875
 3162SOL    HW220946   2.705   0.432   8.271 -0.0087 -1.6168 -0.5176
 3163SOL     OW20947   2.881   0.196   2.209  0.3355 -0.8132  0.2201
 3163SOL    HW120948   2.921   0.159   2.130  0.7357 -2.2502  1.0929
 3163SOL    HW220949   2.795   0.154   2.200 -1.4187  2.5190  1.4138
 3164SOL     OW20950   1.385   1.410  15.847 -0.0243  0.2411  0.2245
 3164SOL    HW120951   1.417   1.391  15.936 -2.4881  2.1565  1.5194
 3164SOL    HW220952   1.442   1.481  15.817  1.3304 -0.6210  0.7618
 3165SOL     OW20953   3.066   3.313  16.077 -0.6361  0.4031 -0.0105
 3165SOL    HW120954   3.045   3.235  16.026  0.5483 -0.2513  0.5103
 3165SOL    HW220955   3.104   3.380  16.020  2.3191  0.6043  2.1824
 3166SOL     OW20956   2.906   2.072   4.138  0.5004  0.3811  0.7761
 3166SOL    HW120957   2.995   2.039   4.148  0.4486 -0.2258 -0.7496
 3166SOL    HW220958   2.884   2.079   4.231  2.9359 -0.3932  1.3961
 3167SOL     OW20959   4.038   0.269   7.309  0.1046  0.1428  0.1603
 3167SOL    HW120960   4.108   0.244   7.369  0.1010 -0.2642 -0.0043
 3167SOL    HW220961   3.967   0.282   7.372 -2.0296  0.2504 -2.2527
 3168SOL     OW20962   2.587   3.718   5.030  0.4921 -0.0970  0.0793
 3168SOL    HW120963   2.604   3.783   4.962 -1.3908 -0.2839 -0.5834
 3168SOL    HW220964   2.581   3.777   5.105 -3.2715 -1.2073  0.6551
 3169SOL     OW20965   3.093   2.531  11.150  0.3921  0.1560 -0.2995
 3169SOL    HW120966   3.005   2.494  11.143  0.7654 -1.1036  1.8844
 3169SOL    HW220967   3.115   2.531  11.057  0.8386  2.6728 -0.2084
 3170SOL     OW20968   2.974   0.928  10.662  0.0506  0.2200  0.4506
 3170SOL    HW120969   2.963   0.947  10.755 -0.3827  0.7664  0.2859
 3170SOL    HW220970   2.881   0.930  10.639  0.3439 -0.9663 -0.8502
 3171SOL     OW20971   0.640   2.534   4.875 -0.2325 -0.2266 -0.0062
 3171SOL    HW120972   0.678   2.469   4.816 -0.1055 -0.0845 -0.0828
 3171SOL    HW220973   0.558   2.489   4.895 -0.9139  1.5459  1.1942
 3172SOL     OW20974   1.408   0.341  12.516  0.0461 -0.5834  0.0263
 3172SOL    HW120975   1.362   0.375  12.592 -1.7174 -0.4203 -1.1158
 3172SOL    HW220976   1.345   0.361  12.447 -0.0470  3.3915  1.2851
 3173SOL     OW20977   1.153   4.158   0.677  0.3962 -0.1702 -0.1991
 3173SOL    HW120978   1.118   4.076   0.643 -0.3304  0.3429 -0.7045
 3173SOL    HW220979   1.065   4.195   0.680 -0.0540 -1.0952 -1.8749
 3174SOL     OW20980   1.445   0.436   4.436 -0.1449  0.0241 -0.3894
 3174SOL    HW120981   1.534   0.417   4.408  0.3809  4.7907 -1.8393
 3174SOL    HW220982   1.448   0.495   4.511  2.2249 -1.9456  1.0656
 3175SOL     OW20983   2.456   0.364   4.533 -0.1106 -0.2132 -0.2194
 3175SOL    HW120984   2.545   0.396   4.520 -0.4059  2.3744  4.2866
 3175SOL    HW220985   2.410   0.404   4.458 -0.3061  0.1909  0.1167
 3176SOL     OW20986   1.683   0.585   0.313 -0.0825 -0.5592 -0.5440
 3176SOL    HW120987   1.670   0.586   0.218  0.7243  0.1701 -0.6399
 3176SOL    HW220988   1.595   0.611   0.341  0.2733 -1.7213  1.6249
 3177SOL     OW20989   4.713   4.647   7.101 -0.2883 -0.2252  0.1954
 3177SOL    HW120990   0.055   4.651   7.170 -0.9342  2.1030  0.6818
 3177SOL    HW220991   0.020   4.566   7.061  0.9229  1.4411 -2.2109
 3178SOL     OW20992   2.995   4.040   4.979  0.2118 -0.1940  0.2530
 3178SOL    HW120993   2.932   4.043   4.907  0.9031 -0.7329 -0.3755
 3178SOL    HW220994   3.000   3.948   5.006 -1.3550  0.0968  1.4917
 3179SOL     OW20995   3.297   3.984   9.656 -0.4947  0.5954  0.2210
 3179SOL    HW120996   3.269   4.047   9.724 -2.6561 -0.2363  0.0952
 3179SOL    HW220997   3.220   3.928   9.663 -0.2472  0.0490 -1.6121
 3180SOL     OW20998   2.749   2.483   6.467 -0.0464  0.0917 -0.0896
 3180SOL    HW120999   2.725   2.550   6.532  1.3657 -1.2008  1.7750
 3180SOL    HW221000   2.822   2.448   6.518 -0.4723 -0.0429  0.4321
 3181SOL     OW21001   3.676   0.260   2.008 -0.5054  0.5265 -0.5076
 3181SOL    HW121002   3.640   0.176   2.038  0.5094 -0.9280 -3.3183
 3181SOL    HW221003   3.600   0.315   2.024 -1.4224 -1.0907  0.6985
 3182SOL     OW21004   0.610   3.078   5.098  0.2715 -0.0444  0.4513
 3182SOL    HW121005   0.521   3.091   5.131 -0.0108  0.8484 -0.6670
 3182SOL    HW221006   0.632   3.170   5.082 -0.4595 -0.3400 -2.3074
 3183SOL     OW21007   2.689   0.038  15.929  0.4092  0.1391  0.0174
 3183SOL    HW121008   2.730   4.712  15.858  1.9776  1.6960 -0.1650
 3183SOL    HW221009   2.754   0.107  15.938 -0.4946  1.0877 -0.5909
 3184SOL     OW21010   4.284   2.152   3.628 -0.3478  0.7063 -0.2347
 3184SOL    HW121011   4.264   2.217   3.695  1.6024  1.4004 -0.3057
 3184SOL    HW221012   4.377   2.171   3.616  0.3476 -2.7973 -0.6129
 3185SOL     OW21013   0.880   4.293   0.632 -0.1571  0.9446  0.2164
 3185SOL    HW121014   0.822   4.281   0.557  0.2634  0.1264  0.0266
 3185SOL    HW221015   0.821   4.344   0.688  2.3471  3.1323  0.8421
 3186SOL     OW21016   3.570   3.839  17.240 -0.4012 -0.0053  0.1874
 3186SOL    HW121017   3.476   3.837  17.258 -0.0146 -0.4291  2.1642
 3186SOL    HW221018   3.578   3.779  17.166 -1.3985 -1.6687  1.4583
 3187SOL     OW21019   2.674   2.272   5.835  0.5154  0.2447 -0.2490
 3187SOL    HW121020   2.769   2.283   5.840  0.3816  1.2377  0.1056
 3187SOL    HW221021   2.664   2.203   5.770  0.9030 -0.7734  0.7905
 3188SOL     OW21022   0.450   2.302   3.328 -0.1126 -0.2210  0.0107
 3188SOL    HW121023   0.540   2.273   3.311 -0.3975 -0.8168 -0.4845
 3188SOL    HW221024   0.415   2.300   3.239  0.3065  1.5964 -0.1833
 3189SOL     OW21025   1.238   1.075   0.216 -0.1295  0.1304  0.2930
 3189SOL    HW121026   1.207   1.083   0.306 -0.2056  0.3767  0.2469
 3189SOL    HW221027   1.199   0.990   0.197  0.7276 -0.0771 -0.5465
 3190SOL     OW21028   4.063   1.022  10.457 -0.1767 -0.2284 -0.2377
 3190SOL    HW121029   4.118   0.987  10.387  0.3626 -0.6584  0.3984
 3190SOL    HW221030   4.020   0.943  10.487  0.9540 -1.7599 -2.6608
 3191SOL     OW21031   3.720   3.308   8.686  0.8876  0.0059 -1.2023
 3191SOL    HW121032   3.657   3.245   8.650  1.3985 -1.0730 -0.2092
 3191SOL    HW221033   3.663   3.383   8.698  0.1027 -0.7526 -0.1351
 3192SOL     OW21034   4.502   4.446   7.088 -0.1617 -0.2760  0.1625
 3192SOL    HW121035   4.515   4.537   7.115  0.9828 -0.7879  1.3191
 3192SOL    HW221036   4.530   4.457   6.997  0.5426  0.2650  0.4514
 3193SOL     OW21037   2.325   1.125  10.002 -0.4597  0.3584 -0.0151
 3193SOL    HW121038   2.290   1.072  10.075  1.7518  0.5926  1.2106
 3193SOL    HW221039   2.345   1.056   9.938  1.0734 -0.2927  1.1525
 3194SOL     OW21040   2.622   1.542  10.317 -0.6596  0.4692  0.1168
 3194SOL    HW121041   2.691   1.608  10.327 -1.7601  1.2884  2.1355
 3194SOL    HW221042   2.566   1.549  10.394 -2.2543  0.7837 -1.0664
 3195SOL     OW21043   4.040   4.145  16.340 -0.4441  1.2301 -0.0584
 3195SOL    HW121044   4.118   4.122  16.289 -0.7972 -0.1780  0.0172
 3195SOL    HW221045   4.053   4.101  16.424 -0.8640 -0.1908 -0.7184
 3196SOL     OW21046   3.322   2.525   8.216  0.1723 -0.5209 -0.5102
 3196SOL    HW121047   3.318   2.519   8.120 -0.9459 -0.5813 -0.4622
 3196SOL    HW221048   3.229   2.526   8.240  0.3081 -2.1023  0.1310
 3197SOL     OW21049   0.258   4.600   4.315 -0.1751 -0.5535  0.3656
 3197SOL    HW121050   0.230   4.586   4.405 -1.1428  0.9161  0.3071
 3197SOL    HW221051   0.178   4.641   4.281  0.4818  0.4171 -0.0097
 3198SOL     OW21052   1.487   3.254   4.787 -0.0642  0.2913  0.2591
 3198SOL    HW121053   1.561   3.236   4.729 -0.3462  2.0053 -0.6598
 3198SOL    HW221054   1.432   3.307   4.729  1.4076  0.4603 -1.0077
 3199SOL     OW21055   3.889   3.539   4.130  0.1092 -0.0009  0.2495
 3199SOL    HW121056   3.935   3.495   4.201  2.2897  0.6955 -0.7481
 3199SOL    HW221057   3.806   3.570   4.167  0.9192  1.9279  0.4349
 3200SOL     OW21058   1.798   4.555   6.815 -0.1131  0.2482  0.6541
 3200SOL    HW121059   1.791   4.502   6.736  0.0297  1.8503 -0.4323
 3200SOL    HW221060   1.739   4.513   6.877 -0.7846  0.4541  0.1468
 3201SOL     OW21061   3.902   1.854   3.305  0.2699 -0.6242 -0.1222
 3201SOL    HW121062   3.905   1.895   3.391 -1.3825  1.4393 -1.0345
 3201SOL    HW221063   3.952   1.922   3.259  2.2514 -2.7929 -1.1357
 3202SOL     OW21064   0.710   3.812   4.238 -0.2042  0.1780  0.2713
 3202SOL    HW121065   0.615   3.820   4.248 -0.1561  0.0071  0.8684
 3202SOL    HW221066   0.720   3.825   4.144 -0.9108  1.9047  0.4442
 3203SOL     OW21067   4.320   2.835   9.199 -0.1449 -0.3064  0.1401
 3203SOL    HW121068   4.297   2.908   9.256 -0.6722 -0.9959  0.8123
 3203SOL    HW221069   4.323   2.873   9.111  0.8975  2.1150  1.2182
 3204SOL     OW21070   4.601   2.389   7.765 -0.3994 -0.2565  0.0295
 3204SOL    HW121071   4.655   2.396   7.686  1.0119  0.4903  1.0480
 3204SOL    HW221072   4.614   2.297   7.788  2.3853  0.9470  3.3919
 3205SOL     OW21073   2.490   3.772   7.446  0.7910 -0.1849  0.0466
 3205SOL    HW121074   2.473   3.852   7.496  1.3341 -1.3786  2.1357
 3205SOL    HW221075   2.501   3.816   7.362 -0.8773  0.0373 -0.0515
 3206SOL     OW21076   3.184   0.966   6.403 -0.0185 -0.4281  0.2750
 3206SOL    HW121077   3.148   1.012   6.479  0.0124  1.9967 -1.1690
 3206SOL    HW221078   3.143   1.007   6.326 -0.7788 -1.9853 -0.1720
 3207SOL     OW21079   0.172   0.293   7.608 -0.0589 -0.0209  0.5344
 3207SOL    HW121080   0.243   0.293   7.673 -1.0620 -2.7447  1.6550
 3207SOL    HW221081   0.134   0.379   7.626 -0.7773 -0.2800  0.2288
 3208SOL     OW21082   4.241   2.586  14.885 -0.5953 -0.1654 -0.6560
 3208SOL    HW121083   4.168   2.529  14.908  1.5377 -2.1407  1.2705
 3208SOL    HW221084   4.211   2.669  14.922 -1.3460  0.8279 -3.5073
 3209SOL     OW21085   3.220   0.950  15.313 -0.1309  0.5088  0.2108
 3209SOL    HW121086   3.283   0.880  15.328 -0.3475  0.1601 -0.4797
 3209SOL    HW221087   3.164   0.900  15.253  0.2858  1.3930 -0.9348
 3210SOL     OW21088   0.960   4.186   6.463 -0.0399 -0.5133  0.1037
 3210SOL    HW121089   0.941   4.203   6.370 -2.2205 -0.2639  0.6102
 3210SOL    HW221090   0.920   4.263   6.503 -0.7107 -0.6482 -0.3113
 3211SOL     OW21091   3.501   2.466  15.739 -0.9373  0.0956  0.2480
 3211SOL    HW121092   3.497   2.561  15.724  1.0097  0.1842  0.2404
 3211SOL    HW221093   3.513   2.442  15.647 -1.6895  1.9579 -0.3402
 3212SOL     OW21094   4.308   2.147   5.803  0.4466  0.2668 -0.5197
 3212SOL    HW121095   4.262   2.146   5.719  1.3655  1.1166 -1.0433
 3212SOL    HW221096   4.274   2.231   5.835 -0.4326 -0.4392  0.3901
 3213SOL     OW21097   2.216   2.415   7.427  0.2900 -0.3074  0.1547
 3213SOL    HW121098   2.254   2.501   7.409 -0.8343  0.1391 -0.1331
 3213SOL    HW221099   2.266   2.350   7.377  1.5985 -0.2744  1.4432
 3214SOL     OW21100   4.401   3.260   5.029 -0.4538 -0.4185  0.9795
 3214SOL    HW121101   4.467   3.323   4.998 -0.8085 -0.8434 -0.6237
 3214SOL    HW221102   4.428   3.232   5.117  1.4097 -0.7801  0.2995
 3215SOL     OW21103   3.967   0.951   9.445  0.2680  0.4887  0.1491
 3215SOL    HW121104   4.008   0.880   9.495 -1.6369 -1.0846 -0.5300
 3215SOL    HW221105   4.036   0.973   9.383 -0.2577  2.6250  0.3130
 3216SOL     OW21106   4.555   4.123   8.245  0.0225 -0.4038  0.5985
 3216SOL    HW121107   4.621   4.167   8.192 -1.6248 -1.3678 -2.2505
 3216SOL    HW221108   4.572   4.157   8.333  0.1368  2.6428 -0.5715
 3217SOL     OW21109   3.260   0.317   8.029  0.7058  0.4492  0.2191
 3217SOL    HW121110   3.226   0.381   8.091 -0.7944 -0.0821 -0.0534
 3217SOL    HW221111   3.311   0.254   8.082 -0.2257 -0.2217  0.3232
 3218SOL     OW21112   2.100   3.589   9.181  0.9768 -0.0300  0.0599
 3218SOL    HW121113   2.137   3.534   9.251 -0.8938 -1.1829  0.1580
 3218SOL    HW221114   2.171   3.652   9.176  2.2180 -1.3815  0.7556
 3219SOL     OW21115   0.018   1.052   4.201 -0.5023 -0.3430 -0.5205
 3219SOL    HW121116   0.072   1.035   4.123  1.2915  1.4326  0.3420
 3219SOL    HW221117   0.072   1.111   4.254 -0.7191 -0.0273 -0.6494
 3220SOL     OW21118   4.268   1.368   8.308 -0.4177 -0.6431 -0.0303
 3220SOL    HW121119   4.208   1.354   8.234 -0.6347  1.5877 -0.2606
 3220SOL    HW221120   4.210   1.394   8.380  1.1229  3.5238 -0.3150
 3221SOL     OW21121   1.479   0.121   4.342  0.1005 -0.2612 -0.0188
 3221SOL    HW121122   1.453   0.202   4.387 -1.1607 -0.2630 -0.7517
 3221SOL    HW221123   1.504   0.059   4.410 -0.4815  2.6744  2.8842
 3222SOL     OW21124   1.052   1.428  10.097 -0.1973  0.4988  0.0847
 3222SOL    HW121125   1.126   1.417  10.156  1.5148 -0.1072 -2.1874
 3222SOL    HW221126   1.047   1.522  10.080  1.3813  0.9811  2.3076
 3223SOL     OW21127   1.299   3.872   2.877 -0.2044  0.2397  0.5962
 3223SOL    HW121128   1.360   3.800   2.896  1.6682  1.8460  0.6761
 3223SOL    HW221129   1.344   3.945   2.834  0.6706 -1.7754 -1.8948
 3224SOL     OW21130   3.661   3.538   0.773 -0.3310 -0.6473  0.3315
 3224SOL    HW121131   3.673   3.466   0.835 -0.1180 -1.7148 -0.9491
 3224SOL    HW221132   3.603   3.598   0.821 -1.0281 -1.4662  0.5190
 3225SOL     OW21133   2.974   1.392   7.641 -0.0812  0.1142  0.2271
 3225SOL    HW121134   2.948   1.482   7.621 -2.0133 -0.5986 -0.4337
 3225SOL    HW221135   2.898   1.355   7.687 -1.0889 -1.2147 -2.4944
 3226SOL     OW21136   2.943   1.431   2.852  0.3343  0.2364  0.7992
 3226SOL    HW121137   2.948   1.403   2.944 -1.2453  1.1941  1.1791
 3226SOL    HW221138   2.963   1.347   2.811  1.0814  0.8946 -0.1831
 3227SOL     OW21139   4.393   0.204  13.814 -0.2557  0.5375 -0.1546
 3227SOL    HW121140   4.466   0.231  13.869  0.4726 -2.7547  0.4739
 3227SOL    HW221141   4.336   0.166  13.881  0.9403  0.9970  1.1168
 3228SOL     OW21142   3.421   2.892   1.089  0.0741 -0.2891 -0.2645
 3228SOL    HW121143   3.514   2.896   1.113  0.6691 -0.3610 -2.5675
 3228SOL    HW221144   3.379   2.956   1.147 -3.6886 -2.5729 -0.4836
 3229SOL     OW21145   2.184   0.260   3.547  0.1518 -0.0831  0.1291
 3229SOL    HW121146   2.226   0.218   3.472 -0.1605 -0.2242  0.0333
 3229SOL    HW221147   2.099   0.216   3.550  0.1799  0.0153  2.4241
 3230SOL     OW21148   3.113   2.861   6.825 -0.5950  0.4397  0.2524
 3230SOL    HW121149   3.141   2.945   6.787  0.9937  0.1598  0.8150
 3230SOL    HW221150   3.193   2.811   6.841 -0.1676  0.6145 -1.3348
 3231SOL     OW21151   2.974   3.548   7.534  0.5162 -0.4393  0.7176
 3231SOL    HW121152   2.956   3.464   7.577 -1.8783 -0.3830 -0.1745
 3231SOL    HW221153   2.926   3.609   7.591 -0.5282  0.5338 -1.2036
 3232SOL     OW21154   0.833   3.928   4.451  0.2910  0.3240 -0.4505
 3232SOL    HW121155   0.799   3.883   4.374  0.9910  1.5726 -1.4934
 3232SOL    HW221156   0.754   3.958   4.496  0.3976 -0.2931  0.1431
 3233SOL     OW21157   1.616   1.553   6.209  0.4926 -0.1043  0.1735
 3233SOL    HW121158   1.642   1.470   6.169 -1.9128 -0.8357  0.1530
 3233SOL    HW221159   1.701   1.590   6.232  0.3897 -0.7670  1.5659
 3234SOL     OW21160   1.184   2.393   7.867  0.6957 -0.0313 -0.0872
 3234SOL    HW121161   1.238   2.321   7.835  1.0787  0.7805 -1.2969
 3234SOL    HW221162   1.238   2.470   7.851 -0.3116  0.8143  0.6057
 3235SOL     OW21163   1.703   3.529   4.337 -0.5132  0.1686 -0.0392
 3235SOL    HW121164   1.761   3.529   4.260  1.2522  0.6998  1.2909
 3235SOL    HW221165   1.648   3.452   4.325 -1.0826  0.5462  0.1869
 3236SOL     OW21166   4.505   3.773   2.388 -0.5992  0.2831  0.4134
 3236SOL    HW121167   4.589   3.810   2.414  0.5499 -0.8249 -1.6825
 3236SOL    HW221168   4.524   3.713   2.316 -1.8212 -1.5607  1.6106
 3237SOL     OW21169   0.339   3.661   3.797  0.5723 -0.1429 -0.2766
 3237SOL    HW121170   0.387   3.706   3.728 -1.7398  0.8146 -1.2581
 3237SOL    HW221171   0.325   3.576   3.754  0.4054  0.4984 -1.4771
 3238SOL     OW21172   1.910   4.341   5.831 -0.1436 -0.4264 -0.6910
 3238SOL    HW121173   1.865   4.271   5.784 -1.3147 -0.4123  0.4336
 3238SOL    HW221174   1.985   4.354   5.772 -2.1076  1.8223 -2.6942
 3239SOL     OW21175   4.279   3.826  15.416  0.3219 -0.7214  0.2455
 3239SOL    HW121176   4.352   3.788  15.465  1.2438  0.5038 -0.1622
 3239SOL    HW221177   4.224   3.751  15.395 -0.8656 -0.5552  2.8014
 3240SOL     OW21178   1.367   2.034   5.926  0.5544  0.0006 -0.2547
 3240SOL    HW121179   1.328   1.967   5.983 -0.0584  0.3009 -0.3189
 3240SOL    HW221180   1.367   2.113   5.980  0.0592  1.0902 -1.8580
 3241SOL     OW21181   3.218   4.031   3.597 -0.3589  0.0481  0.0805
 3241SOL    HW121182   3.283   4.093   3.630  0.2356 -0.3585 -0.3173
 3241SOL    HW221183   3.155   4.079   3.543 -0.0292  0.0398 -0.3096
 3242SOL     OW21184   3.218   3.853   6.181  0.5325  0.2848 -0.5730
 3242SOL    HW121185   3.223   3.793   6.256 -0.1508  0.1305 -0.6498
 3242SOL    HW221186   3.274   3.924   6.212  0.8570 -0.9563  1.7602
 3243SOL     OW21187   4.331   1.998   5.066  0.1191 -0.1401  0.1520
 3243SOL    HW121188   4.274   2.069   5.038  0.7554  0.7840  1.1877
 3243SOL    HW221189   4.339   2.023   5.158  1.5758 -0.7742  0.2012
 3244SOL     OW21190   2.950   2.265   9.548  0.3391 -0.2783  0.2130
 3244SOL    HW121191   2.965   2.171   9.552 -0.0591 -0.2757  1.7177
 3244SOL    HW221192   2.902   2.266   9.631 -1.4809  1.7994 -0.8485
 3245SOL     OW21193   2.208   1.043   4.294  0.3101  0.7235 -0.0906
 3245SOL    HW121194   2.176   0.983   4.227 -2.4690  0.9081  1.0755
 3245SOL    HW221195   2.140   1.110   4.282  0.8178  0.7837 -2.6301
 3246SOL     OW21196   3.333   1.720   4.031  0.0905 -0.0005  0.1378
 3246SOL    HW121197   3.243   1.720   4.065  0.4948  0.7876  1.1838
 3246SOL    HW221198   3.318   1.755   3.943  0.8083  2.4200  0.9774
 3247SOL     OW21199   2.328   4.388  14.834  0.1226 -0.0569  0.1956
 3247SOL    HW121200   2.389   4.462  14.837 -1.8495  1.6786 -1.7142
 3247SOL    HW221201   2.388   4.334  14.784 -1.2978 -0.8324 -0.6966
 3248SOL     OW21202   1.832   1.499   3.821 -0.1686 -0.3403  0.1507
 3248SOL    HW121203   1.761   1.562   3.810 -0.5425 -0.7160  0.4179
 3248SOL    HW221204   1.815   1.432   3.754  0.6289 -0.1922 -0.2069
 3249SOL     OW21205   4.425   0.104   7.329 -0.2127  0.0138  0.2075
 3249SOL    HW121206   4.498   0.044   7.337  0.4326  0.8342  0.4893
 3249SOL    HW221207   4.353   0.041   7.328 -1.9298  1.9744 -0.7087
 3250SOL     OW21208   1.120   3.223   7.487  0.1203 -0.0300 -0.0323
 3250SOL    HW121209   1.036   3.269   7.484  0.6667  0.9570 -0.2762
 3250SOL    HW221210   1.175   3.291   7.450  0.0750  1.1539  2.0763
 3251SOL     OW21211   3.252   1.568   8.343  0.4160 -0.0483 -0.0797
 3251SOL    HW121212   3.267   1.569   8.437 -0.3745  1.5936  0.0187
 3251SOL    HW221213   3.168   1.521   8.343  1.5673 -2.1249  0.3204
 3252SOL     OW21214   0.697   0.686   4.836 -0.2721 -0.2625  0.2005
 3252SOL    HW121215   0.776   0.705   4.786  0.1555 -2.9110 -0.1410
 3252SOL    HW221216   0.681   0.596   4.809  0.0958  0.2166 -1.5770
 3253SOL     OW21217   2.536   1.939   6.393  0.1877 -0.4813 -0.3923
 3253SOL    HW121218   2.625   1.909   6.373 -0.4845 -1.9938 -1.0964
 3253SOL    HW221219   2.550   1.968   6.483  0.1397  1.2743 -0.9421
 3254SOL     OW21220   3.236   0.932   7.945  0.3670 -0.7743 -0.0785
 3254SOL    HW121221   3.258   1.002   8.006  2.0035 -1.3448 -0.0403
 3254SOL    HW221222   3.277   0.860   7.991 -0.0762  0.0302  1.5766
 3255SOL     OW21223   0.926   1.731   8.666 -0.0325  0.4470 -0.8037
 3255SOL    HW121224   0.987   1.787   8.619  1.7331 -0.4758  0.4158
 3255SOL    HW221225   0.956   1.733   8.757 -0.7826 -1.9662 -0.5017
 3256SOL     OW21226   2.652   0.540   1.592 -0.4113 -0.2381  0.1392
 3256SOL    HW121227   2.626   0.449   1.609  4.0060 -1.3690  1.0301
 3256SOL    HW221228   2.567   0.574   1.619 -0.4056  0.0496 -0.2047
 3257SOL     OW21229   1.835   1.907  13.005  0.2841 -0.3623  0.0276
 3257SOL    HW121230   1.865   1.860  12.928  1.0704 -1.6314  1.1009
 3257SOL    HW221231   1.916   1.940  13.043 -0.1873  1.2621 -0.3993
 3258SOL     OW21232   0.470   3.257   0.987 -0.1752  0.2688 -0.0955
 3258SOL    HW121233   0.444   3.233   0.898  0.1383  0.3576 -0.2113
 3258SOL    HW221234   0.552   3.292   0.953 -0.6967  0.5854 -1.0274
 3259SOL     OW21235   0.438   3.666   9.624  0.1748  0.0400 -0.5521
 3259SOL    HW121236   0.500   3.712   9.567  0.4547 -0.1899 -0.4317
 3259SOL    HW221237   0.376   3.737   9.641  0.9942  1.2783 -2.6556
 3260SOL     OW21238   0.224   3.778   2.941 -0.3099  0.4248 -0.0682
 3260SOL    HW121239   0.191   3.863   2.911 -1.0538  0.3971  0.6658
 3260SOL    HW221240   0.261   3.799   3.027  0.3205  1.4574 -0.5903
 3261SOL     OW21241   1.796   2.704   6.385  0.0158  0.6534  0.5094
 3261SOL    HW121242   1.813   2.659   6.468 -0.0526 -0.0862  0.1224
 3261SOL    HW221243   1.702   2.720   6.396 -0.0577 -0.6269  1.6573
 3262SOL     OW21244   4.555   3.213  15.517  0.0185 -0.4423  0.3630
 3262SOL    HW121245   4.609   3.265  15.457 -1.4278  0.6897  0.0528
 3262SOL    HW221246   4.491   3.182  15.453 -1.0897  0.2677  1.1191
 3263SOL     OW21247   4.623   1.853   7.418 -0.3777  0.0479  0.1532
 3263SOL    HW121248   4.626   1.824   7.326  1.8845  0.8531 -0.0272
 3263SOL    HW221249   4.692   1.918   7.432  1.4088 -1.7993 -0.0496
 3264SOL     OW21250   2.615   3.825   5.293  0.1989 -0.5778 -0.3891
 3264SOL    HW121251   2.628   3.868   5.377 -1.0340 -1.4657  0.2611
 3264SOL    HW221252   2.548   3.761   5.317 -0.9264 -0.4526 -3.1564
 3265SOL     OW21253   2.238   1.676   3.011 -0.1545 -0.5717 -0.2720
 3265SOL    HW121254   2.227   1.766   2.982 -0.4360  0.0655  1.8198
 3265SOL    HW221255   2.333   1.677   3.014 -0.1235 -0.1169 -1.8311
 3266SOL     OW21256   1.557   1.130   0.360 -0.4071 -0.6187  0.0551
 3266SOL    HW121257   1.625   1.084   0.411 -0.5281 -1.3111 -0.4135
 3266SOL    HW221258   1.554   1.061   0.294  0.4593  1.4060 -2.0968
 3267SOL     OW21259   2.527   0.905   1.947 -0.8689  0.0370  0.1275
 3267SOL    HW121260   2.470   0.828   1.940  0.9866 -1.2274 -0.9138
 3267SOL    HW221261   2.461   0.971   1.969 -1.0269  0.6126 -2.0432
 3268SOL     OW21262   1.609   0.017   7.371  0.0133  0.0858 -0.6522
 3268SOL    HW121263   1.566   0.096   7.402  0.5050 -0.2734  0.9217
 3268SOL    HW221264   1.588   0.021   7.277 -0.2452  0.8267 -0.5584
 3269SOL     OW21265   0.817   3.030   8.530 -0.4574 -0.6874  0.4447
 3269SOL    HW121266   0.828   3.093   8.602 -0.1403 -0.5250  0.2563
 3269SOL    HW221267   0.836   3.083   8.452 -1.3663 -0.1779  0.5628
 3270SOL     OW21268   0.478   3.637   4.059  0.0596 -0.3572 -0.0934
 3270SOL    HW121269   0.404   3.614   4.002  1.5958 -0.7429 -1.9346
 3270SOL    HW221270   0.504   3.715   4.010  1.6353 -0.8218  0.0069
 3271SOL     OW21271   0.929   2.379  14.554  0.2438 -0.3078 -0.2844
 3271SOL    HW121272   0.872   2.316  14.597  0.1628 -0.3871 -0.5103
 3271SOL    HW221273   1.010   2.328  14.566 -0.0717 -0.1649  2.5026
 3272SOL     OW21274   3.644   1.063  15.503 -0.3120  0.2989 -0.1542
 3272SOL    HW121275   3.697   1.057  15.582  0.4192  1.4507 -0.5578
 3272SOL    HW221276   3.690   1.108  15.432 -0.0544 -2.0057 -1.4580
 3273SOL     OW21277   4.101   0.354  15.682 -0.5687 -0.3060  0.5559
 3273SOL    HW121278   4.059   0.400  15.609 -1.6846  0.1796  1.4989
 3273SOL    HW221279   4.050   0.273  15.674 -2.5383  1.0319 -0.4186
 3274SOL     OW21280   3.015   0.452  12.822 -0.0347  0.0050 -0.0374
 3274SOL    HW121281   2.941   0.457  12.761  0.5774 -0.7117 -0.8492
 3274SOL    HW221282   3.029   0.357  12.824  0.1911  0.0294 -0.5004
 3275SOL     OW21283   2.531   1.037   6.025 -0.1307  0.1439  0.3520
 3275SOL    HW121284   2.527   1.120   6.072 -2.1181  0.8825 -1.1268
 3275SOL    HW221285   2.622   1.021   6.000  0.3913  2.5065  0.7358
 3276SOL     OW21286   2.813   0.723   2.715 -0.3366 -0.3356 -0.3762
 3276SOL    HW121287   2.812   0.706   2.621  3.7170 -1.5264 -0.1893
 3276SOL    HW221288   2.764   0.806   2.721  0.3039 -0.0261  0.5496
 3277SOL     OW21289   4.129   4.625  10.651  0.3571 -0.3169 -0.0592
 3277SOL    HW121290   4.166   4.562  10.589 -2.6501 -1.3992 -0.7728
 3277SOL    HW221291   4.042   4.641  10.615 -0.6109 -1.5982  1.7206
 3278SOL     OW21292   0.275   4.489   3.235  0.5618 -0.4583  0.4057
 3278SOL    HW121293   0.190   4.498   3.277  0.3377 -0.1572 -0.1149
 3278SOL    HW221294   0.331   4.492   3.313 -0.4047  0.3756  1.0727
 3279SOL     OW21295   2.858   4.485  14.104  0.3821 -0.4801 -0.2753
 3279SOL    HW121296   2.787   4.543  14.134  1.6860  0.0023  1.7967
 3279SOL    HW221297   2.922   4.541  14.146  1.3406 -0.5927 -1.5728
 3280SOL     OW21298   1.998   4.038  10.082 -0.6974 -0.0822  0.2985
 3280SOL    HW121299   2.048   4.105  10.128  1.3440 -0.8766 -0.7700
 3280SOL    HW221300   2.063   3.967  10.085 -0.2941  0.3082  0.7998
 3281SOL     OW21301   3.723   4.430   8.012 -0.4545 -0.0072  0.3834
 3281SOL    HW121302   3.817   4.412   8.022 -0.4674  0.1233  0.7269
 3281SOL    HW221303   3.703   4.417   7.919 -1.5248 -0.4926  0.6870
 3282SOL     OW21304   4.354   2.930   8.455  0.0116 -0.3279 -0.2450
 3282SOL    HW121305   4.339   2.867   8.526 -1.6391  1.7897  1.3076
 3282SOL    HW221306   4.396   2.877   8.388  1.5184 -0.6334  0.9367
 3283SOL     OW21307   0.964   3.517  11.693 -0.0642  0.1484  0.2060
 3283SOL    HW121308   0.869   3.526  11.689  0.0031  0.2108 -1.0908
 3283SOL    HW221309   1.000   3.596  11.652 -0.8004  0.2339 -0.2653
 3284SOL     OW21310   2.205   1.788   6.683  0.1775  0.3587 -0.3280
 3284SOL    HW121311   2.243   1.847   6.618 -2.5809  0.4669 -1.8424
 3284SOL    HW221312   2.123   1.836   6.700  1.2237  0.9006  3.2028
 3285SOL     OW21313   4.078   3.312  13.764  0.7686  0.3847 -0.0021
 3285SOL    HW121314   4.094   3.307  13.670  1.3328 -0.1105  0.1173
 3285SOL    HW221315   4.020   3.387  13.776 -0.5323 -0.6462  0.2297
 3286SOL     OW21316   4.432   4.434   1.434 -0.1139  0.1574 -0.4231
 3286SOL    HW121317   4.469   4.517   1.405  0.8209  0.6526  2.0921
 3286SOL    HW221318   4.363   4.412   1.372  1.4217 -2.0736 -1.3674
 3287SOL     OW21319   1.278   4.596   2.275  0.1104 -0.4858  0.5194
 3287SOL    HW121320   1.214   4.561   2.337 -0.4437 -0.4357 -0.0208
 3287SOL    HW221321   1.353   4.593   2.335 -0.2267 -1.9120  0.8725
 3288SOL     OW21322   3.654   3.933   5.384  0.3875  0.0127 -0.2006
 3288SOL    HW121323   3.714   3.939   5.458  1.5256 -0.2046 -1.1217
 3288SOL    HW221324   3.663   3.845   5.348  1.0479  0.4850 -1.1636
 3289SOL     OW21325   0.551   0.284   8.431 -0.3965  0.5266  0.8835
 3289SOL    HW121326   0.643   0.258   8.426 -0.6100  0.5052 -3.3056
 3289SOL    HW221327   0.560   0.380   8.426  0.8399  0.3247 -1.0664
 3290SOL     OW21328   0.743   1.352   5.219 -0.3442 -0.5325  0.0270
 3290SOL    HW121329   0.787   1.393   5.144 -1.4459 -0.6810 -0.6886
 3290SOL    HW221330   0.796   1.274   5.205  0.0936 -0.7373  2.7387
 3291SOL     OW21331   2.966   2.811   8.655 -0.2190  0.5171 -0.2049
 3291SOL    HW121332   3.059   2.805   8.631 -0.0401  1.3136  0.3092
 3291SOL    HW221333   2.941   2.724   8.623  3.0950 -0.7515  0.5899
 3292SOL     OW21334   2.552   3.448   5.055 -0.1050  0.4954 -0.1915
 3292SOL    HW121335   2.603   3.461   5.135  1.1423 -0.0265 -0.8844
 3292SOL    HW221336   2.547   3.542   5.035  0.7326  0.0319 -2.6853
 3293SOL     OW21337   0.470   0.716   3.873 -0.6508 -0.2497  0.1452
 3293SOL    HW121338   0.410   0.658   3.826 -0.9889 -0.6507  1.0548
 3293SOL    HW221339   0.542   0.701   3.812  1.0847 -1.3009  2.4342
 3294SOL     OW21340   2.831   3.903   7.470  0.0274 -0.1764 -0.0250
 3294SOL    HW121341   2.847   3.853   7.550 -3.2024  0.5371  1.0649
 3294SOL    HW221342   2.756   3.951   7.503  0.9138  1.6913 -0.6823
 3295SOL     OW21343   3.335   2.094   6.366 -0.0504 -0.0545 -0.1131
 3295SOL    HW121344   3.374   2.026   6.422  0.9120  0.3692 -0.2556
 3295SOL    HW221345   3.261   2.037   6.345 -0.0360  0.0501 -0.4449
 3296SOL     OW21346   1.239   3.848   8.972  0.0897  0.2622 -0.4728
 3296SOL    HW121347   1.332   3.823   8.968 -0.9259 -3.3880 -1.1090
 3296SOL    HW221348   1.188   3.767   8.977  1.3551 -0.5306 -0.3811
 3297SOL     OW21349   2.807   1.233   7.991  0.1551  0.4027 -0.1468
 3297SOL    HW121350   2.863   1.157   7.978 -0.5263 -0.2061  0.4443
 3297SOL    HW221351   2.720   1.193   7.984  0.5118 -0.3711 -0.0244
 3298SOL     OW21352   3.094   2.454   9.020  0.1134  0.2415  0.0843
 3298SOL    HW121353   3.054   2.372   9.048 -1.6701  1.5415  1.2846
 3298SOL    HW221354   3.074   2.509   9.096  1.0154 -0.6825  0.9841
 3299SOL     OW21355   2.812   0.974   6.302 -0.2491  0.5858 -0.7152
 3299SOL    HW121356   2.723   0.975   6.336  0.1471 -1.0011  0.3461
 3299SOL    HW221357   2.825   0.879   6.300 -1.3230  0.4050  1.4085
 3300SOL     OW21358   3.423   3.576   6.414 -0.2198 -0.3651  0.6344
 3300SOL    HW121359   3.402   3.650   6.472 -1.5608 -0.1845 -0.0701
 3300SOL    HW221360   3.343   3.560   6.363  1.8525  0.3806 -2.8244
 3301SOL     OW21361   2.981   2.960   1.142  0.0217  0.4705 -0.0912
 3301SOL    HW121362   3.066   2.996   1.168  0.4734 -1.4062  0.9944
 3301SOL    HW221363   2.949   2.921   1.224  1.1515  2.9342  1.5223
 3302SOL     OW21364   4.404   2.820  11.976  0.2042 -0.2750 -0.2258
 3302SOL    HW121365   4.424   2.730  12.003  1.5985 -0.0927 -0.6462
 3302SOL    HW221366   4.493   2.854  11.975  0.5501 -1.1596  1.0189
 3303SOL     OW21367   1.522   3.212   7.789 -0.3677 -0.7921  0.1419
 3303SOL    HW121368   1.518   3.190   7.696 -0.3454  0.9348 -0.2807
 3303SOL    HW221369   1.472   3.293   7.783 -0.1245 -0.5988  0.7430
 3304SOL     OW21370   2.747   0.706   4.435 -0.0524 -0.1095  0.0175
 3304SOL    HW121371   2.660   0.737   4.459 -1.1655 -0.0493 -4.1221
 3304SOL    HW221372   2.801   0.772   4.479  0.4926  0.4978 -1.5656
 3305SOL     OW21373   4.142   1.735   7.837  0.0254  0.4315  0.4223
 3305SOL    HW121374   4.071   1.695   7.887 -2.1055  2.1958 -1.1618
 3305SOL    HW221375   4.135   1.680   7.759 -0.7582  3.6043 -1.7847
 3306SOL     OW21376   2.601   4.714  15.276 -0.1380  0.9185  0.8671
 3306SOL    HW121377   2.592   4.658  15.353  2.3585  0.6319  0.9393
 3306SOL    HW221378   2.694   0.009  15.279  0.0390  0.4406 -1.3382
 3307SOL     OW21379   3.455   3.780   5.681  0.0716  0.1961  0.1677
 3307SOL    HW121380   3.493   3.751   5.763  0.7799  2.5410  0.6601
 3307SOL    HW221381   3.444   3.875   5.689 -0.9014  0.1831 -0.8746
 3308SOL     OW21382   2.509   1.519   5.630  0.0887 -0.4779 -0.2271
 3308SOL    HW121383   2.414   1.509   5.623 -0.1206  0.6560  1.0563
 3308SOL    HW221384   2.534   1.435   5.591 -0.6542 -1.1735  0.8103
 3309SOL     OW21385   2.263   1.956   6.478  0.1372 -0.3721  0.0159
 3309SOL    HW121386   2.233   1.877   6.433 -2.4128 -0.7398  2.3366
 3309SOL    HW221387   2.347   1.973   6.436  1.4307 -0.7359  2.4155
 3310SOL     OW21388   1.692   1.735   2.768  0.7604 -0.3075  0.2229
 3310SOL    HW121389   1.743   1.709   2.692 -2.6898 -0.6361 -1.9914
 3310SOL    HW221390   1.759   1.758   2.833  0.6650  2.8006 -0.7799
 3311SOL     OW21391   3.008   2.296   1.466  0.3218 -0.7221 -0.3696
 3311SOL    HW121392   3.071   2.361   1.434 -0.9239  1.0210  0.8061
 3311SOL    HW221393   3.055   2.249   1.535  0.0983  0.0661  0.3073
 3312SOL     OW21394   4.095   4.708   6.101  0.0602  0.0980 -0.0012
 3312SOL    HW121395   4.128   0.063   6.145  2.4306 -1.5045  1.1162
 3312SOL    HW221396   4.078   0.017   6.013 -1.5494  0.1534  0.3321
 3313SOL     OW21397   0.259   0.923   3.820 -0.1095 -0.5330 -0.0897
 3313SOL    HW121398   0.292   0.920   3.731 -4.1151  0.9836 -1.6347
 3313SOL    HW221399   0.316   0.856   3.858  1.7094  1.5160  0.7820
 3314SOL     OW21400   1.820   2.889   6.189 -0.6105 -0.6115  0.3226
 3314SOL    HW121401   1.906   2.892   6.147 -0.4810 -0.6230  0.5814
 3314SOL    HW221402   1.833   2.828   6.262 -2.9641 -1.9536 -0.3867
 3315SOL     OW21403   3.596   4.163   3.920 -0.1954  0.2084 -0.3639
 3315SOL    HW121404   3.584   4.084   3.973  0.5597  1.1856  1.2359
 3315SOL    HW221405   3.692   4.168   3.919 -0.1575 -0.2835  0.3617
 3316SOL     OW21406   4.574   3.519   8.547  0.5152 -0.0525 -0.4335
 3316SOL    HW121407   4.483   3.493   8.564  1.0290 -1.4683  0.1153
 3316SOL    HW221408   4.605   3.446   8.493 -3.9290 -1.6839 -0.7649
 3317SOL     OW21409   2.008   0.518   7.293 -0.0135  0.1368 -0.0459
 3317SOL    HW121410   1.967   0.572   7.361 -1.1690  0.8742 -1.3317
 3317SOL    HW221411   1.932   0.474   7.254 -0.2758 -1.1529  1.9079
 3318SOL     OW21412   1.015   0.569   3.879  0.1846 -0.2164 -0.1289
 3318SOL    HW121413   1.049   0.654   3.852 -0.0044 -0.1820 -0.2586
 3318SOL    HW221414   0.983   0.533   3.796 -0.1382  0.1663 -0.1714
 3319SOL     OW21415   1.213   1.807   3.764 -0.3577 -0.1923 -0.5574
 3319SOL    HW121416   1.260   1.814   3.681 -1.5688 -0.1109 -1.2459
 3319SOL    HW221417   1.124   1.802   3.727 -0.5330 -2.7108  0.2694
 3320SOL     OW21418   3.008   1.918   1.756 -0.3684  0.5012  0.0195
 3320SOL    HW121419   3.049   1.991   1.709 -1.0328  0.9075  0.0564
 3320SOL    HW221420   2.914   1.930   1.745  0.1343 -0.3869 -4.9198
 3321SOL     OW21421   3.387   2.909   8.728  0.1048  0.6004  0.4291
 3321SOL    HW121422   3.452   2.901   8.798 -1.4952 -2.3875  1.5790
 3321SOL    HW221423   3.324   2.959   8.780 -3.1503 -0.2393 -2.7034
 3322SOL     OW21424   4.061   3.504   5.431  0.0734  0.1130 -0.1215
 3322SOL    HW121425   4.065   3.467   5.520 -1.3558  1.9360  0.7182
 3322SOL    HW221426   3.967   3.513   5.412 -0.8417 -2.5277  3.0339
 3323SOL     OW21427   1.095   0.207   6.609 -0.4290 -0.3839  0.2487
 3323SOL    HW121428   1.172   0.151   6.598 -0.2452 -0.3238  1.2340
 3323SOL    HW221429   1.122   0.273   6.673 -0.7744  1.1147 -1.1779
 3324SOL     OW21430   1.155   1.348   8.691  0.2427 -0.0110  0.1424
 3324SOL    HW121431   1.140   1.413   8.622 -1.0544  0.3085  0.7258
 3324SOL    HW221432   1.089   1.378   8.754  1.9374  1.3044  1.3114
 3325SOL     OW21433   0.335   4.204   4.723  0.4723 -0.4424 -0.3942
 3325SOL    HW121434   0.371   4.290   4.701 -0.4981  0.1152  0.1436
 3325SOL    HW221435   0.268   4.215   4.791  1.3690 -0.4253  0.4920
 3326SOL     OW21436   4.185   4.203  12.306  0.4169 -0.1682  0.1827
 3326SOL    HW121437   4.249   4.178  12.239 -1.3263  0.4276 -1.6796
 3326SOL    HW221438   4.237   4.233  12.381 -0.0530  0.0885  0.4000
 3327SOL     OW21439   1.566   3.133  12.968  0.1154  0.7892 -0.5219
 3327SOL    HW121440   1.635   3.171  13.023 -2.1103 -1.2970  3.6377
 3327SOL    HW221441   1.582   3.184  12.889  1.4808  2.0099  0.5486
 3328SOL     OW21442   2.106   0.587   1.044  0.4251  0.5760  0.7842
 3328SOL    HW121443   2.114   0.499   1.080 -1.7284 -0.5104 -1.4358
 3328SOL    HW221444   2.088   0.574   0.951  0.6775  0.0500  0.8108
 3329SOL     OW21445   0.376   1.318   2.515  0.5610  0.4811  0.0718
 3329SOL    HW121446   0.332   1.305   2.431 -1.2883 -1.4654  1.3542
 3329SOL    HW221447   0.320   1.386   2.552  2.4757  1.3543  1.3553
 3330SOL     OW21448   0.080   2.356   8.335 -0.6962 -0.1482 -0.0910
 3330SOL    HW121449   0.067   2.438   8.382  1.2642  0.0632  0.0800
 3330SOL    HW221450   0.012   2.354   8.268  0.6084 -0.9653 -1.4050
 3331SOL     OW21451   4.004   2.187   6.150  1.0094 -0.0633  0.1478
 3331SOL    HW121452   4.077   2.126   6.139  1.9097  0.9536  0.4100
 3331SOL    HW221453   4.028   2.246   6.078  3.1398 -1.4499 -0.2878
 3332SOL     OW21454   3.005   3.095   8.545  0.1104  0.5202 -0.1993
 3332SOL    HW121455   3.000   3.059   8.633 -1.0090  0.2165 -0.3844
 3332SOL    HW221456   2.918   3.136   8.540  0.8050  1.7746 -2.1975
 3333SOL     OW21457   1.463   0.573  11.033 -0.2322  0.2736  0.1404
 3333SOL    HW121458   1.503   0.574  10.946  0.7131  1.6519  0.5940
 3333SOL    HW221459   1.512   0.508  11.084 -0.9412  0.1412  0.6542
 3334SOL     OW21460   2.428   3.123   8.652 -0.5857  0.2913 -0.5993
 3334SOL    HW121461   2.370   3.130   8.576 -2.4816  0.0309  0.8199
 3334SOL    HW221462   2.425   3.032   8.682  1.3677  0.4615  0.0918
 3335SOL     OW21463   3.695   4.578  17.338 -0.6041  0.2090  0.3691
 3335SOL    HW121464   3.617   4.634  17.344 -0.9473 -0.2801  0.5231
 3335SOL    HW221465   3.669   4.519  17.267  0.9996 -1.6096  1.2993
 3336SOL     OW21466   4.395   1.085   6.421  0.9300  0.0993 -0.0165
 3336SOL    HW121467   4.393   1.057   6.329  2.0551 -1.5812  0.4670
 3336SOL    HW221468   4.490   1.087   6.429  0.9235 -0.2864  0.1374
 3337SOL     OW21469   0.253   0.249  13.594 -0.1248 -0.0508  0.1719
 3337SOL    HW121470   0.298   0.218  13.673  1.5281  1.1768 -0.2841
 3337SOL    HW221471   0.172   0.286  13.630 -0.9727  0.2517 -2.0844
 3338SOL     OW21472   1.042   3.988   5.170 -0.5861  0.8867  0.0275
 3338SOL    HW121473   1.090   4.020   5.093 -1.9053  0.6080 -0.8982
 3338SOL    HW221474   1.053   4.063   5.229  2.8160  0.4733 -0.0638
 3339SOL     OW21475   0.204   4.023   1.263 -0.7636  0.1121  0.1409
 3339SOL    HW121476   0.224   3.972   1.342  1.4595  0.3440 -0.2674
 3339SOL    HW221477   0.108   4.025   1.263 -0.7767 -0.1020  1.4362
 3340SOL     OW21478   1.483   2.274   9.824 -0.1398  0.0727  0.2991
 3340SOL    HW121479   1.571   2.277   9.788 -0.0429  0.1586  0.5410
 3340SOL    HW221480   1.434   2.211   9.772 -1.4380  1.2875  0.0471
 3341SOL     OW21481   3.777   2.600   5.211  0.3323  0.4702  0.0387
 3341SOL    HW121482   3.772   2.681   5.161 -1.9923 -0.6777 -1.6011
 3341SOL    HW221483   3.869   2.581   5.228 -0.4275 -2.1621  1.2513
 3342SOL     OW21484   4.218   0.667   3.828  0.1056 -0.1554 -0.1428
 3342SOL    HW121485   4.266   0.608   3.885 -1.3789 -1.0952  0.1149
 3342SOL    HW221486   4.126   0.674   3.855  0.0960  1.1287 -0.4875
 3343SOL     OW21487   0.803   2.514   8.765 -0.0130  0.8024 -0.0562
 3343SOL    HW121488   0.729   2.499   8.824  0.1626 -0.5249 -0.1629
 3343SOL    HW221489   0.822   2.605   8.787  0.8209  0.8072 -0.7914
 3344SOL     OW21490   1.659   4.276   4.350  0.3632 -0.0666 -0.0494
 3344SOL    HW121491   1.734   4.259   4.292  0.5844  2.6438 -0.5392
 3344SOL    HW221492   1.707   4.293   4.431  2.3948  0.0506 -1.2789
 3345SOL     OW21493   3.903   1.761  15.126 -0.2672 -0.3553 -0.6483
 3345SOL    HW121494   3.814   1.744  15.097  0.8012 -1.5532 -3.2103
 3345SOL    HW221495   3.948   1.792  15.048  0.0090  0.6192 -0.1083
 3346SOL     OW21496   2.517   0.952   4.792  0.2057  0.0481 -0.1745
 3346SOL    HW121497   2.550   0.908   4.713  1.2194 -1.6028  1.1723
 3346SOL    HW221498   2.597   1.004   4.798 -0.1028  0.5731 -0.5857
 3347SOL     OW21499   2.473   4.182   8.040 -0.3532 -0.2603 -0.1988
 3347SOL    HW121500   2.393   4.161   8.089  0.5077 -2.0985  0.4145
 3347SOL    HW221501   2.448   4.260   7.991 -0.8131 -0.6780 -0.6385
 3348SOL     OW21502   0.606   2.324   8.420  0.1511 -0.0634 -0.0649
 3348SOL    HW121503   0.684   2.376   8.436 -0.1871  0.0414  1.2311
 3348SOL    HW221504   0.545   2.395   8.441 -0.4858 -0.8530  0.7845
 3349SOL     OW21505   1.636   1.744   2.080 -0.5239 -0.1480  0.6444
 3349SOL    HW121506   1.637   1.839   2.095 -1.2865  0.3550 -2.5478
 3349SOL    HW221507   1.577   1.710   2.148  1.1563 -0.3065  2.0353
 3350SOL     OW21508   4.607   2.258  15.410  0.0571  0.4158  0.2358
 3350SOL    HW121509   4.593   2.259  15.315 -1.6669  1.1651  0.4926
 3350SOL    HW221510   4.693   2.218  15.420  0.1876  0.6603  0.0665
 3351SOL     OW21511   4.695   0.820   4.794  0.0280 -0.1464 -0.2107
 3351SOL    HW121512   4.600   0.814   4.801  0.1298 -2.7562 -1.0134
 3351SOL    HW221513   4.716   0.913   4.805  0.8595 -0.5115  1.3268
 3352SOL     OW21514   0.909   1.265   6.430 -0.4213  0.1492  0.1292
 3352SOL    HW121515   0.868   1.328   6.490 -1.4107 -0.2937 -0.0920
 3352SOL    HW221516   0.995   1.304   6.418  0.2353 -1.8548 -1.6966
 3353SOL     OW21517   1.027   2.936   3.753 -0.1526  1.1893  0.2637
 3353SOL    HW121518   1.006   3.020   3.794 -0.7788  0.0918  2.1945
 3353SOL    HW221519   0.983   2.942   3.668 -3.6725 -0.5602  1.9816
 3354SOL     OW21520   2.027   2.899   0.914  0.2358  0.3035  0.3514
 3354SOL    HW121521   1.960   2.947   0.962 -2.4774 -3.9302  0.8047
 3354SOL    HW221522   1.998   2.896   0.823 -0.6897 -0.3951  0.6715
 3355SOL     OW21523   2.574   3.526   7.611  0.5398  0.0429  0.2769
 3355SOL    HW121524   2.564   3.596   7.547 -1.0799 -1.2187 -0.8487
 3355SOL    HW221525   2.505   3.465   7.583  0.1384  1.1192 -1.0775
 3356SOL     OW21526   1.119   2.400   9.552  0.0913  0.0965  0.0872
 3356SOL    HW121527   1.212   2.377   9.563  0.3758  1.3469  0.2058
 3356SOL    HW221528   1.126   2.486   9.511 -1.5488 -0.1294 -0.6360
 3357SOL     OW21529   3.103   3.819   6.634  0.8103 -0.5953 -0.1217
 3357SOL    HW121530   3.118   3.914   6.634  1.4209 -0.7042  2.3304
 3357SOL    HW221531   3.104   3.794   6.541  0.0766 -1.9681  0.2413
 3358SOL     OW21532   1.680   0.702   2.740 -0.1002 -0.6729 -0.6495
 3358SOL    HW121533   1.617   0.770   2.761 -2.2566 -3.4812  1.9391
 3358SOL    HW221534   1.683   0.650   2.820  1.9838  0.5703  0.0659
 3359SOL     OW21535   3.872   2.881  14.072 -0.1107  0.2550 -0.2714
 3359SOL    HW121536   3.908   2.793  14.081  3.0084  1.5171 -0.5762
 3359SOL    HW221537   3.785   2.858  14.040  0.8521  0.4787 -3.0019
 3360SOL     OW21538   2.819   4.302   4.578 -0.2319 -0.2348  0.2103
 3360SOL    HW121539   2.888   4.350   4.532 -0.0940 -2.0820 -1.5397
 3360SOL    HW221540   2.777   4.373   4.626 -1.4393 -0.8623  0.0907
 3361SOL     OW21541   0.010   1.688  17.013  0.3474  0.4925 -0.0215
 3361SOL    HW121542   0.066   1.662  17.085  0.5463 -0.3415 -0.4838
 3361SOL    HW221543   0.003   1.783  17.027  2.6172  0.4767  1.1835
 3362SOL     OW21544   0.063   2.618  13.085 -0.1687  0.4989  0.6149
 3362SOL    HW121545   0.125   2.688  13.105  0.2844 -0.1765  1.5616
 3362SOL    HW221546   0.075   2.566  13.164  2.0193  1.9606  1.2201
 3363SOL     OW21547   4.656   1.728   8.243  0.1138  0.2499 -0.1546
 3363SOL    HW121548   4.657   1.722   8.339 -1.4363 -0.7111 -0.2121
 3363SOL    HW221549   4.593   1.660   8.220  0.1445 -0.6768  2.4881
 3364SOL     OW21550   1.122   1.618   0.838  0.7438 -0.6655 -0.2159
 3364SOL    HW121551   1.186   1.593   0.904 -0.1977 -0.0643  0.9202
 3364SOL    HW221552   1.185   1.616   0.766  2.5229 -2.3554  1.3864
 3365SOL     OW21553   4.199   3.395   1.588 -0.2189  0.1319  0.2161
 3365SOL    HW121554   4.255   3.325   1.555  0.7878  0.4001  1.3599
 3365SOL    HW221555   4.114   3.351   1.591  0.6120 -1.4314  0.8804
 3366SOL     OW21556   2.832   4.314   8.650 -0.6331 -0.3921 -0.5465
 3366SOL    HW121557   2.895   4.378   8.618 -1.7193  1.4545  0.9972
 3366SOL    HW221558   2.826   4.351   8.738  0.8424 -0.4944 -0.4052
 3367SOL     OW21559   1.180   0.310   3.764 -0.0541 -0.5786  0.1635
 3367SOL    HW121560   1.222   0.393   3.742  1.4401 -0.6255  2.8679
 3367SOL    HW221561   1.187   0.265   3.679 -2.6199 -0.9985  0.1831
 3368SOL     OW21562   3.111   0.125   7.413  0.4704  0.2405  0.0560
 3368SOL    HW121563   3.141   0.211   7.444  1.0758  0.2286 -0.5088
 3368SOL    HW221564   3.172   0.104   7.343 -0.1319 -3.5489  0.6905
 3369SOL     OW21565   4.152   1.557   2.939  0.6675  0.4203 -0.2192
 3369SOL    HW121566   4.141   1.603   3.022 -2.6656 -0.6025 -0.1294
 3369SOL    HW221567   4.230   1.504   2.957  0.8379  1.3139  1.7100
 3370SOL     OW21568   3.753   0.308   1.570 -0.2745 -0.0855 -0.1049
 3370SOL    HW121569   3.661   0.296   1.547 -0.0322 -1.0496 -0.5372
 3370SOL    HW221570   3.745   0.371   1.642  0.2703  1.2112 -1.1610
 3371SOL     OW21571   2.637   0.767   9.174 -0.8072  0.0555 -0.8469
 3371SOL    HW121572   2.708   0.738   9.115 -0.3002 -0.2467 -0.0895
 3371SOL    HW221573   2.667   0.855   9.197 -0.6173 -0.5692  1.2243
 3372SOL     OW21574   2.237   1.063   9.454 -0.2366  0.7223 -0.0601
 3372SOL    HW121575   2.173   1.023   9.514 -0.0681  1.0627  0.3518
 3372SOL    HW221576   2.180   1.093   9.383 -3.3951 -0.5254  1.9509
 3373SOL     OW21577   0.617   0.254   5.888  0.5619  0.0364 -0.5612
 3373SOL    HW121578   0.638   0.162   5.873  0.8118  0.1722 -1.0252
 3373SOL    HW221579   0.558   0.279   5.817 -2.5180  0.0676  1.9751
 3374SOL     OW21580   3.574   4.170   0.988  0.6412  0.1286 -0.3108
 3374SOL    HW121581   3.620   4.113   1.049  1.6114 -0.4767 -1.5982
 3374SOL    HW221582   3.490   4.187   1.031  1.3828  2.6946  0.0792
 3375SOL     OW21583   1.472   2.617   0.179 -0.1210 -0.4364 -0.2168
 3375SOL    HW121584   1.452   2.709   0.160  1.3017  0.0335  0.5099
 3375SOL    HW221585   1.529   2.592   0.106  0.4246 -0.5235  0.2390
 3376SOL     OW21586   4.645   1.568  10.683  0.0911 -0.4581 -0.1226
 3376SOL    HW121587   4.682   1.651  10.655 -0.1614 -0.7420 -1.3189
 3376SOL    HW221588   4.565   1.555  10.631  0.8501  1.1087 -1.6871
 3377SOL     OW21589   2.923   0.827   3.263 -0.5245  0.2066  0.2185
 3377SOL    HW121590   3.015   0.854   3.258 -0.6981  0.7784  0.1435
 3377SOL    HW221591   2.883   0.876   3.334  0.0573  1.8303 -0.5884
 3378SOL     OW21592   0.829   1.334   9.584  0.3542 -0.6004 -0.2653
 3378SOL    HW121593   0.837   1.384   9.665 -0.3954 -0.3227 -0.3561
 3378SOL    HW221594   0.890   1.268   9.616 -0.2212 -0.8645  0.2986
 3379SOL     OW21595   0.515   1.111  13.109 -0.0098  0.4576 -0.2383
 3379SOL    HW121596   0.548   1.184  13.162  0.5456 -0.3165  0.4796
 3379SOL    HW221597   0.589   1.050  13.100  0.6337  1.3589 -1.2117
 3380SOL     OW21598   0.481   2.314   8.835  0.1792  0.0060  0.2086
 3380SOL    HW121599   0.563   2.287   8.877 -0.0740 -1.2496 -0.1003
 3380SOL    HW221600   0.435   2.356   8.908 -0.4945  0.2565 -0.3672
 3381SOL     OW21601   2.237   0.665   3.456  0.1015 -0.5871 -0.1772
 3381SOL    HW121602   2.242   0.736   3.392 -1.1371 -1.8500 -1.7149
 3381SOL    HW221603   2.171   0.699   3.516  0.9749  2.1920 -0.8049
 3382SOL     OW21604   0.711   1.396  16.472 -0.2023 -0.2882  0.1279
 3382SOL    HW121605   0.643   1.329  16.471  0.1727 -0.6658  0.4630
 3382SOL    HW221606   0.744   1.399  16.561  0.7605 -0.7301 -0.2158
 3383SOL     OW21607   0.039   3.408   9.532 -0.0987 -0.1153 -0.2102
 3383SOL    HW121608   4.723   3.374   9.452 -1.4460 -1.9900  1.2679
 3383SOL    HW221609   0.012   3.498   9.516 -1.3692 -0.6293 -0.9485
 3384SOL     OW21610   4.069   3.803  14.651 -0.0531 -0.1823  0.4205
 3384SOL    HW121611   4.125   3.799  14.573 -0.9884 -0.5036 -0.2306
 3384SOL    HW221612   4.006   3.741  14.614 -0.1885 -1.0575  2.1200
 3385SOL     OW21613   3.175   1.072   9.259  0.8578 -0.0157 -0.5950
 3385SOL    HW121614   3.109   1.058   9.326 -0.5763  0.1246 -1.9662
 3385SOL    HW221615   3.169   0.989   9.212  0.5546 -0.5632  0.4142
 3386SOL     OW21616   3.534   2.750   5.913 -0.0329 -0.1294 -0.1879
 3386SOL    HW121617   3.490   2.665   5.920 -0.1283 -0.1379 -0.9093
 3386SOL    HW221618   3.626   2.725   5.920 -0.2094 -1.1185 -1.3585
 3387SOL     OW21619   2.406   2.978   8.381  0.0904  0.1283 -0.4965
 3387SOL    HW121620   2.328   2.922   8.380  1.0116 -1.1539 -0.7932
 3387SOL    HW221621   2.466   2.943   8.315 -1.4296 -2.4197 -0.5376
 3388SOL     OW21622   1.501   1.540   3.213 -0.4116 -0.0076 -0.0245
 3388SOL    HW121623   1.584   1.577   3.180  0.2180 -1.7232 -0.3433
 3388SOL    HW221624   1.498   1.450   3.182  0.3519 -0.3007  0.7518
 3389SOL     OW21625   0.295   2.982  12.843 -0.6084  0.5212  0.9267
 3389SOL    HW121626   0.346   2.902  12.830  0.0205  1.0363  0.1423
 3389SOL    HW221627   0.306   2.996  12.937  2.3156  0.2803  0.6257
 3390SOL     OW21628   3.806   0.736   7.088 -0.2208  0.5545  0.4973
 3390SOL    HW121629   3.813   0.649   7.129  0.6720  0.3133 -0.1539
 3390SOL    HW221630   3.711   0.738   7.086 -0.1168  1.3475 -2.4219
 3391SOL     OW21631   2.494   1.888   4.792 -0.2334 -0.3966  0.1424
 3391SOL    HW121632   2.445   1.939   4.856 -0.5476 -1.0175  0.4010
 3391SOL    HW221633   2.443   1.807   4.788 -2.8921  1.2792  0.1482
 3392SOL     OW21634   3.705   2.472   1.241  0.3359 -0.0305  0.5974
 3392SOL    HW121635   3.767   2.544   1.252 -1.6724  1.6793  0.6791
 3392SOL    HW221636   3.767   2.402   1.223  1.7487  1.2395  0.4882
 3393SOL     OW21637   0.658   2.064   4.568 -0.6430 -0.0374  0.1681
 3393SOL    HW121638   0.752   2.070   4.550 -0.5804 -3.1811 -0.4316
 3393SOL    HW221639   0.613   2.101   4.492 -1.2696 -0.5907  0.2703
 3394SOL     OW21640   3.301   3.527   3.165 -0.4209  0.2069  0.0300
 3394SOL    HW121641   3.265   3.507   3.251 -1.3741 -1.1171 -0.6781
 3394SOL    HW221642   3.357   3.600   3.192  1.3989 -1.1545 -0.0384
 3395SOL     OW21643   0.524   2.073  10.751 -0.1627 -0.6566  0.3703
 3395SOL    HW121644   0.592   2.006  10.739 -1.2055 -1.7787  0.7371
 3395SOL    HW221645   0.574   2.151  10.773 -0.9236 -0.3088  0.8881
 3396SOL     OW21646   4.149   3.517  16.863  0.4966  0.0459 -0.2944
 3396SOL    HW121647   4.085   3.454  16.829  0.9748  0.8154 -2.6188
 3396SOL    HW221648   4.096   3.589  16.829  1.5118  1.5370  1.3459
 3397SOL     OW21649   0.471   0.988   2.358 -0.4956  0.0861  0.7851
 3397SOL    HW121650   0.382   1.017   2.335 -0.3180 -0.8230 -1.0795
 3397SOL    HW221651   0.527   1.043   2.302 -2.0800 -0.3418 -1.1987
 3398SOL     OW21652   1.069   0.173   8.194 -0.1750  0.7029  0.2842
 3398SOL    HW121653   0.978   0.187   8.219 -0.0296  1.6415  0.2782
 3398SOL    HW221654   1.112   0.166   8.279  0.7720  0.5964 -0.1906
 3399SOL     OW21655   3.065   1.488   4.180  0.5425 -0.7925 -0.7279
 3399SOL    HW121656   3.068   1.434   4.101 -1.6443 -2.9874  0.6867
 3399SOL    HW221657   3.141   1.446   4.220  0.5584 -0.1981 -0.1455
 3400SOL     OW21658   2.687   1.475  16.051 -0.6898 -0.5418 -0.2868
 3400SOL    HW121659   2.725   1.394  16.084  0.7019  0.5763  0.8173
 3400SOL    HW221660   2.596   1.466  16.077 -1.3646  0.8947 -2.1260
 3401SOL     OW21661   1.149   1.174  15.737 -0.1395  0.1224 -0.2508
 3401SOL    HW121662   1.109   1.161  15.651 -0.3038 -0.7749 -0.0416
 3401SOL    HW221663   1.100   1.101  15.776 -0.6938  0.6775  0.0802
 3402SOL     OW21664   3.925   3.379   7.259 -0.0072 -0.0906  0.6992
 3402SOL    HW121665   3.852   3.318   7.265  0.9104 -1.0867  1.6483
 3402SOL    HW221666   3.876   3.459   7.278  0.8895  0.8378 -0.9025
 3403SOL     OW21667   3.212   2.368   6.443 -0.2016 -0.0452  0.2513
 3403SOL    HW121668   3.249   2.306   6.380  0.0998 -1.6667  2.0105
 3403SOL    HW221669   3.166   2.428   6.384 -1.0305 -2.2133 -1.3144
 3404SOL     OW21670   4.125   2.924   8.843 -0.2560 -0.3633 -0.3512
 3404SOL    HW121671   4.092   2.837   8.865  1.6663 -0.9122  0.3727
 3404SOL    HW221672   4.218   2.916   8.865 -0.1567  0.8018 -0.3626
 3405SOL     OW21673   4.032   0.733  12.065 -0.0132  0.6107 -0.3189
 3405SOL    HW121674   4.006   0.742  11.974 -1.2793  0.0929 -0.0073
 3405SOL    HW221675   3.995   0.649  12.091  0.7061  0.3089 -0.2698
 3406SOL     OW21676   2.972   1.319   9.709  0.2045 -0.6674  0.2702
 3406SOL    HW121677   2.975   1.242   9.652  2.1996 -0.0864 -0.4068
 3406SOL    HW221678   2.907   1.297   9.775 -1.5278  0.4604 -1.0799
 3407SOL     OW21679   3.483   3.078   4.919  0.3110 -0.0936 -0.1593
 3407SOL    HW121680   3.462   3.105   4.829 -0.5697  2.5468  0.8185
 3407SOL    HW221681   3.578   3.090   4.924  0.5618 -1.7141 -1.2429
 3408SOL     OW21682   1.959   0.837   6.709 -0.1232  0.1915 -0.1456
 3408SOL    HW121683   1.908   0.862   6.785  0.6562 -2.0807  1.1460
 3408SOL    HW221684   1.904   0.890   6.652 -0.7387  0.8220  1.0393
 3409SOL     OW21685   4.681   4.716  13.608 -0.3431 -0.1034  0.1180
 3409SOL    HW121686   0.051   4.712  13.587 -0.4308  1.0948 -0.4676
 3409SOL    HW221687   4.684   4.645  13.672  1.0423 -0.1262  0.0343
 3410SOL     OW21688   0.157   2.846   1.504  0.4769  0.2265 -0.7852
 3410SOL    HW121689   0.225   2.859   1.570 -1.5949  0.7961  1.2523
 3410SOL    HW221690   0.212   2.837   1.426  0.7192 -2.4742 -0.3203
 3411SOL     OW21691   0.627   2.300   5.227 -0.0479 -0.5292 -0.6482
 3411SOL    HW121692   0.555   2.364   5.232  0.0507 -0.2756 -2.4991
 3411SOL    HW221693   0.697   2.355   5.262 -0.9308  0.1396  0.0946
 3412SOL     OW21694   2.657   3.882   8.488 -0.2080  0.5616 -0.1007
 3412SOL    HW121695   2.625   3.806   8.538  0.2208 -0.6303 -1.6477
 3412SOL    HW221696   2.600   3.878   8.412  0.6127 -0.5896 -0.6685
 3413SOL     OW21697   2.061   0.154   6.411  0.3240 -0.1593 -0.1077
 3413SOL    HW121698   2.023   0.150   6.499  0.6227 -2.5758 -0.0915
 3413SOL    HW221699   2.151   0.121   6.413  0.2413 -0.3369  0.4630
 3414SOL     OW21700   3.601   1.568   6.879  0.1448 -0.3940  0.5333
 3414SOL    HW121701   3.658   1.492   6.889  0.0369 -0.7486 -1.7342
 3414SOL    HW221702   3.599   1.589   6.973 -0.4771 -1.8357  0.8317
 3415SOL     OW21703   4.482   4.721   1.126  0.3184  0.2948  0.5639
 3415SOL    HW121704   4.528   4.710   1.043 -4.1987  0.7735 -1.9855
 3415SOL    HW221705   4.469   0.092   1.123  2.1355  0.5184 -0.6861
 3416SOL     OW21706   3.177   0.165   0.597  0.1725 -0.5260 -0.3640
 3416SOL    HW121707   3.191   0.183   0.505 -0.0030  1.6964  0.0369
 3416SOL    HW221708   3.081   0.167   0.607  0.0496  0.5445 -1.8573
 3417SOL     OW21709   3.997   4.045  15.788  0.7622 -0.0685  0.0609
 3417SOL    HW121710   4.055   4.099  15.735  1.5687 -0.9416  0.0448
 3417SOL    HW221711   4.072   3.996  15.822  2.4753  2.3667 -0.2337
 3418SOL     OW21712   4.537   4.225   4.404  0.2778  0.3221 -0.1459
 3418SOL    HW121713   4.477   4.209   4.331 -1.8177 -0.4021  1.7398
 3418SOL    HW221714   4.600   4.287   4.369 -2.6573  2.4263 -1.7004
 3419SOL     OW21715   2.712   0.536   2.095  0.3468 -0.1640  0.1266
 3419SOL    HW121716   2.648   0.524   2.165  0.1195  1.2346  0.1640
 3419SOL    HW221717   2.683   0.610   2.041 -0.7057 -1.4891 -1.1160
 3420SOL     OW21718   3.737   0.152   1.039 -0.4134 -0.3736  0.3377
 3420SOL    HW121719   3.781   0.133   0.956 -0.7218  1.3006 -0.2017
 3420SOL    HW221720   3.694   0.229   1.002  0.0927 -0.4564 -0.4115
 3421SOL     OW21721   0.170   1.324   2.856 -0.3241  0.2936  0.1781
 3421SOL    HW121722   0.222   1.248   2.828  1.7620  1.9081 -0.3206
 3421SOL    HW221723   0.226   1.378   2.912  0.2281  0.0612 -0.1476
 3422SOL     OW21724   0.764   1.689   7.619 -0.2636  0.1523 -0.0392
 3422SOL    HW121725   0.808   1.772   7.637  1.1339 -0.7908  0.9426
 3422SOL    HW221726   0.702   1.678   7.691  0.2424 -1.9384  0.0957
 3423SOL     OW21727   1.610   3.434   8.035  0.1320  0.2403  0.2069
 3423SOL    HW121728   1.680   3.436   8.100 -2.0985 -1.5004  2.6650
 3423SOL    HW221729   1.668   3.415   7.961 -2.1846  0.6325 -1.6971
 3424SOL     OW21730   1.362   1.800   2.820  0.2351 -0.4546  0.0007
 3424SOL    HW121731   1.336   1.773   2.732  0.2999 -2.4630  0.5963
 3424SOL    HW221732   1.377   1.894   2.811 -2.5893  0.0597  0.4875
 3425SOL     OW21733   4.681   4.442   3.254  0.6092  0.4934 -0.0609
 3425SOL    HW121734   4.668   4.510   3.320 -1.6819 -1.0003  1.0246
 3425SOL    HW221735   4.615   4.380   3.284  1.6274  0.2396  1.6568
 3426SOL     OW21736   3.160   4.355   2.934  0.4439 -0.8060  0.0430
 3426SOL    HW121737   3.212   4.414   2.988  0.8413 -0.8374 -0.3026
 3426SOL    HW221738   3.231   4.300   2.901 -0.4357 -3.1599  2.1310
 3427SOL     OW21739   4.168   2.178   1.599  0.2526 -0.2267 -0.0652
 3427SOL    HW121740   4.135   2.198   1.686  0.9694 -0.3580  0.2433
 3427SOL    HW221741   4.092   2.206   1.548  0.4802  0.6782  0.0909
 3428SOL     OW21742   0.376   3.824  16.227 -0.4482 -0.6019 -0.4972
 3428SOL    HW121743   0.339   3.747  16.271  0.2555 -0.6242  0.0539
 3428SOL    HW221744   0.405   3.796  16.140 -1.8192 -0.7448 -0.8999
 3429SOL     OW21745   4.382   3.577  17.511  0.2338 -0.0821 -0.5630
 3429SOL    HW121746   4.443   3.520  17.557  0.3879 -0.0708 -0.7530
 3429SOL    HW221747   4.425   3.649  17.465  1.7036  0.2558  1.3352
 3430SOL     OW21748   2.548   0.690   4.188 -0.4313  0.0746  0.1949
 3430SOL    HW121749   2.481   0.660   4.126 -2.0786 -0.0434  2.0099
 3430SOL    HW221750   2.501   0.712   4.269  2.4884 -1.9180  2.4155
 3431SOL     OW21751   3.350   2.917   4.006  0.3432  0.5661 -0.3758
 3431SOL    HW121752   3.267   2.870   3.999 -0.5191  2.2883 -1.6246
 3431SOL    HW221753   3.314   2.996   4.045 -1.6162 -0.2081 -0.6497
 3432SOL     OW21754   0.840   1.863   6.392 -0.1202 -0.0132  0.1584
 3432SOL    HW121755   0.851   1.902   6.478  0.1540  1.6742 -0.6251
 3432SOL    HW221756   0.819   1.771   6.407 -2.5291  0.3903 -0.8019
 3433SOL     OW21757   2.203   2.813   8.410  0.4120  0.4354  0.6856
 3433SOL    HW121758   2.234   2.743   8.353 -0.9082 -1.3620  2.1310
 3433SOL    HW221759   2.215   2.776   8.498  1.4803  1.1151  0.8210
 3434SOL     OW21760   1.681   0.622   4.045 -0.4768  0.0895 -0.9514
 3434SOL    HW121761   1.589   0.601   4.061  0.5172 -1.6650  2.3688
 3434SOL    HW221762   1.691   0.611   3.950  1.0478 -0.5468 -0.7215
 3435SOL     OW21763   4.378   0.668   6.585 -0.2028  0.0496 -0.2533
 3435SOL    HW121764   4.325   0.640   6.659  0.8924  2.4142  1.3991
 3435SOL    HW221765   4.437   0.594   6.572 -0.5205  0.1869 -2.5503
 3436SOL     OW21766   1.967   2.225   5.341 -0.4461 -0.0686 -0.2402
 3436SOL    HW121767   2.021   2.178   5.277  0.3839 -0.6048  0.8521
 3436SOL    HW221768   2.031   2.237   5.410 -0.1683 -2.9218 -0.0080
 3437SOL     OW21769   1.668   2.807   3.446  0.4424 -0.1549  0.0590
 3437SOL    HW121770   1.614   2.729   3.439  0.9005 -0.3163 -1.6968
 3437SOL    HW221771   1.700   2.827   3.358  1.2729  1.4086  0.7155
 3438SOL     OW21772   0.874   4.114  16.003 -0.3780 -0.2897 -0.0519
 3438SOL    HW121773   0.910   4.166  16.075 -0.3608  0.8953 -0.9145
 3438SOL    HW221774   0.935   4.040  15.994 -0.4636 -0.4084  0.3385
 3439SOL     OW21775   1.815   1.567   9.341 -0.6044  0.2948 -0.2840
 3439SOL    HW121776   1.820   1.498   9.406 -2.3055  2.0029  1.6501
 3439SOL    HW221777   1.865   1.639   9.380 -0.7321  1.6621 -2.6299
 3440SOL     OW21778   2.092   2.821   2.960  0.0506  0.2257  0.4462
 3440SOL    HW121779   2.103   2.813   2.866  2.7766 -0.3629  0.8023
 3440SOL    HW221780   2.159   2.886   2.980  1.4317 -0.4246 -2.0709
 3441SOL     OW21781   1.910   1.927   2.513 -0.1128  0.1490 -0.5938
 3441SOL    HW121782   1.900   1.836   2.542  0.8804  0.9012  2.0991
 3441SOL    HW221783   1.818   1.946   2.494  0.0900  2.6461  0.8909
 3442SOL     OW21784   3.315   0.106   7.254  0.3543 -0.3621 -0.2278
 3442SOL    HW121785   3.284   0.150   7.174  1.4763 -0.6156 -0.8019
 3442SOL    HW221786   3.398   0.070   7.223  0.3527 -0.7299  0.1945
 3443SOL     OW21787   2.571   2.398   5.454  0.1779 -0.8839 -1.1170
 3443SOL    HW121788   2.483   2.376   5.423 -0.4550 -0.0126  0.0643
 3443SOL    HW221789   2.596   2.464   5.389  1.6518 -2.1604 -1.8299
 3444SOL     OW21790   0.640   0.551   3.401  0.0079 -0.7763  0.3860
 3444SOL    HW121791   0.733   0.574   3.400 -0.6551  1.9682 -0.0098
 3444SOL    HW221792   0.634   0.498   3.480  1.9930 -0.5803  0.6828
 3445SOL     OW21793   1.470   1.506   7.829 -0.0549  0.0887  0.4024
 3445SOL    HW121794   1.390   1.469   7.792 -0.0471  1.8388 -1.3589
 3445SOL    HW221795   1.436   1.510   7.919  2.0068  2.8797  1.0455
 3446SOL     OW21796   3.030   0.361   1.287 -0.2003  0.7189 -0.0949
 3446SOL    HW121797   3.082   0.382   1.209  0.8376  3.1426  1.2544
 3446SOL    HW221798   2.958   0.423   1.284  0.1022  1.1555  1.6095
 3447SOL     OW21799   4.547   1.799  16.489  0.2852 -0.5746 -0.0760
 3447SOL    HW121800   4.596   1.768  16.565  0.9328 -0.6480 -0.5214
 3447SOL    HW221801   4.506   1.882  16.516  2.4362  0.6154 -0.4661
 3448SOL     OW21802   2.254   0.770   5.516  0.4037  0.5693  0.0193
 3448SOL    HW121803   2.321   0.702   5.507 -0.8845 -1.1416  3.2493
 3448SOL    HW221804   2.171   0.724   5.526  0.8603 -0.0332  1.0951
 3449SOL     OW21805   1.335   4.210   5.219 -0.2836  0.0944  0.2957
 3449SOL    HW121806   1.383   4.293   5.226  0.4734 -0.0893 -2.4613
 3449SOL    HW221807   1.393   4.136   5.239  1.1960  1.6331  1.7027
 3450SOL     OW21808   0.290   2.351   6.109  0.1529 -0.5719  0.7164
 3450SOL    HW121809   0.364   2.409   6.092 -0.4528  0.0887  0.3439
 3450SOL    HW221810   0.319   2.270   6.066  1.1125  1.8749 -3.2701
 3451SOL     OW21811   3.801   4.668  17.592  0.0792 -0.3039  0.1612
 3451SOL    HW121812   3.887   4.711  17.590  0.4217 -1.0276 -0.4108
 3451SOL    HW221813   3.781   4.641  17.502 -2.5517 -1.0346  0.9970
 3452SOL     OW21814   1.693   3.033   3.203  0.0735  0.0399  0.2863
 3452SOL    HW121815   1.778   3.003   3.235  0.7353  0.5667 -1.0179
 3452SOL    HW221816   1.731   3.064   3.121  1.4041  1.6167  1.5040
 3453SOL     OW21817   2.828   4.448   5.502  0.0990 -0.6718 -0.2523
 3453SOL    HW121818   2.774   4.484   5.573  0.7040 -1.7819  0.7655
 3453SOL    HW221819   2.893   4.398   5.551 -1.1759  0.4797  2.6371
 3454SOL     OW21820   4.440   3.171   6.765 -0.1124  0.1800 -0.4478
 3454SOL    HW121821   4.361   3.182   6.712 -0.0106 -0.2437 -0.6887
 3454SOL    HW221822   4.512   3.204   6.712 -0.3013 -0.7227 -1.2697
 3455SOL     OW21823   3.363   4.035   9.996  0.2585 -0.4104  0.5456
 3455SOL    HW121824   3.423   4.107   9.979  1.7977 -1.1997  2.7001
 3455SOL    HW221825   3.396   3.953   9.960  2.1317  0.3097  0.6578
 3456SOL     OW21826   1.875   4.310   6.628 -0.6919 -0.1866 -0.7641
 3456SOL    HW121827   1.825   4.240   6.670 -0.7056  0.6329  0.5994
 3456SOL    HW221828   1.951   4.326   6.685 -2.2295  0.0762  1.2026
 3457SOL     OW21829   3.508   0.664   1.852 -0.6208  0.4310 -0.2008
 3457SOL    HW121830   3.431   0.607   1.855 -0.6697  0.5728  0.9575
 3457SOL    HW221831   3.535   0.669   1.760 -1.0257 -0.0193 -0.3406
 3458SOL     OW21832   2.642   3.017   9.414  0.6780 -0.0172 -0.1189
 3458SOL    HW121833   2.589   2.986   9.488  1.7127 -0.6481  0.3580
 3458SOL    HW221834   2.615   3.109   9.415 -2.7967 -1.0684  1.5141
 3459SOL     OW21835   2.126   0.823  13.139 -0.2942  0.5173  0.4762
 3459SOL    HW121836   2.146   0.851  13.049 -0.4310  2.7007  1.1129
 3459SOL    HW221837   2.113   0.910  13.177 -1.3147  0.1008  1.0739
 3460SOL     OW21838   2.245   0.788  14.771 -0.5267 -0.3107  0.5191
 3460SOL    HW121839   2.336   0.758  14.763  0.3843  2.4075  0.6089
 3460SOL    HW221840   2.241   0.831  14.857 -0.9783  1.2002 -0.2470
 3461SOL     OW21841   1.431   0.125   1.507 -0.6790 -0.2180 -0.0308
 3461SOL    HW121842   1.514   0.083   1.485 -0.6909  0.3993 -1.2658
 3461SOL    HW221843   1.378   0.065   1.456  0.1436 -0.4881 -0.5737
 3462SOL     OW21844   1.038   2.743   3.974 -0.1650 -0.0884 -0.0159
 3462SOL    HW121845   1.020   2.754   3.880 -1.9657 -2.8152 -0.0038
 3462SOL    HW221846   1.081   2.658   3.969  1.6567  0.9402 -1.6080
 3463SOL     OW21847   4.481   2.496   4.050 -0.4459  0.0296  0.0512
 3463SOL    HW121848   4.504   2.463   3.963  1.5142 -0.5240  0.7827
 3463SOL    HW221849   4.389   2.469   4.049 -0.7643  1.0835 -0.0289
 3464SOL     OW21850   2.132   3.435   2.070  0.3888  0.0102  0.0436
 3464SOL    HW121851   2.066   3.496   2.104 -2.4745 -2.5797 -0.8720
 3464SOL    HW221852   2.177   3.420   2.154  1.3676  1.4856 -0.2219
 3465SOL     OW21853   0.828   4.223   7.254 -0.6384 -0.0419  0.1295
 3465SOL    HW121854   0.805   4.301   7.305  0.0797  0.1693  0.1363
 3465SOL    HW221855   0.836   4.266   7.169  2.0505 -2.6768 -0.9635
 3466SOL     OW21856   0.749   0.805   7.678 -0.0007 -0.3357 -0.3801
 3466SOL    HW121857   0.670   0.846   7.643  0.6009 -1.1555 -2.7420
 3466SOL    HW221858   0.788   0.879   7.725  1.6282 -1.2265 -0.3359
 3467SOL     OW21859   4.485   2.651   6.200 -0.3414 -0.3724 -0.1574
 3467SOL    HW121860   4.510   2.715   6.267  0.2937 -1.2238  0.4251
 3467SOL    HW221861   4.474   2.712   6.127 -1.3175 -0.3180  0.0375
 3468SOL     OW21862   4.544   4.100  10.882  0.0884  0.5794  0.3046
 3468SOL    HW121863   4.504   4.013  10.874  0.5182  0.6827 -2.7579
 3468SOL    HW221864   4.469   4.158  10.890  0.2322  0.8262 -0.1456
 3469SOL     OW21865   1.083   4.321   7.151 -0.1600 -0.3466  0.0303
 3469SOL    HW121866   1.085   4.414   7.127  1.5103  0.2066  2.1913
 3469SOL    HW221867   1.077   4.285   7.063 -3.1128  2.5611 -0.9588
 3470SOL     OW21868   3.070   0.425  14.742  0.5222 -0.3495  0.5863
 3470SOL    HW121869   2.979   0.429  14.711  1.0450 -1.0106 -1.0347
 3470SOL    HW221870   3.118   0.443  14.662  1.3929  0.6153  1.3212
 3471SOL     OW21871   0.899   2.954   3.524  0.5465  1.1112 -0.2981
 3471SOL    HW121872   0.896   3.041   3.484 -0.3092  0.6077 -1.3219
 3471SOL    HW221873   0.868   2.898   3.452  0.0762  0.0436  0.7301
 3472SOL     OW21874   3.228   1.318   7.559  0.0671  0.0388  0.2140
 3472SOL    HW121875   3.234   1.303   7.465 -1.3600  0.5481  0.0382
 3472SOL    HW221876   3.139   1.347   7.581  0.4985  0.5580  1.2764
 3473SOL     OW21877   3.809   3.361   0.263  0.3522  0.2251  0.5153
 3473SOL    HW121878   3.845   3.337   0.178 -0.6835 -0.4502  0.2589
 3473SOL    HW221879   3.832   3.453   0.269 -1.3010  0.8138 -2.1710
 3474SOL     OW21880   2.985   0.625   5.360 -0.1699  0.2980 -0.6060
 3474SOL    HW121881   3.056   0.605   5.299  1.6350  1.4829  1.0779
 3474SOL    HW221882   2.926   0.564   5.315 -1.9589  0.4172  1.5788
 3475SOL     OW21883   4.361   1.416   7.312 -0.3788  0.1239 -0.5071
 3475SOL    HW121884   4.392   1.401   7.401 -1.2374  0.7445 -0.1105
 3475SOL    HW221885   4.355   1.331   7.268  1.2189 -0.1822 -0.1282
 3476SOL     OW21886   1.536   0.877   7.585  0.1208  0.2629 -0.1704
 3476SOL    HW121887   1.612   0.881   7.643 -1.3050  0.9130  1.6471
 3476SOL    HW221888   1.469   0.914   7.643  0.8365 -0.5868  1.1954
 3477SOL     OW21889   0.574   2.552   0.862 -1.0142 -0.2469 -0.8755
 3477SOL    HW121890   0.588   2.544   0.956 -1.0411  4.6083 -0.4804
 3477SOL    HW221891   0.641   2.610   0.825 -1.4342 -0.2127 -1.5963
 3478SOL     OW21892   4.411   3.177   2.043  0.2100  0.1856 -0.2010
 3478SOL    HW121893   4.382   3.132   2.122 -0.8502  2.1296  0.5094
 3478SOL    HW221894   4.461   3.243   2.090  0.6712 -1.1353  1.1820
 3479SOL     OW21895   2.780   0.046   4.126 -0.3213  0.2464  0.4163
 3479SOL    HW121896   2.862   0.087   4.100 -0.3951  0.7430  0.9532
 3479SOL    HW221897   2.756   0.108   4.195  1.3870  1.4286 -0.0605
 3480SOL     OW21898   1.741   4.270   7.248 -0.3343 -0.1608 -0.3644
 3480SOL    HW121899   1.758   4.231   7.334 -3.9633  0.5144  0.6450
 3480SOL    HW221900   1.650   4.299   7.261 -0.3179 -1.3760  2.5842
 3481SOL     OW21901   1.782   1.517   9.070  0.4619 -0.3770 -0.0593
 3481SOL    HW121902   1.689   1.495   9.076  0.3164  0.5116  0.9566
 3481SOL    HW221903   1.796   1.554   9.157  0.7418  0.8826 -0.6401
 3482SOL     OW21904   0.589   0.565  11.060  0.5045  0.3691 -0.6650
 3482SOL    HW121905   0.497   0.541  11.069  0.6025  0.7516  1.5491
 3482SOL    HW221906   0.609   0.530  10.973 -2.5757 -0.4279 -1.0471
 3483SOL     OW21907   1.103   1.759  13.645 -0.3026 -1.0147 -0.2383
 3483SOL    HW121908   1.106   1.668  13.613  0.1498 -1.5629  1.3754
 3483SOL    HW221909   1.085   1.800  13.560 -1.4200  0.9129  0.9484
 3484SOL     OW21910   3.883   3.631   6.570 -0.6920 -0.5957 -0.1455
 3484SOL    HW121911   3.838   3.550   6.594 -1.2937  0.4200  2.1155
 3484SOL    HW221912   3.902   3.661   6.659  1.8806  0.5193 -1.0703
 3485SOL     OW21913   4.102   0.281   8.171 -0.3234  0.0669 -0.2526
 3485SOL    HW121914   4.156   0.273   8.250  0.8987  2.9264 -0.7870
 3485SOL    HW221915   4.017   0.281   8.214 -0.2426  1.3002 -0.1078
 3486SOL     OW21916   2.585   3.212   8.000  0.4440  0.6818 -0.4426
 3486SOL    HW121917   2.654   3.193   7.937  2.7949  1.0031  1.9984
 3486SOL    HW221918   2.515   3.161   7.960 -1.4648  1.8452  1.3625
 3487SOL     OW21919   0.484   4.218   2.483 -0.2330  0.0833 -0.1429
 3487SOL    HW121920   0.468   4.295   2.428  1.4675  0.4515 -0.0909
 3487SOL    HW221921   0.443   4.256   2.561  0.2991  0.6307 -0.1330
 3488SOL     OW21922   2.900   3.950   9.872 -0.1019 -0.2111 -0.0011
 3488SOL    HW121923   2.953   3.923   9.947 -0.5898 -1.6030 -0.1468
 3488SOL    HW221924   2.877   4.041   9.886  1.5279  0.5569 -2.1877
 3489SOL     OW21925   4.181   0.788   8.872 -0.0246 -0.1159 -0.5250
 3489SOL    HW121926   4.157   0.789   8.964  1.9926  0.5039  0.0054
 3489SOL    HW221927   4.132   0.711   8.842  1.6640 -0.9934 -1.0337
 3490SOL     OW21928   0.417   4.464  10.395  0.2367 -0.1610 -0.4448
 3490SOL    HW121929   0.400   4.423  10.310 -0.9764 -0.4219 -0.0766
 3490SOL    HW221930   0.452   4.388  10.442 -2.0116 -0.8884  0.0464
 3491SOL     OW21931   1.452   1.852   7.259 -0.1324  0.3879  0.5903
 3491SOL    HW121932   1.469   1.918   7.191 -1.0972  0.1409  0.1210
 3491SOL    HW221933   1.521   1.794   7.227 -1.4174 -2.1768  2.4472
 3492SOL     OW21934   2.177   3.404   7.653  0.2439 -0.2932 -0.0994
 3492SOL    HW121935   2.132   3.341   7.596 -1.8300  0.3664  0.8181
 3492SOL    HW221936   2.137   3.365   7.730  0.7998 -0.5054  0.0807
 3493SOL     OW21937   4.236   3.132   1.832 -0.1672  0.2780  0.3629
 3493SOL    HW121938   4.298   3.151   1.903 -0.1058  0.3726  0.2826
 3493SOL    HW221939   4.291   3.146   1.755  1.4235 -0.7691  1.3141
 3494SOL     OW21940   4.489   4.430   0.447 -1.1609  0.3818  0.5414
 3494SOL    HW121941   4.451   4.477   0.372  1.6818  1.6651 -0.0905
 3494SOL    HW221942   4.409   4.392   0.484 -0.0849 -2.2067  0.2030
 3495SOL     OW21943   1.957   0.614   6.060  0.0465  0.2152  0.3098
 3495SOL    HW121944   1.877   0.596   6.108 -0.2770  0.1678 -0.2439
 3495SOL    HW221945   1.931   0.602   5.968  3.1490 -0.0909 -0.5252
 3496SOL     OW21946   2.472   2.465   5.989 -0.1703  0.2161  0.0261
 3496SOL    HW121947   2.418   2.442   5.913 -4.2812  0.5354  2.8333
 3496SOL    HW221948   2.554   2.417   5.977 -0.8156 -0.2028 -2.6634
 3497SOL     OW21949   2.026   2.265   2.114  0.3127  0.3562 -0.2740
 3497SOL    HW121950   1.959   2.217   2.162  1.4467 -1.1475 -0.1866
 3497SOL    HW221951   1.995   2.355   2.119  1.0026  0.4690  2.0205
 3498SOL     OW21952   4.374   3.301  16.266  0.0751  0.4549 -0.1682
 3498SOL    HW121953   4.401   3.372  16.208  0.0118 -0.8911 -1.8853
 3498SOL    HW221954   4.341   3.352  16.339 -1.6601  0.4314 -0.9334
 3499SOL     OW21955   3.479   0.000  12.767  0.2656  0.3516 -0.1187
 3499SOL    HW121956   3.504   0.007  12.859 -1.3862  3.0173  0.1400
 3499SOL    HW221957   3.403   4.668  12.783 -0.1577  1.3109  1.1890
 3500SOL     OW21958   4.481   3.435   7.204  0.5177 -0.2378 -0.1157
 3500SOL    HW121959   4.404   3.473   7.245  0.8209  0.6499 -0.3557
 3500SOL    HW221960   4.448   3.397   7.123  1.0368 -0.7969 -0.0668
 3501SOL     OW21961   2.525   4.504   8.951  0.1267 -0.0513  0.4119
 3501SOL    HW121962   2.568   4.418   8.949  1.0466  0.3666  2.0949
 3501SOL    HW221963   2.435   4.478   8.968 -0.1088 -0.5283 -1.6159
 3502SOL     OW21964   0.750   0.564   7.836  0.5840 -0.1177  0.1073
 3502SOL    HW121965   0.710   0.610   7.909  0.4773 -0.2778  0.1491
 3502SOL    HW221966   0.729   0.636   7.777 -2.2574 -0.7696  0.3126
 3503SOL     OW21967   0.733   3.165  16.630 -0.1611  0.0392 -0.7130
 3503SOL    HW121968   0.689   3.089  16.668  1.1591  0.0853  0.9230
 3503SOL    HW221969   0.666   3.233  16.637  1.1525  1.5164 -2.5700
 3504SOL     OW21970   2.154   1.142   2.659  0.0985  0.3657 -0.2583
 3504SOL    HW121971   2.242   1.164   2.627  1.2940 -0.1147  2.7582
 3504SOL    HW221972   2.162   1.180   2.746 -1.5028  0.2840 -0.0730
 3505SOL     OW21973   4.142   1.113   0.110 -0.0228 -0.2379  0.5835
 3505SOL    HW121974   4.173   1.055   0.180  0.8571  2.3166  2.3026
 3505SOL    HW221975   4.074   1.060   0.068  1.3877 -1.0453 -0.6919
 3506SOL     OW21976   0.505   0.528   4.617 -0.2652 -0.2910  0.1206
 3506SOL    HW121977   0.589   0.560   4.586 -0.2735 -0.2328  0.1586
 3506SOL    HW221978   0.459   0.519   4.534  0.5195  0.5693 -0.3974
 3507SOL     OW21979   0.854   1.541   9.388 -0.4444 -0.1665 -0.1125
 3507SOL    HW121980   0.823   1.459   9.426  0.8404 -0.5724  0.0615
 3507SOL    HW221981   0.925   1.570   9.445 -0.9938 -0.7521  0.8870
 3508SOL     OW21982   3.264   1.582   6.228  0.3701  0.2980  0.6105
 3508SOL    HW121983   3.253   1.499   6.181 -2.0884  1.2291 -0.4688
 3508SOL    HW221984   3.192   1.636   6.193 -0.9852 -0.0266  2.8950
 3509SOL     OW21985   1.454   2.709  17.302  0.3638 -0.6654 -0.6604
 3509SOL    HW121986   1.360   2.696  17.313  0.8536 -3.0805  0.8629
 3509SOL    HW221987   1.452   2.803  17.316  2.2285 -0.8670  1.0372
 3510SOL     OW21988   0.801   2.200   7.092 -0.0825  0.2202  0.0625
 3510SOL    HW121989   0.877   2.246   7.128  0.0703  0.0218 -0.0065
 3510SOL    HW221990   0.782   2.257   7.018 -0.9382 -1.8847 -1.3211
 3511SOL     OW21991   4.371   1.275  10.268  0.4689  0.2336 -0.8883
 3511SOL    HW121992   4.366   1.203  10.330  0.9093  1.9355  1.1052
 3511SOL    HW221993   4.366   1.237  10.180  0.6583 -0.1205 -0.7441
 3512SOL     OW21994   1.451   3.442   0.176 -0.7314 -0.6040 -0.3137
 3512SOL    HW121995   1.421   3.532   0.166  2.5849  0.7560  1.9233
 3512SOL    HW221996   1.390   3.401   0.237 -2.2927  2.5646  0.2409
 3513SOL     OW21997   2.715   2.032   0.023 -0.1018 -0.2566  0.6323
 3513SOL    HW121998   2.731   1.977  17.644 -0.7422 -2.1814  1.8707
 3513SOL    HW221999   2.649   1.983   0.072  0.4379 -0.3998  1.2154
 3514SOL     OW22000   2.833   1.387  11.847 -0.0553  0.2322 -0.3230
 3514SOL    HW122001   2.768   1.393  11.777  0.7003  1.2215 -0.9418
 3514SOL    HW222002   2.860   1.479  11.853 -0.3864  0.3882 -1.2887
 3515SOL     OW22003   3.243   1.772   6.793  0.8294 -0.1128  0.0509
 3515SOL    HW122004   3.305   1.729   6.735  1.6662  2.6602 -1.1279
 3515SOL    HW222005   3.168   1.736   6.747 -0.0912 -2.6076  3.4604
 3516SOL     OW22006   3.388   0.047   3.080  0.0030 -0.4230 -0.6587
 3516SOL    HW122007   3.324   0.077   3.144  1.6062  0.9677  0.2764
 3516SOL    HW222008   3.471   0.069   3.122 -0.9503 -3.3620  2.7691
 3517SOL     OW22009   0.588   2.492   6.529 -0.0099  0.4335  0.1337
 3517SOL    HW122010   0.536   2.545   6.590  0.1359  1.0094 -0.2441
 3517SOL    HW222011   0.539   2.410   6.533  0.7425 -0.0999 -1.5234
 3518SOL     OW22012   3.154   2.639  16.561 -0.3095 -0.1898 -0.0089
 3518SOL    HW122013   3.163   2.645  16.656  0.4612 -1.7501  0.0137
 3518SOL    HW222014   3.112   2.724  16.546 -2.2389 -1.1693 -0.1140
 3519SOL     OW22015   2.414   2.602   1.099  0.1145  0.0473  0.2226
 3519SOL    HW122016   2.366   2.665   1.045  0.2383 -1.0761 -1.2014
 3519SOL    HW222017   2.458   2.657   1.163  0.6310  0.9452 -0.9212
 3520SOL     OW22018   0.413   4.656   9.832  0.8981 -0.3046 -0.0205
 3520SOL    HW122019   0.454   4.697   9.908  0.6404  0.9011 -0.5327
 3520SOL    HW222020   0.417   0.010   9.778 -1.1180 -0.1953 -0.0270
 3521SOL     OW22021   0.914   0.174  13.558 -0.1446  0.0237 -0.1484
 3521SOL    HW122022   0.893   0.115  13.486  1.0287 -1.3479  0.6320
 3521SOL    HW222023   0.826   0.190  13.593  0.4508  0.7725  1.0175
 3522SOL     OW22024   3.947   0.438   9.118  0.9127 -0.0511  0.2304
 3522SOL    HW122025   3.852   0.445   9.103  1.1529 -0.1471 -1.4084
 3522SOL    HW222026   3.968   0.483   9.036 -1.6125 -0.9239 -0.9110
 3523SOL     OW22027   1.405   3.454   5.450  0.7123 -0.0188 -0.1618
 3523SOL    HW122028   1.496   3.482   5.438  0.3765 -0.2346 -3.3027
 3523SOL    HW222029   1.409   3.435   5.544  1.3349 -0.5947 -0.3051
 3524SOL     OW22030   1.281   1.453   4.429  0.5106  0.4522  0.2125
 3524SOL    HW122031   1.256   1.407   4.509 -1.2951 -1.5821 -1.5040
 3524SOL    HW222032   1.245   1.395   4.362  0.8324 -0.1491  0.5645
 3525SOL     OW22033   1.519   3.435  10.348 -0.0178 -0.0123  0.7333
 3525SOL    HW122034   1.526   3.431  10.253 -0.3848 -1.8496  0.7809
 3525SOL    HW222035   1.513   3.530  10.357  1.0903  0.0429  1.0163
 3526SOL     OW22036   0.703   2.949  11.523 -0.3111 -0.4892 -0.2873
 3526SOL    HW122037   0.769   2.900  11.474  0.2093  0.4720 -0.5538
 3526SOL    HW222038   0.700   3.035  11.481  1.2002  0.4413  1.4862
 3527SOL     OW22039   1.141   1.813  15.544  0.0708 -0.0530 -0.3806
 3527SOL    HW122040   1.179   1.767  15.469  0.1936 -0.1499 -0.2585
 3527SOL    HW222041   1.061   1.761  15.555  0.1317  0.0976  0.7787
 3528SOL     OW22042   4.455   0.335  13.569  0.5149 -0.5119 -0.5652
 3528SOL    HW122043   4.403   0.415  13.568 -1.6095 -1.9095 -0.2405
 3528SOL    HW222044   4.420   0.289  13.645  1.1512  3.0167  1.8432
 3529SOL     OW22045   2.564   2.864   8.211  0.0735 -0.0228 -0.3395
 3529SOL    HW122046   2.657   2.886   8.205 -0.2811  1.0859 -1.5210
 3529SOL    HW222047   2.568   2.774   8.246 -2.6901  0.9482  2.4524
 3530SOL     OW22048   2.357   4.484   6.454 -0.7586 -0.7517  0.0661
 3530SOL    HW122049   2.331   4.394   6.471 -0.0248 -0.8088  0.9035
 3530SOL    HW222050   2.427   4.502   6.517 -0.8849  1.9970 -0.5972
 3531SOL     OW22051   0.111   3.106  11.842  0.0870  0.0983  0.0667
 3531SOL    HW122052   0.142   3.196  11.826 -1.8803  1.3792  3.4443
 3531SOL    HW222053   0.047   3.102  11.771 -0.7179  2.8470  0.6439
 3532SOL     OW22054   3.246   3.017   1.284 -0.4454 -0.2443 -0.3485
 3532SOL    HW122055   3.249   3.112   1.299  0.6818 -0.7576  2.8701
 3532SOL    HW222056   3.187   2.976   1.348 -1.2687  1.2196 -0.1643
 3533SOL     OW22057   2.248   3.688  14.669 -0.7089 -0.4021 -0.2405
 3533SOL    HW122058   2.252   3.737  14.751 -1.4667 -2.4811  1.0337
 3533SOL    HW222059   2.254   3.754  14.600  0.3640 -1.2658 -0.9792
 3534SOL     OW22060   0.894   4.304   8.048 -0.0571  0.6765 -0.0297
 3534SOL    HW122061   0.945   4.310   8.128  0.0778 -0.9996  0.0220
 3534SOL    HW222062   0.962   4.268   7.990  0.6829 -0.4905  1.5758
 3535SOL     OW22063   4.458   1.810   0.272 -0.1280 -0.8586  0.3177
 3535SOL    HW122064   4.477   1.733   0.219 -0.5750 -1.3721  0.8990
 3535SOL    HW222065   4.399   1.777   0.340 -0.8507 -1.1362 -0.4488
 3536SOL     OW22066   3.994   4.167   5.863 -0.2129  0.1522 -0.2902
 3536SOL    HW122067   3.975   4.128   5.778  2.4363 -1.0365 -0.3301
 3536SOL    HW222068   4.025   4.089   5.909  0.6477  0.7186  0.0901
 3537SOL     OW22069   1.103   2.481   3.936  0.2137  0.5307  0.3788
 3537SOL    HW122070   1.177   2.421   3.927  0.4662  0.7732  0.7950
 3537SOL    HW222071   1.038   2.453   3.871 -0.6095 -1.1807  1.9564
 3538SOL     OW22072   3.215   3.664   8.388 -0.3836 -0.0583  0.1048
 3538SOL    HW122073   3.225   3.673   8.483 -2.5737  2.4853  0.0856
 3538SOL    HW222074   3.286   3.603   8.366 -1.0175 -0.4720 -0.7993
 3539SOL     OW22075   4.423   4.361   6.440 -0.3839  0.1716 -0.6762
 3539SOL    HW122076   4.441   4.300   6.369 -0.2387 -0.4050 -0.1435
 3539SOL    HW222077   4.464   4.303   6.504 -1.4656 -1.1177 -1.1321
 3540SOL     OW22078   3.371   0.427   5.109  0.1879  0.0610 -0.5853
 3540SOL    HW122079   3.448   0.401   5.059  0.5000 -0.2294  0.0377
 3540SOL    HW222080   3.362   0.355   5.172  0.6227 -0.2682 -0.8962
 3541SOL     OW22081   2.950   0.323   3.924 -0.2921 -0.2895  0.3756
 3541SOL    HW122082   2.972   0.310   4.017 -0.7511  0.4669  0.5872
 3541SOL    HW222083   2.971   0.233   3.900 -1.9376 -0.7359  0.6241
 3542SOL     OW22084   2.550   0.984   1.412  0.0223  0.2652 -0.9824
 3542SOL    HW122085   2.641   1.007   1.399  0.7548 -0.7174  2.2595
 3542SOL    HW222086   2.558   0.889   1.425  0.3985  0.2315 -1.5059
 3543SOL     OW22087   2.011   3.958   6.288  0.1515 -0.2584  0.4004
 3543SOL    HW122088   1.961   3.976   6.208  2.6274 -1.5291 -1.4371
 3543SOL    HW222089   1.990   3.865   6.297 -1.1296  0.0279  0.3480
 3544SOL     OW22090   3.627   2.686   9.096  0.4455  0.4553  0.3324
 3544SOL    HW122091   3.709   2.638   9.087 -0.4546 -1.2615  1.3393
 3544SOL    HW222092   3.561   2.619   9.076  0.4938  0.9426 -1.4345
 3545SOL     OW22093   0.460   4.113   6.425  0.2131 -0.3290  0.0463
 3545SOL    HW122094   0.403   4.043   6.458 -0.0853  1.1867  2.7900
 3545SOL    HW222095   0.537   4.106   6.481 -0.4247  2.7591  1.2770
 3546SOL     OW22096   0.492   2.583  13.888  0.5001  0.2387 -0.5552
 3546SOL    HW122097   0.556   2.610  13.954  0.1199  1.1763 -0.5683
 3546SOL    HW222098   0.427   2.540  13.943  1.5934 -1.2194 -0.4263
 3547SOL     OW22099   2.607   4.485  15.081 -0.6509 -0.2044 -0.2938
 3547SOL    HW122100   2.627   4.564  15.131  1.1526  0.3413 -1.8898
 3547SOL    HW222101   2.552   4.520  15.010 -1.9335  0.3147  0.9536
 3548SOL     OW22102   1.499   4.615   6.435 -0.4308  0.3663 -0.6684
 3548SOL    HW122103   1.547   4.658   6.506 -0.5802  0.2435 -0.4923
 3548SOL    HW222104   1.560   4.584   6.369 -0.2121  2.0558 -1.2523
 3549SOL     OW22105   1.200   1.567   6.026 -0.0107  0.2368  0.4633
 3549SOL    HW122106   1.128   1.567   5.964  0.9397  2.1935 -0.6310
 3549SOL    HW222107   1.263   1.519   5.972  0.6352 -2.7743  3.8988
 3550SOL     OW22108   2.825   1.467   0.517 -0.1398 -0.3148  0.5821
 3550SOL    HW122109   2.907   1.433   0.554  1.1957  3.0889  0.7115
 3550SOL    HW222110   2.815   1.551   0.561 -0.1288 -0.5731  1.0857
 3551SOL     OW22111   1.548   2.886  14.285 -0.2246  0.4513 -0.0167
 3551SOL    HW122112   1.594   2.963  14.249 -0.7752  0.1571 -1.3438
 3551SOL    HW222113   1.486   2.881  14.213 -1.2321 -0.1689  0.8967
 3552SOL     OW22114   4.310   3.784   8.734 -0.6289 -0.5537 -0.3525
 3552SOL    HW122115   4.270   3.867   8.760  0.2284 -0.3645  0.3526
 3552SOL    HW222116   4.315   3.797   8.639  0.8022 -2.0030 -0.4783
 3553SOL     OW22117   0.506   2.715   8.465 -0.6852  0.3446  0.3342
 3553SOL    HW122118   0.513   2.653   8.538 -1.3347  0.9784  0.9292
 3553SOL    HW222119   0.430   2.674   8.423  1.0765  0.6113 -3.0978
 3554SOL     OW22120   2.032   2.748  12.578 -0.9005 -0.2709 -0.5737
 3554SOL    HW122121   2.011   2.682  12.511 -1.2754 -1.1053  0.3646
 3554SOL    HW222122   2.088   2.807  12.529  0.5121 -1.7794 -0.7803
 3555SOL     OW22123   3.670   0.967   4.859 -0.3196 -0.7148  0.2211
 3555SOL    HW122124   3.615   0.896   4.892  1.1794 -1.8374  0.3356
 3555SOL    HW222125   3.721   0.922   4.791  1.0219 -0.3067  0.9425
 3556SOL     OW22126   3.443   4.572   8.751  0.0612 -0.3080  0.1706
 3556SOL    HW122127   3.351   4.549   8.764  0.1284  0.4909  2.0328
 3556SOL    HW222128   3.471   4.523   8.674 -1.5529 -0.9491 -0.0081
 3557SOL     OW22129   0.319   3.210   8.096  0.5167  0.1686  0.2033
 3557SOL    HW122130   0.224   3.199   8.093  0.6504 -1.2154  0.7302
 3557SOL    HW222131   0.337   3.117   8.111 -1.1679 -0.4978 -1.8717
 3558SOL     OW22132   0.195   4.698   5.335  0.0191 -0.3192  0.0781
 3558SOL    HW122133   0.282   4.662   5.316 -1.0817 -2.0305 -1.6700
 3558SOL    HW222134   0.201   0.061   5.295  0.7303  0.1544  1.2325
 3559SOL     OW22135   3.214   3.248   9.754 -0.3195  0.6008 -0.1431
 3559SOL    HW122136   3.197   3.286   9.841 -0.2364  0.9839 -0.2934
 3559SOL    HW222137   3.122   3.226   9.741 -1.1369  1.9715  3.3198
 3560SOL     OW22138   3.292   4.469   4.030 -0.5633  0.0064  0.0430
 3560SOL    HW122139   3.246   4.386   4.039 -0.0561  0.0749  3.1430
 3560SOL    HW222140   3.373   4.456   4.078 -0.0023  0.4229 -0.7837
 3561SOL     OW22141   3.491   1.985   3.465 -0.8812 -0.4602  0.3564
 3561SOL    HW122142   3.543   1.949   3.537  0.9849  2.0863  0.2923
 3561SOL    HW222143   3.545   1.952   3.393  1.1495  3.0167  0.2347
 3562SOL     OW22144   3.291   2.842   0.157 -0.0361  0.1084 -0.1501
 3562SOL    HW122145   3.373   2.798   0.133 -0.7341 -1.3635  0.1170
 3562SOL    HW222146   3.281   2.809   0.247  0.9491 -0.7895 -0.3621
 3563SOL     OW22147   1.210   4.696   5.114 -0.7633  0.4786 -0.1064
 3563SOL    HW122148   1.119   4.668   5.108 -0.5360 -0.0390 -0.9764
 3563SOL    HW222149   1.222   0.026   5.036  0.2137 -1.4010 -1.2406
 3564SOL     OW22150   1.420   0.044  15.133  0.3040  0.0326  0.0358
 3564SOL    HW122151   1.406   0.041  15.228  1.8309  0.4138  0.2858
 3564SOL    HW222152   1.459   0.132  15.132 -2.3411  1.2051  1.2595
 3565SOL     OW22153   1.946   1.800  12.779 -0.0849  0.2766 -0.4712
 3565SOL    HW122154   1.970   1.836  12.694  0.4137  0.6310 -0.1812
 3565SOL    HW222155   1.899   1.719  12.760  0.4085 -0.3824  1.0356
 3566SOL     OW22156   0.080   1.450  16.021 -0.1682 -0.3085 -0.1999
 3566SOL    HW122157   0.140   1.525  16.025 -1.6525  0.8516  0.3694
 3566SOL    HW222158   0.040   1.469  15.936 -0.2908 -1.4977 -0.4033
 3567SOL     OW22159   4.575   3.409   7.824 -0.3890  0.1850 -0.7292
 3567SOL    HW122160   4.489   3.439   7.796 -0.3364  0.2180 -0.8546
 3567SOL    HW222161   4.578   3.422   7.919  1.6171 -0.2435 -0.7152
 3568SOL     OW22162   1.194   1.843   9.077 -0.1859 -0.2989  0.0851
 3568SOL    HW122163   1.176   1.801   9.161 -0.0426 -0.2857  0.1216
 3568SOL    HW222164   1.209   1.935   9.098  0.2320 -0.9659  2.7278
 3569SOL     OW22165   1.196   3.257   8.359  0.5613  0.8370 -0.4227
 3569SOL    HW122166   1.207   3.204   8.438 -0.6816  0.1146 -0.7311
 3569SOL    HW222167   1.101   3.267   8.352  0.4965 -0.4502 -1.2766
 3570SOL     OW22168   1.906   0.012   3.253 -0.2106 -0.0229 -0.2920
 3570SOL    HW122169   1.813   0.011   3.275 -0.3009  1.7527 -0.6319
 3570SOL    HW222170   1.901   0.033   3.160 -3.4632 -0.4960 -0.2313
 3571SOL     OW22171   1.591   0.021   3.259 -0.3839  0.3932 -0.0914
 3571SOL    HW122172   1.568   0.079   3.186  0.0929 -0.0493 -0.5967
 3571SOL    HW222173   1.525   4.676   3.250 -0.9360  1.2029 -2.1710
 3572SOL     OW22174   1.439   3.640  17.251 -0.3229 -0.7038  0.3771
 3572SOL    HW122175   1.512   3.581  17.271 -1.3197 -1.9267  0.4171
 3572SOL    HW222176   1.364   3.586  17.276 -0.8024 -0.1921  0.0463
 3573SOL     OW22177   2.715   2.108  12.082  0.0914  0.1435 -0.2401
 3573SOL    HW122178   2.791   2.108  12.025  0.4186  1.1115  0.2116
 3573SOL    HW222179   2.755   2.110  12.169  0.5777  1.3363 -0.4941
 3574SOL     OW22180   4.504   2.796   7.594  0.6434 -0.4662 -0.0814
 3574SOL    HW122181   4.586   2.752   7.572  1.6748  0.8769  1.0402
 3574SOL    HW222182   4.476   2.823   7.507 -0.1542 -0.2311  0.2465
 3575SOL     OW22183   0.915   2.532   1.435  0.1125  0.4288 -0.2951
 3575SOL    HW122184   1.006   2.513   1.411  0.1657  0.9491 -0.5151
 3575SOL    HW222185   0.925   2.622   1.466 -0.9101  0.1527  0.8280
 3576SOL     OW22186   2.161   3.450   4.000  0.7236 -0.9021  0.2396
 3576SOL    HW122187   2.186   3.440   4.092 -0.5317 -3.1223  0.3517
 3576SOL    HW222188   2.189   3.539   3.978 -0.7186 -0.9698 -1.8641
 3577SOL     OW22189   3.088   1.277  11.874  0.1202 -0.4516 -0.4809
 3577SOL    HW122190   3.007   1.327  11.867  1.8664  1.8672 -4.1518
 3577SOL    HW222191   3.136   1.321  11.944  1.4771 -0.6580 -1.2935
 3578SOL     OW22192   3.005   0.813   8.939 -0.0712  0.0367  0.0488
 3578SOL    HW122193   2.924   0.859   8.961 -1.0417 -1.2249 -0.8237
 3578SOL    HW222194   2.985   0.732   8.891 -0.1616 -0.4001  0.8148
 3579SOL     OW22195   1.628   4.478  17.573 -0.6192  0.1768 -0.1240
 3579SOL    HW122196   1.672   4.425  17.640 -0.0487  2.0760  0.9852
 3579SOL    HW222197   1.651   4.421  17.499  0.9794  1.2767 -0.4692
 3580SOL     OW22198   4.002   0.481   3.234 -0.1405 -0.4943  0.7968
 3580SOL    HW122199   3.936   0.545   3.260  0.4290  0.2136  0.4771
 3580SOL    HW222200   4.076   0.538   3.252 -0.2965 -0.2948  0.8024
 3581SOL     OW22201   0.451   2.948   7.374 -0.1821  0.5951  0.3469
 3581SOL    HW122202   0.515   2.884   7.405  0.5070  1.4836  0.7788
 3581SOL    HW222203   0.472   2.970   7.283  1.9248 -0.6602  0.5366
 3582SOL     OW22204   0.574   3.765   4.686 -0.0671  0.4867  0.2663
 3582SOL    HW122205   0.584   3.742   4.778  0.1254 -1.2274 -0.1896
 3582SOL    HW222206   0.497   3.822   4.680  0.4013  1.3366  2.3142
 3583SOL     OW22207   3.127   2.974   4.472  0.0622  0.0451  0.4322
 3583SOL    HW122208   3.124   2.925   4.390 -2.0062  0.3117  0.3475
 3583SOL    HW222209   3.139   2.908   4.540  1.4446  1.2488  1.3639
 3584SOL     OW22210   3.048   2.419  16.456  0.0185 -0.0356 -0.2046
 3584SOL    HW122211   3.095   2.496  16.488 -3.0197  1.8079 -0.1858
 3584SOL    HW222212   2.959   2.452  16.460  0.4544  0.9741  1.1881
 3585SOL     OW22213   0.719   4.491   3.149 -0.5270  0.3474 -0.1661
 3585SOL    HW122214   0.645   4.446   3.107  0.8107 -0.4499 -1.6815
 3585SOL    HW222215   0.760   4.543   3.081  0.0966  0.9957  0.6981
 3586SOL     OW22216   2.510   3.745   6.595 -0.0738 -0.0174 -0.3368
 3586SOL    HW122217   2.509   3.810   6.525  3.0410  1.2197  0.7932
 3586SOL    HW222218   2.481   3.666   6.547 -2.0617  1.4299 -1.5429
 3587SOL     OW22219   4.574   2.002   4.918  0.4772  0.0637  0.6546
 3587SOL    HW122220   4.624   2.079   4.946  2.0253 -0.3956 -0.8324
 3587SOL    HW222221   4.492   2.021   4.963  0.2791 -1.4363  0.9261
 3588SOL     OW22222   3.343   2.318   1.200 -0.1913 -0.2138 -0.2906
 3588SOL    HW122223   3.368   2.288   1.288  1.0895 -0.0239 -0.5902
 3588SOL    HW222224   3.401   2.265   1.145  1.4071 -0.8708  2.0227
 3589SOL     OW22225   1.789   0.771   4.578 -0.4682 -0.4702  0.0848
 3589SOL    HW122226   1.856   0.839   4.579  0.8162 -1.7333  0.7472
 3589SOL    HW222227   1.838   0.689   4.565  0.4101  0.1192 -0.2960
 3590SOL     OW22228   0.775   3.956  11.289  0.4903 -0.1841 -0.1267
 3590SOL    HW122229   0.817   3.990  11.211 -1.1461  1.3011 -0.3800
 3590SOL    HW222230   0.750   4.039  11.331  0.8281  0.5920 -1.4624
 3591SOL     OW22231   4.496   1.947   5.444  0.6316 -0.3614 -0.0163
 3591SOL    HW122232   4.520   1.928   5.534  1.6086 -1.0075 -0.4115
 3591SOL    HW222233   4.521   1.864   5.403  1.4790  0.1301 -0.4818
 3592SOL     OW22234   2.299   2.206   2.517  0.5471 -0.3363  0.1554
 3592SOL    HW122235   2.325   2.282   2.567  0.8759 -0.8308  0.7368
 3592SOL    HW222236   2.204   2.219   2.523  0.8268  1.4809  0.3966
 3593SOL     OW22237   2.442   4.641  14.787 -0.0418  0.3313 -0.6928
 3593SOL    HW122238   2.451   4.714  14.849 -2.4046  1.1597 -1.3282
 3593SOL    HW222239   2.513   4.661  14.726 -0.9139 -0.7439 -2.0478
 3594SOL     OW22240   2.129   3.141   2.088 -0.1056 -0.6103 -0.0980
 3594SOL    HW122241   2.081   3.142   2.172  0.3227  1.3527  0.1132
 3594SOL    HW222242   2.146   3.234   2.078 -1.3301 -0.3816 -0.0464
 3595SOL     OW22243   1.233   4.035   8.750  0.0698 -0.0202  0.3073
 3595SOL    HW122244   1.185   4.007   8.672 -0.2606  1.6949 -0.1025
 3595SOL    HW222245   1.245   3.946   8.784  0.4392  0.1471  0.6117
 3596SOL     OW22246   0.493   3.992   0.731 -0.0623 -0.0593  0.1864
 3596SOL    HW122247   0.537   4.005   0.815  0.8404  0.6695 -0.3971
 3596SOL    HW222248   0.570   3.974   0.676 -0.3361 -3.9593  1.0779
 3597SOL     OW22249   2.953   0.671  10.542  0.2441 -0.4845 -0.6149
 3597SOL    HW122250   2.957   0.617  10.621  2.8288  1.0069  0.2664
 3597SOL    HW222251   2.970   0.759  10.576 -0.3315  0.0269 -1.6369
 3598SOL     OW22252   0.205   2.685   7.328  0.3206  0.1246 -0.3929
 3598SOL    HW122253   0.295   2.656   7.315 -0.6299 -2.4279 -1.3951
 3598SOL    HW222254   0.182   2.655   7.240 -1.4747 -1.3340  0.5502
 3599SOL     OW22255   2.483   0.715  14.697 -0.0504 -0.5258 -0.2122
 3599SOL    HW122256   2.493   0.710  14.602 -1.8302  2.2402 -0.5628
 3599SOL    HW222257   2.570   0.723  14.735 -0.2131 -2.2626  0.5063
 3600SOL     OW22258   1.992   0.904   3.361 -0.2951 -0.5488 -0.5022
 3600SOL    HW122259   1.934   0.829   3.345 -0.2766 -0.9075  1.0859
 3600SOL    HW222260   2.076   0.873   3.326 -0.4122 -3.7522  2.0895
 3601SOL     OW22261   3.660   0.584   8.494  0.6720 -0.2865  0.0411
 3601SOL    HW122262   3.714   0.643   8.546 -0.5140  2.1205 -1.4344
 3601SOL    HW222263   3.647   0.522   8.566  0.3830 -0.7775 -0.4345
 3602SOL     OW22264   2.944   1.722   5.830 -0.0465  0.6760 -0.1263
 3602SOL    HW122265   2.852   1.749   5.835 -0.1007  0.1522  1.6579
 3602SOL    HW222266   2.928   1.638   5.788  1.7618  0.9907 -1.4097
 3603SOL     OW22267   2.694   2.334  15.290  0.3989  0.3482 -0.4894
 3603SOL    HW122268   2.773   2.378  15.261 -0.6646  1.9856 -0.9050
 3603SOL    HW222269   2.688   2.342  15.385  2.7698 -0.4279 -0.2825
 3604SOL     OW22270   0.460   3.044   8.611  0.0919 -0.5083  0.1709
 3604SOL    HW122271   0.512   2.966   8.631 -0.8744 -1.2172 -0.0858
 3604SOL    HW222272   0.430   3.054   8.702  1.6233 -1.9233  0.8243
 3605SOL     OW22273   2.918   0.117   4.980  0.4692  0.7696  0.1196
 3605SOL    HW122274   2.862   0.194   4.987 -2.8690 -2.0506  3.6660
 3605SOL    HW222275   3.001   0.152   5.013  0.1182  1.5292  0.1835
 3606SOL     OW22276   2.076   4.370  14.442  0.1292  0.4938 -0.1299
 3606SOL    HW122277   1.987   4.336  14.445 -0.1252  0.9957 -1.7408
 3606SOL    HW222278   2.070   4.465  14.449  1.6320  0.7203 -1.7018
 3607SOL     OW22279   2.158   4.276   5.052 -0.3836  0.0561  0.7063
 3607SOL    HW122280   2.080   4.225   5.072  0.0335 -0.4737  0.9903
 3607SOL    HW222281   2.229   4.212   5.056 -0.6479 -0.1746  1.6659
 3608SOL     OW22282   4.567   2.304   2.357  0.0463 -0.9367 -0.1935
 3608SOL    HW122283   4.513   2.232   2.389  2.0956 -1.8840  1.1106
 3608SOL    HW222284   4.651   2.259   2.353  0.5660 -0.0443  0.5546
 3609SOL     OW22285   0.067   4.287   3.055 -1.0722 -0.4994 -0.2649
 3609SOL    HW122286   0.011   4.320   3.125  0.3730 -0.0833  0.6639
 3609SOL    HW222287   0.046   4.347   2.983 -1.5679  2.1903  2.1345
 3610SOL     OW22288   3.412   2.910   2.824  0.4139 -0.4345  0.3132
 3610SOL    HW122289   3.429   2.860   2.903  1.2647 -0.5875  0.0331
 3610SOL    HW222290   3.474   2.982   2.829  2.3061 -1.9058 -2.0091
 3611SOL     OW22291   1.234   0.321   6.260  0.2849 -0.5492  0.7762
 3611SOL    HW122292   1.142   0.332   6.285  0.5635 -1.2959  2.1363
 3611SOL    HW222293   1.239   0.226   6.259 -1.8007 -0.6455  0.0574
 3612SOL     OW22294   2.166   2.493   6.212  0.4970  0.0388 -0.2948
 3612SOL    HW122295   2.200   2.552   6.280 -0.5707  2.0164 -1.4505
 3612SOL    HW222296   2.139   2.415   6.259 -1.3209  2.3367  2.5108
 3613SOL     OW22297   0.864   3.907   8.121  0.3052  0.0273  0.1495
 3613SOL    HW122298   0.810   3.922   8.043  0.1843  0.4197  0.3102
 3613SOL    HW222299   0.915   3.832   8.091  0.5784  0.5995 -0.7924
 3614SOL     OW22300   1.105   1.902   2.698  0.2979  0.5765 -0.1184
 3614SOL    HW122301   1.050   1.869   2.770  2.4444 -0.9145  0.8361
 3614SOL    HW222302   1.155   1.822   2.681  0.5610  0.5813  0.6714
 3615SOL     OW22303   4.657   2.239   5.033  0.1609 -0.4955 -0.7504
 3615SOL    HW122304   0.012   2.284   5.004  1.3281 -1.3638  1.0966
 3615SOL    HW222305   4.686   2.202   5.116 -0.1032 -0.2071 -0.5252
 3616SOL     OW22306   3.003   1.769   3.031 -0.6567  0.2737 -0.4395
 3616SOL    HW122307   3.034   1.839   2.973 -0.3029 -0.0613 -0.6522
 3616SOL    HW222308   3.085   1.751   3.077  1.0848 -0.0192 -3.6684
 3617SOL     OW22309   2.860   3.012   9.613  0.2316  0.3839 -0.2529
 3617SOL    HW122310   2.814   3.010   9.529  2.1359 -0.7573 -1.2699
 3617SOL    HW222311   2.935   2.955   9.595  0.5516  1.5185 -2.5569
 3618SOL     OW22312   2.357   3.128   7.653  0.1164  0.0860 -0.5508
 3618SOL    HW122313   2.448   3.128   7.682 -0.4130  0.6572  1.1319
 3618SOL    HW222314   2.315   3.051   7.691  0.9795 -0.2176 -0.2139
 3619SOL     OW22315   2.195   2.884  12.405  0.2859 -0.3440  0.5137
 3619SOL    HW122316   2.223   2.967  12.444  0.1805 -1.1874  2.3897
 3619SOL    HW222317   2.130   2.919  12.343  1.1573 -0.3139 -0.3865
 3620SOL     OW22318   3.274   1.726   5.611  0.3213  0.2851  0.7058
 3620SOL    HW122319   3.347   1.682   5.568 -0.1949 -0.4770  0.6167
 3620SOL    HW222320   3.284   1.700   5.702 -1.1601 -3.0089 -0.0610
 3621SOL     OW22321   3.092   2.225   6.846 -0.4940 -0.3657  0.0171
 3621SOL    HW122322   3.028   2.186   6.787 -0.0354 -0.1695 -0.6136
 3621SOL    HW222323   3.026   2.274   6.895  0.1170  1.2529 -0.7573
 3622SOL     OW22324   2.084   0.068   7.148 -0.7135  0.7563 -0.6868
 3622SOL    HW122325   2.101   0.018   7.227 -0.2814  1.8847 -0.0632
 3622SOL    HW222326   2.173   0.087   7.119  0.2761  0.0537  1.9972
 3623SOL     OW22327   1.450   3.635  11.965  0.0470  0.4650  0.0612
 3623SOL    HW122328   1.506   3.704  11.930 -0.9211  0.7481 -0.9070
 3623SOL    HW222329   1.368   3.683  11.957 -2.1570 -3.3635 -0.3291
 3624SOL     OW22330   0.295   0.327  11.531  0.3012  0.4775 -0.2843
 3624SOL    HW122331   0.374   0.306  11.582  1.1101  1.1465 -1.2631
 3624SOL    HW222332   0.246   0.372  11.600  2.5513  1.3036  0.7793
 3625SOL     OW22333   2.177   0.996  13.657  0.1175 -0.0038 -0.2154
 3625SOL    HW122334   2.190   1.000  13.752 -1.0937 -0.4267 -0.0240
 3625SOL    HW222335   2.188   1.089  13.639  2.6429 -0.5150 -1.3307
 3626SOL     OW22336   3.893   4.440   3.798 -0.0607  0.2285  0.5817
 3626SOL    HW122337   3.919   4.504   3.864  0.2830 -0.0536  0.7216
 3626SOL    HW222338   3.804   4.465   3.775  0.0273 -0.3816 -0.4164
 3627SOL     OW22339   1.121   1.366   2.200 -0.3458  0.7662 -0.2387
 3627SOL    HW122340   1.047   1.423   2.180  0.3729  1.1891 -1.6555
 3627SOL    HW222341   1.072   1.302   2.251  0.6275 -0.5934 -1.0301
 3628SOL     OW22342   0.798   4.490   2.501  0.4856 -0.2649  0.0076
 3628SOL    HW122343   0.847   4.442   2.434 -1.0662 -0.8428 -0.7112
 3628SOL    HW222344   0.769   4.429   2.569  1.2330 -0.4048  0.1997
 3629SOL     OW22345   2.930   2.145  11.072 -0.8313 -0.1709  1.0076
 3629SOL    HW122346   2.925   2.140  10.977  0.3331 -2.1031  1.0327
 3629SOL    HW222347   2.914   2.052  11.089 -2.0401  0.4551  3.2764
 3630SOL     OW22348   1.521   4.346   2.832 -0.0369  0.0838 -0.3774
 3630SOL    HW122349   1.537   4.438   2.853  2.2700 -0.1565 -1.0772
 3630SOL    HW222350   1.517   4.354   2.737  0.6882 -1.0913 -0.5094
 3631SOL     OW22351   3.250   2.977   9.383 -0.2895  0.1345  0.0876
 3631SOL    HW122352   3.213   2.934   9.460 -0.8890 -0.9585 -0.8083
 3631SOL    HW222353   3.214   2.919   9.317  2.4776 -1.7154  0.2251
 3632SOL     OW22354   3.104   2.075   3.762  0.2799 -0.2462  0.1507
 3632SOL    HW122355   3.182   2.019   3.771  0.0257 -0.5322  0.5476
 3632SOL    HW222356   3.113   2.105   3.672 -0.8166  1.7084  0.6920
 3633SOL     OW22357   2.405   0.078  17.177  0.0361 -1.0450 -0.6490
 3633SOL    HW122358   2.325   0.091  17.228 -0.3859  1.1876 -1.8787
 3633SOL    HW222359   2.439   0.166  17.159  0.1571 -0.9769 -0.1023
 3634SOL     OW22360   4.029   4.577   8.387 -0.6145 -0.3951  0.2358
 3634SOL    HW122361   4.036   4.512   8.457 -0.4626  0.1246  0.6995
 3634SOL    HW222362   4.113   4.563   8.343 -0.0873  0.1003  1.0945
 3635SOL     OW22363   1.126   4.248   7.738  0.0274 -0.0582  0.1521
 3635SOL    HW122364   1.082   4.165   7.715  0.2805 -0.6644  1.8441
 3635SOL    HW222365   1.048   4.301   7.721  1.0949  1.0458 -1.3344
 3636SOL     OW22366   0.061   3.877   3.262 -0.1536  0.0812  0.2529
 3636SOL    HW122367   0.148   3.915   3.276 -0.9169  2.5764 -1.7986
 3636SOL    HW222368   0.072   3.787   3.230  0.8632 -0.0812  1.0451
 3637SOL     OW22369   3.349   3.220   1.519 -0.1570 -0.0000 -0.0116
 3637SOL    HW122370   3.274   3.219   1.578  0.5206 -0.2556  0.8645
 3637SOL    HW222371   3.325   3.277   1.446  0.3834  0.5283  0.2158
 3638SOL     OW22372   2.312   4.287   4.093 -0.0709  0.1201  0.2062
 3638SOL    HW122373   2.373   4.361   4.091 -0.3024  0.3248  1.0610
 3638SOL    HW222374   2.229   4.330   4.111 -0.0431 -0.2678  1.2165
 3639SOL     OW22375   4.175   1.941   3.197  0.7942  0.2420 -0.6065
 3639SOL    HW122376   4.182   2.017   3.139 -1.3659 -0.2328 -1.5092
 3639SOL    HW222377   4.187   1.993   3.276  2.5831  0.4577 -1.0160
 3640SOL     OW22378   3.525   0.092   4.155  0.0861  0.4717  1.0155
 3640SOL    HW122379   3.435   0.067   4.134 -0.0476  0.5706  1.4622
 3640SOL    HW222380   3.522   0.063   4.247 -2.1768 -0.9864  0.4831
 3641SOL     OW22381   4.702   1.083   6.471  0.2863  0.2130 -0.5779
 3641SOL    HW122382   4.697   1.039   6.386  0.2308 -1.2310  0.1740
 3641SOL    HW222383   0.067   1.117   6.473  0.1156  0.5828  0.5579
 3642SOL     OW22384   3.806   4.546   2.086 -0.0594 -0.5339 -0.0000
 3642SOL    HW122385   3.849   4.527   2.003  0.3127  1.6523 -0.3135
 3642SOL    HW222386   3.721   4.581   2.062 -0.8481 -1.1090  1.9427
 3643SOL     OW22387   1.113   2.853  15.445 -0.0881 -0.5928 -0.3916
 3643SOL    HW122388   1.127   2.940  15.407  2.2124 -0.6984  0.2469
 3643SOL    HW222389   1.048   2.823  15.381 -1.7600  0.7843  0.6842
 3644SOL     OW22390   3.654   3.131   2.437  0.4664 -0.1162  0.7087
 3644SOL    HW122391   3.673   3.074   2.363 -0.3189  2.2496 -1.2903
 3644SOL    HW222392   3.588   3.083   2.487 -0.8401  0.0483 -0.8607
 3645SOL     OW22393   0.808   0.528   8.267 -0.1200 -0.7000 -0.0042
 3645SOL    HW122394   0.797   0.509   8.360 -1.1846 -0.0552  0.0142
 3645SOL    HW222395   0.733   0.586   8.253  1.7311  1.7829  0.3426
 3646SOL     OW22396   1.638   4.505   8.894 -0.8848 -0.2240 -0.1835
 3646SOL    HW122397   1.660   4.423   8.938 -0.2412  1.8765  3.4006
 3646SOL    HW222398   1.697   4.565   8.940  1.0497 -0.9126 -1.7812
 3647SOL     OW22399   3.272   2.787   8.027 -0.0906  0.7439  0.0620
 3647SOL    HW122400   3.331   2.713   8.026 -2.6629 -1.3231  0.5940
 3647SOL    HW222401   3.226   2.769   8.109 -0.3361 -0.7255 -0.4084
 3648SOL     OW22402   0.866   4.253  13.355  0.3376  0.4421 -0.2220
 3648SOL    HW122403   0.861   4.328  13.414  0.2053 -1.0220  1.6510
 3648SOL    HW222404   0.773   4.235  13.344  0.2082  0.0265  1.4944
 3649SOL     OW22405   1.733   0.958   8.385 -0.1765 -0.4148  0.4393
 3649SOL    HW122406   1.709   0.922   8.299  0.2212  2.8535 -1.0518
 3649SOL    HW222407   1.778   1.037   8.356 -1.1668 -0.1773 -0.5094
 3650SOL     OW22408   2.773   2.557  12.823 -0.3532 -0.0194  0.3685
 3650SOL    HW122409   2.854   2.566  12.772  0.1262  2.5150  1.5836
 3650SOL    HW222410   2.746   2.470  12.795  1.8453 -0.2761 -0.9119
 3651SOL     OW22411   3.603   3.317   0.932 -0.0258  0.2541 -0.4980
 3651SOL    HW122412   3.600   3.266   0.850 -0.2375 -2.4137  1.1738
 3651SOL    HW222413   3.641   3.252   0.990 -0.5122  0.0073 -0.4584
 3652SOL     OW22414   2.414   2.861  14.854 -0.3129  0.2134 -0.3018
 3652SOL    HW122415   2.508   2.881  14.851 -0.3549  0.4503  0.0022
 3652SOL    HW222416   2.422   2.772  14.887  1.4534 -0.0527 -1.4298
 3653SOL     OW22417   3.509   1.582   5.465  0.9034 -0.8025 -0.4397
 3653SOL    HW122418   3.517   1.504   5.411  2.5541 -3.1807  3.2999
 3653SOL    HW222419   3.600   1.605   5.481  0.6220  0.2969 -0.3909
 3654SOL     OW22420   3.420   1.090   4.361  0.8856 -0.0737 -0.9730
 3654SOL    HW122421   3.372   1.007   4.353  0.2598  0.1298  0.9333
 3654SOL    HW222422   3.491   1.061   4.419  1.0870 -0.5812 -1.4646
 3655SOL     OW22423   1.914   0.350  15.309 -0.9662 -0.5891  0.2600
 3655SOL    HW122424   1.972   0.336  15.235  1.3347 -1.9025  2.3031
 3655SOL    HW222425   1.972   0.312  15.375 -1.3509 -0.5684  0.6114
 3656SOL     OW22426   3.188   0.442   6.698  0.7835  0.3757 -0.6935
 3656SOL    HW122427   3.211   0.480   6.782 -1.8965 -0.1389  0.2986
 3656SOL    HW222428   3.232   0.357   6.699 -3.4156 -1.7798  1.6248
 3657SOL     OW22429   1.663   1.747   4.758 -0.0467  0.0747  0.1044
 3657SOL    HW122430   1.662   1.803   4.680  2.3568 -1.4316 -1.0063
 3657SOL    HW222431   1.644   1.813   4.825  1.2064  0.1460  0.3835
 3658SOL     OW22432   0.591   1.141  13.681 -0.1290  0.2089  0.0857
 3658SOL    HW122433   0.649   1.214  13.703 -0.8157 -0.0210  2.6646
 3658SOL    HW222434   0.652   1.080  13.640 -0.0560  0.5449 -0.3006
 3659SOL     OW22435   2.981   3.712  15.667  0.4257 -0.2582 -0.4440
 3659SOL    HW122436   3.000   3.804  15.685  1.3029 -0.4189 -0.5308
 3659SOL    HW222437   3.014   3.726  15.578 -2.4469  1.4469 -1.2650
 3660SOL     OW22438   3.455   1.036  13.214 -0.6374 -0.7253  0.3694
 3660SOL    HW122439   3.377   1.087  13.192 -1.3898 -1.7023  0.8007
 3660SOL    HW222440   3.524   1.092  13.250  0.0585 -0.1866 -1.8047
 3661SOL     OW22441   0.234   1.410   4.683  0.0644 -0.0630  0.3702
 3661SOL    HW122442   0.263   1.370   4.765  0.0265 -0.4899  0.1744
 3661SOL    HW222443   0.295   1.361   4.628  1.0641  3.5583 -1.7289
 3662SOL     OW22444   2.392   2.896   7.983  0.2467 -0.4103 -0.0538
 3662SOL    HW122445   2.451   2.886   8.058 -0.3399 -2.2447  0.1610
 3662SOL    HW222446   2.457   2.868   7.918 -0.3989  1.4016 -1.4695
 3663SOL     OW22447   1.168   3.605   3.112 -0.3882  0.0967 -0.1102
 3663SOL    HW122448   1.190   3.523   3.067 -0.6456  0.5307 -1.0278
 3663SOL    HW222449   1.178   3.583   3.205 -0.9612  0.6054  0.0743
 3664SOL     OW22450   4.159   4.007   7.478 -0.4954 -0.4398 -0.3834
 3664SOL    HW122451   4.085   4.064   7.499  1.2799  1.8700 -0.3531
 3664SOL    HW222452   4.140   3.994   7.385  0.2915 -0.1722 -0.5814
 3665SOL     OW22453   4.420   3.407   7.518 -0.2203  0.2437  0.0563
 3665SOL    HW122454   4.397   3.424   7.609  0.6208  1.3441  0.0724
 3665SOL    HW222455   4.411   3.493   7.477 -1.9512  0.6882  1.3852
 3666SOL     OW22456   0.289   2.230   8.605 -0.0844 -0.7742 -0.2679
 3666SOL    HW122457   0.331   2.166   8.548  0.8706 -0.8876  0.5624
 3666SOL    HW222458   0.362   2.277   8.645 -1.4691 -1.2884  2.9053
 3667SOL     OW22459   3.068   4.121   8.143 -0.4330 -0.5661 -0.5121
 3667SOL    HW122460   3.103   4.033   8.132  0.4834 -0.4382  1.3235
 3667SOL    HW222461   3.005   4.115   8.216  0.0995  0.5393  0.0455
 3668SOL     OW22462   3.231   2.692   1.149  0.9077  0.4049  0.2653
 3668SOL    HW122463   3.196   2.666   1.065  0.3430 -2.3941  1.3809
 3668SOL    HW222464   3.279   2.769   1.119 -1.3245  1.2315 -1.1952
 3669SOL     OW22465   0.248   2.959   2.484 -0.4487 -0.8896  0.4598
 3669SOL    HW122466   0.311   2.947   2.556 -0.9123  2.2009  1.3945
 3669SOL    HW222467   0.302   2.930   2.411 -1.4037 -1.2096 -0.1037
 3670SOL     OW22468   3.402   2.613   4.558  0.1235  0.2173 -0.0997
 3670SOL    HW122469   3.369   2.613   4.648 -1.2245 -1.3673 -0.5916
 3670SOL    HW222470   3.319   2.584   4.520 -0.5922  0.3620  1.3637
 3671SOL     OW22471   2.503   4.016   4.222  0.2742  0.2044 -0.1527
 3671SOL    HW122472   2.555   4.089   4.255 -1.3952  1.0733  0.5463
 3671SOL    HW222473   2.570   3.950   4.242 -0.4023 -0.3189  0.3544
 3672SOL     OW22474   0.257   3.180   3.191  0.0579  0.0871 -0.1233
 3672SOL    HW122475   0.173   3.223   3.180  0.4587  0.8518 -0.2037
 3672SOL    HW222476   0.249   3.167   3.285  0.7600 -0.1402 -0.0928
 3673SOL     OW22477   3.461   0.162   8.609 -0.1949 -0.4304 -0.7520
 3673SOL    HW122478   3.464   0.073   8.573 -1.0972 -0.0242 -1.8208
 3673SOL    HW222479   3.417   0.144   8.692  1.9400  1.2697  0.7465
 3674SOL     OW22480   0.144   3.741  10.846  0.1744 -0.3367  0.6084
 3674SOL    HW122481   0.231   3.748  10.886  0.6543 -1.0241 -0.2971
 3674SOL    HW222482   0.093   3.746  10.927  1.9996  0.7782  1.6913
 3675SOL     OW22483   1.263   0.479  14.101  0.6057  0.3777 -0.3060
 3675SOL    HW122484   1.335   0.495  14.162 -0.3194 -0.0079  0.8737
 3675SOL    HW222485   1.314   0.459  14.022  0.8726 -0.9370  0.1875
 3676SOL     OW22486   2.527   2.796   1.254  0.3215 -0.2370 -0.9181
 3676SOL    HW122487   2.569   2.807   1.339 -1.1948 -1.7484  0.0159
 3676SOL    HW222488   2.471   2.872   1.242  0.3829 -0.0007  0.3217
 3677SOL     OW22489   3.974   2.549   4.624  0.8592 -0.6498 -0.0916
 3677SOL    HW122490   3.895   2.573   4.575  0.7212 -1.3233 -0.1993
 3677SOL    HW222491   4.026   2.629   4.635  0.3061 -0.2869 -0.1575
 3678SOL     OW22492   3.714   3.788   7.718  0.2028 -0.2529  0.3379
 3678SOL    HW122493   3.774   3.713   7.723 -0.2625 -0.5889  0.9110
 3678SOL    HW222494   3.634   3.739   7.735 -0.3140 -0.5627 -3.1305
 3679SOL     OW22495   2.553   2.483  11.627 -0.0675 -0.3315 -0.0097
 3679SOL    HW122496   2.527   2.408  11.680  1.4255 -1.5851 -1.0845
 3679SOL    HW222497   2.608   2.438  11.564  0.0716 -0.6063  0.3087
 3680SOL     OW22498   3.009   0.207   1.951  0.0269 -0.2198  0.2963
 3680SOL    HW122499   3.062   0.231   1.876 -1.0474  0.7183 -0.1558
 3680SOL    HW222500   2.920   0.202   1.916 -0.6542 -1.6465  2.2076
 3681SOL     OW22501   2.613   0.464   9.860  0.2649 -0.6621  0.0449
 3681SOL    HW122502   2.532   0.418   9.838 -0.9551  0.9382  1.1471
 3681SOL    HW222503   2.623   0.534   9.795  1.5529 -1.8475 -1.0123
 3682SOL     OW22504   3.777   2.633   3.835 -0.0118  0.1800  0.0036
 3682SOL    HW122505   3.829   2.633   3.916  2.0670  0.1807 -1.3359
 3682SOL    HW222506   3.723   2.711   3.852 -1.7597 -1.0752  0.2109
 3683SOL     OW22507   3.109   2.806   2.213  0.1426  0.6877 -0.4787
 3683SOL    HW122508   3.054   2.882   2.194 -0.5415  0.1073 -0.8373
 3683SOL    HW222509   3.185   2.825   2.158 -1.6107  1.1299 -2.7279
 3684SOL     OW22510   3.022   2.987   8.122  0.3152 -0.3780 -0.1026
 3684SOL    HW122511   3.026   3.073   8.164  1.0883 -0.8641  0.8032
 3684SOL    HW222512   3.071   2.926   8.176  0.6138  0.3683  0.4643
 3685SOL     OW22513   0.464   4.439  15.767  0.3434 -0.2453 -0.0172
 3685SOL    HW122514   0.402   4.492  15.818  0.7317 -0.1251  0.3251
 3685SOL    HW222515   0.549   4.470  15.798 -0.2954 -1.1135  2.5959
 3686SOL     OW22516   0.629   4.716   1.682 -0.4871 -0.2524  0.3092
 3686SOL    HW122517   0.701   0.041   1.721 -0.1577 -0.6555  0.2115
 3686SOL    HW222518   0.558   0.017   1.741  1.0851  1.4304  1.4905
 3687SOL     OW22519   0.429   3.792   6.046 -0.0192 -0.1718 -0.7994
 3687SOL    HW122520   0.513   3.758   6.079 -1.1180 -2.1337 -0.0035
 3687SOL    HW222521   0.463   3.811   5.959  0.6116 -0.0376 -0.5268
 3688SOL     OW22522   3.158   0.322   7.129  0.0999 -0.1019 -0.4775
 3688SOL    HW122523   3.066   0.295   7.127 -0.0477  0.3334  1.2374
 3688SOL    HW222524   3.152   0.413   7.100 -0.9542  0.4392  1.4429
 3689SOL     OW22525   3.430   2.091   2.058  0.2603 -0.2735 -0.6210
 3689SOL    HW122526   3.349   2.110   2.104  1.0998  2.6611 -0.4153
 3689SOL    HW222527   3.401   2.122   1.972  3.2568 -0.2442 -1.6214
 3690SOL     OW22528   1.532   4.403   2.550  0.0867  0.3542  0.1009
 3690SOL    HW122529   1.598   4.404   2.480 -1.6572  1.6698 -1.5236
 3690SOL    HW222530   1.487   4.485   2.530 -0.3288  0.0145 -0.3569
 3691SOL     OW22531   2.951   2.821   4.853  0.0243 -0.5722 -0.2554
 3691SOL    HW122532   2.920   2.899   4.899 -0.8154  1.2492 -3.9283
 3691SOL    HW222533   2.887   2.821   4.782 -1.3073  1.5276  0.9208
 3692SOL     OW22534   4.636   4.199   4.972  0.3976 -0.1994  0.1086
 3692SOL    HW122535   4.696   4.181   4.900  2.3808  1.1859  1.4134
 3692SOL    HW222536   4.606   4.289   4.963  1.7893  0.3332  0.7825
 3693SOL     OW22537   1.008   0.030  16.564 -0.5074 -0.0317  0.0421
 3693SOL    HW122538   1.062   4.711  16.496  0.1172  2.3738 -0.9709
 3693SOL    HW222539   1.079   0.057  16.621 -0.7922 -0.3506  0.5535
 3694SOL     OW22540   0.957   1.785   3.666 -0.9209  0.2189  0.0122
 3694SOL    HW122541   0.955   1.780   3.570  2.0611 -3.3733  0.1467
 3694SOL    HW222542   0.882   1.727   3.680 -2.0059  2.1838  2.3920
 3695SOL     OW22543   0.095   2.935  13.804 -0.2462  0.0282  0.4127
 3695SOL    HW122544   0.174   2.953  13.855 -0.7897  0.0680  1.2386
 3695SOL    HW222545   0.080   3.014  13.753  3.4567  1.0991  0.9503
 3696SOL     OW22546   1.551   1.450   4.762 -0.2232 -0.0303 -0.0540
 3696SOL    HW122547   1.587   1.538   4.758  0.5150 -0.1838  3.0043
 3696SOL    HW222548   1.459   1.473   4.762 -0.5081 -1.1767 -1.6381
 3697SOL     OW22549   4.381   0.522   3.996  0.0174  0.5960  0.0448
 3697SOL    HW122550   4.465   0.558   3.967 -0.2768  0.8473 -0.4948
 3697SOL    HW222551   4.389   0.528   4.091  0.8892  3.3354 -0.1983
 3698SOL     OW22552   0.660   4.026  16.142  0.1952  0.2694  0.3236
 3698SOL    HW122553   0.701   4.027  16.229 -0.6305  1.3810  0.6980
 3698SOL    HW222554   0.736   4.057  16.093 -0.5792  2.0155  0.2118
 3699SOL     OW22555   4.479   3.158  16.447  0.5836  0.3989  0.1062
 3699SOL    HW122556   4.566   3.132  16.416  0.2064 -0.6531 -0.0733
 3699SOL    HW222557   4.444   3.202  16.369  0.4642 -1.8332 -1.1012
 3700SOL     OW22558   2.683   2.092   4.746 -0.1820  0.0031 -0.0081
 3700SOL    HW122559   2.648   2.117   4.660  2.5722  0.5380 -0.9525
 3700SOL    HW222560   2.606   2.042   4.775 -0.0592  0.2465  0.7298
 3701SOL     OW22561   2.994   3.435   8.034 -0.3773  0.0370  0.0334
 3701SOL    HW122562   3.001   3.343   8.009  1.0201  0.2927 -0.5357
 3701SOL    HW222563   2.988   3.434   8.129  3.6487 -0.6785  0.3109
 3702SOL     OW22564   0.912   3.197   8.346 -0.5184  0.3124  0.0502
 3702SOL    HW122565   0.859   3.269   8.312  0.9790  1.2141 -0.3880
 3702SOL    HW222566   0.912   3.130   8.278  1.3922 -1.6347  1.9589
 3703SOL     OW22567   3.151   1.384   3.725 -0.4227 -0.0663  0.2337
 3703SOL    HW122568   3.128   1.363   3.816  1.2316  1.5798  1.0490
 3703SOL    HW222569   3.061   1.387   3.693 -1.1068 -0.0225  2.1467
 3704SOL     OW22570   4.191   0.895   8.004 -0.7677  0.3930 -0.3852
 3704SOL    HW122571   4.208   0.812   7.959  0.6788  1.2229 -1.3943
 3704SOL    HW222572   4.097   0.901   7.992 -1.1321  1.3641  3.1139
 3705SOL     OW22573   3.467   1.630   6.634 -0.6725 -0.0293  0.5263
 3705SOL    HW122574   3.474   1.541   6.598  0.8694 -0.5433  2.0668
 3705SOL    HW222575   3.482   1.613   6.727  1.3260  0.6418  0.3190
 3706SOL     OW22576   3.209   2.175   1.669 -0.4879  0.1228  0.2583
 3706SOL    HW122577   3.279   2.236   1.690 -0.4385 -0.7146  2.4792
 3706SOL    HW222578   3.139   2.187   1.733  0.2764 -0.3656  1.1764
 3707SOL     OW22579   3.347   3.572   8.042  0.6094 -0.8227 -0.1975
 3707SOL    HW122580   3.344   3.519   8.122 -1.5971  0.4637  0.5512
 3707SOL    HW222581   3.257   3.576   8.011  1.2991 -0.9408 -2.2411
 3708SOL     OW22582   3.671   0.747  11.353 -0.6140 -0.2277 -0.5526
 3708SOL    HW122583   3.742   0.804  11.322 -2.6030  1.9138 -1.1721
 3708SOL    HW222584   3.700   0.665  11.312  2.9730 -0.1628  1.7681
 3709SOL     OW22585   0.181   3.051   7.142  0.4504  0.2291  0.3456
 3709SOL    HW122586   0.126   3.130   7.144  2.8666  1.9841 -3.9065
 3709SOL    HW222587   0.162   3.012   7.228 -2.0242 -0.4160 -0.5111
 3710SOL     OW22588   0.598   4.032   6.198 -0.5247  0.1635 -0.1942
 3710SOL    HW122589   0.531   4.053   6.133 -0.3399  1.1669 -0.0589
 3710SOL    HW222590   0.547   4.016   6.277  0.6711 -0.4156  0.4587
 3711SOL     OW22591   0.527   2.431   0.365  0.0571  0.1755  0.0603
 3711SOL    HW122592   0.507   2.517   0.327 -1.8841 -0.4707 -0.3920
 3711SOL    HW222593   0.439   2.399   0.386  0.5646 -1.3254 -0.1361
 3712SOL     OW22594   2.024   4.381   7.013  0.1917  0.0776 -0.3683
 3712SOL    HW122595   2.083   4.400   6.940  0.2899  0.0977 -0.2840
 3712SOL    HW222596   2.056   4.446   7.075  0.9727  0.5853 -1.2930
 3713SOL     OW22597   0.662   3.935   7.156 -0.0638 -0.3548  0.6678
 3713SOL    HW122598   0.668   3.951   7.250  0.6709  0.3368  0.5025
 3713SOL    HW222599   0.740   3.882   7.138  0.3378 -0.1444  1.7689
 3714SOL     OW22600   3.280   4.156   1.011  0.0644 -0.6184 -0.9069
 3714SOL    HW122601   3.279   4.103   1.090 -1.8290  1.7213  0.6671
 3714SOL    HW222602   3.188   4.145   0.984 -0.2677 -0.6534  0.2631
 3715SOL     OW22603   1.715   0.432   4.526 -0.2612  0.7145 -0.1961
 3715SOL    HW122604   1.791   0.451   4.580  1.0869  0.0669 -1.8506
 3715SOL    HW222605   1.759   0.429   4.441 -0.9277 -0.8836 -0.4960
 3716SOL     OW22606   2.743   1.844  11.886  0.2658  0.1281  1.1516
 3716SOL    HW122607   2.775   1.933  11.873 -0.3315  0.2822  0.7025
 3716SOL    HW222608   2.659   1.853  11.931 -0.4310  1.0611 -0.3045
 3717SOL     OW22609   0.804   4.229   5.156  0.4838 -0.2557 -0.1514
 3717SOL    HW122610   0.874   4.200   5.215  0.5200 -0.8707 -0.4978
 3717SOL    HW222611   0.844   4.269   5.079 -0.0066 -1.2467 -0.9366
 3718SOL     OW22612   3.515   2.377   4.219  0.3844  0.0508  0.3077
 3718SOL    HW122613   3.487   2.297   4.176  1.1413 -0.2975  0.4578
 3718SOL    HW222614   3.563   2.342   4.294  0.8433  2.9854  1.4209
 3719SOL     OW22615   4.186   2.352   5.929 -0.1723  0.0101  0.0397
 3719SOL    HW122616   4.090   2.355   5.933 -0.1056 -1.5237  2.9504
 3719SOL    HW222617   4.197   2.391   6.016  0.6083  0.8330 -0.4261
 3720SOL     OW22618   3.045   1.723   4.049  0.1819  0.1101  0.2569
 3720SOL    HW122619   3.039   1.659   4.120 -3.1551  0.0682 -0.0445
 3720SOL    HW222620   3.061   1.801   4.101  1.2356  0.9376 -1.3293
 3721SOL     OW22621   2.295   0.409   6.623 -0.1498  0.2921 -0.2001
 3721SOL    HW122622   2.336   0.496   6.631  0.4683 -0.1678  1.8844
 3721SOL    HW222623   2.248   0.380   6.701  0.3037 -1.2934 -0.5107
 3722SOL     OW22624   1.032   2.238   4.825 -0.4998 -0.7378  0.6906
 3722SOL    HW122625   0.972   2.250   4.899  0.2798 -2.7529  1.6443
 3722SOL    HW222626   1.101   2.299   4.852 -0.4331  0.2675 -1.7365
 3723SOL     OW22627   2.815   0.005  10.791 -0.0357  0.4583  0.7251
 3723SOL    HW122628   2.755   4.655  10.784  0.6082  0.0234 -0.3390
 3723SOL    HW222629   2.894   4.696  10.834  1.1425  0.3156 -1.5308
 3724SOL     OW22630   1.699   0.993  15.541 -0.2594  0.0046  0.2457
 3724SOL    HW122631   1.707   1.064  15.605  0.0528 -0.2633  0.5070
 3724SOL    HW222632   1.664   0.914  15.582  0.2955 -0.7784 -0.7829
 3725SOL     OW22633   1.347   4.283   9.156 -0.2605 -0.6438 -0.3052
 3725SOL    HW122634   1.273   4.224   9.142 -0.5828  0.5419 -3.4251
 3725SOL    HW222635   1.304   4.362   9.124  1.5173  1.2188  1.8882
 3726SOL     OW22636   0.591   1.047   2.766  0.5436  0.3219  0.5973
 3726SOL    HW122637   0.655   0.976   2.766 -0.8034 -0.8693  1.2711
 3726SOL    HW222638   0.518   1.008   2.719  1.3041  1.8923 -1.8795
 3727SOL     OW22639   0.667   3.621   2.402 -0.2179 -0.3306  0.2781
 3727SOL    HW122640   0.632   3.685   2.465  2.1164  0.3159  0.9176
 3727SOL    HW222641   0.642   3.659   2.318  1.2085  1.0401  0.4683
 3728SOL     OW22642   0.321   3.402   1.155  0.6196 -0.1263 -0.6777
 3728SOL    HW122643   0.382   3.351   1.101  1.2214  0.3477 -0.4526
 3728SOL    HW222644   0.331   3.366   1.244  1.6617 -1.4621 -1.3371
 3729SOL     OW22645   4.584   3.057   0.337 -0.3115  0.3940  0.3610
 3729SOL    HW122646   4.505   3.085   0.383 -0.8323 -1.8000  0.7911
 3729SOL    HW222647   4.597   2.977   0.388  0.4847  0.9568  1.0547
 3730SOL     OW22648   0.231   0.615   5.800 -0.1023 -0.5290 -0.5407
 3730SOL    HW122649   0.298   0.557   5.766  1.2380  0.1431  0.9369
 3730SOL    HW222650   0.257   0.703   5.771 -0.7358  0.5375  2.0294
 3731SOL     OW22651   0.321   2.604  12.727  0.6086 -0.6853 -0.7357
 3731SOL    HW122652   0.406   2.622  12.686  0.7207 -1.6199 -0.9139
 3731SOL    HW222653   0.352   2.626  12.815  1.4111 -0.3913 -1.0879
 3732SOL     OW22654   0.884   3.255  11.432 -0.3953  0.2104 -0.2175
 3732SOL    HW122655   0.938   3.198  11.377  1.3975  0.9648  0.7496
 3732SOL    HW222656   0.794   3.227  11.414 -0.1857  0.2408 -1.3278
 3733SOL     OW22657   3.100   3.894   3.034 -0.2753  0.3059 -0.4814
 3733SOL    HW122658   3.185   3.853   3.019 -0.0918 -0.1865  1.8699
 3733SOL    HW222659   3.108   3.968   3.095  0.8250  0.9458 -1.4057
 3734SOL     OW22660   0.577   1.250  16.723  0.0372 -0.5603 -0.2415
 3734SOL    HW122661   0.552   1.288  16.639  3.1142  0.0045 -0.8911
 3734SOL    HW222662   0.666   1.216  16.722 -1.2433 -3.9895  1.4208
 3735SOL     OW22663   4.018   0.638   7.776 -0.1205  0.1382 -0.3665
 3735SOL    HW122664   3.997   0.692   7.852  0.5053  0.4135 -0.3923
 3735SOL    HW222665   4.029   0.548   7.806 -1.0841  0.8378  2.0844
 3736SOL     OW22666   4.720   0.618   8.516  0.3195 -0.1861  0.5548
 3736SOL    HW122667   4.699   0.615   8.423 -2.4198 -0.9784  1.1952
 3736SOL    HW222668   4.644   0.660   8.557  0.7627  0.3614  0.8172
 3737SOL     OW22669   0.794   1.367   4.176 -0.6521 -0.1876  0.0525
 3737SOL    HW122670   0.760   1.312   4.105 -1.1012  0.0017  0.1238
 3737SOL    HW222671   0.796   1.455   4.138 -0.7373  0.7446  2.2184
 3738SOL     OW22672   4.384   2.743   6.580 -0.2165 -0.4983 -0.0604
 3738SOL    HW122673   4.406   2.651   6.595 -0.6504 -0.4590  0.8625
 3738SOL    HW222674   4.363   2.769   6.670  0.2325 -0.7123  0.1033
 3739SOL     OW22675   1.541   1.779   3.319  0.7502 -0.0325 -0.5700
 3739SOL    HW122676   1.628   1.741   3.306  0.4719 -1.1508  0.9064
 3739SOL    HW222677   1.495   1.696   3.306  0.1648  0.3834 -1.1657
 3740SOL     OW22678   3.628   4.605   3.969 -0.1833  0.0356 -0.2186
 3740SOL    HW122679   3.553   4.627   3.914  0.1959  0.5433 -0.5384
 3740SOL    HW222680   3.601   4.644   4.052 -0.3930 -0.0974 -0.2243
 3741SOL     OW22681   2.443   3.558   0.985 -0.5759 -0.5520  0.3035
 3741SOL    HW122682   2.375   3.496   1.012 -1.8066  0.9166  0.5628
 3741SOL    HW222683   2.393   3.636   0.963 -0.1896 -0.2621  0.4557
 3742SOL     OW22684   1.599   3.131   2.608  0.0903  0.0330  0.2749
 3742SOL    HW122685   1.661   3.195   2.644 -0.3693  1.1641 -0.9578
 3742SOL    HW222686   1.524   3.183   2.579  0.1949  0.1517  0.2156
 3743SOL     OW22687   2.345   2.752   9.335 -0.4592  0.1976  0.4280
 3743SOL    HW122688   2.357   2.834   9.384 -3.1391  0.9846 -0.2604
 3743SOL    HW222689   2.360   2.698   9.413  0.2600 -1.5080 -0.8857
 3744SOL     OW22690   1.259   4.718   9.315 -0.3722 -0.1010 -0.0992
 3744SOL    HW122691   1.243   4.636   9.268  0.2874  0.1463 -0.7584
 3744SOL    HW222692   1.354   4.721   9.331 -0.5552 -0.5070  1.0901
 3745SOL     OW22693   1.015   0.592  13.173  0.2045 -0.2349  0.5692
 3745SOL    HW122694   0.922   0.613  13.172 -0.0877 -1.7751 -2.2542
 3745SOL    HW222695   1.015   0.505  13.214 -0.3643 -0.6719 -0.3665
 3746SOL     OW22696   0.221   3.781   4.209  0.1332  0.3386  0.0556
 3746SOL    HW122697   0.233   3.803   4.116 -1.4003  1.4141  0.1067
 3746SOL    HW222698   0.241   3.688   4.208 -3.1666 -0.3577  0.0170
 3747SOL     OW22699   2.886   3.556   7.271  0.3721  0.1405 -0.4886
 3747SOL    HW122700   2.884   3.651   7.256  0.2834  0.5472  2.0542
 3747SOL    HW222701   2.902   3.549   7.365 -1.4042 -1.0742 -0.2914
 3748SOL     OW22702   4.311   3.739  14.783 -0.1146  0.2543  0.0552
 3748SOL    HW122703   4.304   3.773  14.872  3.1966 -1.2266  0.8689
 3748SOL    HW222704   4.235   3.777  14.740  0.8271  1.0041 -0.9616
 3749SOL     OW22705   3.456   2.500   2.553  0.3201  0.1844 -0.2459
 3749SOL    HW122706   3.507   2.502   2.635  0.5826 -0.1854 -0.4038
 3749SOL    HW222707   3.404   2.579   2.569 -0.5696 -0.5362  0.4290
 3750SOL     OW22708   3.364   1.474  13.895  0.2346 -0.1958  0.6176
 3750SOL    HW122709   3.413   1.418  13.956 -0.6391 -0.2921  1.2399
 3750SOL    HW222710   3.431   1.537  13.869  0.4747 -0.2443  1.1188
 3751SOL     OW22711   1.247   0.526  12.061  0.0464 -0.3727  0.3642
 3751SOL    HW122712   1.153   0.526  12.079 -0.3246 -0.4050 -1.5974
 3751SOL    HW222713   1.246   0.554  11.970 -0.6591 -2.4063 -0.2373
 3752SOL     OW22714   4.219   3.841   1.710 -0.1374 -0.5418 -0.0948
 3752SOL    HW122715   4.222   3.929   1.672  0.1644 -0.3403  0.3782
 3752SOL    HW222716   4.168   3.865   1.787 -0.9679  1.5244 -1.2831
 3753SOL     OW22717   0.179   1.522   5.007  0.0723  0.2424 -0.1811
 3753SOL    HW122718   0.248   1.500   5.070  0.6104  1.0879 -0.4881
 3753SOL    HW222719   0.203   1.613   4.992 -2.1672  0.7374 -0.7027
 3754SOL     OW22720   3.915   1.955   3.554  0.2483  0.4357 -0.3238
 3754SOL    HW122721   4.002   1.956   3.594  0.3963  1.3008 -0.6806
 3754SOL    HW222722   3.876   2.039   3.578 -0.1897  0.6956 -1.9377
 3755SOL     OW22723   0.967   0.577   8.897 -0.8968  0.1084  0.2849
 3755SOL    HW122724   0.884   0.547   8.859 -0.4819 -0.0257 -0.5259
 3755SOL    HW222725   0.965   0.667   8.865 -0.7094 -0.7533 -2.1444
 3756SOL     OW22726   0.598   1.783   4.532  0.9054  0.1207 -0.2156
 3756SOL    HW122727   0.617   1.779   4.438  2.2415 -0.9619  0.0912
 3756SOL    HW222728   0.627   1.873   4.542  1.9008 -0.3951  1.5604
 3757SOL     OW22729   4.143   4.449  10.449  0.2536  0.3119  0.3375
 3757SOL    HW122730   4.092   4.453  10.369 -0.7771 -0.3760  0.9591
 3757SOL    HW222731   4.102   4.369  10.482  0.6960  0.0863  0.3534
 3758SOL     OW22732   4.344   4.685   5.854  0.0458 -0.1536  0.3095
 3758SOL    HW122733   4.376   4.631   5.927  0.0367 -0.9680 -0.2843
 3758SOL    HW222734   4.426   4.715   5.815 -1.6553  0.6384 -2.6792
 3759SOL     OW22735   2.930   1.536  11.373 -0.3509  0.4990  0.3278
 3759SOL    HW122736   2.998   1.585  11.328 -0.7457  0.5232 -0.2450
 3759SOL    HW222737   2.860   1.599  11.355  0.6400  1.5014 -0.0154
 3760SOL     OW22738   1.634   0.071   8.625 -0.1041  0.0552  0.1357
 3760SOL    HW122739   1.659   0.079   8.717  1.3134  0.4837 -0.2886
 3760SOL    HW222740   1.686   4.720   8.595  1.9840  0.7030  2.1697
 3761SOL     OW22741   1.906   0.694   7.458 -0.0360 -0.0555  0.2142
 3761SOL    HW122742   1.980   0.744   7.493 -0.2541  0.2412  0.2484
 3761SOL    HW222743   1.843   0.766   7.459 -0.2191 -0.1975 -0.9502
 3762SOL     OW22744   0.367   0.035   6.491  0.2832 -0.1854 -0.6486
 3762SOL    HW122745   0.279   0.054   6.523  0.7235 -3.6276  2.5918
 3762SOL    HW222746   0.359   0.008   6.399 -0.1046 -1.4744 -0.2367
 3763SOL     OW22747   2.495   1.719   5.051  0.6580  0.1467 -0.4119
 3763SOL    HW122748   2.563   1.654   5.031  0.0493 -0.8148  0.5966
 3763SOL    HW222749   2.412   1.675   5.034 -0.6744  2.5401 -0.0779
 3764SOL     OW22750   2.112   2.931   7.456 -0.2186  0.4282 -0.4898
 3764SOL    HW122751   2.190   2.891   7.492  0.4825 -0.0931 -2.5936
 3764SOL    HW222752   2.041   2.903   7.514 -0.3222  0.2349 -0.7102
 3765SOL     OW22753   3.481   4.608  12.312  0.5100 -0.4060  0.5011
 3765SOL    HW122754   3.484   4.637  12.404  0.5802  0.3651  0.2553
 3765SOL    HW222755   3.550   4.542  12.311 -0.9833 -2.0041  0.9641
 3766SOL     OW22756   3.061   2.904   1.423  0.6596  0.6528 -0.2165
 3766SOL    HW122757   3.055   2.835   1.489  0.1301  0.6322 -0.2902
 3766SOL    HW222758   2.975   2.941   1.441  0.3624  0.4190 -1.1321
 3767SOL     OW22759   0.919   3.924   5.857  0.5477  0.3912  0.2746
 3767SOL    HW122760   0.974   3.846   5.856 -0.9519 -0.6785  0.9916
 3767SOL    HW222761   0.947   3.967   5.776  0.3709  2.9144  1.5481
 3768SOL     OW22762   3.057   4.546   4.181 -0.5019  0.3028 -0.2795
 3768SOL    HW122763   2.962   4.531   4.178 -0.6601  1.2870 -0.0277
 3768SOL    HW222764   3.080   4.527   4.090 -0.0129 -0.1369 -0.0661
 3769SOL     OW22765   1.955   2.656   7.204  0.0003 -0.2986 -0.3160
 3769SOL    HW122766   1.964   2.748   7.179  1.3901 -0.3635 -0.0403
 3769SOL    HW222767   2.050   2.647   7.200  0.3369  3.0455 -0.0590
 3770SOL     OW22768   0.547   0.383   1.641 -0.3071  0.0997 -0.0633
 3770SOL    HW122769   0.563   0.452   1.706  2.0537  0.2658 -0.8126
 3770SOL    HW222770   0.472   0.416   1.592  0.1011  0.6941 -0.2906
 3771SOL     OW22771   2.785   1.431   5.092  0.5695 -0.4721 -0.2880
 3771SOL    HW122772   2.742   1.459   5.010  1.4111  0.5290 -0.3887
 3771SOL    HW222773   2.876   1.460   5.090  1.0451 -1.9920 -0.6378
 3772SOL     OW22774   3.525   1.655   6.236 -0.1330 -0.1891  0.7033
 3772SOL    HW122775   3.433   1.651   6.211  0.3652  0.4975 -1.2762
 3772SOL    HW222776   3.525   1.715   6.310  1.5963 -1.4381  1.7204
 3773SOL     OW22777   0.902   2.673   5.673  0.0806 -0.2755  0.3660
 3773SOL    HW122778   0.866   2.695   5.587 -1.5830  3.3487  2.0096
 3773SOL    HW222779   0.865   2.585   5.670 -0.0917 -0.2332  1.2805
 3774SOL     OW22780   1.009   2.218   2.849  0.0186  0.6254  0.5024
 3774SOL    HW122781   0.962   2.285   2.800  1.8006  2.1407  0.8851
 3774SOL    HW222782   1.029   2.161   2.775 -1.2959 -0.1895  0.7839
 3775SOL     OW22783   3.566   2.577   2.798 -0.0364 -0.2357 -0.4150
 3775SOL    HW122784   3.571   2.489   2.836  1.6248 -0.0191 -0.1434
 3775SOL    HW222785   3.526   2.628   2.868 -0.2496 -1.7696  0.5962
 3776SOL     OW22786   0.986   2.670   7.884 -0.1449  0.0585 -0.0167
 3776SOL    HW122787   0.975   2.651   7.791  0.5141  1.6248 -0.4055
 3776SOL    HW222788   1.036   2.751   7.871 -1.3294  0.6352 -0.9759
 3777SOL     OW22789   3.733   3.710  11.437 -0.1986 -0.1081 -0.2762
 3777SOL    HW122790   3.668   3.642  11.419 -0.0119 -0.5728  0.7856
 3777SOL    HW222791   3.787   3.727  11.361  0.5704 -2.5832 -0.2535
 3778SOL     OW22792   1.702   2.367   7.913  0.1670  0.0253  0.8727
 3778SOL    HW122793   1.641   2.391   7.983  0.1728 -0.8836  1.1838
 3778SOL    HW222794   1.747   2.293   7.953  1.3505  0.2348 -0.0460
 3779SOL     OW22795   2.791   3.399   1.726  0.3381 -0.1908  0.0684
 3779SOL    HW122796   2.832   3.485   1.732 -1.7911  0.7791  0.9617
 3779SOL    HW222797   2.704   3.434   1.705  1.1089  1.5413 -0.2269
 3780SOL     OW22798   3.930   2.119  17.695 -0.3354  0.3024  0.3392
 3780SOL    HW122799   3.899   2.081  17.613  3.9951 -0.2134 -1.0229
 3780SOL    HW222800   3.932   2.040   0.051 -0.1417  1.9318  2.7317
 3781SOL     OW22801   1.177   0.414   8.923  0.3638  0.4198  0.3601
 3781SOL    HW122802   1.120   0.487   8.897 -0.8557 -1.1650 -1.3560
 3781SOL    HW222803   1.180   0.432   9.017 -3.6697  2.5253  0.0647
 3782SOL     OW22804   1.862   0.409   6.433 -0.1500 -0.3370  0.7642
 3782SOL    HW122805   1.887   0.321   6.461  1.3423 -0.7828 -1.9780
 3782SOL    HW222806   1.769   0.398   6.419 -0.1655 -0.7147  1.1438
 3783SOL     OW22807   3.422   4.633  16.466 -0.1574  0.3207 -0.7819
 3783SOL    HW122808   3.370   4.682  16.403 -0.3379 -1.0611 -1.6810
 3783SOL    HW222809   3.362   4.628  16.540  1.3429  1.5632  0.5484
 3784SOL     OW22810   1.181   1.208  17.154 -0.0154  0.0843 -0.4264
 3784SOL    HW122811   1.276   1.195  17.149  0.1570  0.2900  2.5990
 3784SOL    HW222812   1.161   1.215  17.061 -0.2293 -0.8269 -0.4530
 3785SOL     OW22813   2.613   1.915   6.650  0.3936 -0.5689 -0.4111
 3785SOL    HW122814   2.596   1.821   6.647 -0.0059 -0.4992 -0.2872
 3785SOL    HW222815   2.696   1.916   6.696 -0.1016  3.3054  0.3372
 3786SOL     OW22816   0.996   0.485  14.111  0.4044 -0.0059 -0.2305
 3786SOL    HW122817   0.960   0.398  14.125 -0.3066  0.4942  1.1347
 3786SOL    HW222818   1.086   0.458  14.097  0.7172  0.6253  0.5542
 3787SOL     OW22819   4.574   0.585   5.625 -0.2522  0.4442 -0.7595
 3787SOL    HW122820   4.631   0.602   5.700 -2.2189 -1.6993  1.1908
 3787SOL    HW222821   4.558   0.493   5.645  1.2365  0.2492 -0.4874
 3788SOL     OW22822   2.951   3.545   8.990 -0.6038 -0.4959 -0.2634
 3788SOL    HW122823   2.890   3.571   9.059  2.1146  2.1731  1.0939
 3788SOL    HW222824   3.022   3.603   9.016 -1.6986  0.9803 -0.5625
 3789SOL     OW22825   2.519   0.490   9.384 -0.1458 -0.0139  0.1511
 3789SOL    HW122826   2.494   0.580   9.404  2.6168  0.5047  1.2098
 3789SOL    HW222827   2.464   0.474   9.307 -0.4580 -2.9724  0.9617
 3790SOL     OW22828   3.991   3.100   7.399  0.3329  0.3713 -0.3249
 3790SOL    HW122829   4.042   3.181   7.393  0.1168  0.5787  0.6378
 3790SOL    HW222830   3.913   3.132   7.444 -0.4217  0.1784 -1.5121
 3791SOL     OW22831   3.777   3.058   4.960 -0.1340 -0.4224  0.3394
 3791SOL    HW122832   3.788   3.107   4.878  0.6524 -0.8039  0.2206
 3791SOL    HW222833   3.870   3.059   4.980 -0.0832 -0.8436  0.1328
 3792SOL     OW22834   4.720   3.262   4.765 -0.2448 -0.4222  0.1910
 3792SOL    HW122835   4.664   3.289   4.838  0.0214  1.7554 -0.4013
 3792SOL    HW222836   4.664   3.203   4.715  1.7746 -2.2878  0.1228
 3793SOL     OW22837   4.033   2.506   9.323  0.4601 -0.2743  0.4050
 3793SOL    HW122838   4.007   2.572   9.387  1.7785 -1.1893  1.9000
 3793SOL    HW222839   3.972   2.433   9.336 -0.8788  0.4808 -1.6730
 3794SOL     OW22840   2.788   2.916   0.942 -0.1532  0.1386 -0.2316
 3794SOL    HW122841   2.769   2.826   0.968 -1.3934  0.2960 -0.6431
 3794SOL    HW222842   2.860   2.949   0.997 -1.2378 -0.6607  1.6682
 3795SOL     OW22843   4.642   0.504  14.058  0.6403 -0.3339  0.6077
 3795SOL    HW122844   0.003   0.497  14.101  0.0290  1.5229  2.1291
 3795SOL    HW222845   4.667   0.574  13.998  0.6870  0.6879  1.7951
 3796SOL     OW22846   2.267   0.002  10.659  0.9174  0.0428  0.0832
 3796SOL    HW122847   2.177   4.720  10.629  1.5749 -2.2029 -1.4821
 3796SOL    HW222848   2.267   0.084  10.708 -0.2079  1.1963 -1.8919
 3797SOL     OW22849   2.746   2.516  10.134  0.0819 -0.6320 -0.0842
 3797SOL    HW122850   2.716   2.599  10.170  1.5144  0.1871 -0.7725
 3797SOL    HW222851   2.822   2.494  10.189 -0.1462  1.1103  0.9370
 3798SOL     OW22852   2.060   2.191   3.230 -0.2406 -0.3442  0.1822
 3798SOL    HW122853   2.111   2.110   3.233  0.1879 -0.0705  0.2979
 3798SOL    HW222854   2.031   2.191   3.139  1.1517 -1.1569 -0.2574
 3799SOL     OW22855   2.989   2.609  17.649  0.2258 -0.1456 -0.4025
 3799SOL    HW122856   2.907   2.593  17.604 -0.2950 -0.8527  0.7928
 3799SOL    HW222857   2.989   2.547   0.024  2.2805  2.1904  1.5827
 3800SOL     OW22858   3.476   2.321   1.683  0.6780  0.4267  0.2015
 3800SOL    HW122859   3.466   2.408   1.645 -0.3565 -0.8811 -2.5234
 3800SOL    HW222860   3.566   2.333   1.715  0.1987  1.3926  1.1850
 3801SOL     OW22861   1.738   4.666  16.665  0.3783  0.0604 -0.8427
 3801SOL    HW122862   1.680   4.631  16.732  1.5856 -3.2961 -1.5987
 3801SOL    HW222863   1.718   4.613  16.588 -3.4626 -1.3539  1.1289
 3802SOL     OW22864   4.559   3.238   2.914  0.1985 -0.1830 -0.4474
 3802SOL    HW122865   4.535   3.150   2.882  3.2638 -1.0124 -0.4054
 3802SOL    HW222866   4.481   3.294   2.917  0.3286 -0.1671  2.5290
 3803SOL     OW22867   3.704   0.669  15.889 -0.3604  0.4221 -0.4142
 3803SOL    HW122868   3.621   0.710  15.866 -1.0851 -0.9764 -0.2853
 3803SOL    HW222869   3.710   0.692  15.982  0.5535 -2.6664  0.2731
 3804SOL     OW22870   2.643   4.578   8.688 -0.3014  0.8960  0.1147
 3804SOL    HW122871   2.558   4.542   8.714  0.3527 -0.9747 -0.3275
 3804SOL    HW222872   2.647   4.535   8.602 -0.0380 -0.7540  0.9442
 3805SOL     OW22873   1.568   2.048   7.512 -0.4800  0.1575 -0.4723
 3805SOL    HW122874   1.656   2.021   7.487 -0.1070  1.0385 -0.1041
 3805SOL    HW222875   1.564   1.997   7.593  3.0423  0.4907 -0.1015
 3806SOL     OW22876   0.320   0.268   7.201 -0.5273 -0.1567 -0.1844
 3806SOL    HW122877   0.241   0.313   7.172  0.7915  0.8820 -2.0976
 3806SOL    HW222878   0.339   0.215   7.124 -0.4598  0.1259 -0.3600
 3807SOL     OW22879   1.858   4.634   9.404  0.7068  0.3342 -0.2125
 3807SOL    HW122880   1.875   4.705   9.341 -1.8214  0.1086 -1.1540
 3807SOL    HW222881   1.907   4.668   9.479 -0.6953  1.0038  0.3805
 3808SOL     OW22882   2.597   2.527   8.627 -0.2468  0.0378 -0.6616
 3808SOL    HW122883   2.645   2.610   8.629  1.9239 -1.2525  0.5282
 3808SOL    HW222884   2.556   2.535   8.713 -1.0714 -1.9345 -0.8806
 3809SOL     OW22885   1.793   4.662  14.568  0.3295 -0.2702  0.6093
 3809SOL    HW122886   1.833   4.597  14.625  0.6958 -1.2472 -0.7668
 3809SOL    HW222887   1.841   0.017  14.591 -2.4382  1.7026 -0.4137
 3810SOL     OW22888   3.446   3.937   0.870  0.1918  0.2259  0.6476
 3810SOL    HW122889   3.453   4.021   0.916 -2.4962  1.3584 -1.0093
 3810SOL    HW222890   3.524   3.929   0.815  0.5759 -1.8048  1.4984
 3811SOL     OW22891   3.255   4.605  12.877 -0.1283 -1.0599 -0.5033
 3811SOL    HW122892   3.235   4.627  12.968 -0.9293 -1.2705 -0.6236
 3811SOL    HW222893   3.300   4.522  12.893  0.9691 -0.4687 -0.5241
 3812SOL     OW22894   0.527   2.120  13.034  0.0127  0.0300  0.5450
 3812SOL    HW122895   0.487   2.046  12.987 -2.4041  1.7999 -0.1579
 3812SOL    HW222896   0.618   2.090  13.030 -0.2776 -0.8960  0.7881
 3813SOL     OW22897   1.874   1.615   6.294  0.0373  0.2302  0.1456
 3813SOL    HW122898   1.929   1.537   6.302  0.8695  1.0256  2.1771
 3813SOL    HW222899   1.934   1.688   6.278 -2.2125  1.5309 -2.4759
 3814SOL     OW22900   1.222   0.166   9.037 -0.1573 -0.4850 -0.3108
 3814SOL    HW122901   1.199   0.257   9.017 -1.0037 -0.4795  0.6692
 3814SOL    HW222902   1.181   0.157   9.123  1.2230  0.6348  0.4447
 3815SOL     OW22903   2.261   1.546   7.443  0.4703 -0.1951  0.1518
 3815SOL    HW122904   2.172   1.513   7.456  0.9358 -1.6426 -0.3129
 3815SOL    HW222905   2.271   1.517   7.352  2.8135  0.0727  0.3292
 3816SOL     OW22906   1.805   2.338   3.035 -0.1498 -0.0991 -0.3100
 3816SOL    HW122907   1.790   2.406   2.970 -0.0903  0.8803  0.6935
 3816SOL    HW222908   1.716   2.316   3.064 -1.0400  1.7092 -1.6690
 3817SOL     OW22909   0.134   2.050   6.891  0.1639 -0.0770  0.5331
 3817SOL    HW122910   0.181   2.083   6.814  0.6919  1.8484  1.6818
 3817SOL    HW222911   0.165   1.966   6.924 -0.8240 -1.4821 -2.1608
 3818SOL     OW22912   4.043   0.036   0.624  0.2973  0.8085  0.5165
 3818SOL    HW122913   4.011   4.670   0.632 -0.9793  0.8434 -3.9308
 3818SOL    HW222914   4.036   0.042   0.528  1.7855  3.6490  0.5865
 3819SOL     OW22915   3.775   2.604   7.808  0.1318  0.1583 -0.3852
 3819SOL    HW122916   3.808   2.652   7.884 -0.5497 -1.2084  0.7869
 3819SOL    HW222917   3.812   2.666   7.745  1.7515  0.1500  0.5612
 3820SOL     OW22918   2.048   1.409   5.558  0.7175  0.5197  0.6079
 3820SOL    HW122919   2.117   1.350   5.527  1.2869  1.6960 -0.3751
 3820SOL    HW222920   1.995   1.343   5.602 -1.2976 -0.3404 -3.0779
 3821SOL     OW22921   3.969   4.134   1.748  0.3107  0.0259  0.0153
 3821SOL    HW122922   3.973   4.043   1.778  1.5656 -0.3795 -1.3633
 3821SOL    HW222923   4.063   4.153   1.751 -0.1570  2.3602 -0.0965
 3822SOL     OW22924   2.539   0.337   1.367 -0.7037  0.3499  0.3809
 3822SOL    HW122925   2.456   0.366   1.404 -0.4876  2.4064 -0.7366
 3822SOL    HW222926   2.508   0.256   1.328 -0.9572  0.1407  1.0149
 3823SOL     OW22927   3.424   3.447   4.428  0.3659 -0.5858 -0.0851
 3823SOL    HW122928   3.392   3.356   4.422  1.1747 -0.8710  0.0035
 3823SOL    HW222929   3.517   3.426   4.428 -0.0887 -2.6121 -0.2124
 3824SOL     OW22930   1.630   0.312   2.573  0.4895  0.1551  0.0360
 3824SOL    HW122931   1.613   0.396   2.530  0.0506 -0.1986 -0.4895
 3824SOL    HW222932   1.558   0.305   2.636 -0.2399  0.5921 -0.7478
 3825SOL     OW22933   0.115   2.471   2.299  0.1547  0.3005  0.0901
 3825SOL    HW122934   0.130   2.565   2.292 -0.4376  0.2389 -1.8708
 3825SOL    HW222935   0.041   2.455   2.241  0.6531  0.4790 -0.5907
 3826SOL     OW22936   1.892   2.927   8.514 -0.4999 -0.3939 -0.1943
 3826SOL    HW122937   1.849   2.842   8.510 -2.1870  0.4053  1.0135
 3826SOL    HW222938   1.864   2.961   8.429  3.7169  0.0493 -1.3976
 3827SOL     OW22939   0.802   1.538   4.470 -0.1427  0.2552  0.5251
 3827SOL    HW122940   0.735   1.543   4.538  1.6616  1.6025  2.2252
 3827SOL    HW222941   0.845   1.458   4.500 -0.0814  0.6933  1.6111
 3828SOL     OW22942   1.503   3.902   3.345 -0.4649 -0.3961 -0.2487
 3828SOL    HW122943   1.479   3.948   3.265 -2.0909  0.7241  0.8811
 3828SOL    HW222944   1.537   3.978   3.393 -0.7090 -0.6733  0.3621
 3829SOL     OW22945   3.004   3.949   5.635  0.4292  0.1860  0.0541
 3829SOL    HW122946   3.090   3.955   5.677  0.5171 -0.8209  0.0147
 3829SOL    HW222947   3.020   3.907   5.551 -0.0495  1.0955 -0.5012
 3830SOL     OW22948   4.064   3.032   5.769  0.1868  0.3372  0.5040
 3830SOL    HW122949   4.008   3.057   5.843  0.3761 -1.2107  1.1601
 3830SOL    HW222950   4.026   3.097   5.710 -0.0586 -0.2607  0.0089
 3831SOL     OW22951   3.384   4.232   2.611  0.8015 -0.2700  0.1119
 3831SOL    HW122952   3.385   4.294   2.685  0.5740  0.4780 -0.5116
 3831SOL    HW222953   3.455   4.269   2.560  1.9437  0.7262  2.4028
 3832SOL     OW22954   0.874   3.329  16.901 -0.1303 -0.6448  0.0618
 3832SOL    HW122955   0.866   3.405  16.958  0.1780  0.3717 -1.2336
 3832SOL    HW222956   0.856   3.371  16.816 -2.7665 -1.2582  0.3061
 3833SOL     OW22957   2.081   0.299  10.441 -0.0632 -0.6170  0.2240
 3833SOL    HW122958   2.143   0.240  10.398 -2.8595 -3.0793 -0.3745
 3833SOL    HW222959   2.062   0.259  10.526 -1.6238 -0.2642  0.0315
 3834SOL     OW22960   2.119   1.966  15.630 -0.0076 -0.7102 -0.4278
 3834SOL    HW122961   2.061   1.981  15.556 -0.9192 -1.3248  0.1579
 3834SOL    HW222962   2.173   2.045  15.632 -1.4574  0.2807 -0.7187
 3835SOL     OW22963   3.053   1.670  16.304 -0.3794  0.4475  0.0078
 3835SOL    HW122964   2.966   1.703  16.281 -1.6293 -1.2777  2.3127
 3835SOL    HW222965   3.117   1.724  16.257  1.4469 -3.6049 -2.1160
 3836SOL     OW22966   4.334   4.265   8.051  0.8316  0.4240 -0.0179
 3836SOL    HW122967   4.388   4.190   8.077  0.2796  0.3681  1.0032
 3836SOL    HW222968   4.346   4.270   7.957  0.8726 -1.6555 -0.1254
 3837SOL     OW22969   3.200   1.846   5.156  0.4123 -0.0499  0.1452
 3837SOL    HW122970   3.284   1.849   5.203  0.8647  4.2617 -0.9559
 3837SOL    HW222971   3.179   1.938   5.141 -1.6105 -0.4905  0.3487
 3838SOL     OW22972   0.714   3.389   8.206 -0.5683 -0.6673 -0.1544
 3838SOL    HW122973   0.645   3.350   8.260  0.8359 -1.0808  1.3667
 3838SOL    HW222974   0.715   3.328   8.133 -2.6634 -0.9214  0.0322
 3839SOL     OW22975   4.012   4.642   0.160 -0.0735 -0.3981  0.0127
 3839SOL    HW122976   4.044   4.673   0.076 -0.2259 -0.4364 -0.0586
 3839SOL    HW222977   3.983   4.718   0.211  0.0191 -0.8013  0.6758
 3840SOL     OW22978   3.762   3.975  14.437 -0.9985  0.9261  0.1849
 3840SOL    HW122979   3.747   4.052  14.492  0.3328 -0.0592  1.8802
 3840SOL    HW222980   3.856   3.974  14.420 -0.9493 -2.7767  0.8126
 3841SOL     OW22981   3.163   1.296   7.134 -0.2675 -0.2423  0.1442
 3841SOL    HW122982   3.227   1.229   7.156  0.4869  0.3124 -0.3861
 3841SOL    HW222983   3.208   1.364   7.085  0.4573 -2.5344 -2.3646
 3842SOL     OW22984   1.531   0.627   6.394 -0.4751 -0.1074  0.1838
 3842SOL    HW122985   1.561   0.538   6.377 -3.5542 -0.7457 -1.9021
 3842SOL    HW222986   1.563   0.637   6.484 -2.7418  1.7128  0.7900
 3843SOL     OW22987   1.656   2.863   0.790  0.7790 -0.2031  0.0068
 3843SOL    HW122988   1.563   2.886   0.788  0.7613 -0.3091 -0.7034
 3843SOL    HW222989   1.678   2.854   0.882  0.8084 -3.5446 -0.2913
 3844SOL     OW22990   0.104   2.198   3.602 -0.2600 -0.5101 -0.6996
 3844SOL    HW122991   0.179   2.172   3.549  1.7283  1.3276  1.2407
 3844SOL    HW222992   0.138   2.182   3.690  0.2808 -1.3266 -1.0615
 3845SOL     OW22993   0.181   1.918   5.844  0.0299 -0.0384 -0.3933
 3845SOL    HW122994   0.106   1.976   5.828 -2.4063 -2.6722  1.4909
 3845SOL    HW222995   0.140   1.831   5.844  1.2506 -0.6000  0.8918
 3846SOL     OW22996   4.110   2.751   2.925  0.3129  0.3365 -0.6821
 3846SOL    HW122997   4.061   2.671   2.909  0.6980 -0.7451  3.3759
 3846SOL    HW222998   4.183   2.714   2.975 -1.0227 -0.1339  0.9297
 3847SOL     OW22999   2.766   1.531   8.422  0.5313  0.9052  0.4589
 3847SOL    HW123000   2.685   1.527   8.473 -1.4661 -1.2281 -2.9267
 3847SOL    HW223001   2.804   1.445   8.441 -0.0467  0.4855 -0.3097
 3848SOL     OW23002   2.989   1.084   9.562 -0.5538  0.8431  0.0024
 3848SOL    HW123003   2.965   1.058   9.651 -0.1555 -0.0953 -0.1734
 3848SOL    HW223004   3.053   1.021   9.528  0.0577  0.7981  1.2409
 3849SOL     OW23005   3.219   0.336   1.475  0.4315  0.3363  0.3579
 3849SOL    HW123006   3.276   0.290   1.414 -2.3829  0.3695 -2.3196
 3849SOL    HW223007   3.158   0.373   1.410  0.2227 -0.0701  0.3234
 3850SOL     OW23008   2.084   0.144   8.272 -0.4628 -0.4198  0.3493
 3850SOL    HW123009   2.002   0.133   8.319 -0.7568  0.9265  0.1482
 3850SOL    HW223010   2.120   0.058   8.297  0.6452  0.1781  0.8268
 3851SOL     OW23011   2.034   0.047   4.398 -0.2806  0.2761 -0.5686
 3851SOL    HW123012   1.984   0.106   4.342 -0.9221  0.7050  0.4426
 3851SOL    HW223013   1.963   4.708   4.413  1.1460 -1.1055  0.3873
 3852SOL     OW23014   4.372   2.719  11.536  0.0620 -0.6190  0.2156
 3852SOL    HW123015   4.305   2.688  11.597  2.0820  0.4509  2.9855
 3852SOL    HW223016   4.442   2.745  11.595  0.3929  0.4612 -0.6544
 3853SOL     OW23017   0.692   0.722   8.038  0.0397 -0.1577  0.0457
 3853SOL    HW123018   0.688   0.811   8.003 -0.5414 -0.0816  0.3015
 3853SOL    HW223019   0.616   0.729   8.095 -0.9723  1.6853 -1.5358
 3854SOL     OW23020   1.323   0.097   7.651  0.3026  0.5213 -0.5681
 3854SOL    HW123021   1.404   0.053   7.677  1.1336  0.6386 -2.9521
 3854SOL    HW223022   1.274   0.048   7.717  1.6318  1.9910  1.5307
 3855SOL     OW23023   3.736   3.029   7.523 -0.3949 -0.1528 -0.1965
 3855SOL    HW123024   3.770   3.109   7.563 -0.8708 -0.3041  0.5010
 3855SOL    HW223025   3.791   2.965   7.568  0.4541  0.2819 -0.6183
 3856SOL     OW23026   3.245   0.354   9.507  0.0929  0.1469 -0.4122
 3856SOL    HW123027   3.227   0.414   9.580 -1.1284  0.8925 -1.3244
 3856SOL    HW223028   3.339   0.339   9.515 -0.3058 -1.7478  0.7082
 3857SOL     OW23029   4.341   2.127   7.002  0.0312 -0.2764 -0.2539
 3857SOL    HW123030   4.330   2.079   7.084  2.9500  1.1316  0.9464
 3857SOL    HW223031   4.383   2.069   6.938 -0.8032 -0.1588 -0.9150
 3858SOL     OW23032   0.036   0.798   3.289  0.3755  0.2019 -0.0784
 3858SOL    HW123033   0.013   0.887   3.315  1.9213  1.1635 -2.0701
 3858SOL    HW223034   4.708   0.749   3.353  1.6692 -0.2368  0.6490
 3859SOL     OW23035   0.360   1.702   3.193 -0.2234  0.0276 -0.6668
 3859SOL    HW123036   0.284   1.643   3.197 -0.3079  0.1680 -0.1538
 3859SOL    HW223037   0.408   1.663   3.120  2.7786 -0.4360  1.5570
 3860SOL     OW23038   0.614   4.371  14.731  0.4460 -0.0924 -0.7465
 3860SOL    HW123039   0.563   4.343  14.807  1.8180  3.3168  1.4220
 3860SOL    HW223040   0.617   4.284  14.690  1.1065  0.3729 -1.6895
 3861SOL     OW23041   3.870   4.323   2.229 -0.7626 -0.0993  0.3708
 3861SOL    HW123042   3.853   4.410   2.193  0.3430  0.5025  1.3210
 3861SOL    HW223043   3.787   4.307   2.275 -0.4670  1.8100  1.5663
 3862SOL     OW23044   2.997   1.722   5.375 -0.0742  0.1352 -0.0443
 3862SOL    HW123045   3.093   1.722   5.370  0.0763  0.2316  2.8450
 3862SOL    HW223046   2.982   1.816   5.382  1.2139  0.3182  0.3783
 3863SOL     OW23047   4.025   2.604   6.133  0.4657  0.3801 -0.1250
 3863SOL    HW123048   3.981   2.619   6.216 -1.5968 -0.5539 -1.0671
 3863SOL    HW223049   4.107   2.567   6.166  1.2609  0.0244 -2.4640
 3864SOL     OW23050   1.093   1.696  14.107  0.1423  0.2941  0.5867
 3864SOL    HW123051   1.136   1.763  14.160 -1.9512  0.3562  2.2023
 3864SOL    HW223052   1.118   1.612  14.147 -1.3068 -1.0349 -1.3091
 3865SOL     OW23053   3.031   4.317   4.417  0.0868  0.2013 -0.5021
 3865SOL    HW123054   3.113   4.353   4.384  0.4061 -0.0264  0.0404
 3865SOL    HW223055   3.020   4.240   4.362  1.5125 -0.8942  0.7364
 3866SOL     OW23056   2.978   0.464   2.115 -0.1283 -0.4168 -0.1660
 3866SOL    HW123057   2.965   0.376   2.078 -1.4751 -1.1785  2.0901
 3866SOL    HW223058   2.891   0.486   2.148 -0.4087 -0.6801 -0.7389
 3867SOL     OW23059   2.743   2.304   9.192  0.0487  0.3300  0.0563
 3867SOL    HW123060   2.662   2.297   9.244  1.2844 -0.6630  1.8443
 3867SOL    HW223061   2.697   2.340   9.116 -1.3003  0.0205  0.7130
 3868SOL     OW23062   2.793   3.820   9.581  0.1573 -0.5189 -0.3677
 3868SOL    HW123063   2.744   3.832   9.661  1.0625  1.1780 -0.0638
 3868SOL    HW223064   2.743   3.752   9.536 -1.2231 -1.2306  2.2862
 3869SOL     OW23065   1.013   3.505  15.451  0.5229 -0.6777  0.4034
 3869SOL    HW123066   1.042   3.484  15.362  3.4728  1.0786  0.9643
 3869SOL    HW223067   0.978   3.594  15.450 -1.6488 -1.5514 -1.9011
 3870SOL     OW23068   1.342   4.564   6.938  0.1308  0.6554  0.0469
 3870SOL    HW123069   1.270   4.517   6.981 -0.9295  2.4909  0.2515
 3870SOL    HW223070   1.402   4.491   6.920 -0.7533 -0.7995  2.9538
 3871SOL     OW23071   2.424   2.346   8.409 -0.4810 -0.4650 -0.8941
 3871SOL    HW123072   2.393   2.341   8.500  0.8685  0.3837 -0.3801
 3871SOL    HW223073   2.471   2.263   8.397  0.5698  0.2644 -1.7820
 3872SOL     OW23074   2.812   1.529   5.410 -0.3920 -0.2134 -0.2207
 3872SOL    HW123075   2.880   1.595   5.402 -0.7766  0.2111  0.0503
 3872SOL    HW223076   2.856   1.465   5.354 -0.7670 -0.3488 -0.3603
 3873SOL     OW23077   1.328   0.955   0.972 -0.0214  0.0430  0.1119
 3873SOL    HW123078   1.276   1.034   0.956  0.2087 -0.3152 -2.3031
 3873SOL    HW223079   1.419   0.981   0.954 -0.1866  0.9216  0.5096
 3874SOL     OW23080   2.999   4.109   6.356  0.6431  0.2974 -0.4880
 3874SOL    HW123081   2.948   4.030   6.340 -0.0482  0.8084 -0.8041
 3874SOL    HW223082   3.020   4.122   6.263 -3.0835  0.5274 -1.3083
 3875SOL     OW23083   0.244   1.193   7.202 -0.0642  0.5032  0.5383
 3875SOL    HW123084   0.189   1.268   7.182 -2.5152 -1.3637  0.2156
 3875SOL    HW223085   0.307   1.234   7.261  0.0398  1.4208 -0.2208
 3876SOL     OW23086   1.478   3.342  16.213  0.1010 -0.2452  0.4147
 3876SOL    HW123087   1.464   3.248  16.200 -0.9783 -0.0735  0.3750
 3876SOL    HW223088   1.555   3.344  16.155  1.1185  0.7573  1.7951
 3877SOL     OW23089   0.284   1.386   3.486 -0.1486 -0.2115  0.3475
 3877SOL    HW123090   0.277   1.393   3.581  0.0553  0.3811  0.3189
 3877SOL    HW223091   0.218   1.453   3.468  0.1941 -0.0718 -0.4375
 3878SOL     OW23092   1.989   0.724   9.190  0.0675 -0.0396  0.0264
 3878SOL    HW123093   1.918   0.754   9.133  0.5372 -0.1719 -0.6275
 3878SOL    HW223094   1.946   0.741   9.274 -2.3001  0.9311 -1.3749
 3879SOL     OW23095   4.430   4.268   0.206  0.0852  0.2572 -0.4054
 3879SOL    HW123096   4.380   4.317   0.270 -1.4514  0.1109 -1.5014
 3879SOL    HW223097   4.510   4.244   0.254 -0.3356  1.1493  0.7189
 3880SOL     OW23098   2.121   2.721   2.311 -0.2707  0.0432  0.3511
 3880SOL    HW123099   2.199   2.738   2.364 -0.4531  0.7894  0.3800
 3880SOL    HW223100   2.045   2.741   2.365 -0.8803  0.0112 -0.4816
 3881SOL     OW23101   3.724   1.963   4.064 -0.0054  0.0229 -0.0004
 3881SOL    HW123102   3.723   1.876   4.025  0.3317 -0.3465  0.8157
 3881SOL    HW223103   3.671   1.946   4.142 -1.9155  2.6951 -0.7398
 3882SOL     OW23104   0.829   4.191   4.798 -0.2445  0.2216 -0.4376
 3882SOL    HW123105   0.739   4.166   4.818 -0.2973  1.0658  0.4064
 3882SOL    HW223106   0.879   4.117   4.832  0.6958  1.1928  0.3086
 3883SOL     OW23107   3.711   2.858   3.980  0.0527  0.2520  0.0343
 3883SOL    HW123108   3.719   2.952   3.964  0.1256  0.0623 -1.0839
 3883SOL    HW223109   3.633   2.862   4.035 -0.3155  0.0691 -0.4699
 3884SOL     OW23110   0.485   3.008   7.933  0.5499  0.4193  0.6601
 3884SOL    HW123111   0.525   2.921   7.935  0.3338  0.3247  0.9564
 3884SOL    HW223112   0.395   2.984   7.954  0.4272  1.3608  1.1712
 3885SOL     OW23113   4.030   0.643   8.518 -0.0355 -0.0089 -0.4098
 3885SOL    HW123114   4.050   0.556   8.553 -3.2522 -0.2632  0.7977
 3885SOL    HW223115   3.945   0.659   8.559  0.7218  1.2823  0.6882
 3886SOL     OW23116   4.382   1.220   2.633  0.4967 -0.8465  0.2446
 3886SOL    HW123117   4.360   1.277   2.560  1.5496 -0.0260  0.5787
 3886SOL    HW223118   4.453   1.269   2.675  0.2072  1.2248 -1.7204
 3887SOL     OW23119   4.331   0.052   7.884  0.4968 -0.4350  0.6273
 3887SOL    HW123120   4.370   0.133   7.850 -2.5644  1.8321  2.4386
 3887SOL    HW223121   4.271   0.027   7.814  1.9085 -1.7126 -0.1217
 3888SOL     OW23122   0.481   2.966   8.329 -0.1495  0.2990 -0.5673
 3888SOL    HW123123   0.466   3.031   8.398 -0.3128 -1.2553  0.8782
 3888SOL    HW223124   0.505   2.888   8.380 -1.4814  0.9762  1.0855
 3889SOL     OW23125   0.517   0.754   8.233  0.1235  0.3514  0.0984
 3889SOL    HW123126   0.583   0.820   8.252  0.1557  0.2499  0.3339
 3889SOL    HW223127   0.438   0.797   8.267 -0.7118  0.2069 -1.6306
 3890SOL     OW23128   0.773   1.571   2.877  0.2496 -0.4185  0.3983
 3890SOL    HW123129   0.815   1.485   2.881 -0.4117 -0.6486  2.3186
 3890SOL    HW223130   0.720   1.564   2.797  1.8607 -0.6197 -0.6470
 3891SOL     OW23131   0.281   3.704   1.037  0.1086  0.0950  0.6666
 3891SOL    HW123132   0.191   3.696   1.007  0.3009  0.0828  0.0846
 3891SOL    HW223133   0.288   3.628   1.094 -1.9720  0.3084  1.1936
 3892SOL     OW23134   4.420   2.225  14.747  0.4055  0.0569  0.0189
 3892SOL    HW123135   4.338   2.198  14.788  1.4771 -2.4762  0.4496
 3892SOL    HW223136   4.391   2.227  14.656  1.5710 -2.1628 -0.4000
 3893SOL     OW23137   4.332   0.514   8.752  0.0645 -0.6972 -0.4354
 3893SOL    HW123138   4.320   0.425   8.718 -0.7183 -0.8509  0.2676
 3893SOL    HW223139   4.296   0.565   8.680  1.1473  0.0065 -0.4763
 3894SOL     OW23140   2.857   4.321   2.231 -0.2581 -0.1911  0.8438
 3894SOL    HW123141   2.885   4.362   2.313  2.4748  0.0685 -0.2219
 3894SOL    HW223142   2.911   4.243   2.239  1.4656  0.6601 -2.5706
 3895SOL     OW23143   1.720   0.098   2.771 -0.2190 -0.3664 -0.2074
 3895SOL    HW123144   1.734   0.029   2.707 -2.7932 -0.9932 -0.0832
 3895SOL    HW223145   1.681   0.164   2.714  0.7278  0.7835  0.4678
 3896SOL     OW23146   3.096   3.541  12.300 -0.0825 -0.1132 -0.3541
 3896SOL    HW123147   3.166   3.477  12.310  0.0421  0.1196  0.2208
 3896SOL    HW223148   3.048   3.501  12.228 -0.6406  0.3967 -0.2689
 3897SOL     OW23149   3.716   0.522   4.799 -0.3526 -0.0189 -0.2677
 3897SOL    HW123150   3.809   0.508   4.816 -0.4255 -0.1404  0.0372
 3897SOL    HW223151   3.706   0.562   4.712 -1.2925 -1.2879 -0.7475
 3898SOL     OW23152   1.855   3.197   4.124 -0.0787  0.0787  0.4189
 3898SOL    HW123153   1.845   3.256   4.050 -0.1717 -0.0011  0.3682
 3898SOL    HW223154   1.932   3.145   4.101  0.0515  0.1189  0.7561
 3899SOL     OW23155   3.803   4.264  17.314 -0.5399 -0.2308  0.1882
 3899SOL    HW123156   3.726   4.242  17.262  0.7146 -1.1066 -1.3148
 3899SOL    HW223157   3.762   4.307  17.389  3.4026  0.6501  1.8551
 3900SOL     OW23158   2.147   2.773   5.336 -0.0415  0.0911  0.3233
 3900SOL    HW123159   2.108   2.733   5.413  1.4971  1.7785  1.9521
 3900SOL    HW223160   2.212   2.710   5.305 -0.5209 -0.8226  1.2018
 3901SOL     OW23161   1.795   3.405   9.596 -0.3054 -0.1593  0.2098
 3901SOL    HW123162   1.841   3.325   9.620  1.5806  0.8563  0.0497
 3901SOL    HW223163   1.841   3.466   9.655 -0.8946 -2.3100  2.8612
 3902SOL     OW23164   3.149   0.652   4.134  0.4928  0.2765 -0.2094
 3902SOL    HW123165   3.167   0.640   4.041  0.2742  1.3836 -0.3970
 3902SOL    HW223166   3.057   0.624   4.130  0.3170  0.8266 -0.0304
 3903SOL     OW23167   0.071   4.177   5.532  0.3718  0.5568  0.1808
 3903SOL    HW123168   0.107   4.099   5.576 -3.6494 -1.5888 -0.3782
 3903SOL    HW223169   0.038   4.142   5.449 -0.1758 -1.6932  1.3373
 3904SOL     OW23170   0.431   4.529   3.458  0.0039  0.3084  0.6877
 3904SOL    HW123171   0.485   4.459   3.496  1.0549  0.9657  0.3964
 3904SOL    HW223172   0.449   4.609   3.507  0.4644  1.1653 -0.9006
 3905SOL     OW23173   0.985   2.202   8.694  0.3098  0.8062 -0.1599
 3905SOL    HW123174   0.999   2.217   8.788 -0.0832 -2.6682  0.4650
 3905SOL    HW223175   1.010   2.289   8.662  0.9182  0.1283 -1.5162
 3906SOL     OW23176   2.594   4.499  15.464  0.1312  0.3662 -0.0801
 3906SOL    HW123177   2.593   4.441  15.388  0.4556  2.2418 -1.5138
 3906SOL    HW223178   2.684   4.532  15.463  0.1455  0.1962 -3.0475
 3907SOL     OW23179   2.591   3.371   3.902  0.2334 -0.7179  0.3394
 3907SOL    HW123180   2.621   3.458   3.875 -2.0442  0.3385  1.3122
 3907SOL    HW223181   2.633   3.360   3.987 -1.3751  1.4548  1.3852
 3908SOL     OW23182   4.272   4.717  13.603 -0.8609  0.2482 -0.1584
 3908SOL    HW123183   4.325   4.716  13.523  1.0840  3.8935  1.0784
 3908SOL    HW223184   4.327   0.046  13.660  0.8066 -2.9631  1.2194
 3909SOL     OW23185   3.894   1.728   7.509 -0.7133  0.2732 -0.8574
 3909SOL    HW123186   3.852   1.739   7.595  1.2687 -0.2244  0.1631
 3909SOL    HW223187   3.838   1.656   7.481 -1.7095 -0.4322  2.9893
 3910SOL     OW23188   4.299   1.128   4.032  0.4462 -0.4307  0.2456
 3910SOL    HW123189   4.218   1.078   4.025 -1.2098  2.3541 -0.0573
 3910SOL    HW223190   4.299   1.138   4.127 -0.4771  1.2092  0.0654
 3911SOL     OW23191   3.955   3.425  12.128 -0.1076 -0.2978  0.1287
 3911SOL    HW123192   3.995   3.342  12.103 -1.9988 -1.7515  1.9477
 3911SOL    HW223193   3.971   3.461  12.041  3.7748  1.0800  1.3813
 3912SOL     OW23194   3.878   3.941   1.438 -0.4967 -0.0707  0.5479
 3912SOL    HW123195   3.909   3.878   1.373  0.4793  0.2844  0.6680
 3912SOL    HW223196   3.943   4.012   1.439 -1.6382  0.9948 -0.7056
 3913SOL     OW23197   3.359   1.162   9.712  0.1742  0.2736  0.1854
 3913SOL    HW123198   3.380   1.248   9.748 -2.7698  0.2928  1.8113
 3913SOL    HW223199   3.318   1.120   9.787  0.9701  2.0056  1.5957
 3914SOL     OW23200   0.241   2.084   1.717  0.5547 -0.3085  0.0860
 3914SOL    HW123201   0.157   2.093   1.761  1.7537  0.7160  2.1528
 3914SOL    HW223202   0.224   2.135   1.638 -1.9460 -0.3944  0.5778
 3915SOL     OW23203   1.878   3.961  14.620  0.7196  0.1278 -0.3450
 3915SOL    HW123204   1.965   3.982  14.654  0.7067 -1.3743  0.6126
 3915SOL    HW223205   1.835   3.980  14.703 -0.9933 -2.9684 -0.5307
 3916SOL     OW23206   1.608   4.247   8.173  0.4959 -0.2807  0.4003
 3916SOL    HW123207   1.643   4.202   8.095  1.1303  2.5485 -0.9526
 3916SOL    HW223208   1.683   4.246   8.232 -1.0478 -0.6969  2.3321
 3917SOL     OW23209   2.817   3.723   9.206  0.1481  0.1578 -0.3359
 3917SOL    HW123210   2.752   3.703   9.139  0.0759  2.0259 -0.8435
 3917SOL    HW223211   2.770   3.796   9.248 -0.3070 -1.5779  2.1502
 3918SOL     OW23212   1.371   0.509   3.690  0.2434  1.1113  0.9012
 3918SOL    HW123213   1.361   0.601   3.716  0.0286  1.4829 -0.4703
 3918SOL    HW223214   1.413   0.468   3.765 -0.1126  1.1803  1.1357
 3919SOL     OW23215   0.997   1.913   0.831 -0.0759  0.3551  0.1652
 3919SOL    HW123216   0.985   2.005   0.809  0.9541  0.5543  0.4276
 3919SOL    HW223217   1.088   1.892   0.813 -0.1622 -1.3274  1.7100
 3920SOL     OW23218   2.951   1.218  15.715 -0.3492  0.0138  0.2786
 3920SOL    HW123219   2.886   1.165  15.761 -1.1075  1.0893  0.4409
 3920SOL    HW223220   2.972   1.285  15.779 -1.3501  0.0849  0.5356
 3921SOL     OW23221   4.408   3.373   9.663 -0.4898 -0.4988 -0.0526
 3921SOL    HW123222   4.313   3.355   9.664 -0.9262  1.7816 -0.5005
 3921SOL    HW223223   4.431   3.308   9.597  0.5125  0.6116 -0.7894
 3922SOL     OW23224   2.170   1.783   9.439  0.0519 -0.5699 -0.1377
 3922SOL    HW123225   2.132   1.696   9.454 -0.2535 -0.1286  1.6282
 3922SOL    HW223226   2.096   1.827   9.396 -1.3266 -0.9238  1.8727
 3923SOL     OW23227   0.786   3.381   6.208  0.7330  0.0347  0.4845
 3923SOL    HW123228   0.699   3.346   6.189  0.2143  2.1905 -1.1902
 3923SOL    HW223229   0.803   3.440   6.135 -0.2466 -0.0916  0.1486
 3924SOL     OW23230   2.306   1.436   7.201 -0.4987  0.5815 -0.2270
 3924SOL    HW123231   2.348   1.356   7.169 -2.3546 -1.5998  2.8089
 3924SOL    HW223232   2.251   1.447   7.124  1.3113  0.0090 -1.5927
 3925SOL     OW23233   0.389   1.433   6.181  0.1887  0.0836  0.0755
 3925SOL    HW123234   0.421   1.523   6.171  0.1506 -0.0157 -0.9356
 3925SOL    HW223235   0.457   1.376   6.143  2.0940  2.4305 -0.0331
 3926SOL     OW23236   2.470   0.746  15.594  0.1075 -0.5380 -0.0901
 3926SOL    HW123237   2.414   0.785  15.526  0.1131 -1.4847 -0.6394
 3926SOL    HW223238   2.419   0.665  15.607  1.1768 -1.2651 -0.4574
 3927SOL     OW23239   3.606   1.935   7.494 -0.5137  0.3403  0.3517
 3927SOL    HW123240   3.654   2.003   7.542  0.7455 -0.4554  0.2369
 3927SOL    HW223241   3.578   1.882   7.568  0.8382 -3.0898 -1.5605
 3928SOL     OW23242   3.615   1.752   2.746 -0.3949  0.7800  0.3433
 3928SOL    HW123243   3.651   1.731   2.831  0.8875 -2.2295 -0.9603
 3928SOL    HW223244   3.671   1.824   2.719 -0.4029  0.7706  0.3015
 3929SOL     OW23245   2.245   0.402   1.822  0.6063  0.4158  0.4704
 3929SOL    HW123246   2.300   0.414   1.900  2.3536 -1.6436 -0.4377
 3929SOL    HW223247   2.261   0.482   1.773 -0.8103  1.6611  2.0498
 3930SOL     OW23248   4.410   1.222   3.718 -0.0946  0.3708 -0.3498
 3930SOL    HW123249   4.372   1.276   3.788 -0.1888  1.3961 -1.1995
 3930SOL    HW223250   4.432   1.294   3.659 -1.6957  2.8425  2.0445
 3931SOL     OW23251   2.659   4.502   4.706 -0.0353 -0.6012 -0.3802
 3931SOL    HW123252   2.671   4.559   4.782 -1.5739 -1.5340  0.5620
 3931SOL    HW223253   2.582   4.539   4.663  0.3714  0.5294 -0.1289
 3932SOL     OW23254   0.902   3.686   3.186  0.2755  0.8606  0.0639
 3932SOL    HW123255   0.860   3.763   3.147 -2.9756 -1.3836 -0.7705
 3932SOL    HW223256   0.954   3.644   3.118 -2.3899  0.8438 -1.9710
 3933SOL     OW23257   4.152   1.314   4.918 -0.3279 -0.6680 -0.2465
 3933SOL    HW123258   4.177   1.403   4.944 -1.2415  0.1865 -2.2369
 3933SOL    HW223259   4.152   1.278   5.007 -0.4183 -0.6447 -0.2365
 3934SOL     OW23260   2.258   2.487   0.899 -0.1513  0.1362 -0.3227
 3934SOL    HW123261   2.174   2.455   0.867  0.0540  1.0438 -1.7617
 3934SOL    HW223262   2.230   2.567   0.944  0.3720  0.0238  0.1998
 3935SOL     OW23263   4.344   1.309   3.319 -0.1494 -0.5992  0.1665
 3935SOL    HW123264   4.357   1.325   3.225 -1.2897  1.3580  0.3449
 3935SOL    HW223265   4.418   1.251   3.336 -0.6294 -0.7305  1.7863
 3936SOL     OW23266   3.345   3.211   9.441  0.4607 -0.0636  0.3157
 3936SOL    HW123267   3.296   3.248   9.368 -0.7311  0.3461  1.3259
 3936SOL    HW223268   3.316   3.121   9.427 -0.5089  0.1318  1.1134
 3937SOL     OW23269   0.584   3.850   3.727  0.2261 -0.4305  0.4159
 3937SOL    HW123270   0.611   3.936   3.695  1.9658 -0.3675  2.0304
 3937SOL    HW223271   0.500   3.836   3.684  0.8817  0.1694 -1.0677
 3938SOL     OW23272   2.926   0.957   9.785  0.4842 -0.0473 -0.2537
 3938SOL    HW123273   2.882   0.993   9.862  1.1694  0.2601 -0.0047
 3938SOL    HW223274   2.987   0.894   9.825  0.0363 -0.9783 -1.0342
 3939SOL     OW23275   2.816   4.615  15.724  0.0934  0.0873 -0.0793
 3939SOL    HW123276   2.797   4.626  15.631  2.6421 -1.4013 -0.8048
 3939SOL    HW223277   2.761   4.542  15.752  0.1239 -0.5456 -1.6387
 3940SOL     OW23278   4.452   1.375   5.270 -0.1448 -0.3753 -0.4815
 3940SOL    HW123279   4.513   1.304   5.251 -1.4042 -1.7174  0.5138
 3940SOL    HW223280   4.372   1.330   5.240 -0.6133 -0.5380  1.0333
 3941SOL     OW23281   0.379   0.336  13.310  0.4520 -0.0433 -0.1818
 3941SOL    HW123282   0.290   0.370  13.321  0.6581 -0.5583  3.0201
 3941SOL    HW223283   0.404   0.301  13.396 -0.0625 -1.5125 -0.6383
 3942SOL     OW23284   2.522   4.198  15.958  0.3396  0.2567 -0.2546
 3942SOL    HW123285   2.546   4.244  16.038  2.3737 -1.4264  0.1110
 3942SOL    HW223286   2.448   4.141  15.976  0.9286 -0.3543  0.2377
 3943SOL     OW23287   3.021   4.534   3.897 -0.3835 -0.1065 -0.0092
 3943SOL    HW123288   2.977   4.449   3.898 -0.9162  0.1507 -1.9335
 3943SOL    HW223289   3.044   4.551   3.806 -2.2644  0.3508 -0.3796
 3944SOL     OW23290   2.010   1.362   9.737 -0.2525  0.2080 -0.2407
 3944SOL    HW123291   2.087   1.373   9.793 -0.5038  2.9897 -0.4407
 3944SOL    HW223292   1.990   1.270   9.754 -0.8385  0.1872 -1.0944
 3945SOL     OW23293   2.193   2.951   9.570  0.3116 -0.4061  0.2338
 3945SOL    HW123294   2.258   2.952   9.640 -0.8527 -0.0556  1.3308
 3945SOL    HW223295   2.244   3.003   9.508  1.0251 -0.0545  1.1174
 3946SOL     OW23296   3.266   4.026  17.668  0.2896  0.0310 -0.1717
 3946SOL    HW123297   3.230   3.938  17.660  1.1983 -0.5183  1.6467
 3946SOL    HW223298   3.184   4.070  17.649  0.8942  0.5820 -1.4457
 3947SOL     OW23299   3.687   2.375   6.307 -0.2047 -0.2411  0.1473
 3947SOL    HW123300   3.731   2.427   6.374  1.5723 -2.3253  0.6257
 3947SOL    HW223301   3.690   2.282   6.331 -0.7999 -0.2738  0.0989
 3948SOL     OW23302   1.591   3.852   9.094  0.4017  0.3504  0.0355
 3948SOL    HW123303   1.515   3.796   9.108  2.0887 -2.9378 -3.6844
 3948SOL    HW223304   1.655   3.802   9.145  1.1182  0.7939 -0.4334
 3949SOL     OW23305   2.980   3.633   2.685 -0.5733 -0.4868 -0.3247
 3949SOL    HW123306   3.009   3.718   2.717 -0.0255  0.3209 -2.9507
 3949SOL    HW223307   3.044   3.581   2.733 -0.7170  1.1284  1.6253
 3950SOL     OW23308   1.579   3.739  15.454  0.5015 -0.1002 -0.5155
 3950SOL    HW123309   1.623   3.822  15.468  0.2096 -0.3514  1.9464
 3950SOL    HW223310   1.646   3.682  15.492  0.6391 -0.9901 -2.1023
 3951SOL     OW23311   4.369   2.182   6.271  0.0039 -0.0671  0.0448
 3951SOL    HW123312   4.378   2.178   6.366  3.2979 -2.6999 -0.3649
 3951SOL    HW223313   4.457   2.212   6.250 -0.1135 -1.0566 -1.8732
 3952SOL     OW23314   2.553   4.111   5.718 -0.5239  0.2242 -0.1829
 3952SOL    HW123315   2.501   4.168   5.775 -0.5113  0.5486 -0.5001
 3952SOL    HW223316   2.553   4.168   5.641  1.8732 -0.2212 -0.5426
 3953SOL     OW23317   0.426   3.340   8.300  0.1304  0.3254  0.1547
 3953SOL    HW123318   0.362   3.402   8.335 -0.4725 -1.1744  1.7087
 3953SOL    HW223319   0.377   3.296   8.231  0.1366 -0.1630  0.4569
 3954SOL     OW23320   2.381   3.912   6.380  0.1221  0.1965 -0.1300
 3954SOL    HW123321   2.383   3.938   6.287  2.4474 -1.6363 -0.5876
 3954SOL    HW223322   2.313   3.967   6.419  0.1311  0.4432 -0.4615
 3955SOL     OW23323   2.005   1.987   3.506 -0.0810 -0.4431  0.0963
 3955SOL    HW123324   1.984   2.077   3.482  0.1188 -0.5132 -0.3275
 3955SOL    HW223325   1.947   1.974   3.581  1.4045  1.3994  1.5611
 3956SOL     OW23326   3.797   4.239   8.382  0.0483 -0.0181 -0.4465
 3956SOL    HW123327   3.736   4.197   8.322 -1.0953 -1.1964  1.5149
 3956SOL    HW223328   3.802   4.179   8.456 -2.1971  0.1761 -0.1225
 3957SOL     OW23329   3.491   3.404   9.202 -0.5822 -0.0075  0.0037
 3957SOL    HW123330   3.480   3.317   9.240 -2.3227  0.7919  1.3391
 3957SOL    HW223331   3.461   3.389   9.112 -2.2361 -0.6810  0.6668
 3958SOL     OW23332   2.351   3.162   0.456  0.2813  0.0808  0.6212
 3958SOL    HW123333   2.302   3.143   0.537  0.8626  2.6364  1.6006
 3958SOL    HW223334   2.356   3.077   0.414 -0.1627 -0.2673  1.2724
 3959SOL     OW23335   3.565   4.656   8.419  0.4800  0.4984  0.3268
 3959SOL    HW123336   3.495   4.593   8.402 -0.5725  2.1690 -1.5040
 3959SOL    HW223337   3.644   4.602   8.411 -1.6525 -2.5287 -0.3021
 3960SOL     OW23338   0.648   0.531  12.026  0.2016  0.3942  0.1939
 3960SOL    HW123339   0.652   0.440  12.057  0.5191  0.1412 -0.5910
 3960SOL    HW223340   0.570   0.555  12.076  0.3154 -0.4045  0.7649
 3961SOL     OW23341   2.539   4.253   0.682  0.1583 -0.7151 -0.0886
 3961SOL    HW123342   2.631   4.246   0.707  0.9080  0.8756 -2.4627
 3961SOL    HW223343   2.501   4.285   0.763  0.0520  0.9154 -0.7886
 3962SOL     OW23344   3.173   0.175   8.317  0.2064  0.1151  0.0302
 3962SOL    HW123345   3.235   0.103   8.306  1.1046  0.6462  1.6247
 3962SOL    HW223346   3.215   0.245   8.267  1.1694  0.4302  1.2813
 3963SOL     OW23347   2.019   2.530   8.638  0.8137 -0.4196  0.5172
 3963SOL    HW123348   1.941   2.580   8.616  1.9552  1.2187  0.2436
 3963SOL    HW223349   1.986   2.444   8.611 -1.9522  0.9381 -0.4333
 3964SOL     OW23350   3.127   4.527   1.021 -0.7340 -0.1907  0.1576
 3964SOL    HW123351   3.118   4.594   0.954  0.7424  0.2403  0.3852
 3964SOL    HW223352   3.222   4.531   1.031 -0.8459  0.5612  0.9124
 3965SOL     OW23353   4.684   3.838   7.218 -0.3174 -0.3729 -0.4604
 3965SOL    HW123354   4.707   3.750   7.248 -0.9760 -0.4615 -0.1951
 3965SOL    HW223355   0.043   3.884   7.220  0.0496 -1.2386  3.0087
 3966SOL     OW23356   2.963   1.732   2.213  0.5497 -0.1363 -0.2397
 3966SOL    HW123357   2.966   1.799   2.282  1.5674  1.0174 -1.3947
 3966SOL    HW223358   2.960   1.788   2.135 -2.8501 -0.8893 -0.6181
 3967SOL     OW23359   4.137   3.895  17.153  0.1218 -0.6045 -0.7161
 3967SOL    HW123360   4.111   3.961  17.217  0.9924  0.0842 -1.0761
 3967SOL    HW223361   4.061   3.894  17.096  1.1584 -0.1506 -2.0994
 3968SOL     OW23362   2.472   0.070   7.821  0.1825  0.0058 -0.0919
 3968SOL    HW123363   2.443   4.705   7.841 -0.2529  0.1291 -0.1636
 3968SOL    HW223364   2.515   0.059   7.737  0.1881  0.2123 -0.1151
 3969SOL     OW23365   3.038   0.721  15.170 -0.1713  0.2919  0.1744
 3969SOL    HW123366   3.096   0.645  15.179  0.3683  0.3092 -3.1844
 3969SOL    HW223367   2.969   0.695  15.231 -0.5366 -0.1856 -0.4417
 3970SOL     OW23368   3.533   3.499   7.447 -0.2175  0.0074 -0.1193
 3970SOL    HW123369   3.455   3.549   7.473  0.4925 -0.0325  2.0650
 3970SOL    HW223370   3.515   3.416   7.490  0.5192  0.8381  1.7694
 3971SOL     OW23371   2.277   2.426  14.467 -0.9117 -0.1226  0.1090
 3971SOL    HW123372   2.358   2.387  14.434  0.6899 -0.2886  4.2245
 3971SOL    HW223373   2.244   2.481  14.395 -0.3251  1.4583  1.0429
 3972SOL     OW23374   3.088   1.451  16.135  0.1431 -0.5151 -0.1650
 3972SOL    HW123375   3.070   1.383  16.201 -0.7392  2.1629  2.3709
 3972SOL    HW223376   3.085   1.526  16.194 -0.1633 -2.7438  2.7112
 3973SOL     OW23377   3.417   3.876   7.360 -0.2706 -0.3111  0.3571
 3973SOL    HW123378   3.370   3.853   7.441 -0.0229 -0.2080  0.5283
 3973SOL    HW223379   3.506   3.847   7.379  0.0891  1.5986  1.5473
 3974SOL     OW23380   1.155   4.074   2.677  0.0843 -0.1963 -0.1703
 3974SOL    HW123381   1.240   4.070   2.720 -0.0540 -0.4128  0.0839
 3974SOL    HW223382   1.175   4.154   2.629 -0.8481 -1.9796 -3.6043
 3975SOL     OW23383   2.601   4.505   6.581 -0.2935  0.1309 -0.3048
 3975SOL    HW123384   2.668   4.448   6.542 -0.3600 -0.2699  0.1766
 3975SOL    HW223385   2.657   4.546   6.647  0.6256 -2.7923  0.7296
 3976SOL     OW23386   2.506   4.273   3.467  0.2948  0.5653 -0.2748
 3976SOL    HW123387   2.448   4.349   3.478  1.6055  1.4301  0.7024
 3976SOL    HW223388   2.459   4.200   3.508 -2.0910  2.4723  0.3969
 3977SOL     OW23389   1.801   4.516   0.993  0.6374 -0.1906  0.7102
 3977SOL    HW123390   1.722   4.462   0.987  0.9807 -0.6609  0.4772
 3977SOL    HW223391   1.835   4.501   0.905 -0.6225 -0.5081  0.2773
 3978SOL     OW23392   3.983   3.193   9.059 -0.3653 -0.1352  0.0337
 3978SOL    HW123393   3.891   3.196   9.083 -0.4951  1.3275 -0.5960
 3978SOL    HW223394   3.996   3.108   9.101 -2.6198 -0.3877  0.2288
 3979SOL     OW23395   2.028   4.292  12.835 -0.8653 -0.1754 -0.2476
 3979SOL    HW123396   1.991   4.377  12.855  1.0556  0.3835  0.9035
 3979SOL    HW223397   2.096   4.321  12.774 -0.9510 -2.9660 -1.6931
 3980SOL     OW23398   0.110   4.280   5.889 -0.0065  0.3455 -0.3107
 3980SOL    HW123399   0.063   4.310   5.811  0.7841 -0.6781 -1.1833
 3980SOL    HW223400   0.199   4.276   5.854 -0.2980  1.0247 -1.1523
 3981SOL     OW23401   2.470   4.313   7.707 -0.4289 -0.4788  0.2835
 3981SOL    HW123402   2.416   4.236   7.692 -1.6058  0.9377 -2.8323
 3981SOL    HW223403   2.560   4.280   7.704  0.5321  2.1115  0.1548
 3982SOL     OW23404   2.671   2.968   7.450 -0.1971 -0.3261  0.1614
 3982SOL    HW123405   2.747   2.998   7.401  0.8214 -1.7400  0.9012
 3982SOL    HW223406   2.701   2.971   7.540 -1.0381 -0.5064  0.4536
 3983SOL     OW23407   4.672   1.345   6.242  0.0618 -0.1605  0.5580
 3983SOL    HW123408   0.014   1.311   6.302  0.1779  0.8086  0.9860
 3983SOL    HW223409   4.638   1.267   6.199  2.0254 -0.2424 -0.8310
 3984SOL     OW23410   1.497   2.817   8.589  0.6215  0.4162 -0.1648
 3984SOL    HW123411   1.428   2.823   8.655  2.1338 -2.6929  1.6718
 3984SOL    HW223412   1.445   2.814   8.509 -0.5496 -1.3606  0.6799
 3985SOL     OW23413   3.422   4.436   4.716 -0.2270  0.0482 -0.4282
 3985SOL    HW123414   3.413   4.421   4.810  0.3127 -2.9750 -0.8589
 3985SOL    HW223415   3.415   4.532   4.719  1.0689  0.1213  0.2082
 3986SOL     OW23416   0.794   1.420  11.420 -1.1638  0.4421 -0.2355
 3986SOL    HW123417   0.737   1.427  11.497 -1.0592  0.5444 -0.1665
 3986SOL    HW223418   0.881   1.425  11.461  0.5607 -0.7617 -3.7651
 3987SOL     OW23419   0.782   3.148  14.216  0.1016  0.3454  0.0549
 3987SOL    HW123420   0.798   3.214  14.284 -1.4706  0.3183  0.4442
 3987SOL    HW223421   0.828   3.071  14.249  0.9123  0.1273 -1.5978
 3988SOL     OW23422   0.925   1.437   9.816  0.3135 -0.6236  0.3431
 3988SOL    HW123423   0.888   1.491   9.886 -0.1871  0.8694 -1.0654
 3988SOL    HW223424   0.995   1.392   9.865  0.0389  1.1232  2.3560
 3989SOL     OW23425   1.151   1.104   4.105 -0.1524 -0.4030  0.0504
 3989SOL    HW123426   1.210   1.136   4.173 -0.2648  0.0912 -0.0862
 3989SOL    HW223427   1.202   1.087   4.026 -0.9287  0.4635 -0.6304
 3990SOL     OW23428   4.516   1.659   0.033  0.5365  0.3400  0.3432
 3990SOL    HW123429   4.557   1.654  17.645  0.6915 -0.5102  0.4651
 3990SOL    HW223430   4.584   1.610   0.079  0.2016 -0.6862 -0.2666
 3991SOL     OW23431   3.798   3.517   3.598 -0.0514 -0.0378 -0.1483
 3991SOL    HW123432   3.822   3.571   3.523  0.4201  1.4118  1.0414
 3991SOL    HW223433   3.774   3.583   3.664 -0.4717 -0.3215 -0.0141
 3992SOL     OW23434   2.384   2.858   0.737 -0.1640  0.1935 -0.5757
 3992SOL    HW123435   2.466   2.904   0.757  0.1626 -0.9353  0.6205
 3992SOL    HW223436   2.382   2.867   0.642  0.2206 -1.4330 -0.7359
 3993SOL     OW23437   3.688   1.383  15.543  0.1004  0.2063 -0.4428
 3993SOL    HW123438   3.684   1.379  15.447 -0.6581 -1.7087 -0.3163
 3993SOL    HW223439   3.608   1.332  15.558  1.0460 -0.6550  1.6406
 3994SOL     OW23440   1.066   2.784   0.660  0.3984 -0.2792  0.1851
 3994SOL    HW123441   1.150   2.789   0.706  0.4729 -1.5723  0.1736
 3994SOL    HW223442   1.096   2.779   0.569 -3.1031 -2.9103 -0.8454
 3995SOL     OW23443   0.852   2.673  14.545 -0.3531  0.0269 -0.6687
 3995SOL    HW123444   0.802   2.749  14.514 -0.0486  1.0893  1.4072
 3995SOL    HW223445   0.772   2.637  14.583 -0.8173  2.6105  0.8227
 3996SOL     OW23446   1.781   0.906   7.804 -0.0027 -0.3411  0.2530
 3996SOL    HW123447   1.810   0.832   7.857  0.9385 -0.0668  0.1167
 3996SOL    HW223448   1.858   0.933   7.753 -0.0372  1.3853  1.1049
 3997SOL     OW23449   3.464   4.436   4.232  0.3768  0.0963  0.1526
 3997SOL    HW123450   3.538   4.495   4.249  1.3854 -1.2135  0.2299
 3997SOL    HW223451   3.427   4.436   4.321  0.8087 -1.5022  0.3228
 3998SOL     OW23452   2.697   2.434  15.005 -0.0441 -0.1789 -0.2295
 3998SOL    HW123453   2.684   2.421  15.099  1.8575 -1.4925 -0.1511
 3998SOL    HW223454   2.701   2.346  14.968 -0.7226 -0.6845  0.8746
 3999SOL     OW23455   1.932   3.662   2.861 -0.5772 -0.1457  0.2862
 3999SOL    HW123456   2.016   3.707   2.866 -0.3830 -0.5726  0.9095
 3999SOL    HW223457   1.898   3.654   2.950 -0.6639 -0.3642  0.2335
 4000SOL     OW23458   4.414   1.772   3.020  0.7089  0.3398 -0.0847
 4000SOL    HW123459   4.362   1.746   3.096 -1.3457  1.5264 -1.0957
 4000SOL    HW223460   4.495   1.799   3.063  0.2653 -0.8218  1.4542
 4001SOL     OW23461   1.349   2.620   3.179  0.2665 -0.4669 -0.9929
 4001SOL    HW123462   1.271   2.591   3.131 -0.3921 -0.8221  0.2779
 4001SOL    HW223463   1.422   2.580   3.131  0.1683 -2.0060  0.1301
 4002SOL     OW23464   2.293   4.558   9.130 -0.3073  0.7888 -0.0130
 4002SOL    HW123465   2.219   4.597   9.177 -1.5269  1.2892 -2.3674
 4002SOL    HW223466   2.326   4.636   9.087  2.2061  0.3532  1.1179
 4003SOL     OW23467   3.042   2.498   2.775  0.5308  0.4027  0.0429
 4003SOL    HW123468   3.068   2.470   2.687  1.8450 -0.0649  0.5726
 4003SOL    HW223469   3.007   2.426   2.827  2.9624 -1.7792 -1.3485
 4004SOL     OW23470   2.352   2.432  14.765  0.2794  0.0280  0.3709
 4004SOL    HW123471   2.418   2.363  14.759 -1.8243 -1.8802 -0.5462
 4004SOL    HW223472   2.340   2.452  14.672  1.5505  0.4730  0.3032
 4005SOL     OW23473   2.688   0.238  16.936  0.3898  0.0082 -0.2365
 4005SOL    HW123474   2.743   0.222  16.859  0.5699  0.3298 -0.1727
 4005SOL    HW223475   2.668   0.329  16.917  3.6925  0.4704 -1.5207
 4006SOL     OW23476   2.894   4.170   6.763 -0.2250  0.1449  0.1676
 4006SOL    HW123477   2.881   4.182   6.669 -1.3904  0.5915  0.3960
 4006SOL    HW223478   2.869   4.078   6.764  1.2662 -0.2708 -0.2770
 4007SOL     OW23479   3.050   2.127   6.271 -0.1156  0.0383 -0.5943
 4007SOL    HW123480   2.984   2.134   6.340 -0.7223  0.0256 -1.1785
 4007SOL    HW223481   3.076   2.037   6.291 -0.0910 -0.0757 -1.1462
 4008SOL     OW23482   3.919   0.157  15.667  0.2278  0.3648  0.6178
 4008SOL    HW123483   3.901   0.095  15.738  1.4546 -2.3818 -1.4895
 4008SOL    HW223484   3.826   0.168  15.644  0.6626  1.7401 -0.4499
 4009SOL     OW23485   1.573   2.200  17.151  0.2249  0.3482 -0.2029
 4009SOL    HW123486   1.521   2.208  17.070  2.0573  2.0674 -1.1834
 4009SOL    HW223487   1.543   2.270  17.210 -0.7550  0.7592 -1.1795
 4010SOL     OW23488   4.064   4.428  11.018  0.5803 -0.3170 -0.0826
 4010SOL    HW123489   4.151   4.439  10.980  0.9152 -0.1532  0.7167
 4010SOL    HW223490   4.046   4.519  11.042 -0.1190 -0.8292  1.3625
 4011SOL     OW23491   1.898   4.441   0.477  0.0671 -0.6221  0.3461
 4011SOL    HW123492   1.980   4.418   0.432 -0.8582 -0.4099 -1.4670
 4011SOL    HW223493   1.865   4.502   0.411  0.5579 -1.8150 -1.0114
 4012SOL     OW23494   2.183   2.907   3.551  0.0727 -0.5988  0.3793
 4012SOL    HW123495   2.164   2.994   3.587  0.2428 -0.0977 -0.7357
 4012SOL    HW223496   2.266   2.880   3.591 -0.8782 -3.2741  0.5716
 4013SOL     OW23497   0.439   1.883   5.369  0.1401 -0.2109 -0.1539
 4013SOL    HW123498   0.388   1.895   5.450  0.4079  0.0595 -0.0239
 4013SOL    HW223499   0.373   1.834   5.321  2.4072 -2.3812 -1.0212
 4014SOL     OW23500   1.370   3.398   6.286  0.1762 -0.1046 -0.0965
 4014SOL    HW123501   1.380   3.376   6.379  1.6434  1.0125  0.0135
 4014SOL    HW223502   1.275   3.402   6.281  0.2766  1.1840 -1.0059
 4015SOL     OW23503   0.017   4.525   7.649 -0.2735 -0.1085  0.3592
 4015SOL    HW123504   0.092   4.470   7.630  0.5792  0.5484  1.8368
 4015SOL    HW223505   4.702   4.483   7.726 -0.2587  0.1424  0.5041
 4016SOL     OW23506   3.329   0.455   3.718  0.4093  0.6934 -0.1302
 4016SOL    HW123507   3.329   0.439   3.623 -1.6335 -0.7378  0.1266
 4016SOL    HW223508   3.297   0.369   3.743 -0.5947  0.9732 -0.4603
 4017SOL     OW23509   0.584   2.719   4.664 -0.3018  0.4177  0.5547
 4017SOL    HW123510   0.583   2.672   4.748 -0.6526 -1.9014 -0.7368
 4017SOL    HW223511   0.562   2.804   4.702  0.0430  0.0025  1.6992
 4018SOL     OW23512   4.715   1.338   4.899  0.0461 -0.4355 -0.0461
 4018SOL    HW123513   4.689   1.397   4.828 -0.1234 -1.6448 -0.9906
 4018SOL    HW223514   0.055   1.391   4.946  1.3490 -0.6224 -1.6055
 4019SOL     OW23515   0.390   3.726   1.945 -0.8781  0.4272 -0.0991
 4019SOL    HW123516   0.348   3.713   2.030  1.0225  1.1506  0.9680
 4019SOL    HW223517   0.333   3.681   1.884 -0.4546 -0.7132  0.3370
 4020SOL     OW23518   0.896   3.153   5.667 -0.2975  0.0668  0.1708
 4020SOL    HW123519   0.966   3.093   5.693 -2.8157 -2.0171  2.0514
 4020SOL    HW223520   0.853   3.152   5.752  1.1831 -1.6781  0.8928
 4021SOL     OW23521   1.330   3.262  10.863 -0.8623  0.2872  0.1092
 4021SOL    HW123522   1.362   3.219  10.942  0.8625 -0.0118 -0.7571
 4021SOL    HW223523   1.263   3.199  10.836 -2.1745  1.1842  1.3213
 4022SOL     OW23524   3.744   0.860   9.716 -0.3008  0.3693  0.0639
 4022SOL    HW123525   3.780   0.791   9.661 -4.6360 -1.5991 -0.3206
 4022SOL    HW223526   3.664   0.879   9.667  0.4554  1.5083 -0.7433
 4023SOL     OW23527   1.709   3.739   2.335 -0.7961  0.4032 -0.2655
 4023SOL    HW123528   1.722   3.807   2.402 -1.6873  1.8186 -1.5357
 4023SOL    HW223529   1.633   3.776   2.292 -0.1253  0.1747 -1.6648
 4024SOL     OW23530   2.774   1.407   4.238 -0.2795  0.2932  0.3470
 4024SOL    HW123531   2.865   1.435   4.227  0.1549 -0.8315  1.2045
 4024SOL    HW223532   2.737   1.438   4.155 -0.4528 -0.3348  0.1907
 4025SOL     OW23533   0.875   1.031   7.285 -0.6802  0.6624  0.2029
 4025SOL    HW123534   0.860   1.068   7.198  1.2488 -0.3176 -0.5402
 4025SOL    HW223535   0.926   0.951   7.267  0.5578  1.8150 -1.4162
 4026SOL     OW23536   2.622   3.165   0.952 -0.2653  0.4681 -0.1618
 4026SOL    HW123537   2.691   3.099   0.953 -0.8459 -0.0774  2.8059
 4026SOL    HW223538   2.662   3.245   0.987 -2.0863  1.6615 -0.8162
 4027SOL     OW23539   4.229   1.762   8.448 -0.3469  0.1456  0.1868
 4027SOL    HW123540   4.282   1.684   8.466 -1.6949 -1.1064 -1.2523
 4027SOL    HW223541   4.216   1.781   8.541  1.0882 -1.3162  0.7004
 4028SOL     OW23542   1.510   3.682   4.510 -0.5473 -0.1695  0.5205
 4028SOL    HW123543   1.481   3.748   4.446  0.8567  0.0013  0.0478
 4028SOL    HW223544   1.575   3.639   4.455 -1.4840  1.5107 -1.9266
 4029SOL     OW23545   1.183   2.858   6.084 -0.3909 -0.2200  0.0355
 4029SOL    HW123546   1.089   2.874   6.081 -0.0995  1.2001 -1.2676
 4029SOL    HW223547   1.223   2.942   6.105 -1.8561  0.1716  1.3131
 4030SOL     OW23548   1.804   3.654  15.758  0.2459 -0.1464 -0.4149
 4030SOL    HW123549   1.808   3.629  15.666  2.1965  0.4141 -0.4846
 4030SOL    HW223550   1.806   3.570  15.805  1.1132 -0.2066 -0.5618
 4031SOL     OW23551   2.717   0.158   6.503 -0.2961  0.4345 -0.0072
 4031SOL    HW123552   2.632   0.168   6.459  0.0590  1.6852 -0.4087
 4031SOL    HW223553   2.693   0.163   6.595  0.3327 -0.9698  0.2407
 4032SOL     OW23554   1.918   1.624   4.723  0.1216 -0.2166 -0.1331
 4032SOL    HW123555   1.928   1.608   4.817  0.7059  1.5000  0.0961
 4032SOL    HW223556   1.825   1.648   4.728 -0.2584 -1.8904  0.8020
 4033SOL     OW23557   1.443   3.354   5.727  0.3261 -0.2540  0.7444
 4033SOL    HW123558   1.471   3.271   5.688 -0.4000  0.6991 -1.7931
 4033SOL    HW223559   1.355   3.327   5.752  0.3360  1.9606  3.0736
 4034SOL     OW23560   4.225   3.977   2.168 -0.1526  0.0655 -0.6178
 4034SOL    HW123561   4.159   3.991   2.099 -1.9072 -1.2966  0.7907
 4034SOL    HW223562   4.239   4.063   2.207 -1.6070  0.6782 -1.4140
 4035SOL     OW23563   0.296   4.454  14.844 -0.9025  0.5775 -0.3603
 4035SOL    HW123564   0.361   4.393  14.878 -0.8126  1.2613  0.7174
 4035SOL    HW223565   0.284   4.510  14.922 -0.7473  0.1161 -0.0073
 4036SOL     OW23566   2.379   4.063  11.625 -0.1464 -0.0737 -0.1072
 4036SOL    HW123567   2.333   4.010  11.559 -0.1750  0.4668 -0.5146
 4036SOL    HW223568   2.430   4.114  11.562  0.0586 -1.5148 -1.1230
 4037SOL     OW23569   2.182   2.200   2.809  0.3948  0.2616  0.5759
 4037SOL    HW123570   2.201   2.288   2.776 -1.2674 -0.3031 -1.8719
 4037SOL    HW223571   2.087   2.206   2.819  0.3184  0.7281 -0.3512
 4038SOL     OW23572   4.164   1.869   2.893  0.1212 -0.2718  0.3076
 4038SOL    HW123573   4.171   1.955   2.935  1.4268 -0.1003 -0.2368
 4038SOL    HW223574   4.242   1.826   2.929  0.6774 -0.0202 -0.5838
 4039SOL     OW23575   1.288   4.465   4.244 -0.1189  0.3056 -0.2674
 4039SOL    HW123576   1.217   4.526   4.264 -1.7438 -1.7432  0.3014
 4039SOL    HW223577   1.260   4.445   4.154  1.4601  0.5381 -0.8145
 4040SOL     OW23578   2.691   2.855  10.044  0.4986  0.0018  0.0793
 4040SOL    HW123579   2.667   2.946  10.064  1.8306  0.3325  0.1756
 4040SOL    HW223580   2.683   2.811  10.129 -0.8371  1.0797  0.5066
 4041SOL     OW23581   2.848   0.789   5.654 -0.0763  0.6947 -0.5370
 4041SOL    HW123582   2.915   0.829   5.600  0.7772 -0.3364 -0.2439
 4041SOL    HW223583   2.883   0.802   5.742  1.2759  1.9255 -1.2566
 4042SOL     OW23584   2.984   1.045   3.875  0.5218  0.1371 -0.2506
 4042SOL    HW123585   2.960   1.047   3.967 -0.3947  1.5871 -0.5225
 4042SOL    HW223586   2.915   1.082   3.821 -0.4610 -1.6076 -0.2061
 4043SOL     OW23587   1.211   0.338   6.840 -0.1621 -0.3611  0.1411
 4043SOL    HW123588   1.266   0.364   6.913  1.6373 -1.5835 -0.7861
 4043SOL    HW223589   1.271   0.345   6.765  0.3947 -1.6311  0.4829
 4044SOL     OW23590   2.817   2.311   2.674 -0.3833  0.1760  1.0858
 4044SOL    HW123591   2.891   2.251   2.668  0.7741  1.8947 -1.4262
 4044SOL    HW223592   2.820   2.357   2.591  0.4488 -0.0888  0.9712
 4045SOL     OW23593   2.266   2.126   2.165 -0.7229 -0.3209  0.2677
 4045SOL    HW123594   2.233   2.043   2.200 -1.6765 -0.0380  0.0376
 4045SOL    HW223595   2.186   2.168   2.134 -1.6687 -2.0981  0.2683
 4046SOL     OW23596   0.861   0.659   2.126  0.6383  0.3494  0.1238
 4046SOL    HW123597   0.845   0.592   2.192  1.1891  0.9162  0.8398
 4046SOL    HW223598   0.872   0.607   2.046  2.6169  0.3989  0.3695
 4047SOL     OW23599   4.616   0.351  13.030  0.2508 -0.0010 -0.3035
 4047SOL    HW123600   4.708   0.355  13.056 -0.5653  2.2066  2.1423
 4047SOL    HW223601   4.568   0.367  13.111  1.8984  1.1505  0.4333
 4048SOL     OW23602   2.072   3.777   4.953 -0.1774 -0.3952  0.1659
 4048SOL    HW123603   2.109   3.697   4.917 -3.1653 -2.1828  1.0575
 4048SOL    HW223604   2.081   3.829   4.873  3.6857  0.1924  1.0087
 4049SOL     OW23605   3.193   0.815  11.906  0.1258 -0.3833 -0.1941
 4049SOL    HW123606   3.245   0.738  11.883 -0.3862 -1.0446  0.8617
 4049SOL    HW223607   3.236   0.882  11.854  0.1557  0.7554  1.2661
 4050SOL     OW23608   0.062   3.129  15.652 -0.4494 -0.0117 -0.6719
 4050SOL    HW123609   0.039   3.172  15.570  0.7883 -0.3003 -1.1697
 4050SOL    HW223610   0.155   3.114  15.633  0.2671  1.2848  1.8401
 4051SOL     OW23611   3.492   0.369   4.043 -0.3611  0.0579  0.5913
 4051SOL    HW123612   3.569   0.367   3.987 -0.9753  0.6014 -0.2578
 4051SOL    HW223613   3.500   0.278   4.070  1.5685  0.7260  2.2599
 4052SOL     OW23614   3.820   0.645   7.598 -0.4637 -0.1853  0.0986
 4052SOL    HW123615   3.855   0.725   7.561  0.7110 -0.8586 -0.2246
 4052SOL    HW223616   3.880   0.645   7.672 -1.6795  0.2068  1.0925
 4053SOL     OW23617   4.582   3.868   8.986 -0.3960 -0.1234 -0.5322
 4053SOL    HW123618   4.571   3.886   8.893  1.2759  2.8106 -0.1675
 4053SOL    HW223619   4.552   3.778   8.997 -0.5086 -0.1811 -1.2922
 4054SOL     OW23620   2.629   2.499   4.636 -0.4497 -0.1219  0.3216
 4054SOL    HW123621   2.655   2.585   4.670  1.5617  0.2153 -2.0898
 4054SOL    HW223622   2.680   2.443   4.694  1.2142  0.6951 -0.3681
 4055SOL     OW23623   0.795   1.609   8.037  0.0784  0.6185 -0.4003
 4055SOL    HW123624   0.707   1.601   7.998 -0.9123  1.8292  1.5957
 4055SOL    HW223625   0.856   1.612   7.963  0.1180 -1.7592 -0.4550
 4056SOL     OW23626   0.775   1.407   6.774 -0.0947  0.1872 -0.5193
 4056SOL    HW123627   0.817   1.385   6.858 -0.3166 -2.1376 -1.0083
 4056SOL    HW223628   0.851   1.427   6.719  0.4235  0.4232  0.2820
 4057SOL     OW23629   1.672   2.687   5.510  0.1342 -0.3624  0.1211
 4057SOL    HW123630   1.642   2.657   5.424  1.4616  1.8664 -1.1340
 4057SOL    HW223631   1.688   2.781   5.497 -2.1907 -0.1182 -1.0620
 4058SOL     OW23632   2.356   1.987   1.063  0.4353 -0.4844 -0.0990
 4058SOL    HW123633   2.312   2.026   1.138 -1.6728 -1.0827 -1.0242
 4058SOL    HW223634   2.317   1.899   1.067  1.2802 -0.7976  1.3950
 4059SOL     OW23635   2.988   2.254  15.988  1.0470  0.2318 -0.2664
 4059SOL    HW123636   3.036   2.176  15.961  2.0869  1.2405 -1.2996
 4059SOL    HW223637   3.046   2.274  16.061  1.4496 -0.5671 -0.3676
 4060SOL     OW23638   0.437   0.547   6.351  0.2046  0.1338  0.2629
 4060SOL    HW123639   0.352   0.507   6.370  0.1994  0.6797  1.3965
 4060SOL    HW223640   0.440   0.609   6.423  0.0100 -2.5354  2.5672
 4061SOL     OW23641   2.194   4.075   3.023  0.0833 -0.6125 -0.2649
 4061SOL    HW123642   2.161   4.158   2.988 -0.7064 -1.4333 -1.5057
 4061SOL    HW223643   2.117   4.049   3.074  0.4859  1.8900  1.6188
 4062SOL     OW23644   4.334   3.300   7.018 -0.1371  0.5029  0.2865
 4062SOL    HW123645   4.238   3.294   7.020 -0.1694 -0.1761 -2.5468
 4062SOL    HW223646   4.340   3.298   6.923  2.0073  3.5656  0.3910
 4063SOL     OW23647   4.180   4.578  14.884  0.7033  0.2915  0.6639
 4063SOL    HW123648   4.096   4.548  14.851  0.4615  0.2054  1.3677
 4063SOL    HW223649   4.244   4.531  14.830  1.7437  0.6588  1.5618
 4064SOL     OW23650   0.706   0.229  17.274 -0.2843 -0.3499 -0.3325
 4064SOL    HW123651   0.669   0.281  17.203  0.8829 -0.0332 -0.7109
 4064SOL    HW223652   0.799   0.244  17.257 -0.1709  1.5859  2.0980
 4065SOL     OW23653   2.269   2.341   6.490  0.3738 -0.1319 -0.8905
 4065SOL    HW123654   2.308   2.363   6.405 -1.1282  1.0632 -1.2725
 4065SOL    HW223655   2.280   2.428   6.527  1.3170  0.7036 -3.1421
 4066SOL     OW23656   1.374   3.559  15.380 -0.8636  0.1529  0.1020
 4066SOL    HW123657   1.400   3.489  15.320 -1.2332  0.9511 -1.0015
 4066SOL    HW223658   1.445   3.623  15.378  0.0757 -0.9397 -1.5615
 4067SOL     OW23659   4.718   2.804   5.834  0.3795  0.0567 -0.6317
 4067SOL    HW123660   4.669   2.842   5.761  1.0104  3.8537  0.9456
 4067SOL    HW223661   0.064   2.868   5.838 -0.7608  1.2715 -0.2668
 4068SOL     OW23662   3.708   2.196  10.990  0.3357  0.1723 -0.4497
 4068SOL    HW123663   3.801   2.200  11.015  1.0134  0.9429 -3.0244
 4068SOL    HW223664   3.699   2.269  10.928  1.0399  0.4743 -0.1994
 4069SOL     OW23665   0.896   4.134   3.453  0.2164 -0.5395 -0.1396
 4069SOL    HW123666   0.985   4.144   3.418  1.5032 -0.8200  3.1321
 4069SOL    HW223667   0.879   4.041   3.434 -0.3536 -0.6427  0.9018
 4070SOL     OW23668   2.780   1.483   8.102  0.5615 -0.3288 -0.9399
 4070SOL    HW123669   2.799   1.395   8.070 -1.2149 -1.0079 -0.1324
 4070SOL    HW223670   2.828   1.542   8.044  3.3953 -1.0526  0.6442
 4071SOL     OW23671   1.293   4.583  16.158  0.1417 -0.4420 -0.1983
 4071SOL    HW123672   1.345   4.503  16.162  0.1078 -0.4375  0.2983
 4071SOL    HW223673   1.263   4.589  16.067 -0.7984  0.7177  0.1904
 4072SOL     OW23674   3.243   0.918   3.024  0.4699 -0.3558  0.3244
 4072SOL    HW123675   3.291   0.875   2.952 -0.2051  0.9437 -0.8997
 4072SOL    HW223676   3.265   0.853   3.091  1.1971  0.8824  1.2768
 4073SOL     OW23677   0.321   1.931   1.925  0.1836 -0.3558 -0.1300
 4073SOL    HW123678   0.331   1.983   1.845 -1.5565 -0.0102 -0.1220
 4073SOL    HW223679   0.280   1.992   1.987 -0.4024  1.2745 -2.1119
 4074SOL     OW23680   3.233   3.435  13.853  0.6630  0.3043 -0.3829
 4074SOL    HW123681   3.231   3.501  13.922  0.8975  0.5783 -0.6384
 4074SOL    HW223682   3.326   3.422  13.834  0.8743 -1.7181  1.9075
 4075SOL     OW23683   0.936   4.075   7.623  0.5243 -0.4203 -0.1038
 4075SOL    HW123684   0.906   4.166   7.622  2.2633  0.1337 -1.9330
 4075SOL    HW223685   0.862   4.027   7.661  0.4858 -0.3526 -0.0925
 4076SOL     OW23686   3.083   2.017  15.866  0.0019 -0.1611 -0.3344
 4076SOL    HW123687   3.057   1.931  15.900  0.4903 -0.2007 -0.0696
 4076SOL    HW223688   3.143   2.004  15.793  0.0825 -0.9810 -0.1262
 4077SOL     OW23689   4.002   1.583   3.473 -0.5773  0.5529 -0.5716
 4077SOL    HW123690   4.014   1.494   3.438 -1.2146  0.7610 -1.3206
 4077SOL    HW223691   4.094   1.607   3.476 -0.1516 -1.2631  1.4127
 4078SOL     OW23692   1.018   3.977   4.836  0.1441 -0.2623 -0.5403
 4078SOL    HW123693   1.108   4.005   4.852 -0.1571 -1.1015  2.6609
 4078SOL    HW223694   1.031   3.883   4.850  1.2979 -0.1318 -0.7503
 4079SOL     OW23695   2.949   3.250   9.705 -0.2594 -0.1933  0.4593
 4079SOL    HW123696   2.947   3.316   9.637  1.3723  2.5837  3.1134
 4079SOL    HW223697   2.907   3.175   9.664 -1.7773  0.5004  0.7608
 4080SOL     OW23698   1.565   4.375   8.487  0.3420 -0.1740 -0.1272
 4080SOL    HW123699   1.609   4.459   8.498 -1.3914  0.7002  0.1249
 4080SOL    HW223700   1.635   4.315   8.463  1.6767  0.9725  0.9110
 4081SOL     OW23701   2.310   4.008   1.332 -0.0751  0.1976 -0.3699
 4081SOL    HW123702   2.306   3.999   1.427  1.0653 -2.3897 -0.5654
 4081SOL    HW223703   2.247   3.943   1.302  0.4900 -0.5930  0.1577
 4082SOL     OW23704   2.135   2.237   5.543  0.1595  0.0052  0.4454
 4082SOL    HW123705   2.070   2.273   5.604 -1.0084  1.1047 -1.4284
 4082SOL    HW223706   2.179   2.180   5.605  2.0327  1.6719  0.6624
 4083SOL     OW23707   3.576   4.709   0.064  0.1486  0.7397 -0.1402
 4083SOL    HW123708   3.624   4.680   0.141  1.1138  2.5392 -0.0666
 4083SOL    HW223709   3.647   4.717  17.698  0.5770  0.9071  0.3584
 4084SOL     OW23710   3.153   4.054  17.157  0.6796 -0.6720 -0.8233
 4084SOL    HW123711   3.111   4.139  17.153 -0.8892 -1.3671  1.0731
 4084SOL    HW223712   3.233   4.070  17.206 -0.6036  1.7348  0.4461
 4085SOL     OW23713   3.007   4.536   6.205 -0.2693 -0.1050 -0.7534
 4085SOL    HW123714   2.940   4.503   6.145  0.6677 -0.7204 -1.4733
 4085SOL    HW223715   3.083   4.485   6.177  0.8907  1.8153 -1.0861
 4086SOL     OW23716   2.407   1.439   4.126  0.0976  0.1274  0.4028
 4086SOL    HW123717   2.441   1.529   4.128 -1.2980  0.7030 -0.7564
 4086SOL    HW223718   2.465   1.391   4.184 -1.2721  0.3176  1.9549
 4087SOL     OW23719   3.942   2.473   1.661  0.3428 -0.5461  0.0067
 4087SOL    HW123720   3.950   2.563   1.630 -0.6528  0.0275  1.4492
 4087SOL    HW223721   4.005   2.469   1.733 -1.2361  2.6778  1.5621
 4088SOL     OW23722   3.698   0.359   3.865 -0.3876  0.7119 -0.3697
 4088SOL    HW123723   3.757   0.288   3.838 -0.2871  1.5743 -2.4063
 4088SOL    HW223724   3.693   0.389   3.774  1.5832 -1.1437 -1.0863
 4089SOL     OW23725   3.683   1.915  11.004 -0.2983 -0.2390  0.2718
 4089SOL    HW123726   3.773   1.897  11.030 -0.4460 -1.8181 -0.2886
 4089SOL    HW223727   3.693   2.007  10.978 -0.2121 -0.4452 -0.4463
 4090SOL     OW23728   1.168   0.644   1.803  0.4847 -0.1113  0.5686
 4090SOL    HW123729   1.206   0.678   1.884 -1.0805 -0.5057  1.4838
 4090SOL    HW223730   1.178   0.724   1.753 -2.7662 -0.8279 -1.2603
 4091SOL     OW23731   2.713   2.504  17.606 -0.7152  0.2259  0.2600
 4091SOL    HW123732   2.634   2.497  17.660 -0.5177  2.5029  0.8459
 4091SOL    HW223733   2.748   2.417  17.590 -0.5017  0.2280  0.7260
 4092SOL     OW23734   3.501   0.777   5.233  0.1578  0.3886  0.0094
 4092SOL    HW123735   3.426   0.836   5.222 -0.5138 -0.9101 -2.3559
 4092SOL    HW223736   3.568   0.842   5.254  0.4978  0.3499 -0.9723
 4093SOL     OW23737   4.317   2.392  16.535  0.7697 -0.5081  0.0106
 4093SOL    HW123738   4.284   2.439  16.612 -2.0245  1.6928 -2.5164
 4093SOL    HW223739   4.329   2.304  16.569  1.1689 -0.8027 -0.9005
 4094SOL     OW23740   1.509   3.861   4.043 -0.0876  0.1083 -0.2547
 4094SOL    HW123741   1.577   3.793   4.042 -2.6695 -2.5095  0.9918
 4094SOL    HW223742   1.437   3.812   4.083 -2.0184  2.6675 -0.6167
 4095SOL     OW23743   4.715   0.614  12.375  0.0605  0.4667  0.5090
 4095SOL    HW123744   4.673   0.632  12.460  1.0320  1.7722  0.7134
 4095SOL    HW223745   4.720   0.519  12.388 -2.3470  0.0117 -2.0394
 4096SOL     OW23746   2.189   1.278  13.708 -0.7868 -0.2813  0.5380
 4096SOL    HW123747   2.134   1.345  13.748 -0.1459  1.6411 -1.7886
 4096SOL    HW223748   2.222   1.233  13.785  1.0938  1.2108  0.5938
 4097SOL     OW23749   1.288   4.675  14.916  0.6371 -0.3711  0.2650
 4097SOL    HW123750   1.350   4.711  14.980  0.9553 -2.5677  1.1903
 4097SOL    HW223751   1.222   4.631  14.970 -1.4141 -0.5687 -2.4177
 4098SOL     OW23752   0.565   1.594   4.265  0.2004  0.6339 -0.2928
 4098SOL    HW123753   0.622   1.541   4.321 -0.7260  1.7712  1.7209
 4098SOL    HW223754   0.615   1.611   4.185 -1.6281 -0.3020 -1.6325
 4099SOL     OW23755   1.351   1.278  15.217  0.5565  0.6787 -0.2418
 4099SOL    HW123756   1.286   1.344  15.243 -1.1871 -0.8086 -0.8325
 4099SOL    HW223757   1.386   1.235  15.295  0.2878  1.5001  0.3388
 4100SOL     OW23758   2.811   0.639  12.204 -0.1243  0.4493 -0.5120
 4100SOL    HW123759   2.889   0.689  12.180 -0.6390  1.8062  0.6237
 4100SOL    HW223760   2.743   0.700  12.174  0.1058  0.7407 -0.4367
 4101SOL     OW23761   3.493   1.627   9.947  0.2283  0.0493  0.4891
 4101SOL    HW123762   3.414   1.651   9.900 -0.2115 -1.9988  0.1834
 4101SOL    HW223763   3.519   1.546   9.903  0.9446 -0.4073  1.7486
 4102SOL     OW23764   0.978   3.878   4.119  0.2284  0.3632 -0.0509
 4102SOL    HW123765   0.906   3.816   4.127  0.3506  0.3180  0.6782
 4102SOL    HW223766   0.931   3.960   4.137  2.8705  1.4219  1.9533
 4103SOL     OW23767   0.287   2.391   5.667 -0.0432 -0.1594 -0.0879
 4103SOL    HW123768   0.311   2.298   5.675  1.4362  0.2217 -0.0183
 4103SOL    HW223769   0.233   2.394   5.589 -1.8259  0.4829  1.1900
 4104SOL     OW23770   3.432   2.123   4.070 -0.1481 -0.0616 -0.3461
 4104SOL    HW123771   3.357   2.162   4.025 -1.0290 -0.4865  0.7489
 4104SOL    HW223772   3.489   2.098   3.997 -1.5891 -1.8295 -0.8682
 4105SOL     OW23773   1.555   2.431   2.723 -0.1835 -0.6336 -0.0369
 4105SOL    HW123774   1.541   2.486   2.646 -2.6146 -0.8342  0.2726
 4105SOL    HW223775   1.464   2.414   2.747 -0.0509  0.6193  1.3518
 4106SOL     OW23776   1.278   0.875  16.957 -0.3766  0.3905 -0.3122
 4106SOL    HW123777   1.356   0.842  17.001  1.9469  2.5803 -2.8206
 4106SOL    HW223778   1.246   0.794  16.917  2.0377  0.2937 -2.0195
 4107SOL     OW23779   0.154   1.635   7.272  0.2507  0.4361  0.3649
 4107SOL    HW123780   0.078   1.689   7.252  0.9960  1.5441  0.5538
 4107SOL    HW223781   0.108   1.551   7.277  0.4451  0.2924 -0.2296
 4108SOL     OW23782   2.676   3.419  17.533  0.4588  0.2713  0.0403
 4108SOL    HW123783   2.707   3.448  17.448  0.4164  3.1175  0.9861
 4108SOL    HW223784   2.582   3.419  17.511  0.1342 -0.1641  1.4165
 4109SOL     OW23785   0.082   4.185   3.424  0.6794 -0.2138 -0.2101
 4109SOL    HW123786   0.165   4.147   3.453  0.1352  1.5814  3.6867
 4109SOL    HW223787   0.084   4.270   3.468 -0.0127  0.1231 -0.8376
 4110SOL     OW23788   2.948   3.180   2.923 -0.2437 -0.3669  0.1350
 4110SOL    HW123789   2.994   3.097   2.909 -1.9523 -0.8516 -2.7785
 4110SOL    HW223790   2.897   3.159   3.001 -0.2614 -1.4368 -0.1663
 4111SOL     OW23791   3.375   0.829  13.364  0.7290 -0.2436 -0.2078
 4111SOL    HW123792   3.287   0.865  13.371  0.6669 -0.5404  0.5661
 4111SOL    HW223793   3.411   0.897  13.306  1.6322 -1.0683 -0.6184
 4112SOL     OW23794   0.759   4.012   7.399  0.0770 -0.2095 -0.1421
 4112SOL    HW123795   0.835   3.955   7.385  0.7133  0.9450 -1.4142
 4112SOL    HW223796   0.794   4.095   7.366 -2.5062  0.5727 -0.8856
 4113SOL     OW23797   3.434   1.654  11.267  0.1367  0.4362 -0.3797
 4113SOL    HW123798   3.375   1.605  11.324 -1.7764 -0.5434 -3.2001
 4113SOL    HW223799   3.388   1.651  11.183 -2.3002 -0.8331  1.0188
 4114SOL     OW23800   2.966   0.840  14.653  0.1113 -0.6892  0.3336
 4114SOL    HW123801   3.045   0.796  14.685  0.1495 -0.1604  0.9563
 4114SOL    HW223802   2.980   0.849  14.558 -0.8702 -1.8815  0.0860
 4115SOL     OW23803   4.153   4.281   6.600  0.0551  0.1677 -0.2551
 4115SOL    HW123804   4.232   4.228   6.588  0.3628  0.5857 -0.0930
 4115SOL    HW223805   4.175   4.313   6.688  0.0157 -1.9497  0.5110
 4116SOL     OW23806   1.456   1.956  15.347 -0.4209 -0.0948  0.0970
 4116SOL    HW123807   1.419   2.039  15.317 -0.7570 -0.5123 -0.6410
 4116SOL    HW223808   1.421   1.904  15.275 -1.0247  0.2553  0.1422
 4117SOL     OW23809   3.562   3.171  17.233  0.1141 -0.3875  0.3254
 4117SOL    HW123810   3.639   3.176  17.176  1.6805  0.1777  2.4899
 4117SOL    HW223811   3.593   3.108  17.298  0.7359 -2.6039 -2.1332
 4118SOL     OW23812   4.179   2.952   7.623  0.3447  0.1931 -0.3829
 4118SOL    HW123813   4.227   2.992   7.695  0.8474 -0.2456 -0.4803
 4118SOL    HW223814   4.186   3.015   7.551  0.7576  2.2756  1.4741
 4119SOL     OW23815   0.883   3.538  12.060 -0.0035 -0.0915  0.1304
 4119SOL    HW123816   0.978   3.529  12.054 -0.2596 -1.6481 -1.7407
 4119SOL    HW223817   0.875   3.631  12.080 -0.8940 -0.1497  0.0645
 4120SOL     OW23818   0.400   3.727   8.866 -0.4351  0.8119  0.0186
 4120SOL    HW123819   0.327   3.723   8.929 -0.9135 -0.6491 -0.6201
 4120SOL    HW223820   0.464   3.775   8.919 -0.9849  2.4335 -0.7766
 4121SOL     OW23821   0.871   1.585   2.314 -0.4492 -0.0957 -0.3535
 4121SOL    HW123822   0.776   1.595   2.306 -0.8521 -2.0742  1.8181
 4121SOL    HW223823   0.901   1.557   2.227  1.3370  1.6384 -0.2795
 4122SOL     OW23824   0.284   3.846   8.654 -0.3187 -0.3883  0.2486
 4122SOL    HW123825   0.303   3.934   8.686 -0.6399  0.0194 -0.6897
 4122SOL    HW223826   0.294   3.802   8.739 -1.3326 -1.7338 -0.3140
 4123SOL     OW23827   2.009   3.961   7.608  0.1175 -0.5475 -0.1497
 4123SOL    HW123828   2.041   3.981   7.520 -0.2279  0.8883  0.0568
 4123SOL    HW223829   2.073   3.998   7.668  0.7408  1.0689 -1.8322
 4124SOL     OW23830   2.937   0.991   8.419  0.6091 -0.2085  0.4497
 4124SOL    HW123831   2.929   0.955   8.331 -0.2877  0.2011  0.3649
 4124SOL    HW223832   2.854   0.960   8.453 -0.9411  2.7278 -0.6615
 4125SOL     OW23833   3.674   2.250   6.748  0.1481  0.2634  0.0229
 4125SOL    HW123834   3.662   2.264   6.841 -1.6480  1.5295 -0.4058
 4125SOL    HW223835   3.647   2.334   6.710 -0.4253 -0.0467 -0.2581
 4126SOL     OW23836   1.458   2.037   3.376 -0.7586  0.2624 -0.2812
 4126SOL    HW123837   1.485   1.948   3.356 -0.6778 -0.0478  1.1984
 4126SOL    HW223838   1.538   2.089   3.371 -0.4625 -0.1895 -0.2492
 4127SOL     OW23839   0.395   2.585  13.233 -0.2439  0.3567  0.3060
 4127SOL    HW123840   0.383   2.497  13.195 -1.7174  1.0425 -0.8431
 4127SOL    HW223841   0.488   2.576  13.252  0.4005  2.6160 -1.8911
 4128SOL     OW23842   3.922   2.281  10.243  0.1058  0.5287 -0.5760
 4128SOL    HW123843   3.993   2.256  10.303 -1.5615 -0.7769  0.8552
 4128SOL    HW223844   3.859   2.217  10.274  0.3786  0.9936  0.9245
 4129SOL     OW23845   1.902   4.268  11.007 -0.7167  0.1152 -0.8221
 4129SOL    HW123846   1.854   4.297  11.085  1.4217  1.4206  0.0277
 4129SOL    HW223847   1.978   4.229  11.051  0.5576  2.4814 -0.9154
 4130SOL     OW23848   0.848   1.984   8.825 -0.1156  0.0973  0.0586
 4130SOL    HW123849   0.862   2.075   8.800  0.2525  0.0997  0.2696
 4130SOL    HW223850   0.888   1.928   8.759  0.2286 -0.0042  0.3547
 4131SOL     OW23851   4.036   3.671   4.386  0.2844  0.5041  0.0564
 4131SOL    HW123852   4.031   3.760   4.422  0.4257  0.2668  0.6752
 4131SOL    HW223853   3.981   3.628   4.452  3.4346 -0.7196  1.8671
 4132SOL     OW23854   2.429   2.570  17.632  0.3847 -0.2447  0.2022
 4132SOL    HW123855   2.394   2.587  17.544 -1.1119  0.4228  0.9199
 4132SOL    HW223856   2.383   2.490  17.659 -0.4832 -0.2732 -1.3276
 4133SOL     OW23857   0.769   1.731   9.034 -0.1787  0.6207  0.1872
 4133SOL    HW123858   0.798   1.822   9.031  0.5950  0.4457  2.2066
 4133SOL    HW223859   0.855   1.687   9.037 -0.7930 -0.5447  0.6845
 4134SOL     OW23860   3.880   4.242   7.065 -0.1378 -0.2210  0.0804
 4134SOL    HW123861   3.881   4.330   7.028  1.2899 -1.6880 -3.3510
 4134SOL    HW223862   3.891   4.200   6.980  1.4533  0.6747 -0.1580
 4135SOL     OW23863   0.738   3.487   8.542 -0.3849 -0.2830 -0.8409
 4135SOL    HW123864   0.732   3.505   8.448 -0.0586 -0.4829 -0.8992
 4135SOL    HW223865   0.668   3.423   8.540 -1.4134  0.8194 -0.4071
 4136SOL     OW23866   1.385   2.656   7.469  0.1100  0.2083 -0.2422
 4136SOL    HW123867   1.335   2.737   7.471  0.0916  0.1795  0.3708
 4136SOL    HW223868   1.388   2.645   7.374 -0.1351 -1.0868 -0.0983
 4137SOL     OW23869   2.056   0.426   5.192 -0.3333 -0.0487 -0.3116
 4137SOL    HW123870   2.034   0.506   5.144 -0.9463 -0.1217 -0.1562
 4137SOL    HW223871   2.013   0.441   5.276  0.3259 -1.8621  0.3414
 4138SOL     OW23872   0.656   2.386   4.049 -0.2546  0.6773  0.3580
 4138SOL    HW123873   0.712   2.459   4.074 -1.4419  1.5097  0.5970
 4138SOL    HW223874   0.597   2.427   3.986 -0.5434 -1.8638 -1.0193
 4139SOL     OW23875   1.800   2.904   3.656  0.0727 -0.1006  0.1433
 4139SOL    HW123876   1.734   2.859   3.603  1.2743  1.1072 -2.3577
 4139SOL    HW223877   1.817   2.984   3.606 -1.3025  0.4213  0.5121
 4140SOL     OW23878   0.227   2.036   8.811 -0.5498 -0.4597 -0.5063
 4140SOL    HW123879   0.278   2.108   8.773  1.5468 -0.1946  2.8031
 4140SOL    HW223880   0.140   2.073   8.822 -1.0816 -2.0050  0.4976
 4141SOL     OW23881   4.551   0.849   4.461 -0.4802 -0.0514 -0.6759
 4141SOL    HW123882   4.468   0.823   4.499 -0.2384  0.1900  0.0101
 4141SOL    HW223883   4.549   0.943   4.477  1.1042 -0.1788  0.3155
 4142SOL     OW23884   2.456   4.307  10.286  0.0309 -0.0735 -0.7597
 4142SOL    HW123885   2.519   4.235  10.275 -3.1845 -3.0504  0.3761
 4142SOL    HW223886   2.519   4.374  10.310 -0.2419  0.1121 -0.5638
 4143SOL     OW23887   1.675   0.165   6.124  0.2583 -0.0387 -0.1867
 4143SOL    HW123888   1.769   0.146   6.123  0.0350 -1.2219  1.2778
 4143SOL    HW223889   1.650   0.100   6.058 -0.3581 -1.4602  1.4607
 4144SOL     OW23890   2.878   2.717   2.764 -0.0446  0.7566 -0.0494
 4144SOL    HW123891   2.924   2.635   2.746  0.8915  1.1847  0.3935
 4144SOL    HW223892   2.903   2.773   2.690 -1.3424  0.0950 -0.9811
 4145SOL     OW23893   1.512   2.275   1.961  0.5955 -0.0517 -0.0430
 4145SOL    HW123894   1.521   2.292   2.055 -0.4574  0.2662  0.0051
 4145SOL    HW223895   1.435   2.218   1.964  1.3004 -0.9911  0.0201
 4146SOL     OW23896   3.015   3.884   9.067 -0.1382  0.0113 -0.5585
 4146SOL    HW123897   2.940   3.928   9.027 -1.5299 -1.9452 -0.1484
 4146SOL    HW223898   2.977   3.829   9.137  2.3236 -0.4883  0.3948
 4147SOL     OW23899   1.603   4.051   8.625  0.3894 -0.2035  0.1374
 4147SOL    HW123900   1.563   4.110   8.689 -1.6863 -0.1767 -1.1898
 4147SOL    HW223901   1.655   4.012   8.695 -0.3778 -0.5872  0.4874
 4148SOL     OW23902   1.760   0.829   5.338  0.0903  0.0725 -0.2866
 4148SOL    HW123903   1.791   0.883   5.410 -0.7396 -0.9557  0.8525
 4148SOL    HW223904   1.684   0.791   5.383  0.7498 -1.1892 -0.2219
 4149SOL     OW23905   4.150   3.597  17.129  0.7312 -0.9131  0.3871
 4149SOL    HW123906   4.184   3.686  17.120 -1.1800  0.0088  2.1531
 4149SOL    HW223907   4.154   3.573  17.037 -1.0847 -0.3050  0.1372
 4150SOL     OW23908   1.938   1.415   4.532  0.0252 -0.1788 -0.1653
 4150SOL    HW123909   2.033   1.405   4.527 -0.1377 -1.0202 -1.6936
 4150SOL    HW223910   1.932   1.486   4.597 -0.7903 -0.0717 -0.3635
 4151SOL     OW23911   2.163   2.322   6.878  0.8380  0.1880  0.4503
 4151SOL    HW123912   2.186   2.415   6.872  0.5233  0.2227 -0.2205
 4151SOL    HW223913   2.240   2.292   6.926  1.5403 -0.5530 -1.1385
 4152SOL     OW23914   4.314   4.556   0.284 -0.0585 -0.1860 -0.6278
 4152SOL    HW123915   4.322   4.637   0.233  2.3314 -0.5864 -0.9047
 4152SOL    HW223916   4.225   4.537   0.254 -0.5424 -0.4377  0.9797
 4153SOL     OW23917   4.145   4.705  10.064  0.1039  0.0654  0.5945
 4153SOL    HW123918   4.156   4.618  10.102  0.8854 -0.5605 -1.0637
 4153SOL    HW223919   4.167   0.040  10.137 -0.2239 -3.6798  3.6885
 4154SOL     OW23920   0.869   0.557   0.219  0.1095  0.0829 -0.2110
 4154SOL    HW123921   0.837   0.563   0.309  0.1854  1.5032 -0.2813
 4154SOL    HW223922   0.959   0.590   0.226  0.4030 -0.9564  0.8942
 4155SOL     OW23923   0.646   2.412   3.079 -0.3978 -0.3921 -0.7587
 4155SOL    HW123924   0.657   2.383   2.989  1.0729 -0.1568 -0.6450
 4155SOL    HW223925   0.656   2.327   3.122  0.2148 -0.1772 -0.4774
 4156SOL     OW23926   0.309   4.332  13.693  0.1165 -0.2804 -0.3843
 4156SOL    HW123927   0.320   4.297  13.782 -0.8688  0.4755  0.0402
 4156SOL    HW223928   0.277   4.418  13.721  0.9512 -0.0124 -0.2541
 4157SOL     OW23929   2.295   0.132  15.691 -0.1433  0.0535 -0.8251
 4157SOL    HW123930   2.274   0.225  15.692 -1.5005 -0.2599 -0.3471
 4157SOL    HW223931   2.275   0.105  15.602 -1.8324  1.1001 -0.7664
 4158SOL     OW23932   2.365   4.072   3.618 -1.3136  0.1769 -0.1522
 4158SOL    HW123933   2.295   4.039   3.561 -1.5961  0.4339  0.0448
 4158SOL    HW223934   2.321   4.085   3.702 -0.4032  1.1057  0.1740
 4159SOL     OW23935   3.669   3.611  14.545 -0.5593 -0.5309  0.1492
 4159SOL    HW123936   3.764   3.619  14.537 -0.7210  0.6157 -0.6367
 4159SOL    HW223937   3.654   3.649  14.458 -0.5207 -0.4766  0.1663
 4160SOL     OW23938   3.331   1.896  13.010  0.2429  0.1390  0.1853
 4160SOL    HW123939   3.257   1.933  12.962 -0.5037 -1.4495  0.1106
 4160SOL    HW223940   3.274   1.835  13.055  0.6188 -0.5240 -0.2426
 4161SOL     OW23941   4.218   3.173   8.754 -0.4583 -0.1824  0.0929
 4161SOL    HW123942   4.179   3.086   8.766  1.5123 -0.9012  1.2340
 4161SOL    HW223943   4.143   3.229   8.733 -0.1090 -0.4361 -1.8891
 4162SOL     OW23944   2.709   2.593   4.253 -0.1244  0.4158  0.4355
 4162SOL    HW123945   2.778   2.538   4.216 -0.6692  0.1148 -0.1284
 4162SOL    HW223946   2.639   2.529   4.269 -0.3832  0.1237 -1.7637
 4163SOL     OW23947   3.337   0.440   2.794 -0.3767 -0.0988 -0.2637
 4163SOL    HW123948   3.351   0.347   2.778 -1.4223 -0.1830 -0.7073
 4163SOL    HW223949   3.428   0.470   2.791 -0.8397  1.3660  0.6581
 4164SOL     OW23950   3.104   3.389  15.060  0.0504  0.1418 -0.0030
 4164SOL    HW123951   3.060   3.304  15.057 -1.0666  0.6481  2.6529
 4164SOL    HW223952   3.030   3.449  15.055 -0.0874  0.1451  2.2774
 4165SOL     OW23953   4.051   0.515   4.760 -0.2956 -0.0754  0.3438
 4165SOL    HW123954   4.143   0.539   4.754 -0.6987  1.2319 -0.7508
 4165SOL    HW223955   4.034   0.522   4.853  0.3360  0.9150  0.3789
 4166SOL     OW23956   3.224   3.279   8.462 -0.1216  0.0928 -0.5736
 4166SOL    HW123957   3.139   3.235   8.473 -0.2793  0.2742 -1.0617
 4166SOL    HW223958   3.277   3.202   8.482  2.6270  1.3951 -2.8211
 4167SOL     OW23959   0.683   2.305   4.372  0.4887 -0.0335  0.2033
 4167SOL    HW123960   0.752   2.239   4.361  0.1975 -0.5304  1.4010
 4167SOL    HW223961   0.693   2.356   4.292  0.0239  0.9495  0.7758
 4168SOL     OW23962   2.829   4.590  17.099  0.5566  0.0648  0.3346
 4168SOL    HW123963   2.776   4.667  17.078  1.4775  1.1763  2.0659
 4168SOL    HW223964   2.853   4.590  17.192 -0.6653 -0.1565  0.6533
 4169SOL     OW23965   1.440   4.068  16.785 -0.4492  0.2297 -0.6291
 4169SOL    HW123966   1.486   4.014  16.850 -0.1269 -1.2559 -2.0834
 4169SOL    HW223967   1.510   4.120  16.744  0.3285 -1.8433 -1.9337
 4170SOL     OW23968   3.459   1.779   5.268  0.4475 -0.2430  0.3268
 4170SOL    HW123969   3.485   1.717   5.336  1.7706 -0.2696 -0.2070
 4170SOL    HW223970   3.534   1.803   5.213  0.7844 -0.0022  0.8888
 4171SOL     OW23971   1.481   3.654   7.596 -0.1400  0.0971 -0.3099
 4171SOL    HW123972   1.527   3.573   7.576 -0.2602 -0.1176  0.2798
 4171SOL    HW223973   1.498   3.710   7.519 -0.5876  1.7591  0.7900
 4172SOL     OW23974   3.625   1.252   5.893  0.3770  0.3159  0.1061
 4172SOL    HW123975   3.626   1.339   5.933 -0.2550  0.9456 -1.2650
 4172SOL    HW223976   3.707   1.221   5.932  0.1261  0.9322  1.1434
 4173SOL     OW23977   2.179   4.083   8.040  0.1550  0.2999 -0.1673
 4173SOL    HW123978   2.099   4.037   8.015 -0.9055  2.6548 -1.0976
 4173SOL    HW223979   2.244   4.013   8.050 -0.3692  0.0727  1.6887
 4174SOL     OW23980   0.703   3.406   3.825 -0.4041  0.5870 -0.0817
 4174SOL    HW123981   0.706   3.501   3.812  0.2261  0.4978 -0.6202
 4174SOL    HW223982   0.615   3.389   3.792 -0.6000 -0.5223  1.0255
 4175SOL     OW23983   0.567   3.178  10.890  0.5856  0.1011  0.0272
 4175SOL    HW123984   0.508   3.103  10.887 -3.2925  3.0948  1.3299
 4175SOL    HW223985   0.507   3.248  10.919  0.7142  0.0721  0.3725
 4176SOL     OW23986   1.991   3.119   9.115  0.0079 -0.2828  0.2138
 4176SOL    HW123987   2.016   3.164   9.195  1.2475 -1.9041  0.7344
 4176SOL    HW223988   2.075   3.111   9.070  0.5504  0.5969  1.0759
 4177SOL     OW23989   4.251   0.180  10.851  0.3990  0.1962 -0.5095
 4177SOL    HW123990   4.260   0.274  10.836 -2.5075  0.1037 -2.6316
 4177SOL    HW223991   4.191   0.176  10.926  0.5628 -0.1596 -0.3959
 4178SOL     OW23992   2.901   0.962   6.658 -0.5829  0.6530  0.0971
 4178SOL    HW123993   2.891   1.045   6.612  0.2489  1.2970  1.0721
 4178SOL    HW223994   2.898   0.991   6.749  1.3373 -1.2730  0.7826
 4179SOL     OW23995   2.957   0.597   8.806 -0.3395  0.3298 -0.4835
 4179SOL    HW123996   3.030   0.541   8.832  1.3112  1.4917 -2.5899
 4179SOL    HW223997   2.974   0.602   8.712 -1.8734 -0.7711 -0.8183
 4180SOL     OW23998   1.803   0.226   5.620 -0.1740  0.4076  0.0732
 4180SOL    HW123999   1.858   0.230   5.699 -1.1305  0.9772  0.7240
 4180SOL    HW224000   1.863   0.196   5.553  0.6914 -1.2380  1.5906
 4181SOL     OW24001   3.985   2.883   7.244 -0.5603  0.1395 -0.1497
 4181SOL    HW124002   4.034   2.817   7.292 -2.1141 -2.6794 -2.5081
 4181SOL    HW224003   3.989   2.960   7.302 -0.4077 -0.8801  1.1958
 4182SOL     OW24004   0.309   3.605   5.035  0.4046  0.0587 -0.0481
 4182SOL    HW124005   0.328   3.512   5.018  0.2190 -0.0752  0.4643
 4182SOL    HW224006   0.391   3.642   5.003 -0.0867 -0.0616 -1.4327
 4183SOL     OW24007   2.143   0.302   7.392  0.2718 -0.2389  0.0320
 4183SOL    HW124008   2.226   0.330   7.353 -0.9095  0.2837 -2.1640
 4183SOL    HW224009   2.087   0.367   7.348  0.4481 -0.4845 -0.5574
 4184SOL     OW24010   1.074   1.857  13.391 -0.7431 -0.0025 -0.2439
 4184SOL    HW124011   1.034   1.863  13.304  0.3982 -1.8919 -0.8927
 4184SOL    HW224012   1.092   1.947  13.420 -2.4250  1.1713 -2.8128
 4185SOL     OW24013   3.254   3.731   4.838  0.2615  0.3459  0.1492
 4185SOL    HW124014   3.231   3.789   4.766 -0.5919 -0.7375 -0.4431
 4185SOL    HW224015   3.183   3.749   4.900 -0.3217  0.2992 -0.5152
 4186SOL     OW24016   0.461   4.216   9.000  0.3332  0.4229 -0.0384
 4186SOL    HW124017   0.550   4.233   9.032  0.7971 -1.2743 -0.4341
 4186SOL    HW224018   0.446   4.131   9.043 -1.0277  0.5157 -0.3133
 4187SOL     OW24019   2.067   4.483   4.074  0.5586 -0.6508  0.4202
 4187SOL    HW124020   2.025   4.535   4.005  1.5294  0.2223  0.4973
 4187SOL    HW224021   2.126   4.551   4.108  0.2625  0.3082 -0.9886
 4188SOL     OW24022   2.866   0.155   8.202 -0.6453 -0.6914 -0.3800
 4188SOL    HW124023   2.837   0.242   8.231  0.9144 -0.6036  0.9446
 4188SOL    HW224024   2.959   0.171   8.214 -0.5480 -3.1157  2.2611
 4189SOL     OW24025   2.417   0.021  15.925  0.1634 -0.4452 -0.1424
 4189SOL    HW124026   2.380   0.051  15.842 -0.7648 -0.5294  0.2411
 4189SOL    HW224027   2.512   0.023  15.911 -0.1147  1.0695 -1.9286
 4190SOL     OW24028   1.987   4.431   8.495 -0.3611  0.1104 -0.2583
 4190SOL    HW124029   1.991   4.436   8.590 -1.9619 -0.6277 -0.1525
 4190SOL    HW224030   2.019   4.342   8.477  0.7596  0.8518 -1.9418
 4191SOL     OW24031   1.815   3.400  14.154 -0.6375  0.0471  0.5558
 4191SOL    HW124032   1.721   3.394  14.136 -0.5324 -1.8001  0.5973
 4191SOL    HW224033   1.843   3.462  14.086  1.4972 -2.5888 -0.9661
 4192SOL     OW24034   1.661   4.494  16.476 -0.0659 -0.8949 -0.3176
 4192SOL    HW124035   1.667   4.456  16.388 -1.3081 -1.0607 -0.3291
 4192SOL    HW224036   1.669   4.417  16.531 -1.1754 -1.5730 -1.1041
 4193SOL     OW24037   2.385   0.667   1.988 -0.4331  0.2136 -0.3422
 4193SOL    HW124038   2.388   0.579   2.024  3.7324  0.9540  1.0763
 4193SOL    HW224039   2.298   0.692   2.020 -0.4397 -0.2962  0.0249
 4194SOL     OW24040   4.018   2.645  14.092 -0.0382  0.1584  0.0011
 4194SOL    HW124041   3.959   2.616  14.023  0.6813 -0.1882 -0.4721
 4194SOL    HW224042   4.080   2.573  14.081 -0.3280 -0.0879 -0.0008
 4195SOL     OW24043   1.264   1.752   5.094  0.0014 -0.3168 -0.0436
 4195SOL    HW124044   1.336   1.690   5.106 -0.2407 -0.6285 -0.1928
 4195SOL    HW224045   1.307   1.831   5.062  1.5588 -1.7291 -1.4417
 4196SOL     OW24046   2.019   4.723   5.656  0.2608  0.6084 -0.3462
 4196SOL    HW124047   1.999   0.060   5.727 -2.2312 -3.0411  2.1115
 4196SOL    HW224048   2.096   4.677   5.690 -1.1617 -0.9738  0.7767
 4197SOL     OW24049   0.516   4.575   8.487 -0.0871 -0.0739 -0.1873
 4197SOL    HW124050   0.538   4.636   8.417  2.3160 -0.4182  0.2621
 4197SOL    HW224051   0.603   4.542   8.510 -0.0264  0.3648  0.2229
 4198SOL     OW24052   2.059   2.506  12.879  0.3285 -0.1992  0.1071
 4198SOL    HW124053   2.003   2.573  12.841 -0.7102  0.7740  3.3453
 4198SOL    HW224054   2.147   2.533  12.851 -1.3677  4.5709 -0.5615
 4199SOL     OW24055   3.314   4.107   1.573  0.1340 -0.6569  0.3108
 4199SOL    HW124056   3.300   4.195   1.607  0.7651 -0.7920  0.9208
 4199SOL    HW224057   3.407   4.097   1.550 -0.2682 -0.8313 -1.2075
 4200SOL     OW24058   1.354   4.137   6.025 -0.1733  0.3206 -0.3839
 4200SOL    HW124059   1.408   4.202   6.069  2.0111 -2.6995  1.3746
 4200SOL    HW224060   1.286   4.196   5.994 -0.5973  1.6930  3.2586
 4201SOL     OW24061   4.644   4.007   1.254 -0.2089 -0.3155 -0.0537
 4201SOL    HW124062   4.577   4.070   1.282  0.3690 -0.4069  1.5967
 4201SOL    HW224063   4.607   3.923   1.280  0.8535 -0.8930 -0.4076
 4202SOL     OW24064   1.114   0.628   3.129 -0.0995 -0.2217  0.2348
 4202SOL    HW124065   1.200   0.669   3.120  0.4429 -1.3018  0.5106
 4202SOL    HW224066   1.060   0.707   3.117 -0.8304 -0.9518 -1.1843
 4203SOL     OW24067   1.884   0.221  13.842  0.4321 -0.3361  0.0640
 4203SOL    HW124068   1.931   0.172  13.774  2.1459  0.4212  0.7103
 4203SOL    HW224069   1.793   0.192  13.841  0.2096  0.3423  0.9767
 4204SOL     OW24070   4.080   3.257  16.041  0.0262 -0.0884 -0.2989
 4204SOL    HW124071   4.096   3.284  16.132  1.6924  1.5665 -1.0926
 4204SOL    HW224072   4.157   3.290  15.995  0.0891  0.1706 -0.0091
 4205SOL     OW24073   2.641   2.505   0.873  0.3127  0.5665 -0.1991
 4205SOL    HW124074   2.689   2.548   0.944  0.7193 -1.2727  0.6416
 4205SOL    HW224075   2.627   2.576   0.810 -0.6625  1.2688  0.8189
 4206SOL     OW24076   4.017   2.747   8.570  0.5205 -0.5940  0.5700
 4206SOL    HW124077   3.954   2.752   8.642  0.4320 -1.2164  0.5363
 4206SOL    HW224078   3.996   2.662   8.530 -0.8431  0.2017 -0.3917
 4207SOL     OW24079   0.767   4.444   3.425  0.7158  0.5185  0.4992
 4207SOL    HW124080   0.673   4.430   3.416  1.1086 -1.5645 -0.4387
 4207SOL    HW224081   0.798   4.399   3.346 -1.4532  0.8004 -0.5187
 4208SOL     OW24082   2.389   2.150   7.357  0.0015 -0.3717  0.3516
 4208SOL    HW124083   2.388   2.138   7.262  0.0910  1.1663  0.1405
 4208SOL    HW224084   2.333   2.079   7.388 -2.7792  0.1363 -3.4944
 4209SOL     OW24085   4.173   3.035  14.758 -0.1081  0.7173 -0.1410
 4209SOL    HW124086   4.082   3.053  14.780 -0.2945  2.3511 -2.3216
 4209SOL    HW224087   4.155   2.987  14.677 -0.1368  0.7273 -0.1405
 4210SOL     OW24088   1.924   2.233   3.465  0.1514  0.1843 -0.2940
 4210SOL    HW124089   1.984   2.238   3.390 -1.4119 -0.7386 -1.6133
 4210SOL    HW224090   1.914   2.326   3.487 -2.7960 -0.4998  1.2428
 4211SOL     OW24091   2.490   1.772   3.312 -0.1488 -0.4129 -0.6686
 4211SOL    HW124092   2.455   1.687   3.338  1.1399 -0.7552 -0.0276
 4211SOL    HW224093   2.503   1.759   3.218  0.9610 -2.4145 -0.2423
 4212SOL     OW24094   4.563   3.762   4.852  0.2248  0.2228 -0.2652
 4212SOL    HW124095   4.520   3.744   4.768 -0.6673  0.2733  0.1830
 4212SOL    HW224096   4.655   3.744   4.834  0.4908  1.5272 -0.1852
 4213SOL     OW24097   3.530   3.362   6.537 -0.3126 -0.4908 -0.0965
 4213SOL    HW124098   3.463   3.352   6.605 -0.6407 -1.0500 -0.4959
 4213SOL    HW224099   3.495   3.441   6.496  2.1407  0.8525  0.4143
 4214SOL     OW24100   0.786   1.345   7.253  0.0991  0.7344  0.0775
 4214SOL    HW124101   0.856   1.334   7.319 -0.8687 -2.5269  0.5837
 4214SOL    HW224102   0.770   1.438   7.271 -4.0149  0.1565 -0.6700
 4215SOL     OW24103   0.771   3.853   5.126  0.0422  0.0993  0.3466
 4215SOL    HW124104   0.832   3.779   5.121 -0.1162  0.0426 -0.6013
 4215SOL    HW224105   0.817   3.930   5.094  1.4833 -1.3011 -0.9035
 4216SOL     OW24106   1.123   3.348   0.614  0.3649 -0.2436  0.3502
 4216SOL    HW124107   1.114   3.398   0.696 -0.5276 -1.4096  0.9641
 4216SOL    HW224108   1.044   3.374   0.567 -0.5061 -0.2994  1.7718
 4217SOL     OW24109   3.638   4.669   0.752 -0.0783 -0.5124  0.1075
 4217SOL    HW124110   3.624   4.684   0.658 -0.0952  2.6298  0.6136
 4217SOL    HW224111   3.675   0.027   0.783 -2.5541  0.5134  0.3483
 4218SOL     OW24112   1.965   2.377  11.443  0.1850  0.5841  0.2529
 4218SOL    HW124113   1.917   2.439  11.497 -0.3027 -1.8740  2.6040
 4218SOL    HW224114   2.048   2.424  11.435  0.2989  0.2288 -0.6753
 4219SOL     OW24115   1.061   3.621   8.930  0.2483 -0.0040 -0.7992
 4219SOL    HW124116   0.980   3.571   8.945  1.8027 -2.7731 -1.5665
 4219SOL    HW224117   1.054   3.650   8.839  0.5431  0.6003 -0.6244
 4220SOL     OW24118   2.035   1.512  15.451  0.4756 -0.2343 -0.4460
 4220SOL    HW124119   2.095   1.564  15.505  0.3216  0.5430 -1.0291
 4220SOL    HW224120   1.972   1.473  15.512  1.6917  0.6807  1.3955
 4221SOL     OW24121   4.177   1.108   1.808  0.4654  0.6006  0.3027
 4221SOL    HW124122   4.257   1.108   1.861 -0.8736  1.7245  2.3235
 4221SOL    HW224123   4.173   1.016   1.783  1.2284  1.2189 -2.1178
 4222SOL     OW24124   3.333   0.075  12.493  0.0630 -0.2650 -0.5178
 4222SOL    HW124125   3.274   0.119  12.431  0.5943  1.2175  0.0406
 4222SOL    HW224126   3.277   0.010  12.536 -0.4350  0.7186  0.3080
 4223SOL     OW24127   1.164   4.507  15.918 -0.3029  0.7957  0.1024
 4223SOL    HW124128   1.114   4.458  15.982  0.2033  0.5060  0.2810
 4223SOL    HW224129   1.098   4.552  15.866 -2.0184 -4.5845 -2.3768
 4224SOL     OW24130   2.230   3.482   5.379 -0.4215 -0.6107 -0.5900
 4224SOL    HW124131   2.326   3.490   5.382 -0.3314 -2.0238  0.8975
 4224SOL    HW224132   2.219   3.569   5.417  2.0767  0.0098 -1.3056
 4225SOL     OW24133   0.493   2.373   4.553  0.0580 -0.0469 -0.2022
 4225SOL    HW124134   0.526   2.348   4.467  1.5529 -0.4835  0.4984
 4225SOL    HW224135   0.576   2.367   4.601  0.3519 -1.2130 -0.8372
 4226SOL     OW24136   2.660   3.826   9.814 -0.3274 -0.0576  0.1287
 4226SOL    HW124137   2.726   3.883   9.854 -0.8255 -0.4848  1.5418
 4226SOL    HW224138   2.588   3.805   9.873  1.9449 -1.7418  2.3116
 4227SOL     OW24139   1.158   1.473  14.234  0.4390  0.1620 -0.5597
 4227SOL    HW124140   1.244   1.478  14.276  0.4189 -1.6884 -0.2935
 4227SOL    HW224141   1.098   1.450  14.304  0.4971  0.6919 -0.3421
 4228SOL     OW24142   1.133   2.156  14.892  0.1558  0.1223 -0.0138
 4228SOL    HW124143   1.161   2.109  14.971 -0.2651  0.1267  0.1401
 4228SOL    HW224144   1.159   2.240  14.928  1.2950 -0.7680  1.2494
 4229SOL     OW24145   3.860   1.999  12.329  0.3839  0.2746  0.0069
 4229SOL    HW124146   3.824   1.938  12.394  4.0309 -0.9147  0.8582
 4229SOL    HW224147   3.892   1.948  12.255  0.8328  0.0387  0.3668
 4230SOL     OW24148   3.105   4.475   5.368 -0.6798 -0.1938  0.2668
 4230SOL    HW124149   3.106   4.379   5.369 -0.7627 -0.2039 -0.6653
 4230SOL    HW224150   3.070   4.489   5.281 -2.3716 -1.2629  0.7749
 4231SOL     OW24151   4.030   4.004  14.351  0.7412 -0.1636 -0.3575
 4231SOL    HW124152   4.044   3.911  14.333 -1.8888 -0.0524 -3.1027
 4231SOL    HW224153   4.103   4.030  14.407 -1.7161 -0.6594  3.0564
 4232SOL     OW24154   0.879   0.338   4.490  0.0822 -0.1819 -0.1218
 4232SOL    HW124155   0.951   0.329   4.428  0.0788  1.9124 -0.4379
 4232SOL    HW224156   0.810   0.294   4.441 -0.4113 -0.8517  1.1983
 4233SOL     OW24157   3.880   3.806   5.641  0.2446  0.2054 -0.3488
 4233SOL    HW124158   3.799   3.837   5.682 -0.3066 -1.5365 -0.1103
 4233SOL    HW224159   3.919   3.743   5.702 -1.0494  1.1977  1.5125
 4234SOL     OW24160   1.755   2.966  12.695 -0.0779 -0.4294  0.6160
 4234SOL    HW124161   1.758   3.060  12.713 -1.7808 -0.5699  1.6193
 4234SOL    HW224162   1.676   2.935  12.738 -0.5189 -0.2149 -0.0337
 4235SOL     OW24163   0.864   0.992   7.826 -0.2938 -0.3208  0.1553
 4235SOL    HW124164   0.926   0.919   7.827 -1.3947 -1.2506 -1.1871
 4235SOL    HW224165   0.919   1.066   7.798 -2.5576  0.9010 -1.0448
 4236SOL     OW24166   4.118   4.130   0.909 -0.0286  0.0444 -0.0286
 4236SOL    HW124167   4.105   4.036   0.895 -1.2048  0.0238  1.1944
 4236SOL    HW224168   4.037   4.165   0.871  2.0673  2.4870 -2.2501
 4237SOL     OW24169   3.820   2.130  17.328 -0.8196 -0.0503 -0.1506
 4237SOL    HW124170   3.839   2.072  17.402  0.7243 -0.5246 -0.9238
 4237SOL    HW224171   3.731   2.113  17.295 -0.8061  0.6649 -0.5474
 4238SOL     OW24172   2.307   0.662   0.463  0.0554  0.0231 -0.4678
 4238SOL    HW124173   2.318   0.614   0.544 -2.7406 -2.8368 -1.7894
 4238SOL    HW224174   2.361   0.612   0.402  1.0465 -1.6330  1.7962
 4239SOL     OW24175   4.228   2.299   9.560 -0.6304 -0.0894 -0.2755
 4239SOL    HW124176   4.192   2.314   9.647  2.5230  4.8162  0.1967
 4239SOL    HW224177   4.272   2.218   9.585  0.2927  1.1443  2.1750
 4240SOL     OW24178   4.119   2.876   6.585  0.1990  0.3239  0.1470
 4240SOL    HW124179   4.209   2.872   6.618  0.1761  0.8526  0.2733
 4240SOL    HW224180   4.078   2.828   6.657  0.1050 -0.0793 -0.1764
 4241SOL     OW24181   2.997   0.363   5.966  0.2725  0.1115  0.2250
 4241SOL    HW124182   2.986   0.269   5.952  0.5500 -0.0765  1.2031
 4241SOL    HW224183   2.963   0.406   5.888 -1.4259 -0.5291  0.6041
 4242SOL     OW24184   4.530   1.604   3.476 -0.4337  0.2572  0.3782
 4242SOL    HW124185   4.576   1.600   3.392 -0.5284  0.3291  0.3229
 4242SOL    HW224186   4.510   1.697   3.487  0.1196  0.5151 -0.8523
 4243SOL     OW24187   1.124   4.155   8.393  0.5873 -1.2014 -0.3621
 4243SOL    HW124188   1.210   4.197   8.402 -0.2154 -0.1054  2.2080
 4243SOL    HW224189   1.157   4.068   8.412  3.1914  0.1636  1.3640
 4244SOL     OW24190   4.167   2.651   4.940 -0.0605  0.2324 -0.5239
 4244SOL    HW124191   4.224   2.635   5.015 -2.1671 -0.7570  0.8641
 4244SOL    HW224192   4.116   2.570   4.940 -0.5190  0.5251 -1.7024
 4245SOL     OW24193   3.650   1.268   5.540  0.0281  0.3700  0.1318
 4245SOL    HW124194   3.581   1.303   5.596 -0.6250 -0.7732  0.0259
 4245SOL    HW224195   3.639   1.176   5.562 -1.5258  0.6699  0.6239
 4246SOL     OW24196   4.423   3.119   4.143 -0.4690  0.2958  0.4267
 4246SOL    HW124197   4.395   3.166   4.065 -0.2435  0.2072  0.2915
 4246SOL    HW224198   4.350   3.058   4.154  0.2127 -0.6983 -0.5765
 4247SOL     OW24199   0.304   2.601   2.538 -0.1804 -0.5958 -0.1148
 4247SOL    HW124200   0.246   2.660   2.588  0.1025  0.2148 -0.7481
 4247SOL    HW224201   0.244   2.554   2.480 -0.5087  1.7604 -1.6784
 4248SOL     OW24202   3.308   2.666   7.105 -0.4877 -0.2193 -0.3683
 4248SOL    HW124203   3.272   2.675   7.193  0.7371 -1.4844  0.2555
 4248SOL    HW224204   3.312   2.757   7.074  1.2316  0.1796  1.0320
 4249SOL     OW24205   3.206   3.685   5.554 -0.5430 -0.5951 -0.3344
 4249SOL    HW124206   3.165   3.761   5.511  0.0522 -0.7215 -1.1323
 4249SOL    HW224207   3.288   3.722   5.586 -0.6229  0.2154 -1.0332
 4250SOL     OW24208   1.382   3.216   4.178  0.1588 -0.4864 -0.8331
 4250SOL    HW124209   1.383   3.153   4.105  0.2379 -1.4372 -0.0184
 4250SOL    HW224210   1.291   3.205   4.205  0.3868  2.1229  0.9913
 4251SOL     OW24211   2.364   1.442   5.959 -0.1052 -0.1360 -0.6384
 4251SOL    HW124212   2.397   1.380   5.893 -2.5458 -2.0019 -0.0806
 4251SOL    HW224213   2.336   1.508   5.896  0.6699  0.7975  0.0059
 4252SOL     OW24214   0.422   0.626   3.295 -0.3046  0.1685  0.4796
 4252SOL    HW124215   0.503   0.589   3.329  0.9376  0.2501 -2.3511
 4252SOL    HW224216   0.393   0.548   3.249 -3.0612  0.9249  0.9238
 4253SOL     OW24217   1.324   0.834   8.575 -0.9867  0.3508  0.1330
 4253SOL    HW124218   1.310   0.773   8.502  1.8023 -0.7983  0.5529
 4253SOL    HW224219   1.247   0.890   8.576 -3.1331 -2.6263  1.3931
 4254SOL     OW24220   0.815   3.614   5.656  0.1028  0.3932  0.5607
 4254SOL    HW124221   0.845   3.619   5.565 -0.6060  2.1270  0.4326
 4254SOL    HW224222   0.901   3.627   5.697  0.0945 -0.1895  0.7640
 4255SOL     OW24223   3.594   4.200   6.822  0.4904 -0.3805 -0.1915
 4255SOL    HW124224   3.533   4.137   6.862 -2.0049  0.7265 -2.2730
 4255SOL    HW224225   3.595   4.264   6.893  0.0694 -1.6365  0.9636
 4256SOL     OW24226   3.581   0.590   5.609  0.0282  0.0027  0.0984
 4256SOL    HW124227   3.619   0.519   5.662  0.5196  1.5714  1.8409
 4256SOL    HW224228   3.564   0.656   5.676  1.6931 -0.5199  1.0347
 4257SOL     OW24229   3.983   0.164   7.694  0.3275  0.0847  0.7074
 4257SOL    HW124230   3.944   0.232   7.640  1.5997 -0.2748 -0.6809
 4257SOL    HW224231   3.953   0.187   7.782 -0.1499  0.5453  0.4254
 4258SOL     OW24232   1.276   2.533   2.046  0.3496 -0.8498  0.4256
 4258SOL    HW124233   1.352   2.479   2.067  1.0822 -0.8762 -2.2308
 4258SOL    HW224234   1.280   2.494   1.959 -1.9911  1.0212 -0.5189
 4259SOL     OW24235   1.535   1.991   1.550  0.3577  0.0880 -0.4024
 4259SOL    HW124236   1.444   1.962   1.551  0.6583 -0.8378  0.0895
 4259SOL    HW224237   1.528   2.086   1.542 -0.6300  0.0822  0.4966
 4260SOL     OW24238   0.370   2.031   2.885  0.5750 -0.2881 -0.0200
 4260SOL    HW124239   0.325   2.043   2.801  0.4324  0.9299  0.2167
 4260SOL    HW224240   0.461   2.015   2.861  0.4485 -1.1144  0.0814
 4261SOL     OW24241   2.569   4.400  11.604  0.0094 -0.5940  0.6606
 4261SOL    HW124242   2.663   4.410  11.617 -0.1646 -0.6073  1.8893
 4261SOL    HW224243   2.563   4.327  11.543  2.4288 -1.0415  0.9469
 4262SOL     OW24244   4.228   3.505   1.889  0.8273 -0.6954  0.0883
 4262SOL    HW124245   4.186   3.434   1.841 -1.5402  2.6896 -2.8073
 4262SOL    HW224246   4.298   3.535   1.831 -0.3869  0.1410 -0.9286
 4263SOL     OW24247   0.323   1.214  14.321 -0.2757 -0.0604 -0.3649
 4263SOL    HW124248   0.375   1.193  14.399 -1.3782 -0.4554  0.2630
 4263SOL    HW224249   0.255   1.269  14.361 -1.1200  0.9669 -3.2356
 4264SOL     OW24250   3.339   4.659  15.140 -0.4510 -0.1047 -0.0557
 4264SOL    HW124251   3.413   4.679  15.197 -1.1598  1.3258  0.3811
 4264SOL    HW224252   3.363   4.575  15.102 -0.6939 -0.7951  1.3241
 4265SOL     OW24253   3.573   4.444   2.694 -0.0219  0.6621 -0.8506
 4265SOL    HW124254   3.574   4.501   2.771  2.5518 -0.2705 -0.2145
 4265SOL    HW224255   3.532   4.492   2.622 -0.9674  2.5251  0.9259
 4266SOL     OW24256   4.067   4.346  13.052 -0.1469 -0.2870 -0.0329
 4266SOL    HW124257   4.062   4.324  13.144  0.1836  0.8347  0.2541
 4266SOL    HW224258   4.154   4.307  13.038  0.0946 -0.3886  1.8567
 4267SOL     OW24259   2.226   4.013  13.350  0.0376  0.6387  0.5159
 4267SOL    HW124260   2.312   3.979  13.375 -0.1955 -1.0067 -0.9010
 4267SOL    HW224261   2.246   4.105  13.335 -3.0487  1.1581 -0.3527
 4268SOL     OW24262   3.177   2.649   5.610 -0.0619 -0.0472 -0.6303
 4268SOL    HW124263   3.184   2.561   5.573 -0.2456 -0.1409 -0.4428
 4268SOL    HW224264   3.235   2.698   5.551 -0.7249 -0.8038 -1.9229
 4269SOL     OW24265   2.784   3.979   3.253  0.2438 -0.1060 -0.4227
 4269SOL    HW124266   2.762   3.895   3.212 -1.2347 -0.5642  1.3288
 4269SOL    HW224267   2.852   3.940   3.308 -0.1896  0.0040  0.1859
 4270SOL     OW24268   4.522   2.420   8.507 -0.3503 -0.9221 -0.2139
 4270SOL    HW124269   4.456   2.350   8.508  0.1669 -1.4150 -0.3241
 4270SOL    HW224270   4.600   2.365   8.513  0.0084 -0.2127  1.6780
 4271SOL     OW24271   2.927   4.652   0.607 -0.5711  0.1198 -0.4123
 4271SOL    HW124272   2.999   4.603   0.565 -1.0985  1.3600 -2.7786
 4271SOL    HW224273   2.856   4.634   0.545 -1.2375 -2.5892  1.1289
 4272SOL     OW24274   4.395   3.988   7.947 -0.2248 -0.0857 -0.4448
 4272SOL    HW124275   4.357   4.037   7.874  0.6540  1.7912  0.3669
 4272SOL    HW224276   4.317   3.990   8.003  0.9514 -3.6857  1.2970
 4273SOL     OW24277   3.732   1.995   2.660  0.0630 -0.2615  0.2522
 4273SOL    HW124278   3.781   1.993   2.579 -0.3576 -0.4092 -0.0012
 4273SOL    HW224279   3.652   2.047   2.649  0.4828 -0.1093 -1.9181
 4274SOL     OW24280   3.402   2.472   3.503  0.3872 -0.0815  0.1766
 4274SOL    HW124281   3.489   2.504   3.530  0.2977  0.1088  0.2439
 4274SOL    HW224282   3.359   2.485   3.587  1.0917 -0.2566  0.5653
 4275SOL     OW24283   1.164   3.651   0.383 -0.3400 -0.3207  0.1279
 4275SOL    HW124284   1.177   3.729   0.329  3.6728 -1.3444 -0.4244
 4275SOL    HW224285   1.209   3.682   0.462 -0.7706 -0.1931  0.3206
 4276SOL     OW24286   3.698   2.117   1.900 -0.0393  0.1806 -0.3968
 4276SOL    HW124287   3.747   2.059   1.959  1.6920  1.8153 -0.1916
 4276SOL    HW224288   3.622   2.129   1.956  1.1338 -1.4238  1.5383
 4277SOL     OW24289   2.466   0.024  16.576  0.0821 -0.4843 -0.4864
 4277SOL    HW124290   2.541   0.082  16.590 -1.5345  1.2722  0.9056
 4277SOL    HW224291   2.446   0.068  16.493  0.4120 -0.2074 -0.4167
 4278SOL     OW24292   1.026   2.822   0.075 -0.1228 -0.7005  0.5479
 4278SOL    HW124293   1.049   2.894   0.133  2.6901 -0.8987 -0.3116
 4278SOL    HW224294   0.934   2.846   0.063  0.2348 -0.6180 -2.1125
 4279SOL     OW24295   2.273   3.346   1.540 -0.0606 -0.5717  0.0066
 4279SOL    HW124296   2.322   3.312   1.615 -0.4601  0.1406  0.5833
 4279SOL    HW224297   2.223   3.417   1.579  0.2410 -1.4911  2.0828
 4280SOL     OW24298   4.211   3.044   6.955 -0.3781 -0.3098 -0.5513
 4280SOL    HW124299   4.187   3.103   7.027 -1.2327 -1.3518  0.0041
 4280SOL    HW224300   4.202   3.098   6.876 -4.2994 -0.2543 -0.0315
 4281SOL     OW24301   2.360   3.982  13.057 -0.5650 -0.0345 -0.1179
 4281SOL    HW124302   2.339   3.943  13.142 -1.6393  0.0446 -0.3382
 4281SOL    HW224303   2.446   3.945  13.038  0.2623  1.8458  0.0288
 4282SOL     OW24304   0.455   4.580  10.635  0.0049 -0.0003 -0.0291
 4282SOL    HW124305   0.410   4.542  10.710 -0.4731 -1.2445 -0.9592
 4282SOL    HW224306   0.399   4.564  10.559 -0.6825 -0.8981  0.6774
 4283SOL     OW24307   1.551   2.267   1.582  0.2739 -0.0866 -0.4896
 4283SOL    HW124308   1.555   2.349   1.632  0.0445 -1.0317  1.0699
 4283SOL    HW224309   1.587   2.292   1.498  1.5640  1.3041  0.4824
 4284SOL     OW24310   1.954   4.253  10.399  0.1113 -0.1221  0.1415
 4284SOL    HW124311   2.015   4.204  10.343 -0.7509 -1.5638  0.4652
 4284SOL    HW224312   1.867   4.233  10.366  0.0598  0.2550  0.0482
 4285SOL     OW24313   1.056   2.263  11.108 -0.0225 -0.5823  0.2047
 4285SOL    HW124314   1.124   2.326  11.133  1.3546 -1.2620 -1.8599
 4285SOL    HW224315   1.111   2.191  11.080 -0.6398 -0.8767 -0.2561
 4286SOL     OW24316   4.164   4.351  15.051  0.3141  0.2231  0.5060
 4286SOL    HW124317   4.202   4.431  15.017  0.4111 -0.9033 -2.0032
 4286SOL    HW224318   4.108   4.326  14.977 -0.9816  0.3524  1.4318
 4287SOL     OW24319   0.445   3.596   6.464  0.3560  0.2674  0.2301
 4287SOL    HW124320   0.387   3.561   6.396 -0.3679 -0.8649  1.4224
 4287SOL    HW224321   0.378   3.662   6.484  0.0836  0.1574 -0.3019
 4288SOL     OW24322   1.836   1.254   0.205  0.8848 -0.8389 -0.5504
 4288SOL    HW124323   1.801   1.343   0.194 -0.8027 -1.7070 -2.2116
 4288SOL    HW224324   1.805   1.207   0.128  1.5322 -1.8985 -0.1656
 4289SOL     OW24325   1.021   2.962   4.154  0.2474  0.8593 -0.4879
 4289SOL    HW124326   1.042   3.029   4.089 -0.6385  1.2174 -0.4120
 4289SOL    HW224327   1.045   2.886   4.100  1.1490  1.1754 -0.5350
 4290SOL     OW24328   1.753   0.366   1.673 -0.2712  0.3315  0.0180
 4290SOL    HW124329   1.757   0.279   1.633 -1.1714 -0.1702  0.9980
 4290SOL    HW224330   1.801   0.356   1.755 -0.4776 -1.7279 -0.0928
 4291SOL     OW24331   4.201   4.234   1.991 -0.4470 -0.5542 -0.1319
 4291SOL    HW124332   4.226   4.237   1.899  1.3916 -1.3933  0.3412
 4291SOL    HW224333   4.108   4.213   1.981 -0.0187 -1.6682 -1.7939
 4292SOL     OW24334   2.586   1.897   9.792 -0.0081  0.0319  0.8631
 4292SOL    HW124335   2.506   1.895   9.738 -0.0575  1.6365  0.8492
 4292SOL    HW224336   2.645   1.914   9.718  0.5042  0.0873  1.2888
 4293SOL     OW24337   3.283   1.919   0.802 -0.4458 -0.2669  0.2762
 4293SOL    HW124338   3.298   2.008   0.770 -2.8452 -1.2153 -3.5638
 4293SOL    HW224339   3.253   1.935   0.891 -2.7367  1.0074 -0.7035
 4294SOL     OW24340   3.557   2.079   3.088 -0.0932 -0.3464 -0.1700
 4294SOL    HW124341   3.519   2.106   3.171  2.0841 -1.6199  1.2397
 4294SOL    HW224342   3.480   2.034   3.054 -0.1916 -0.9368  0.8440
 4295SOL     OW24343   3.133   0.862   2.625  0.1372 -0.1520 -0.5295
 4295SOL    HW124344   3.208   0.828   2.673  1.2251  2.6735 -0.2456
 4295SOL    HW224345   3.064   0.797   2.641  0.4291 -0.3448 -0.0595
 4296SOL     OW24346   2.043   0.711   9.481  0.7120 -0.4993 -0.0248
 4296SOL    HW124347   1.988   0.783   9.511 -1.8805 -2.5394  0.1103
 4296SOL    HW224348   2.011   0.640   9.537 -1.4447  0.5200  0.0569
 4297SOL     OW24349   0.814   3.774  14.753 -0.8485 -0.4699  0.0157
 4297SOL    HW124350   0.754   3.765  14.679  0.5719  0.2136 -1.2150
 4297SOL    HW224351   0.777   3.842  14.809 -0.4235  1.8377 -2.5114
 4298SOL     OW24352   3.669   3.509   2.074  0.1216  0.9537  0.6466
 4298SOL    HW124353   3.612   3.453   2.022 -1.7202  2.4771  1.0175
 4298SOL    HW224354   3.655   3.469   2.160 -0.3973  0.2804  0.2503
 4299SOL     OW24355   2.296   2.642   0.296  0.1636 -0.0820  0.3955
 4299SOL    HW124356   2.310   2.548   0.302  1.8919  0.3619  3.5879
 4299SOL    HW224357   2.362   2.672   0.233 -0.6412 -0.3943 -0.5811
 4300SOL     OW24358   2.857   4.325  17.054  1.0471  0.2290  0.4316
 4300SOL    HW124359   2.916   4.318  16.979  0.0228 -2.4829 -0.1160
 4300SOL    HW224360   2.838   4.418  17.066 -0.1381  0.4001 -2.7787
 4301SOL     OW24361   4.105   2.469  17.124 -0.4128 -0.2805  0.5057
 4301SOL    HW124362   4.058   2.552  17.110  0.7539  0.2945 -0.0033
 4301SOL    HW224363   4.076   2.412  17.053  1.8399 -0.6026 -0.1627
 4302SOL     OW24364   4.428   4.279  15.282 -0.6039  0.1674  0.0189
 4302SOL    HW124365   4.507   4.310  15.237 -1.5558  2.5499  0.0056
 4302SOL    HW224366   4.454   4.286  15.374  0.8449  0.8375 -0.4260
 4303SOL     OW24367   0.004   2.998   2.261  0.0841 -0.2587 -0.0121
 4303SOL    HW124368   4.705   3.016   2.352 -0.3932 -2.8237  0.3595
 4303SOL    HW224369   4.648   3.024   2.215 -0.0028 -0.4823  0.0126
 4304SOL     OW24370   2.119   4.544   5.074 -0.1693  0.6847  0.8681
 4304SOL    HW124371   2.142   4.452   5.084  1.3766  1.2375  2.4705
 4304SOL    HW224372   2.046   4.537   5.013 -1.7421 -0.8406  2.9151
 4305SOL     OW24373   2.622   2.876  16.415  0.2207  0.2563  0.1291
 4305SOL    HW124374   2.711   2.896  16.384 -0.4120 -1.6292 -2.9004
 4305SOL    HW224375   2.627   2.869  16.510  0.6105  2.0095  0.2340
 4306SOL     OW24376   2.861   3.348   5.567 -0.1784 -0.3122  0.4746
 4306SOL    HW124377   2.905   3.430   5.548  0.3510 -0.3560  1.4779
 4306SOL    HW224378   2.858   3.306   5.481 -0.4332 -0.7726  0.7075
 4307SOL     OW24379   2.466   4.567   5.949 -0.1810  0.2591 -0.2044
 4307SOL    HW124380   2.483   4.658   5.973  0.6827  0.3338 -1.0725
 4307SOL    HW224381   2.440   4.530   6.033  3.1785  2.5156  1.8305
 4308SOL     OW24382   4.287   3.551   8.302  0.0656 -0.2329 -0.0014
 4308SOL    HW124383   4.299   3.529   8.210  0.5487 -0.2841  0.0728
 4308SOL    HW224384   4.301   3.466   8.344  0.9566 -0.4913 -0.8154
 4309SOL     OW24385   1.521   2.762   6.410  0.2785 -0.3613 -0.4074
 4309SOL    HW124386   1.458   2.722   6.350 -0.8982  3.9032 -2.0242
 4309SOL    HW224387   1.457   2.781   6.479  1.7648 -1.3106  1.2169
 4310SOL     OW24388   2.244   4.223  13.056  0.4478 -0.7170 -0.0624
 4310SOL    HW124389   2.281   4.135  13.063 -1.1930 -1.3714  0.6444
 4310SOL    HW224390   2.237   4.239  12.962  1.1999  2.0480  0.3544
 4311SOL     OW24391   3.391   1.494   7.843  0.9632 -0.4942 -0.8262
 4311SOL    HW124392   3.355   1.526   7.926 -0.6169 -0.2944 -1.5835
 4311SOL    HW224393   3.314   1.447   7.812  0.8428 -0.7860 -0.0927
 4312SOL     OW24394   3.548   4.114   7.886  0.2679 -0.3809 -0.0763
 4312SOL    HW124395   3.467   4.064   7.883 -0.8287  1.4168 -0.2350
 4312SOL    HW224396   3.620   4.054   7.906 -0.4537 -0.9420  0.8338
 4313SOL     OW24397   0.857   2.065  16.449  0.1111  0.3821  0.1285
 4313SOL    HW124398   0.848   1.970  16.440  0.1311  0.4896 -1.0054
 4313SOL    HW224399   0.952   2.073  16.453  0.0903  1.0230 -0.7614
 4314SOL     OW24400   4.532   0.559   5.269 -0.4159  0.1005 -0.2485
 4314SOL    HW124401   4.591   0.562   5.194 -0.9089 -0.0580 -0.6428
 4314SOL    HW224402   4.458   0.610   5.235 -0.4720  0.5370  0.5212
 4315SOL     OW24403   3.059   2.543   8.283 -0.0234  0.3946  0.4347
 4315SOL    HW124404   2.982   2.488   8.268  0.8540 -0.4479 -1.0129
 4315SOL    HW224405   3.038   2.571   8.372  1.8842  3.0083  0.0435
 4316SOL     OW24406   4.009   4.319   9.888  0.3442 -0.0131  0.5515
 4316SOL    HW124407   4.061   4.263   9.831 -1.9220  0.9401 -2.4792
 4316SOL    HW224408   4.028   4.411   9.868 -1.6742  0.2705 -0.0279
 4317SOL     OW24409   0.884   2.330  16.346  0.0524 -0.6187 -0.5288
 4317SOL    HW124410   0.842   2.264  16.402  0.4446 -0.4811 -0.0756
 4317SOL    HW224411   0.973   2.330  16.381  0.0044  0.6664 -0.4171
 4318SOL     OW24412   3.621   0.986   5.612  0.7381  0.2066 -0.1560
 4318SOL    HW124413   3.575   0.913   5.571 -0.6187  0.1860  1.3714
 4318SOL    HW224414   3.586   0.989   5.702  1.1312  0.5612 -0.0194
 4319SOL     OW24415   3.804   0.938  15.697  0.3349 -0.2657  0.0129
 4319SOL    HW124416   3.835   1.020  15.734 -0.5015  1.3724 -2.9080
 4319SOL    HW224417   3.786   0.892  15.779 -2.6137  0.2889 -0.2979
 4320SOL     OW24418   4.370   2.171  14.480  0.2137 -0.0308  0.1767
 4320SOL    HW124419   4.376   2.075  14.478  2.7774  0.1058  0.4720
 4320SOL    HW224420   4.377   2.198  14.389 -0.8809  1.5687  0.5896
 4321SOL     OW24421   1.790   3.122   7.000 -0.0416 -0.2842  0.1441
 4321SOL    HW124422   1.720   3.152   7.058 -0.0815  0.0856 -0.0945
 4321SOL    HW224423   1.789   3.034   7.037 -1.6488 -0.8741 -1.3151
 4322SOL     OW24424   2.897   3.929   5.252  0.4721  0.3142  0.1164
 4322SOL    HW124425   2.851   4.007   5.283 -2.8213 -1.5830 -0.0182
 4322SOL    HW224426   2.824   3.867   5.254  0.5505  0.2097 -0.2659
 4323SOL     OW24427   0.678   3.835   3.971  0.1706  0.6641  0.2448
 4323SOL    HW124428   0.767   3.846   3.939  0.4209 -0.3430  0.5944
 4323SOL    HW224429   0.632   3.827   3.887 -0.3563 -0.7367  0.6764
 4324SOL     OW24430   1.635   4.532   7.572  0.6822  0.6288 -0.2308
 4324SOL    HW124431   1.667   4.442   7.565  1.7352  1.0934 -1.4511
 4324SOL    HW224432   1.623   4.561   7.482 -1.5028  0.1636 -0.0971
 4325SOL     OW24433   2.047   3.189   7.541 -0.4041  0.1725 -0.1228
 4325SOL    HW124434   2.089   3.105   7.523  1.3671  0.7208  1.3864
 4325SOL    HW224435   2.045   3.171   7.635 -1.5126  0.1495 -0.1548
 4326SOL     OW24436   0.746   0.593  13.216 -0.2091 -0.5924  0.0808
 4326SOL    HW124437   0.757   0.505  13.252 -1.6146 -0.8282 -0.0685
 4326SOL    HW224438   0.658   0.584  13.179 -0.7090  2.6853  0.4997
 4327SOL     OW24439   3.390   3.980   6.888 -0.1238  0.5185 -0.7106
 4327SOL    HW124440   3.388   3.895   6.933 -1.8952  1.7045  1.4944
 4327SOL    HW224441   3.306   4.006   6.926 -0.7789  1.0200 -2.4814
 4328SOL     OW24442   4.406   2.369  11.578  0.4892  0.1027 -0.0441
 4328SOL    HW124443   4.471   2.379  11.508  1.3178 -0.8918  0.5927
 4328SOL    HW224444   4.341   2.309  11.540  2.7020 -1.0277 -2.0203
 4329SOL     OW24445   1.253   1.637   3.992  0.0654  0.5083  0.5183
 4329SOL    HW124446   1.176   1.675   4.034  0.6708  2.0139  0.2749
 4329SOL    HW224447   1.256   1.686   3.909  0.5277  0.2281  0.3697
 4330SOL     OW24448   0.459   2.797   5.470 -0.2975 -0.0669  0.3229
 4330SOL    HW124449   0.485   2.706   5.484 -0.6731 -0.1383  0.5598
 4330SOL    HW224450   0.431   2.801   5.378  0.9509 -1.2481 -0.1145
 4331SOL     OW24451   1.818   3.337   2.373  0.0280 -0.9670  0.2423
 4331SOL    HW124452   1.806   3.360   2.465 -0.0217 -2.3293  0.5739
 4331SOL    HW224453   1.731   3.311   2.341 -0.2831 -1.7349  1.7066
 4332SOL     OW24454   3.639   2.263  17.520  0.0807  0.2238  0.4231
 4332SOL    HW124455   3.726   2.234  17.492 -0.4342 -0.0070 -0.9336
 4332SOL    HW224456   3.606   2.199  17.584  0.6213  0.0323  0.5154
 4333SOL     OW24457   0.660   0.860   7.292 -0.1479  0.5198  0.6641
 4333SOL    HW124458   0.712   0.798   7.342 -2.0952 -2.1898 -0.6911
 4333SOL    HW224459   0.725   0.926   7.266  0.1446  0.5649  1.5237
 4334SOL     OW24460   0.132   1.826   0.046  0.2381 -0.4390 -0.8930
 4334SOL    HW124461   0.110   1.734   0.051 -0.2449 -0.2670  0.1285
 4334SOL    HW224462   0.218   1.825   0.088 -1.0622 -0.6979  1.7629
 4335SOL     OW24463   1.263   3.786   7.696 -0.1952 -0.2651 -0.5492
 4335SOL    HW124464   1.278   3.821   7.784  1.0553  1.9432 -1.6268
 4335SOL    HW224465   1.348   3.755   7.667 -0.6732 -1.3091 -0.8298
 4336SOL     OW24466   3.440   3.733   3.272  0.0021  0.5411 -0.3385
 4336SOL    HW124467   3.408   3.734   3.362 -0.2474  0.1774 -0.4243
 4336SOL    HW224468   3.530   3.757   3.295  0.2388 -0.9113  0.2387
 4337SOL     OW24469   1.782   0.924   7.405  0.8532 -0.1506 -0.2622
 4337SOL    HW124470   1.777   0.996   7.468 -1.9308 -0.0171 -0.6422
 4337SOL    HW224471   1.693   0.928   7.372  0.3749  2.1062  1.2591
 4338SOL     OW24472   3.822   2.087   4.709 -0.3562  0.4443 -0.3354
 4338SOL    HW124473   3.903   2.097   4.660 -1.3828 -1.8858 -2.5145
 4338SOL    HW224474   3.861   2.047   4.787 -1.2737  0.2652  0.0346
 4339SOL     OW24475   0.041   1.884   4.556 -0.3905 -0.0915 -0.2937
 4339SOL    HW124476   0.135   1.902   4.549 -0.5643  0.5773 -0.9307
 4339SOL    HW224477   0.007   1.908   4.470 -0.2343 -0.8382 -0.5698
 4340SOL     OW24478   1.529   3.063  14.079  0.0327  0.0068 -0.3049
 4340SOL    HW124479   1.471   2.994  14.048  0.8499 -0.6812 -0.3080
 4340SOL    HW224480   1.573   3.085  13.997 -0.9175  0.6371 -0.6410
 4341SOL     OW24481   0.552   4.377   3.654 -0.3113 -0.1657 -0.3562
 4341SOL    HW124482   0.492   4.428   3.709  0.8874 -1.9292  2.6295
 4341SOL    HW224483   0.634   4.401   3.697 -0.0177  0.0509 -1.0402
 4342SOL     OW24484   0.009   4.460  14.707 -0.0184 -0.0892  0.3432
 4342SOL    HW124485   0.088   4.489  14.753  0.9437 -2.1576  0.0373
 4342SOL    HW224486   0.053   4.390  14.659 -1.0019  0.9341 -2.0041
 4343SOL     OW24487   1.266   3.479   3.326  0.0245 -0.3174  0.0261
 4343SOL    HW124488   1.349   3.455   3.284 -0.6408 -2.0633 -0.2787
 4343SOL    HW224489   1.298   3.481   3.416 -0.0191  1.8229 -0.0116
 4344SOL     OW24490   2.579   2.836   5.840  0.1336  0.7489  0.3644
 4344SOL    HW124491   2.629   2.777   5.896 -1.1505  0.1165  0.8369
 4344SOL    HW224492   2.577   2.779   5.763  1.1161  1.8755 -0.5057
 4345SOL     OW24493   0.212   3.203   0.540 -0.4056 -0.0552 -0.1645
 4345SOL    HW124494   0.242   3.242   0.458  0.1743  1.1180  0.5991
 4345SOL    HW224495   0.207   3.111   0.514  0.6711 -0.1916  0.0803
 4346SOL     OW24496   2.282   0.403   5.500 -0.3722  0.3528 -0.0644
 4346SOL    HW124497   2.326   0.399   5.415  3.0201 -0.5899  1.7526
 4346SOL    HW224498   2.235   0.320   5.503  1.6166 -0.7782 -0.5751
 4347SOL     OW24499   1.492   3.133   5.594  0.8528  0.1132  0.2034
 4347SOL    HW124500   1.489   3.040   5.614  0.5869  0.4546  1.7712
 4347SOL    HW224501   1.442   3.134   5.513 -0.9448  0.9064  1.2983
 4348SOL     OW24502   1.243   1.629   3.344 -0.3170 -0.0058  1.0074
 4348SOL    HW124503   1.177   1.566   3.314  0.1434  0.4586 -0.9684
 4348SOL    HW224504   1.281   1.651   3.259  0.7364 -0.1313  1.4491
 4349SOL     OW24505   2.426   0.782   5.986 -0.1911 -0.3719  0.6199
 4349SOL    HW124506   2.473   0.862   6.010 -0.9710  0.5686 -0.9189
 4349SOL    HW224507   2.394   0.813   5.901  2.3689 -3.9592 -1.6214
 4350SOL     OW24508   0.103   0.035   6.292  0.1121  0.1531 -0.5474
 4350SOL    HW124509   0.145   4.673   6.296  0.9315  0.5840  0.0929
 4350SOL    HW224510   0.018   0.017   6.330  0.1764  0.6594 -0.1656
 4351SOL     OW24511   1.130   3.557   2.605 -0.1027  0.1414 -0.3405
 4351SOL    HW124512   1.098   3.641   2.572  1.1347  0.7121 -0.0590
 4351SOL    HW224513   1.170   3.527   2.523  0.2344  0.3841 -0.2659
 4352SOL     OW24514   2.582   1.764   9.052 -0.2125 -0.2930 -0.0903
 4352SOL    HW124515   2.526   1.787   9.126 -4.3049 -1.4982 -2.7722
 4352SOL    HW224516   2.666   1.801   9.078 -0.0052 -0.5139 -0.4529
 4353SOL     OW24517   1.887   3.681   7.525  0.0084 -0.1813 -0.4629
 4353SOL    HW124518   1.896   3.774   7.548 -1.5920 -0.2152  0.2988
 4353SOL    HW224519   1.951   3.662   7.457  0.5184 -3.8222  1.0658
 4354SOL     OW24520   4.370   0.172   4.898 -0.6032 -0.6278  0.2151
 4354SOL    HW124521   4.362   0.220   4.815  1.7958 -1.5642 -0.5544
 4354SOL    HW224522   4.286   0.126   4.901 -1.0224  0.1264  0.1507
 4355SOL     OW24523   4.095   3.905   9.923  0.1435  0.1137 -0.4247
 4355SOL    HW124524   4.004   3.881   9.905 -0.0140  1.2518 -1.1046
 4355SOL    HW224525   4.082   3.935  10.013 -2.6902  1.4625 -1.2962
 4356SOL     OW24526   1.454   0.363  10.841  0.1036  0.7362  0.2354
 4356SOL    HW124527   1.544   0.340  10.818 -0.5511 -1.0300 -0.5998
 4356SOL    HW224528   1.439   0.286  10.894 -0.1828  1.2094  0.8405
 4357SOL     OW24529   4.280   1.142   5.775  0.4690 -0.5352  0.0182
 4357SOL    HW124530   4.371   1.125   5.752  1.0455  0.8502  1.2482
 4357SOL    HW224531   4.273   1.236   5.791  0.5651 -0.7768  1.4639
 4358SOL     OW24532   0.442   3.253  16.732 -0.1567 -0.3170 -0.4564
 4358SOL    HW124533   0.430   3.304  16.652 -0.2000 -1.5886 -1.2446
 4358SOL    HW224534   0.468   3.324  16.791  0.3049 -0.3437 -0.6215
 4359SOL     OW24535   4.038   4.644   6.368 -0.4555  0.5396 -0.2441
 4359SOL    HW124536   4.034   0.008   6.404 -1.0156 -0.2269  1.5606
 4359SOL    HW224537   4.040   4.663   6.274 -0.7174  3.6526  0.3721
 4360SOL     OW24538   0.639   0.663   6.548 -0.0041  0.2406 -0.4512
 4360SOL    HW124539   0.690   0.697   6.622 -1.4900  0.6921  0.3543
 4360SOL    HW224540   0.549   0.683   6.573  0.1677  0.5094 -0.0495
 4361SOL     OW24541   2.146   1.831   5.656 -0.0873  0.6096  0.1132
 4361SOL    HW124542   2.053   1.842   5.674 -0.4509 -0.0751 -1.3638
 4361SOL    HW224543   2.150   1.885   5.577 -2.7032 -0.8879 -1.0302
 4362SOL     OW24544   2.993   2.979   3.563 -0.4292  0.0784 -0.1583
 4362SOL    HW124545   2.926   2.939   3.617 -2.1799 -0.1571 -2.5240
 4362SOL    HW224546   3.025   3.040   3.629  0.1727  2.2814 -2.4597
 4363SOL     OW24547   4.123   2.685   7.381  0.6043 -0.2623 -0.6529
 4363SOL    HW124548   4.138   2.663   7.473 -2.8531  0.7572  0.1291
 4363SOL    HW224549   4.199   2.644   7.340  2.5491  1.6090  1.0615
 4364SOL     OW24550   3.222   3.463   1.663  0.8023  0.3982 -0.3020
 4364SOL    HW124551   3.196   3.530   1.600 -0.2667 -0.5564 -0.8800
 4364SOL    HW224552   3.136   3.423   1.674  1.0492 -0.1287 -0.2882
 4365SOL     OW24553   0.488   0.023   3.899  0.3976  0.0102  0.1328
 4365SOL    HW124554   0.395   0.009   3.920  0.6795 -2.3400 -0.2295
 4365SOL    HW224555   0.484   4.719   3.808  0.1184  2.1274 -0.5150
 4366SOL     OW24556   3.214   0.223  12.276 -0.1666 -0.8543  0.5207
 4366SOL    HW124557   3.273   0.263  12.212  1.1782 -2.5686  0.6940
 4366SOL    HW224558   3.136   0.275  12.260 -1.0274 -2.2756  0.0449
 4367SOL     OW24559   3.155   4.589  12.625  0.1297 -0.3920  0.5468
 4367SOL    HW124560   3.176   4.570  12.716 -0.6211  0.8759  0.9888
 4367SOL    HW224561   3.234   4.543  12.596  0.7021  0.8917  0.0127
 4368SOL     OW24562   3.666   1.280   3.282 -0.2930  0.0112 -0.4981
 4368SOL    HW124563   3.737   1.343   3.271 -1.5196  0.9682 -2.7497
 4368SOL    HW224564   3.703   1.244   3.363 -1.6026 -3.0051 -1.2543
 4369SOL     OW24565   1.581   4.110  14.578  0.1620 -0.2741 -0.0373
 4369SOL    HW124566   1.501   4.127  14.627  0.7411 -3.3373  1.9395
 4369SOL    HW224567   1.636   4.091  14.653  2.3663  0.9982 -1.3188
 4370SOL     OW24568   0.676   1.391   8.432  0.0789 -0.1097  0.3542
 4370SOL    HW124569   0.681   1.486   8.435  1.7055 -0.1136 -1.5694
 4370SOL    HW224570   0.696   1.384   8.525  3.0521  0.1553 -0.2564
 4371SOL     OW24571   3.653   1.231  13.781  0.1585 -0.0636  0.1569
 4371SOL    HW124572   3.656   1.325  13.762 -0.8906 -0.3459 -1.4932
 4371SOL    HW224573   3.582   1.205  13.721  0.6271 -2.6489  0.7082
 4372SOL     OW24574   0.777   1.566   5.484 -0.4962 -0.5603  0.0658
 4372SOL    HW124575   0.786   1.516   5.565  0.3597  0.2873  0.4903
 4372SOL    HW224576   0.707   1.516   5.443  0.8093 -0.4353 -2.2762
 4373SOL     OW24577   1.521   3.596   4.882 -0.2876  0.3509 -0.3693
 4373SOL    HW124578   1.438   3.552   4.860 -2.0569  1.4561  4.2963
 4373SOL    HW224579   1.518   3.570   4.974 -0.3154 -0.7948 -0.6851
 4374SOL     OW24580   1.299   1.036  13.038 -0.5370 -0.7287 -0.3707
 4374SOL    HW124581   1.309   1.083  13.120  0.4821 -2.9955  0.8174
 4374SOL    HW224582   1.238   0.967  13.064 -0.9024 -0.3757 -0.2935
 4375SOL     OW24583   3.326   4.358  17.539  0.1301 -0.1939  0.0268
 4375SOL    HW124584   3.289   4.372  17.626  3.5674  0.7585  1.3414
 4375SOL    HW224585   3.253   4.387  17.485  1.0864  0.0811 -1.1059
 4376SOL     OW24586   1.800   3.428  11.600  0.0148 -0.1219  0.0591
 4376SOL    HW124587   1.771   3.425  11.508  1.4468 -1.5387 -0.3481
 4376SOL    HW224588   1.865   3.498  11.603 -0.3801  0.2861 -0.7761
 4377SOL     OW24589   1.281   2.013   3.576  0.7364 -0.2518 -0.1880
 4377SOL    HW124590   1.308   2.088   3.629 -0.4180 -0.0154  0.0814
 4377SOL    HW224591   1.344   2.020   3.504 -0.6775  1.3548 -1.2914
 4378SOL     OW24592   1.346   1.497   6.267  0.2652 -0.3623 -0.2609
 4378SOL    HW124593   1.321   1.530   6.181  1.7169  0.7844 -0.2384
 4378SOL    HW224594   1.437   1.526   6.266  0.0215  0.4138  0.2661
 4379SOL     OW24595   1.855   2.331   5.975 -0.0750  0.1603  0.0574
 4379SOL    HW124596   1.949   2.316   5.962  0.3954  3.6203 -0.5714
 4379SOL    HW224597   1.856   2.382   6.056  1.7830 -2.1841  1.5190
 4380SOL     OW24598   2.306   1.043  11.288  0.0580 -0.8189 -0.0786
 4380SOL    HW124599   2.372   1.110  11.304  0.9461 -1.8200  0.4516
 4380SOL    HW224600   2.232   1.074  11.339  0.9371 -0.6347  1.0677
 4381SOL     OW24601   4.464   0.035   6.922  0.3206 -0.1669 -0.0393
 4381SOL    HW124602   4.542   0.046   6.976 -0.5733 -0.7044  1.3544
 4381SOL    HW224603   4.500   0.009   6.837  1.2778  1.2782 -0.0669
 4382SOL     OW24604   1.375   2.448   8.381 -0.0385 -1.3103 -0.1935
 4382SOL    HW124605   1.307   2.404   8.329  0.6054  0.7755 -2.8141
 4382SOL    HW224606   1.356   2.416   8.469  1.2279 -1.2494  0.1051
 4383SOL     OW24607   1.883   1.759   1.023 -0.2420  0.0474  0.2747
 4383SOL    HW124608   1.978   1.763   1.020 -0.2770 -0.5034 -1.5255
 4383SOL    HW224609   1.866   1.687   1.084 -1.3582  0.4238  0.4094
 4384SOL     OW24610   3.132   1.629   7.338 -0.0854 -0.0764 -0.2402
 4384SOL    HW124611   3.173   1.601   7.256  0.7919 -1.2199  0.5876
 4384SOL    HW224612   3.039   1.606   7.333 -0.5326  1.9966 -1.4607
 4385SOL     OW24613   0.913   1.183   5.840  0.2188 -0.8888  0.6283
 4385SOL    HW124614   1.007   1.165   5.842  0.6562  1.4830  1.0435
 4385SOL    HW224615   0.867   1.103   5.867  0.2614 -1.6461 -1.5244
 4386SOL     OW24616   1.802   3.218   7.474 -0.0960  1.3617  0.0220
 4386SOL    HW124617   1.889   3.230   7.512 -0.3651 -1.3467  1.4903
 4386SOL    HW224618   1.801   3.265   7.390 -1.6907  0.7997 -0.2671
 4387SOL     OW24619   3.758   2.989  17.396  0.3464  0.6650  0.4731
 4387SOL    HW124620   3.838   3.041  17.393 -0.2131  1.6062  2.2183
 4387SOL    HW224621   3.747   2.965  17.488 -0.6143 -0.0002  0.1872
 4388SOL     OW24622   3.381   0.901   8.483 -0.3506  0.0883  0.2775
 4388SOL    HW124623   3.414   0.812   8.490  1.5046  0.6575 -1.0557
 4388SOL    HW224624   3.327   0.922   8.559 -0.0959 -1.4406  0.8871
 4389SOL     OW24625   4.483   4.460   5.307  0.2252 -0.3430  0.0296
 4389SOL    HW124626   4.488   4.521   5.380 -0.1617  0.4114 -0.5743
 4389SOL    HW224627   4.575   4.463   5.280 -0.2665  1.9194 -1.4095
 4390SOL     OW24628   1.608   0.567   2.474 -0.5437  0.0300 -0.1954
 4390SOL    HW124629   1.614   0.625   2.398 -0.6929  1.3112  0.7742
 4390SOL    HW224630   1.688   0.594   2.518 -0.3728  0.3627 -0.7040
 4391SOL     OW24631   2.566   2.580   9.184  0.2158  0.4650  0.3098
 4391SOL    HW124632   2.529   2.492   9.181 -0.1377  0.5681  1.3687
 4391SOL    HW224633   2.501   2.634   9.230 -0.4469 -1.5045  1.6628
 4392SOL     OW24634   3.875   1.073  16.821 -0.8484 -0.2335  0.6014
 4392SOL    HW124635   3.892   1.125  16.742 -0.1980  1.1793  1.6602
 4392SOL    HW224636   3.860   1.137  16.891 -3.4109 -1.0628  0.7985
 4393SOL     OW24637   3.079   0.767  12.154  0.1216  0.2611  0.2503
 4393SOL    HW124638   3.120   0.800  12.234  1.4584 -1.3650  0.2379
 4393SOL    HW224639   3.150   0.755  12.092  0.4097  0.8491  0.4638
 4394SOL     OW24640   1.661   3.959   2.977 -0.2106 -0.1170  0.2798
 4394SOL    HW124641   1.577   3.991   3.010 -0.7032 -0.4365 -0.6653
 4394SOL    HW224642   1.713   4.021   3.029 -1.5692  0.4915  0.9289
 4395SOL     OW24643   2.478   4.467  17.050 -0.3949  0.0584 -0.5587
 4395SOL    HW124644   2.490   4.548  17.001  0.0377 -0.5065 -1.3746
 4395SOL    HW224645   2.532   4.489  17.127  0.2650 -2.3441 -0.3400
 4396SOL     OW24646   0.617   4.062   0.968 -0.1993 -0.0908 -0.4026
 4396SOL    HW124647   0.701   4.039   1.008 -1.9468 -2.6332  1.7683
 4396SOL    HW224648   0.550   4.006   1.007 -1.1212  0.9617 -0.4870
 4397SOL     OW24649   1.759   1.644   4.110 -0.5553 -0.1711  1.1926
 4397SOL    HW124650   1.812   1.618   4.034 -0.6699 -1.9385  1.7174
 4397SOL    HW224651   1.795   1.733   4.113  0.0853 -0.3955  0.3277
 4398SOL     OW24652   1.811   3.486  17.604 -0.4445  0.0029 -0.2125
 4398SOL    HW124653   1.887   3.539  17.581 -1.3342  2.1172  1.6525
 4398SOL    HW224654   1.815   3.499   0.001  1.7630 -0.1889 -0.3010
 4399SOL     OW24655   1.999   0.212  10.675 -0.1952  0.2614  0.7860
 4399SOL    HW124656   1.999   0.289  10.731  2.6657 -0.3277  1.6325
 4399SOL    HW224657   1.998   0.146  10.745  1.7090  1.1891  1.6781
 4400SOL     OW24658   2.288   3.652   3.107 -0.2892 -0.7916  0.0397
 4400SOL    HW124659   2.259   3.594   3.177  1.0949 -0.0304  1.2446
 4400SOL    HW224660   2.319   3.722   3.165  0.7849 -1.2370 -0.0087
 4401SOL     OW24661   0.576   1.244   8.899  0.0207 -0.4642 -0.2805
 4401SOL    HW124662   0.512   1.182   8.935 -0.9449  0.6522 -0.0810
 4401SOL    HW224663   0.605   1.294   8.975 -2.1784  2.1691 -1.1917
 4402SOL     OW24664   4.471   2.865  10.235 -0.0268  0.0839  0.4177
 4402SOL    HW124665   4.562   2.893  10.226 -0.3519  0.5058 -1.4894
 4402SOL    HW224666   4.428   2.894  10.155 -1.2033  0.5997  1.2322
 4403SOL     OW24667   3.996   1.354   7.033  0.2327  0.2510 -0.3351
 4403SOL    HW124668   4.011   1.301   7.112  2.3954 -1.1516 -1.6962
 4403SOL    HW224669   4.064   1.314   6.979  1.9600  0.9707  1.2804
 4404SOL     OW24670   1.263   3.539   4.973  0.3685  0.0581  0.2336
 4404SOL    HW124671   1.204   3.575   5.040 -0.3017 -0.7217  0.0547
 4404SOL    HW224672   1.254   3.606   4.905 -2.4513 -1.5962 -1.0408
 4405SOL     OW24673   0.429   1.838   5.891  0.2931 -0.0405  0.2843
 4405SOL    HW124674   0.351   1.890   5.871  1.3084  0.5032 -2.1971
 4405SOL    HW224675   0.435   1.792   5.808 -0.3195 -0.9061  0.7189
 4406SOL     OW24676   1.712   2.252  13.782 -0.5657  0.1572  0.4939
 4406SOL    HW124677   1.640   2.216  13.730  0.2118 -0.7079  0.0283
 4406SOL    HW224678   1.672   2.286  13.863  0.9237 -2.7037  2.4335
 4407SOL     OW24679   3.567   1.214   4.877  0.0418 -0.3090 -0.6865
 4407SOL    HW124680   3.641   1.255   4.921  2.2844 -2.7564 -2.1607
 4407SOL    HW224681   3.595   1.123   4.872  0.8370 -0.0325 -1.2465
 4408SOL     OW24682   0.718   3.402   4.089  0.2278 -0.2408  0.0819
 4408SOL    HW124683   0.720   3.413   3.994  0.4351 -1.7713 -0.0898
 4408SOL    HW224684   0.690   3.311   4.099 -1.7702  0.5225  1.4103
 4409SOL     OW24685   1.406   3.874   4.369  0.0218 -0.4169 -0.1629
 4409SOL    HW124686   1.338   3.902   4.308 -1.2896  2.3804  2.5651
 4409SOL    HW224687   1.449   3.958   4.388 -1.0345 -0.4012  2.0944
 4410SOL     OW24688   3.335   0.453  10.564  0.1653 -0.5036  0.5842
 4410SOL    HW124689   3.242   0.459  10.588  0.0825 -0.1273  0.1602
 4410SOL    HW224690   3.386   0.454  10.645 -1.0232  0.1096  1.3182
 4411SOL     OW24691   2.672   2.282   7.189 -0.3401 -0.5065  0.2329
 4411SOL    HW124692   2.577   2.283   7.188 -0.2982  1.1599 -2.1706
 4411SOL    HW224693   2.683   2.189   7.170 -1.0936 -0.1313 -2.0278
 4412SOL     OW24694   2.957   3.622   1.725  0.4188 -0.2273 -0.0152
 4412SOL    HW124695   2.990   3.709   1.703  1.0555 -0.5919 -0.4899
 4412SOL    HW224696   2.980   3.621   1.818  1.5553  0.5988 -0.2823
 4413SOL     OW24697   3.178   0.562   3.378  0.0655 -0.2338  0.2212
 4413SOL    HW124698   3.150   0.528   3.293 -0.7926  2.5197 -0.6299
 4413SOL    HW224699   3.232   0.637   3.354  0.2202 -0.4371 -0.0577
 4414SOL     OW24700   4.594   0.027   5.784  0.1687  0.0136  0.4788
 4414SOL    HW124701   4.644   4.705   5.851 -0.9984 -0.5849  0.9416
 4414SOL    HW224702   4.661   0.062   5.726 -0.8397 -0.0086 -0.7079
 4415SOL     OW24703   4.540   2.242   6.729  0.1453  0.1410  0.5844
 4415SOL    HW124704   4.542   2.162   6.781 -0.0864  0.6946  1.4484
 4415SOL    HW224705   4.504   2.197   6.653 -0.8516 -0.9684  1.7149
 4416SOL     OW24706   1.981   0.153   6.667  0.2207  0.1420 -0.4413
 4416SOL    HW124707   1.992   0.246   6.688 -2.5918  0.6093 -1.1266
 4416SOL    HW224708   1.922   0.130   6.738  2.2625  2.7303  2.1122
 4417SOL     OW24709   0.415   2.525   4.159  0.3151  0.4528 -0.6496
 4417SOL    HW124710   0.499   2.568   4.174  0.6905 -0.6057  0.2876
 4417SOL    HW224711   0.360   2.560   4.229 -0.8515 -0.9987 -0.8403
 4418SOL     OW24712   4.210   1.148   3.047 -0.7334 -1.1727 -0.0927
 4418SOL    HW124713   4.284   1.091   3.071 -0.7935 -2.3447 -2.7019
 4418SOL    HW224714   4.163   1.101   2.979 -0.5227  0.9395 -1.6959
 4419SOL     OW24715   3.125   4.568   4.435 -0.0093 -0.0581  0.0492
 4419SOL    HW124716   3.118   4.592   4.343 -0.0105 -0.5923 -0.0872
 4419SOL    HW224717   3.032   4.550   4.449 -0.4323 -0.1317 -2.9442
 4420SOL     OW24718   1.649   1.061   2.669 -0.2412  0.4665  0.1466
 4420SOL    HW124719   1.662   0.990   2.606 -1.7802  0.6591 -0.3691
 4420SOL    HW224720   1.719   1.120   2.641  1.4124 -1.2638  0.6122
 4421SOL     OW24721   1.847   2.260   9.105  0.1120 -0.1678 -0.6926
 4421SOL    HW124722   1.762   2.282   9.065  0.2704 -0.3265 -1.1238
 4421SOL    HW224723   1.832   2.182   9.159 -0.9383 -0.6472 -1.6637
 4422SOL     OW24724   3.706   2.568   6.025 -0.2220  0.3539  0.3264
 4422SOL    HW124725   3.673   2.508   6.092  2.3103 -1.8450 -0.3578
 4422SOL    HW224726   3.693   2.653   6.066 -1.1366  0.1494  0.4509
 4423SOL     OW24727   2.932   2.624   1.579  0.2194 -0.2765 -0.0220
 4423SOL    HW124728   2.970   2.631   1.667 -0.0202  2.1284 -0.1221
 4423SOL    HW224729   2.998   2.562   1.548 -0.5270  0.1367 -2.4015
 4424SOL     OW24730   0.102   1.678   6.717  0.0514  0.1683  0.3788
 4424SOL    HW124731   0.141   1.618   6.780  3.3435 -1.3487 -3.1220
 4424SOL    HW224732   0.143   1.658   6.634  0.3470  1.9551  0.0812
 4425SOL     OW24733   1.442   0.716  10.655 -0.4495  0.0555 -0.0947
 4425SOL    HW124734   1.433   0.679  10.567 -3.0298 -0.1577  0.2751
 4425SOL    HW224735   1.531   0.688  10.679 -0.4525  0.9458  0.9128
 4426SOL     OW24736   3.994   1.157   5.739 -0.0181  0.3343  0.3228
 4426SOL    HW124737   3.963   1.147   5.829 -1.4139 -2.7939 -0.5159
 4426SOL    HW224738   4.089   1.156   5.750  0.0714 -0.9186 -0.6501
 4427SOL     OW24739   3.489   0.683   4.047 -0.0411 -0.3809 -0.4053
 4427SOL    HW124740   3.483   0.686   3.952  2.1337  0.0448 -0.5258
 4427SOL    HW224741   3.470   0.589   4.058  0.0113 -0.2867  0.4542
 4428SOL     OW24742   3.354   3.760   7.636 -0.2275  0.5196  0.3709
 4428SOL    HW124743   3.392   3.710   7.708 -0.6916 -1.1799 -0.5622
 4428SOL    HW224744   3.326   3.843   7.675 -0.4325 -0.8475  3.0707
 4429SOL     OW24745   3.187   3.650   5.230 -0.0282  0.3152  0.5222
 4429SOL    HW124746   3.279   3.656   5.206 -0.4972  1.6404 -0.9310
 4429SOL    HW224747   3.176   3.575   5.288 -1.7027 -0.8464 -1.2675
 4430SOL     OW24748   1.858   0.464  10.334  0.3862 -0.0052 -0.1608
 4430SOL    HW124749   1.782   0.410  10.355 -0.5345  1.4290  0.1715
 4430SOL    HW224750   1.931   0.411  10.367 -0.8499 -1.0140  0.9095
 4431SOL     OW24751   2.535   2.485  13.254 -0.0105 -0.3157 -0.2781
 4431SOL    HW124752   2.485   2.564  13.231 -2.2359 -1.4320  0.6998
 4431SOL    HW224753   2.463   2.428  13.280 -1.4716  0.8121 -1.7950
 4432SOL     OW24754   3.780   3.583   7.333 -0.0945  0.0963  0.1588
 4432SOL    HW124755   3.756   3.676   7.327 -1.3882 -0.1596  1.1969
 4432SOL    HW224756   3.699   3.542   7.364  0.8514 -1.2360  0.8825
 4433SOL     OW24757   4.419   2.112   6.540 -0.2775  0.4976  0.0757
 4433SOL    HW124758   4.464   2.028   6.550  1.6372  1.4896 -0.3416
 4433SOL    HW224759   4.332   2.078   6.519 -0.5319  1.1107  0.1344
 4434SOL     OW24760   0.696   2.623  15.306  0.5022 -0.7645 -0.5174
 4434SOL    HW124761   0.643   2.615  15.227  0.1140 -0.8291 -0.2509
 4434SOL    HW224762   0.757   2.552  15.288  2.0825  0.8838 -1.6651
 4435SOL     OW24763   3.617   4.377  17.518 -0.3381 -0.6443 -0.4880
 4435SOL    HW124764   3.522   4.370  17.507 -0.4089 -0.4816  0.0158
 4435SOL    HW224765   3.641   4.469  17.504  3.0068 -1.2852  1.1461
 4436SOL     OW24766   4.286   0.915  11.767  0.5755  0.0708 -0.0700
 4436SOL    HW124767   4.301   0.837  11.714 -1.5064 -0.2875 -0.1320
 4436SOL    HW224768   4.337   0.890  11.844 -0.7329 -0.1547  0.7179
 4437SOL     OW24769   1.750   4.596   8.463  0.7547 -0.1468  0.0063
 4437SOL    HW124770   1.828   4.546   8.486  1.8766  0.9321 -1.5308
 4437SOL    HW224771   1.759   4.627   8.373 -2.4332 -1.1314 -0.6721
 4438SOL     OW24772   2.390   3.150   0.107  0.5730 -0.0113 -0.1853
 4438SOL    HW124773   2.316   3.174   0.163  2.3424  1.0505  1.6901
 4438SOL    HW224774   2.353   3.082   0.051 -0.4871  0.0847  0.3982
 4439SOL     OW24775   0.541   4.509   5.708  0.1386  0.1726  0.5059
 4439SOL    HW124776   0.459   4.499   5.661  0.4644 -1.3008  0.2470
 4439SOL    HW224777   0.607   4.514   5.639  0.0429  1.8933  0.5397
 4440SOL     OW24778   3.007   1.196   4.474 -0.1440  0.7036  0.0447
 4440SOL    HW124779   3.042   1.266   4.529 -0.6456 -0.6366  2.0802
 4440SOL    HW224780   2.998   1.243   4.390 -1.3377 -0.8949 -0.7214
 4441SOL     OW24781   4.388   0.137   3.324 -0.3881  0.0699 -0.3359
 4441SOL    HW124782   4.347   0.190   3.393 -0.2286 -0.4289  0.1414
 4441SOL    HW224783   4.306   0.109   3.282 -1.2315 -0.9113  1.9757
 4442SOL     OW24784   2.253   1.531   5.718  0.3933 -0.5977 -0.5885
 4442SOL    HW124785   2.196   1.605   5.735 -0.0429 -1.4871  1.8826
 4442SOL    HW224786   2.200   1.487   5.652 -1.2668 -0.7989  0.8902
 4443SOL     OW24787   0.652   2.020   5.313  0.5676 -0.0796  0.3139
 4443SOL    HW124788   0.571   1.968   5.313 -0.7660  1.9524  1.2405
 4443SOL    HW224789   0.619   2.105   5.283  0.0502 -0.9603 -1.6299
 4444SOL     OW24790   1.292   0.007   1.729 -0.3553  0.0246 -0.1159
 4444SOL    HW124791   1.291   0.009   1.824 -0.4699 -2.1817 -0.0619
 4444SOL    HW224792   1.322   0.097   1.716 -1.0500  0.3505  0.5195
 4445SOL     OW24793   0.848   2.416  11.279  0.1980 -0.5003  0.4565
 4445SOL    HW124794   0.829   2.356  11.350 -2.1302 -0.2950  0.0049
 4445SOL    HW224795   0.912   2.369  11.224  0.1742 -2.3082  1.9875
 4446SOL     OW24796   1.709   2.937   4.862  0.2529 -0.8575  0.3625
 4446SOL    HW124797   1.656   2.927   4.784  2.0290 -0.6317 -0.8671
 4446SOL    HW224798   1.733   2.845   4.876 -1.7191 -1.7213 -1.9736
 4447SOL     OW24799   1.215   1.010  13.389 -0.1353 -0.0210 -0.0432
 4447SOL    HW124800   1.274   1.081  13.363  4.1128 -2.1320  3.9526
 4447SOL    HW224801   1.145   1.058  13.432  0.0377  2.2900 -2.3986
 4448SOL     OW24802   3.643   0.747   8.926 -0.2164  0.5634  0.0001
 4448SOL    HW124803   3.705   0.679   8.953 -1.3360  0.4717  2.3731
 4448SOL    HW224804   3.708   0.811   8.898  0.8086 -0.7825 -0.6693
 4449SOL     OW24805   0.450   0.664  15.119 -0.5240 -0.2891 -0.1641
 4449SOL    HW124806   0.452   0.579  15.162 -1.4014 -0.4501 -0.4509
 4449SOL    HW224807   0.373   0.652  15.064 -0.5867  0.7413 -0.3016
 4450SOL     OW24808   2.375   2.914   0.362  0.1379 -0.4859  0.4942
 4450SOL    HW124809   2.384   2.902   0.268  2.1971 -3.1496  1.0260
 4450SOL    HW224810   2.325   2.837   0.389 -1.8606  0.2143 -1.1637
 4451SOL     OW24811   4.723   2.742   2.308  0.1595 -0.2565 -0.1331
 4451SOL    HW124812   0.010   2.837   2.314  0.1017 -0.1985 -1.0065
 4451SOL    HW224813   4.664   2.731   2.233 -1.4042 -0.6624  1.1502
 4452SOL     OW24814   2.323   4.396   1.890  0.4014  0.0139  0.0858
 4452SOL    HW124815   2.308   4.479   1.845 -0.4467 -0.4317 -0.4542
 4452SOL    HW224816   2.379   4.346   1.830  0.5922  0.0279  0.2527
 4453SOL     OW24817   3.738   1.739   5.879  0.3598  0.5790 -0.5050
 4453SOL    HW124818   3.815   1.751   5.823  0.3012  0.0975 -0.6851
 4453SOL    HW224819   3.739   1.821   5.929  1.1976  0.4446 -0.3069
 4454SOL     OW24820   3.124   0.375   5.002 -0.3454  0.1073  0.1976
 4454SOL    HW124821   3.205   0.403   5.043 -1.0493 -1.0374  2.3554
 4454SOL    HW224822   3.130   0.407   4.912  1.6702  3.1072  1.3929
 4455SOL     OW24823   0.181   3.109   1.063 -0.6961  0.6329 -0.0060
 4455SOL    HW124824   0.271   3.079   1.054 -0.4388  1.5894 -0.5939
 4455SOL    HW224825   0.171   3.148   0.976  0.0587 -1.4194 -1.0223
 4456SOL     OW24826   4.486   3.852   0.047 -0.6468  0.2934 -0.4077
 4456SOL    HW124827   4.547   3.861   0.119 -0.6731  2.1783 -0.6312
 4456SOL    HW224828   4.536   3.831  17.666 -0.5319 -0.2795 -0.1811
 4457SOL     OW24829   3.860   0.735   1.817  0.0403 -0.0747 -0.2920
 4457SOL    HW124830   3.832   0.802   1.879 -1.1439  1.3458 -2.3648
 4457SOL    HW224831   3.837   0.656   1.866 -3.2036  1.6344  0.9165
 4458SOL     OW24832   0.873   4.091  15.145  0.4224 -0.5984  0.2787
 4458SOL    HW124833   0.824   4.146  15.085  0.5478  0.5717  1.2546
 4458SOL    HW224834   0.820   4.012  15.154 -0.4437 -0.0532 -0.0507
 4459SOL     OW24835   0.451   3.690   2.779 -0.1326 -0.2223 -0.3322
 4459SOL    HW124836   0.429   3.598   2.789 -1.9183  0.4983  2.3085
 4459SOL    HW224837   0.372   3.736   2.807 -0.8783 -1.1525 -0.9208
 4460SOL     OW24838   1.170   4.483   9.127  0.2837 -0.1733  0.1809
 4460SOL    HW124839   1.179   4.550   9.058 -0.5573  1.0769  1.2976
 4460SOL    HW224840   1.077   4.466   9.117  0.2841  0.4691 -0.9195
 4461SOL     OW24841   1.474   3.925  17.146 -0.2560 -0.5019 -0.3800
 4461SOL    HW124842   1.425   3.847  17.172  1.2094 -2.0528 -2.2470
 4461SOL    HW224843   1.519   3.871  17.081 -0.0691 -1.5798  0.6298
 4462SOL     OW24844   2.671   1.544   5.993 -0.1110  0.7747 -0.0881
 4462SOL    HW124845   2.683   1.541   5.899 -1.2622  0.1949 -0.2186
 4462SOL    HW224846   2.594   1.600   6.005 -0.9892 -0.4610  0.0569
 4463SOL     OW24847   0.217   4.400  13.393 -0.0732  0.2963  0.3937
 4463SOL    HW124848   0.285   4.360  13.447 -0.4324  2.5322  2.4596
 4463SOL    HW224849   0.156   4.442  13.453 -0.4789  1.2411 -0.6787
 4464SOL     OW24850   3.425   0.875  11.333  0.0192  0.1296  0.2521
 4464SOL    HW124851   3.488   0.939  11.299  0.1772 -0.9184 -1.4305
 4464SOL    HW224852   3.481   0.799  11.316 -0.5352  0.0979 -1.4371
 4465SOL     OW24853   1.937   3.585   4.606  0.4876 -0.0968 -0.1325
 4465SOL    HW124854   2.015   3.593   4.660  0.7256 -0.1892 -0.4653
 4465SOL    HW224855   1.881   3.534   4.665  1.0593 -1.8079 -1.0576
 4466SOL     OW24856   0.963   4.180   6.893  0.1889  0.5006  0.5505
 4466SOL    HW124857   0.924   4.266   6.876 -0.2672  0.4042  1.1108
 4466SOL    HW224858   0.884   4.126   6.900  1.6499 -1.6363  0.3119
 4467SOL     OW24859   1.272   3.367   9.692  0.0758  0.3102  0.4825
 4467SOL    HW124860   1.367   3.376   9.692 -0.0807  1.9976 -0.2344
 4467SOL    HW224861   1.250   3.427   9.621 -0.5481 -0.7265 -0.2184
 4468SOL     OW24862   0.662   3.151   6.445 -0.3256  0.2414  0.4157
 4468SOL    HW124863   0.644   3.057   6.450  1.4473 -0.1642 -0.5353
 4468SOL    HW224864   0.665   3.163   6.540 -0.2678 -2.2268  0.7227
 4469SOL     OW24865   0.983   2.286   0.346 -0.0126  0.4241 -0.3511
 4469SOL    HW124866   1.012   2.198   0.368 -1.9574 -0.4983 -1.4632
 4469SOL    HW224867   0.889   2.270   0.351 -0.0257  0.8718  0.8477
 4470SOL     OW24868   0.932   1.121  17.229  0.0830  0.6316 -0.3917
 4470SOL    HW124869   1.018   1.150  17.197  0.5054  2.2717  2.2405
 4470SOL    HW224870   0.909   1.070  17.152 -0.4960 -1.7383  1.3311
 4471SOL     OW24871   3.800   2.851   6.649 -0.2971 -0.3262 -0.2652
 4471SOL    HW124872   3.736   2.901   6.699  0.5574  0.1855  0.3042
 4471SOL    HW224873   3.879   2.903   6.663 -0.0584 -0.3110 -1.6372
 4472SOL     OW24874   4.477   4.196   6.217 -0.2065 -0.7358 -0.9606
 4472SOL    HW124875   4.446   4.109   6.240  0.7291 -0.6359  0.6620
 4472SOL    HW224876   4.555   4.177   6.165  0.6363  1.0588 -0.3541
 4473SOL     OW24877   3.688   4.057   5.961  0.1197  0.3405 -0.3197
 4473SOL    HW124878   3.749   4.066   6.035  0.3166 -0.4589 -0.3836
 4473SOL    HW224879   3.607   4.092   5.997  0.1581  0.9307 -0.8056
 4474SOL     OW24880   3.704   4.388   6.199 -0.5497  0.3315  0.2492
 4474SOL    HW124881   3.784   4.389   6.146 -0.3552 -0.1571  0.5353
 4474SOL    HW224882   3.750   4.362   6.279 -1.9176  1.7859  1.4969
 4475SOL     OW24883   2.558   2.234   6.580  0.3150  0.7402  0.0802
 4475SOL    HW124884   2.605   2.245   6.497  2.6304 -3.0568  0.8842
 4475SOL    HW224885   2.476   2.280   6.563 -0.4449 -0.6881 -0.1179
 4476SOL     OW24886   4.252   4.631   4.005  0.1087  0.3349 -0.5747
 4476SOL    HW124887   4.320   4.696   4.017 -2.0824  2.3991  0.6092
 4476SOL    HW224888   4.287   4.567   3.942  0.1387  0.6104 -0.8371
 4477SOL     OW24889   1.468   2.619   6.961  0.1030 -0.2760  0.0422
 4477SOL    HW124890   1.378   2.588   6.954 -0.1006  0.2952  0.1647
 4477SOL    HW224891   1.499   2.547   7.017  3.4820  0.6678 -0.6081
 4478SOL     OW24892   2.082   4.716   2.568  0.5473  0.0919  0.3055
 4478SOL    HW124893   2.141   0.038   2.508 -1.2789 -0.8652 -2.2093
 4478SOL    HW224894   2.057   4.637   2.520 -0.0915  0.4050  0.1220
 4479SOL     OW24895   0.207   0.741   2.931 -0.5609  0.9475 -0.1500
 4479SOL    HW124896   0.211   0.774   2.841 -1.7468 -1.7590 -1.1864
 4479SOL    HW224897   0.179   0.653   2.907 -1.8896  1.4591 -0.4770
 4480SOL     OW24898   4.419   3.955   6.293  0.1925  0.0486 -0.0155
 4480SOL    HW124899   4.494   3.897   6.278  0.8552  1.0315 -0.5356
 4480SOL    HW224900   4.346   3.895   6.277  1.7131 -2.0422  0.8805
 4481SOL     OW24901   1.496   1.639   2.298 -0.4085 -0.4187  0.0781
 4481SOL    HW124902   1.428   1.576   2.318 -0.1743 -0.4488  0.7845
 4481SOL    HW224903   1.549   1.644   2.378 -0.4116  0.2919  0.0357
 4482SOL     OW24904   3.738   3.717   3.778 -0.3093  0.1192  0.2263
 4482SOL    HW124905   3.711   3.809   3.776 -1.7991 -0.3101  0.3830
 4482SOL    HW224906   3.771   3.718   3.867 -0.9981 -0.7956  0.4923
 4483SOL     OW24907   2.477   3.048  15.690  0.1405 -0.0660  0.5967
 4483SOL    HW124908   2.523   3.132  15.680  1.0469 -0.5958  0.3850
 4483SOL    HW224909   2.499   3.027  15.781  1.6664  0.4947  0.3544
 4484SOL     OW24910   0.978   4.201   5.976  0.8383 -0.5602 -0.2672
 4484SOL    HW124911   0.899   4.249   5.951  0.6201 -1.0510 -0.5366
 4484SOL    HW224912   0.964   4.167   6.064  2.0331  1.1778  0.5794
 4485SOL     OW24913   2.899   3.868   6.239 -0.8075  0.2627 -0.9866
 4485SOL    HW124914   2.812   3.891   6.206 -0.9946  1.3033  0.2396
 4485SOL    HW224915   2.927   3.806   6.171  1.4163  0.6181 -0.3863
 4486SOL     OW24916   4.710   2.861   2.879  0.7163  0.7089 -0.6738
 4486SOL    HW124917   4.677   2.805   2.949  4.4667 -2.7024 -1.6094
 4486SOL    HW224918   0.062   2.902   2.920  0.0005  1.9698 -0.6189
 4487SOL     OW24919   3.124   2.713  10.063 -0.1290  0.2869 -0.1647
 4487SOL    HW124920   3.169   2.794  10.085 -0.2783  0.4315 -0.3886
 4487SOL    HW224921   3.117   2.671  10.149  3.1859  2.4848  1.1812
 4488SOL     OW24922   3.601   0.894   2.900  0.1090  0.6654 -0.2455
 4488SOL    HW124923   3.659   0.907   2.975 -1.0942 -0.0258  0.8051
 4488SOL    HW224924   3.541   0.966   2.921 -1.4807 -1.0135  0.9416
 4489SOL     OW24925   1.253   0.655  11.833  0.4663 -0.0016  0.1569
 4489SOL    HW124926   1.328   0.712  11.814 -0.8338  1.1231 -1.5831
 4489SOL    HW224927   1.246   0.596  11.758  0.7838  0.0743  0.0648
 4490SOL     OW24928   3.583   4.597   3.200 -0.4503  0.0871  0.6288
 4490SOL    HW124929   3.630   4.522   3.237  1.0216  1.3541  1.3143
 4490SOL    HW224930   3.617   4.660   3.264 -0.7830 -0.0780  0.9704
 4491SOL     OW24931   1.463   3.570   8.292 -0.0563  0.2030  0.1729
 4491SOL    HW124932   1.423   3.534   8.371  0.9023 -1.8986 -0.2948
 4491SOL    HW224933   1.535   3.508   8.280 -0.5089 -0.0587 -1.2558
 4492SOL     OW24934   0.865   3.720   6.289 -0.1952  0.4680  0.1253
 4492SOL    HW124935   0.902   3.777   6.221 -0.0609  1.3575  0.9509
 4492SOL    HW224936   0.886   3.628   6.271 -0.1396  0.7220 -1.1310
 4493SOL     OW24937   4.187   3.163   6.651  0.1273  0.2196  0.2826
 4493SOL    HW124938   4.121   3.228   6.629  0.9292  1.7319  2.3117
 4493SOL    HW224939   4.122   3.094   6.665  2.4253 -1.7956  1.1730
 4494SOL     OW24940   0.517   0.778  13.123  0.7204 -0.2870 -0.0777
 4494SOL    HW124941   0.568   0.805  13.199  0.6549 -0.1024 -0.0987
 4494SOL    HW224942   0.499   0.689  13.155 -1.5005  0.3821  0.5479
 4495SOL     OW24943   4.500   4.217  14.977  0.1081  0.1665 -0.2245
 4495SOL    HW124944   4.594   4.229  14.989  0.4584 -0.3367 -2.4532
 4495SOL    HW224945   4.495   4.278  14.903 -0.9428 -2.9441 -2.7186
 4496SOL     OW24946   3.382   1.075  16.611  0.3070  0.3587 -0.0661
 4496SOL    HW124947   3.437   1.018  16.557 -1.6738 -0.7546 -0.8834
 4496SOL    HW224948   3.419   1.047  16.695  2.3381 -0.9854 -1.4021
 4497SOL     OW24949   0.555   1.471   7.488 -0.3320 -0.0562  0.3466
 4497SOL    HW124950   0.626   1.536   7.493 -1.7807  1.4428  1.3692
 4497SOL    HW224951   0.485   1.535   7.473  0.1801  0.4627  0.1461
 4498SOL     OW24952   3.658   4.271   4.871  0.8149  0.1117 -0.5868
 4498SOL    HW124953   3.639   4.201   4.933  2.0108 -0.4872 -0.8989
 4498SOL    HW224954   3.572   4.297   4.839 -0.0507  0.3117  1.9328
 4499SOL     OW24955   0.915   3.561   6.917  0.5063 -0.3882 -0.1785
 4499SOL    HW124956   0.903   3.630   6.852 -1.4769 -0.6942 -0.1523
 4499SOL    HW224957   1.009   3.562   6.933  0.5542  3.9808 -0.7941
 4500SOL     OW24958   2.831   2.949   7.671 -0.1817 -0.5007  0.6010
 4500SOL    HW124959   2.914   2.995   7.658 -0.9513 -0.1977 -3.0257
 4500SOL    HW224960   2.860   2.884   7.736  0.7847 -1.0598 -0.3912
 4501SOL     OW24961   2.380   1.987   6.152 -0.2811  0.3148  0.6574
 4501SOL    HW124962   2.437   1.966   6.227  0.5601  3.5624  0.9067
 4501SOL    HW224963   2.441   2.044   6.105  1.6112 -1.5970  0.7797
 4502SOL     OW24964   0.755   2.244   6.016  0.0205  0.6278  0.3088
 4502SOL    HW124965   0.774   2.157   6.051 -1.8203 -0.7112 -1.9492
 4502SOL    HW224966   0.840   2.262   5.975  0.7657 -2.4388  0.5394
 4503SOL     OW24967   4.415   0.955   7.509 -0.2629 -0.2077 -0.1538
 4503SOL    HW124968   4.403   0.862   7.490  1.7612 -0.9477  2.2315
 4503SOL    HW224969   4.496   0.970   7.461  0.9527  0.2962  2.0829
 4504SOL     OW24970   3.339   3.834   4.434  0.9118 -0.1736 -0.1010
 4504SOL    HW124971   3.428   3.853   4.404  1.5660 -1.2910  1.1394
 4504SOL    HW224972   3.328   3.756   4.380 -0.2168  0.2023 -0.4169
 4505SOL     OW24973   1.550   1.287   3.136 -0.0824  0.5833 -0.1684
 4505SOL    HW124974   1.520   1.223   3.071 -3.0540  2.3084 -0.4815
 4505SOL    HW224975   1.620   1.327   3.085  1.2604  0.0292  1.2109
 4506SOL     OW24976   0.982   1.108  13.533  0.7183 -0.1318  0.6100
 4506SOL    HW124977   0.956   1.176  13.471  1.2797 -0.7582 -0.3140
 4506SOL    HW224978   0.902   1.055  13.537 -0.3923  1.5406  0.5753
 4507SOL     OW24979   3.605   2.363   7.410 -0.3560  0.4557  0.2675
 4507SOL    HW124980   3.604   2.292   7.346  0.0807 -0.9463  1.8199
 4507SOL    HW224981   3.699   2.365   7.425 -0.0290 -1.6797 -1.4662
 4508SOL     OW24982   3.000   4.219   5.597  0.1181  0.1330  0.1454
 4508SOL    HW124983   2.982   4.130   5.627  0.1645  0.0628 -0.0362
 4508SOL    HW224984   3.092   4.213   5.571 -0.3964 -0.5404 -1.5326
 4509SOL     OW24985   4.522   3.541   9.841  0.0388 -0.4876  0.4486
 4509SOL    HW124986   4.492   3.472   9.782 -1.9481 -0.2863  1.2053
 4509SOL    HW224987   4.440   3.586   9.862  0.2444  0.6485 -1.2238
 4510SOL     OW24988   2.254   0.148  10.334  0.1501  0.0930 -0.4494
 4510SOL    HW124989   2.255   0.052  10.332  4.5461  0.1293 -1.0557
 4510SOL    HW224990   2.337   0.161  10.289 -0.3682 -0.5575 -1.5806
 4511SOL     OW24991   4.534   1.738   2.788  0.1616  0.7136 -0.2965
 4511SOL    HW124992   4.525   1.644   2.776  0.5347  0.5563  0.6612
 4511SOL    HW224993   4.487   1.751   2.870  2.0596  1.4403  0.6822
 4512SOL     OW24994   3.061   0.276   5.365  0.0844  0.0650  0.0954
 4512SOL    HW124995   3.050   0.345   5.299  4.1314 -0.5736 -1.2613
 4512SOL    HW224996   3.148   0.247   5.339  0.6118  0.3649  1.4796
 4513SOL     OW24997   3.774   2.704   2.111  0.2460 -0.6229 -0.2721
 4513SOL    HW124998   3.746   2.684   2.200  1.2293 -3.9321 -0.6727
 4513SOL    HW224999   3.701   2.680   2.055 -0.4585 -1.0676  0.8514
 4514SOL     OW25000   0.825   1.063   5.123 -0.6526 -0.4263 -0.4508
 4514SOL    HW125001   0.844   1.029   5.036  0.2395 -1.7656  0.2652
 4514SOL    HW225002   0.910   1.096   5.152 -0.8898 -1.8957  1.9403
 4515SOL     OW25003   2.221   3.356   1.052 -0.0443 -0.1894  0.7762
 4515SOL    HW125004   2.237   3.337   1.144  0.3347 -0.5587  0.6327
 4515SOL    HW225005   2.263   3.280   1.012  1.3458  0.4550  1.0027
 4516SOL     OW25006   2.134   2.184  14.502 -0.0022 -0.4519 -0.7885
 4516SOL    HW125007   2.171   2.269  14.476  0.8023 -1.0652 -1.6209
 4516SOL    HW225008   2.100   2.154  14.418 -0.2486 -0.1950 -0.7795
 4517SOL     OW25009   1.713   4.106  14.818  0.4827 -0.2159 -0.0252
 4517SOL    HW125010   1.729   4.200  14.818 -2.4177  0.2521  3.4090
 4517SOL    HW225011   1.645   4.105  14.885  0.5658 -0.9860  0.0539
 4518SOL     OW25012   1.611   0.349   3.870 -0.2040 -0.1303  0.1157
 4518SOL    HW125013   1.525   0.329   3.907 -0.0001 -0.3628  0.4620
 4518SOL    HW225014   1.667   0.289   3.919 -0.2819 -2.1441 -2.2524
 4519SOL     OW25015   4.501   4.013   2.144 -0.0595  0.1566 -0.0085
 4519SOL    HW125016   4.409   3.990   2.148  0.1105 -0.6458 -0.8255
 4519SOL    HW225017   4.517   3.965   2.063  2.4363  1.9796 -0.6406
 4520SOL     OW25018   2.585   4.612  16.169  0.1499 -0.0910 -0.3903
 4520SOL    HW125019   2.660   4.632  16.224  0.4111 -0.6851 -0.5278
 4520SOL    HW225020   2.593   4.666  16.091  0.0894  0.1180 -0.2504
 4521SOL     OW25021   2.429   2.103   8.002 -0.2924  0.0383  0.3010
 4521SOL    HW125022   2.422   2.186   7.955 -0.3530 -0.3403 -0.3682
 4521SOL    HW225023   2.518   2.080   7.973 -0.6931 -2.7069  1.2694
 4522SOL     OW25024   0.143   3.960   9.067 -0.4123  0.7575 -0.2192
 4522SOL    HW125025   0.156   3.866   9.054  0.7891  1.2788 -2.8025
 4522SOL    HW225026   0.048   3.969   9.065 -0.4420  0.3736 -0.4736
 4523SOL     OW25027   3.590   0.045   1.244 -0.1855 -0.4064 -0.2740
 4523SOL    HW125028   3.638   0.075   1.167 -0.4944  0.7776 -0.0172
 4523SOL    HW225029   3.587   4.674   1.233  2.0031 -0.5347  0.1420
 4524SOL     OW25030   1.124   1.551   5.467 -0.6603 -0.2808  0.3541
 4524SOL    HW125031   1.077   1.469   5.460  0.2376 -0.5389 -2.3698
 4524SOL    HW225032   1.139   1.576   5.376 -1.7733 -0.1725  0.2102
 4525SOL     OW25033   2.518   2.276   8.765 -0.0095  0.3345  0.3773
 4525SOL    HW125034   2.588   2.212   8.779 -0.1971  0.0973  0.2404
 4525SOL    HW225035   2.549   2.350   8.817  1.7893  0.8689 -1.4720
 4526SOL     OW25036   0.844   3.563   2.088 -0.2633 -0.4560  0.0659
 4526SOL    HW125037   0.830   3.650   2.126  1.2637 -0.1875  0.0210
 4526SOL    HW225038   0.760   3.522   2.111 -0.3613  0.3520  1.1478
 4527SOL     OW25039   3.004   4.570   8.239  0.5407  0.3073 -0.1257
 4527SOL    HW125040   3.064   4.498   8.257  1.2166  1.4258  2.0831
 4527SOL    HW225041   3.042   4.613   8.162 -2.7294  2.6931 -0.4145
 4528SOL     OW25042   4.500   4.681   5.504  0.6021 -0.0210 -0.1107
 4528SOL    HW125043   4.568   0.024   5.506 -0.9528  1.5660 -0.5252
 4528SOL    HW225044   4.529   4.633   5.582  2.3487  2.1862  0.6126
 4529SOL     OW25045   0.050   3.166  13.648  0.3948 -0.4002 -0.2055
 4529SOL    HW125046   0.008   3.105  13.587 -0.2360 -2.3145  2.1087
 4529SOL    HW225047   4.715   3.241  13.646 -1.5128 -1.8903  0.3410
 4530SOL     OW25048   1.764   3.337   5.088  0.4890  0.1219 -0.4485
 4530SOL    HW125049   1.833   3.404   5.090  3.0996 -2.6416  1.6700
 4530SOL    HW225050   1.819   3.265   5.057  0.1661 -0.7837  1.0897
 4531SOL     OW25051   1.311   2.180   6.608 -0.1044 -0.1522 -0.6069
 4531SOL    HW125052   1.293   2.122   6.535 -0.9475  0.9635 -1.2848
 4531SOL    HW225053   1.277   2.136   6.686  0.8228  0.3927  0.1097
 4532SOL     OW25054   3.416   1.931   4.289 -0.0884 -0.3152  0.8587
 4532SOL    HW125055   3.452   2.013   4.255  1.7897 -2.2342 -1.8651
 4532SOL    HW225056   3.493   1.904   4.340 -0.6425  1.4888  2.6290
 4533SOL     OW25057   3.864   0.093   9.736  0.0177  0.0244 -0.3390
 4533SOL    HW125058   3.920   0.133   9.803 -0.3288  2.8928 -1.7332
 4533SOL    HW225059   3.870   0.169   9.677 -0.2933 -0.9461 -1.6355
 4534SOL     OW25060   2.225   4.106   5.360 -0.5757 -0.0776  0.0310
 4534SOL    HW125061   2.229   4.045   5.286 -0.2188  0.5138 -0.4373
 4534SOL    HW225062   2.289   4.053   5.407  0.4009  1.4869  0.4651
 4535SOL     OW25063   3.690   2.517  16.141  0.1367  0.1145  0.1116
 4535SOL    HW125064   3.784   2.530  16.155 -0.4581  1.5405  2.9193
 4535SOL    HW225065   3.662   2.578  16.210  0.0830  1.2368 -0.9141
 4536SOL     OW25066   1.233   0.728   1.434  0.6267  0.4317 -0.5491
 4536SOL    HW125067   1.306   0.736   1.497 -0.2876 -0.1878  0.5950
 4536SOL    HW225068   1.211   0.821   1.424 -0.8582  0.1506  0.0814
 4537SOL     OW25069   0.080   2.149   4.770  0.3661  0.0251  0.1276
 4537SOL    HW125070   4.724   2.157   4.718  0.9863  2.4452 -0.4748
 4537SOL    HW225071   0.146   2.184   4.710 -0.0087  1.3333  0.4874
 4538SOL     OW25072   3.726   1.011   3.139  0.1503  0.3029  0.1115
 4538SOL    HW125073   3.816   1.033   3.165  1.1212 -0.8125 -2.3257
 4538SOL    HW225074   3.703   1.092   3.094  1.9692  0.7537 -0.0196
 4539SOL     OW25075   0.323   4.651   7.755 -0.4067  0.2545  0.4232
 4539SOL    HW125076   0.298   4.584   7.691  1.4761 -0.6724  0.6436
 4539SOL    HW225077   0.313   4.609   7.840  2.3481  0.2323  0.7388
 4540SOL     OW25078   2.667   0.290   9.458 -0.0375 -0.0700 -0.0833
 4540SOL    HW125079   2.746   0.299   9.404  0.7205 -0.5430  0.9585
 4540SOL    HW225080   2.616   0.362   9.419  2.0089  1.2128 -0.3960
 4541SOL     OW25081   4.106   4.158  16.004 -0.4110 -0.3992  0.4658
 4541SOL    HW125082   4.178   4.154  15.942  1.1127  1.4142  2.1449
 4541SOL    HW225083   4.030   4.142  15.948 -1.0798 -0.2730  1.3371
 4542SOL     OW25084   4.176   3.807   7.641  0.3975 -0.3895 -0.0048
 4542SOL    HW125085   4.140   3.755   7.570 -0.4948 -1.5598  1.3241
 4542SOL    HW225086   4.172   3.893   7.598  0.1391 -0.3478  0.1074
 4543SOL     OW25087   1.847   2.529   6.585  0.2745  0.1800  0.6987
 4543SOL    HW125088   1.863   2.469   6.658 -1.3972 -0.1724  0.7785
 4543SOL    HW225089   1.760   2.557   6.611 -0.1900  1.9447 -2.7488
 4544SOL     OW25090   2.973   0.286   4.188  0.5931  0.0068 -0.0236
 4544SOL    HW125091   3.059   0.267   4.226  0.8242 -2.8013 -1.9884
 4544SOL    HW225092   2.923   0.308   4.267  0.3157 -1.8396  0.3150
 4545SOL     OW25093   1.392   2.459  12.743 -0.5426 -0.5875 -0.0867
 4545SOL    HW125094   1.397   2.458  12.647 -0.6048  0.3287 -0.0931
 4545SOL    HW225095   1.382   2.366  12.766  0.3258 -0.6748 -0.0376
 4546SOL     OW25096   0.791   1.652  17.655  0.0218 -0.8247 -0.4107
 4546SOL    HW125097   0.783   1.576  17.598  0.9985 -1.6970  0.6033
 4546SOL    HW225098   0.837   1.715  17.598  1.5577 -1.1941  0.4129
 4547SOL     OW25099   4.113   2.550   7.621  0.2960  0.5874 -0.0211
 4547SOL    HW125100   4.184   2.573   7.681  0.5931 -1.2978  0.3654
 4547SOL    HW225101   4.137   2.467   7.580 -0.5159  0.5576 -0.4376
 4548SOL     OW25102   4.628   4.466   6.856 -0.4993 -0.0447  0.6613
 4548SOL    HW125103   4.710   4.457   6.906 -0.3340  0.5018  0.4909
 4548SOL    HW225104   4.613   4.376   6.827 -0.1799  0.0193  0.2951
 4549SOL     OW25105   4.695   0.387   5.960 -0.3508 -0.0931  0.2922
 4549SOL    HW125106   0.046   0.328   5.957  0.9235  1.5337  0.4076
 4549SOL    HW225107   4.638   0.335   6.017 -0.8107 -0.9829 -0.9805
 4550SOL     OW25108   4.309   0.412   3.440 -0.2497  0.4296 -0.1286
 4550SOL    HW125109   4.256   0.369   3.507  0.8245 -0.8165 -0.0668
 4550SOL    HW225110   4.345   0.485   3.490 -0.5714 -1.4013  2.8073
 4551SOL     OW25111   3.388   0.611   6.524 -0.0413 -0.4684 -0.2426
 4551SOL    HW125112   3.460   0.626   6.584  0.0162  0.1745 -0.4698
 4551SOL    HW225113   3.338   0.542   6.568  0.8206 -1.6611 -1.1443
 4552SOL     OW25114   0.121   3.654  14.858  0.0520 -0.3481 -0.3914
 4552SOL    HW125115   0.203   3.624  14.898 -0.8329 -3.5335 -1.0476
 4552SOL    HW225116   0.115   3.735  14.910 -0.2916 -0.0786 -0.8493
 4553SOL     OW25117   4.328   0.461   2.203  0.2271  0.1939  0.4314
 4553SOL    HW125118   4.243   0.453   2.247  0.4397 -0.7125  0.6906
 4553SOL    HW225119   4.321   0.417   2.118  0.4766 -1.9567  1.5214
 4554SOL     OW25120   0.823   4.007  16.369  0.7516  0.2832 -0.0515
 4554SOL    HW125121   0.753   3.954  16.406  2.3625 -0.3014  2.1677
 4554SOL    HW225122   0.901   3.975  16.414  0.6763  0.3278  0.1097
 4555SOL     OW25123   2.708   3.166   2.156  0.2257 -0.0356  0.2296
 4555SOL    HW125124   2.709   3.212   2.073  1.5651  0.2589  0.4068
 4555SOL    HW225125   2.768   3.224   2.204 -0.1667 -0.2790  1.0197
 4556SOL     OW25126   3.959   2.530  14.927  0.2240  0.0902  0.2897
 4556SOL    HW125127   3.992   2.564  14.844 -0.2176 -0.4082 -0.0933
 4556SOL    HW225128   3.944   2.602  14.988 -0.6088 -0.2659  0.5156
 4557SOL     OW25129   4.624   0.953   7.333 -0.3196  0.1007 -0.0949
 4557SOL    HW125130   4.585   0.877   7.290  0.5194 -0.6624  0.4994
 4557SOL    HW225131   4.705   0.958   7.281  0.9682 -0.8930  1.8408
 4558SOL     OW25132   1.729   3.248   5.592 -0.2632 -0.0988 -0.2334
 4558SOL    HW125133   1.648   3.200   5.602  0.8871 -1.3101  3.1458
 4558SOL    HW225134   1.774   3.206   5.519  0.3199 -0.8505  0.5659
 4559SOL     OW25135   0.321   3.897  16.570  0.1788  0.2304  0.4157
 4559SOL    HW125136   0.287   3.891  16.659 -0.8295 -0.8331 -0.0570
 4559SOL    HW225137   0.343   3.990  16.562  1.6234  0.0094  1.7327
 4560SOL     OW25138   1.008   4.586   3.803  0.0597 -0.3440 -0.1306
 4560SOL    HW125139   1.091   4.609   3.760 -0.6552 -0.3403 -1.5089
 4560SOL    HW225140   1.000   4.661   3.862  0.5585 -0.5341  0.1749
 4561SOL     OW25141   1.752   0.534   8.428 -0.1611  0.2912 -0.3168
 4561SOL    HW125142   1.767   0.575   8.513 -0.3437 -4.4084  1.9826
 4561SOL    HW225143   1.691   0.462   8.447 -1.2470  1.5050  0.7876
 4562SOL     OW25144   4.009   3.852  15.108  0.0328 -0.6428 -0.2408
 4562SOL    HW125145   3.924   3.828  15.144 -0.4357 -0.2407 -1.0560
 4562SOL    HW225146   3.985   3.887  15.022 -0.1940 -0.8229 -0.2526
 4563SOL     OW25147   4.515   2.991   6.950 -0.2906 -0.1971  0.4345
 4563SOL    HW125148   4.491   3.067   6.897 -1.5502 -0.7900  0.1574
 4563SOL    HW225149   4.440   2.972   7.006 -1.0809 -0.6389 -0.7939
 4564SOL     OW25150   2.391   2.717  12.429 -0.4881  0.0335  0.3316
 4564SOL    HW125151   2.364   2.689  12.342  2.9447 -0.3732 -0.5892
 4564SOL    HW225152   2.337   2.794  12.410 -1.4969 -0.7679 -0.0431
 4565SOL     OW25153   0.871   2.591   0.275 -0.5341  0.2227 -0.0384
 4565SOL    HW125154   0.964   2.597   0.254 -0.7087  0.3310 -0.7839
 4565SOL    HW225155   0.859   2.646   0.352 -0.9597 -0.3789  0.3249
 4566SOL     OW25156   4.045   0.363  14.725 -0.3620 -0.2486  0.0684
 4566SOL    HW125157   4.098   0.284  14.711 -0.5097 -0.6377  1.7644
 4566SOL    HW225158   3.997   0.370  14.642 -0.5618  1.2412  0.3204
 4567SOL     OW25159   0.459   1.309   4.527  0.2354  0.3866  0.0487
 4567SOL    HW125160   0.506   1.369   4.584 -1.5024  2.0034 -0.2172
 4567SOL    HW225161   0.517   1.276   4.458 -1.6999 -1.2841 -0.7922
 4568SOL     OW25162   3.201   0.244   4.332 -0.2110  0.3301  0.2291
 4568SOL    HW125163   3.270   0.187   4.365  0.2633  0.5590 -0.3532
 4568SOL    HW225164   3.245   0.326   4.309 -0.9024  0.8813  0.8587
 4569SOL     OW25165   2.951   1.495  13.071  0.1602  0.3151  0.1935
 4569SOL    HW125166   2.954   1.400  13.063 -0.3059  0.1486  2.0212
 4569SOL    HW225167   2.897   1.506  13.149  0.2736 -0.1118  0.3305
 4570SOL     OW25168   3.040   2.641   0.281  0.0497 -0.1316 -0.2714
 4570SOL    HW125169   3.130   2.661   0.308 -0.5119  2.0957 -0.1073
 4570SOL    HW225170   3.004   2.605   0.362 -0.2797 -0.7300 -0.6809
 4571SOL     OW25171   4.117   1.593   4.408 -0.6758  0.2998  0.4361
 4571SOL    HW125172   4.192   1.561   4.459 -0.5392 -1.4010 -0.8247
 4571SOL    HW225173   4.053   1.617   4.475 -1.8117  1.2315 -0.9954
 4572SOL     OW25174   2.614   2.410   7.945 -0.0263 -0.0664  0.7083
 4572SOL    HW125175   2.551   2.425   8.016 -1.4602  1.2251 -0.8214
 4572SOL    HW225176   2.556   2.361   7.885 -0.8863 -0.2326  1.6674
 4573SOL     OW25177   3.229   2.284   6.110 -0.2413  0.5942  0.0579
 4573SOL    HW125178   3.294   2.214   6.115 -2.3154 -1.4078 -1.2532
 4573SOL    HW225179   3.159   2.242   6.159 -0.1649  1.6722  1.1018
 4574SOL     OW25180   2.119   3.505   7.019 -0.0514  0.3329 -0.1785
 4574SOL    HW125181   2.041   3.476   6.972  0.6362  0.6964 -1.5371
 4574SOL    HW225182   2.130   3.444   7.092  1.9499  2.4424  1.2747
 4575SOL     OW25183   0.888   3.719   7.845  0.3182  0.8601 -0.2839
 4575SOL    HW125184   0.842   3.657   7.902  1.9865  0.4864  0.6506
 4575SOL    HW225185   0.973   3.727   7.888  0.7205 -1.8209 -0.5765
 4576SOL     OW25186   3.704   0.469   8.999 -0.1861 -0.0310 -0.4836
 4576SOL    HW125187   3.687   0.405   8.929 -0.8856 -1.1027  0.6673
 4576SOL    HW225188   3.621   0.470   9.047 -0.1926  0.9520 -0.5114
 4577SOL     OW25189   1.704   0.648  12.066  0.1875  0.1251 -0.4792
 4577SOL    HW125190   1.614   0.640  12.096 -0.6052  1.8077 -2.3976
 4577SOL    HW225191   1.729   0.557  12.050 -0.3461 -0.0072 -0.5673
 4578SOL     OW25192   1.246   1.241   3.821  0.0170 -0.7227 -0.4170
 4578SOL    HW125193   1.292   1.244   3.905 -2.1028  0.6715  0.6999
 4578SOL    HW225194   1.284   1.317   3.776  0.7855 -0.2219  1.0644
 4579SOL     OW25195   1.305   4.374   8.434 -0.2046 -0.1736  0.5348
 4579SOL    HW125196   1.273   4.441   8.495  0.0245  1.7252 -1.4570
 4579SOL    HW225197   1.399   4.374   8.454 -0.4054  0.4585  1.5087
 4580SOL     OW25198   0.727   3.510  17.046 -0.5501 -0.4617  0.6984
 4580SOL    HW125199   0.680   3.525  16.964  0.1346  2.7199  0.8627
 4580SOL    HW225200   0.760   3.598  17.068  1.4523 -0.6096 -1.7832
 4581SOL     OW25201   1.789   1.133   7.589  0.2216 -0.5241 -0.1109
 4581SOL    HW125202   1.848   1.172   7.653 -1.0021  1.1852 -0.0118
 4581SOL    HW225203   1.702   1.143   7.629  0.2719  0.0318 -0.1336
 4582SOL     OW25204   3.727   2.860  15.810  0.4776  0.3457  0.3969
 4582SOL    HW125205   3.808   2.863  15.760  0.9345 -1.3703  1.0246
 4582SOL    HW225206   3.754   2.818  15.891  1.3958 -0.1794 -0.1920
 4583SOL     OW25207   3.466   3.724   5.170 -0.0095  0.1741 -0.3033
 4583SOL    HW125208   3.508   3.641   5.143  2.1427  0.8392  0.9460
 4583SOL    HW225209   3.540   3.784   5.169  0.7308 -0.7472 -1.4794
 4584SOL     OW25210   3.935   0.914   6.195  0.0978  0.0259  0.2587
 4584SOL    HW125211   4.014   0.872   6.160 -0.5673 -1.6924  0.7862
 4584SOL    HW225212   3.943   0.894   6.288 -0.2562 -2.6035 -0.2593
 4585SOL     OW25213   3.787   0.004  14.453 -0.3632 -0.2229  0.0812
 4585SOL    HW125214   3.873   0.043  14.441 -1.0416  0.4087 -2.8097
 4585SOL    HW225215   3.765   4.680  14.373 -0.2437 -0.6142  0.2820
 4586SOL     OW25216   3.531   1.582   8.822  0.2006  0.3432  0.0050
 4586SOL    HW125217   3.532   1.594   8.917 -0.9819 -1.7262  0.2741
 4586SOL    HW225218   3.537   1.669   8.781  1.0520  0.6697  0.8081
 4587SOL     OW25219   1.572   1.845   9.372  0.2619  0.7263 -0.1838
 4587SOL    HW125220   1.534   1.767   9.332 -0.2190  1.5777 -1.3741
 4587SOL    HW225221   1.524   1.854   9.455  0.8518  1.8340  0.0346
 4588SOL     OW25222   0.213   3.863  15.042 -0.1819 -0.0238  0.1112
 4588SOL    HW125223   0.131   3.905  15.015 -1.6070 -2.8095  0.0862
 4588SOL    HW225224   0.208   3.864  15.137 -0.2936  3.8860  0.0588
 4589SOL     OW25225   2.734   0.757   1.807  0.4729  0.2578 -0.2946
 4589SOL    HW125226   2.678   0.696   1.760  0.7631 -0.8983  0.8734
 4589SOL    HW225227   2.670   0.828   1.814 -0.6947 -0.5873 -2.2808
 4590SOL     OW25228   2.642   3.874   2.576  0.2542 -0.4585  0.2191
 4590SOL    HW125229   2.566   3.910   2.531  0.3889 -1.1128 -0.5164
 4590SOL    HW225230   2.617   3.891   2.667  0.6137  0.9335  0.0650
 4591SOL     OW25231   0.939   1.406  17.243  0.0767 -0.0781  0.1238
 4591SOL    HW125232   0.992   1.403  17.322  0.1376 -0.0447  0.0838
 4591SOL    HW225233   0.913   1.314  17.244  0.3736 -0.1533  0.7259
 4592SOL     OW25234   0.960   2.167   5.139  0.0385 -0.3339  0.3191
 4592SOL    HW125235   0.916   2.252   5.142 -0.6047 -0.7663  2.7964
 4592SOL    HW225236   1.049   2.200   5.146 -0.0850  0.2142 -0.5907
 4593SOL     OW25237   0.406   0.006   2.918  0.5068  0.1230  0.2785
 4593SOL    HW125238   0.444   4.714   3.004 -0.2292  0.0713  0.5964
 4593SOL    HW225239   0.333   4.667   2.916  0.4842  0.1000  1.5936
 4594SOL     OW25240   3.061   0.072   3.929  0.3190  0.2783  0.2414
 4594SOL    HW125241   3.056   4.701   3.925  1.7830  0.3463 -2.7159
 4594SOL    HW225242   3.123   0.083   4.001  1.0695  2.9286 -0.8146
 4595SOL     OW25243   4.329   1.501  17.089  0.3099  0.2220 -0.6346
 4595SOL    HW125244   4.298   1.548  17.012  0.5515  0.8596 -0.3444
 4595SOL    HW225245   4.258   1.449  17.126  1.6417 -0.3699  1.0848
 4596SOL     OW25246   0.660   0.577   3.708 -0.3084  0.2133 -0.4119
 4596SOL    HW125247   0.737   0.521   3.714 -0.0643  0.7345  1.4059
 4596SOL    HW225248   0.591   0.510   3.712  1.2014 -1.4901 -3.0705
 4597SOL     OW25249   3.151   1.932   4.232 -0.1251 -0.2180  0.0858
 4597SOL    HW125250   3.245   1.936   4.215 -0.0332 -0.0128  0.6368
 4597SOL    HW225251   3.147   1.948   4.326 -0.5334  2.9808 -0.4879
 4598SOL     OW25252   3.439   4.575   2.506  0.0639 -0.0770 -0.0443
 4598SOL    HW125253   3.435   4.628   2.426  2.8713 -0.5789 -0.5056
 4598SOL    HW225254   3.368   4.621   2.551  0.2843 -1.3369  1.5854
 4599SOL     OW25255   0.021   1.746  10.095 -0.9236 -0.1045 -0.3163
 4599SOL    HW125256   0.036   1.660  10.134  3.5153  0.9892  0.4108
 4599SOL    HW225257   4.666   1.771  10.143 -1.1346 -1.2622 -0.0744
 4600SOL     OW25258   0.104   0.085   1.370 -0.1622 -0.3508 -0.2369
 4600SOL    HW125259   0.130   0.154   1.309 -2.1295  1.1212  0.5618
 4600SOL    HW225260   0.138   0.127   1.449  0.5700 -0.3663 -0.5456
 4601SOL     OW25261   1.164   0.451   2.147 -0.7429 -0.3421 -0.1161
 4601SOL    HW125262   1.255   0.447   2.120 -1.0036 -0.9791 -0.9210
 4601SOL    HW225263   1.158   0.534   2.194 -0.3086  0.1454 -0.9196
 4602SOL     OW25264   4.654   0.223  10.806  0.5174  0.0469 -0.0913
 4602SOL    HW125265   4.620   0.265  10.728  1.0799  1.4665  0.4387
 4602SOL    HW225266   0.023   0.214  10.788  0.7795 -0.9298  1.7575
 4603SOL     OW25267   0.008   3.568   7.276  0.2215 -0.2848 -0.5803
 4603SOL    HW125268   0.025   3.512   7.351  1.2826  0.1359 -0.5019
 4603SOL    HW225269   4.645   3.535   7.257 -0.6567  0.7857  1.5724
 4604SOL     OW25270   4.457   4.496  12.018  0.0147 -0.4026 -0.3826
 4604SOL    HW125271   4.513   4.550  12.074  0.4445 -1.5870  0.3353
 4604SOL    HW225272   4.375   4.542  12.037  1.3392  1.5372  0.6425
 4605SOL     OW25273   1.170   2.736   0.925 -0.7391  0.3598 -0.0514
 4605SOL    HW125274   1.190   2.698   1.010  1.0624 -0.8520 -1.0116
 4605SOL    HW225275   1.196   2.826   0.940 -0.6594  0.5166 -1.0967
 4606SOL     OW25276   3.326   1.941   5.445 -0.0355 -0.3398 -0.5533
 4606SOL    HW125277   3.377   1.880   5.391 -0.6303  0.1361 -1.6327
 4606SOL    HW225278   3.290   1.888   5.516  1.0131 -1.1267 -0.5963
 4607SOL     OW25279   1.432   4.357   9.408 -0.1759 -0.7260 -0.4964
 4607SOL    HW125280   1.516   4.394   9.381  0.0748 -0.6375  0.4152
 4607SOL    HW225281   1.405   4.333   9.319 -1.5576  2.0324 -0.8004
 4608SOL     OW25282   1.098   3.112   4.354  0.1867  0.1032 -0.0916
 4608SOL    HW125283   1.026   3.111   4.417  0.0016 -1.1055 -0.3324
 4608SOL    HW225284   1.076   3.036   4.301  3.1898 -1.7582  1.2902
 4609SOL     OW25285   0.149   3.294   9.926  0.3869 -0.2692 -0.9834
 4609SOL    HW125286   0.205   3.218   9.913  1.3278  0.7183 -2.8847
 4609SOL    HW225287   0.217   3.362   9.929 -3.3475  3.4166  0.6946
 4610SOL     OW25288   2.757   4.117   1.584 -0.0433 -0.5406 -0.1190
 4610SOL    HW125289   2.850   4.093   1.587  0.2533  0.6070 -0.0827
 4610SOL    HW225290   2.729   4.076   1.666 -2.5108 -0.9667 -1.1740
 4611SOL     OW25291   3.163   2.032   8.747 -0.4948 -0.4546 -0.4502
 4611SOL    HW125292   3.119   2.117   8.752  0.7418  0.1289  0.4749
 4611SOL    HW225293   3.196   2.022   8.658  0.3417  2.2704 -0.4496
 4612SOL     OW25294   1.605   2.606   6.681  0.5514  0.7890 -0.2435
 4612SOL    HW125295   1.567   2.611   6.769 -0.2228  1.1930 -0.6018
 4612SOL    HW225296   1.540   2.556   6.633  0.2971  0.0412  0.8634
 4613SOL     OW25297   1.181   1.029  13.735  0.4813  0.7695  0.4536
 4613SOL    HW125298   1.167   1.089  13.808 -0.6527  1.2726 -0.1764
 4613SOL    HW225299   1.129   1.068  13.664 -0.4812 -1.0018  0.1836
 4614SOL     OW25300   1.690   4.613  12.209 -0.3732  0.6276 -0.1581
 4614SOL    HW125301   1.737   4.689  12.176 -1.2988  0.5814 -1.5686
 4614SOL    HW225302   1.614   4.662  12.242 -0.3642  0.1468  0.5767
 4615SOL     OW25303   4.456   0.741   8.228  0.1233  0.5213 -0.4913
 4615SOL    HW125304   4.483   0.750   8.137  0.0681  2.3258 -0.3337
 4615SOL    HW225305   4.381   0.683   8.218  0.1155  0.4292  0.0821
 4616SOL     OW25306   2.357   3.700   9.191  0.5273 -0.0682 -0.1574
 4616SOL    HW125307   2.346   3.674   9.282  1.2532 -1.8846 -0.5886
 4616SOL    HW225308   2.429   3.641   9.168  0.7703  0.1121  0.1393
 4617SOL     OW25309   3.774   2.064   2.403 -0.6543 -0.2405  0.6482
 4617SOL    HW125310   3.750   2.149   2.440  1.8041  0.0110  1.6819
 4617SOL    HW225311   3.712   2.053   2.331 -0.0654 -0.5019  0.1759
 4618SOL     OW25312   0.507   2.512  12.209 -0.0156 -0.1538 -1.0023
 4618SOL    HW125313   0.490   2.606  12.215 -0.8909 -0.5695  2.8637
 4618SOL    HW225314   0.597   2.512  12.174 -0.3936 -0.4713 -1.9768
 4619SOL     OW25315   1.212   0.500   9.218 -0.4430  0.5391  0.1698
 4619SOL    HW125316   1.148   0.476   9.284 -0.6913 -0.2548 -0.3631
 4619SOL    HW225317   1.197   0.594   9.210  1.7619  0.9765  1.0135
 4620SOL     OW25318   2.294   2.653  17.409  0.4816  0.4905 -0.2506
 4620SOL    HW125319   2.338   2.669  17.326  1.8172 -1.7044  0.0204
 4620SOL    HW225320   2.201   2.670  17.394  0.9440  3.2065  0.0448
 4621SOL     OW25321   1.386   0.740   1.161 -0.1389  0.0409  0.0081
 4621SOL    HW125322   1.338   0.788   1.229  0.7452  0.2149  0.5094
 4621SOL    HW225323   1.364   0.803   1.093 -1.1384 -1.2146 -0.8363
 4622SOL     OW25324   0.073   4.425  16.871 -0.2353 -0.0009  0.6378
 4622SOL    HW125325   0.142   4.490  16.884  1.7616 -1.6888 -1.3568
 4622SOL    HW225326   0.016   4.463  16.938 -0.7782  0.8233 -0.2904
 4623SOL     OW25327   3.150   2.772   4.656  0.3184  0.5751 -0.4121
 4623SOL    HW125328   3.080   2.726   4.703 -1.1113  1.3248 -1.8112
 4623SOL    HW225329   3.213   2.752   4.725 -1.5205 -0.6802  0.8937
 4624SOL     OW25330   0.167   1.781  12.856 -0.0141  0.2174  0.0017
 4624SOL    HW125331   0.262   1.788  12.860 -0.1378  1.6110  0.2804
 4624SOL    HW225332   0.142   1.862  12.901  2.8468  0.4361  1.1879
 4625SOL     OW25333   4.218   1.119   4.565  0.5552  0.3222  0.3205
 4625SOL    HW125334   4.162   1.048   4.597  0.1462 -0.1308 -1.3976
 4625SOL    HW225335   4.262   1.146   4.646 -0.5875 -1.0870  1.4225
 4626SOL     OW25336   4.415   1.618   3.882  0.4267  0.2046 -0.0027
 4626SOL    HW125337   4.340   1.624   3.823  0.5930  1.4461 -0.0814
 4626SOL    HW225338   4.394   1.533   3.920  1.1901 -0.4346 -0.9920
 4627SOL     OW25339   4.480   2.662  10.606  0.7216  0.2685 -0.3125
 4627SOL    HW125340   4.393   2.630  10.630 -0.5395  1.8238 -2.7572
 4627SOL    HW225341   4.496   2.712  10.686 -3.2259  1.4568 -0.2530
 4628SOL     OW25342   0.079   4.377  11.750 -0.3264  0.5989 -0.0090
 4628SOL    HW125343   4.721   4.357  11.794  0.6932 -0.4715  1.4101
 4628SOL    HW225344   0.055   4.437  11.679 -2.5577  1.5801  1.5783
 4629SOL     OW25345   2.115   1.665   6.020 -0.3906  0.6516  0.1449
 4629SOL    HW125346   2.056   1.616   5.962  0.1482  0.8698 -0.5874
 4629SOL    HW225347   2.050   1.728   6.051  0.4721  2.1129 -1.0134
 4630SOL     OW25348   0.742   2.754   5.483 -0.3263 -0.1121  0.2712
 4630SOL    HW125349   0.660   2.793   5.514  0.0049  0.1397  0.8032
 4630SOL    HW225350   0.760   2.796   5.399  0.5914 -1.5812 -0.2714
 4631SOL     OW25351   3.922   4.204  17.671 -0.1800  0.2233 -1.2054
 4631SOL    HW125352   3.987   4.219  17.602  0.6877 -1.6598 -0.7878
 4631SOL    HW225353   3.971   4.198   0.055 -3.1988 -0.0416  0.5878
 4632SOL     OW25354   2.356   4.455   6.951 -0.0815 -0.4706  0.2936
 4632SOL    HW125355   2.393   4.432   7.036  0.2216 -0.3103  0.2059
 4632SOL    HW225356   2.345   4.371   6.907 -2.2615  0.2866 -0.5946
 4633SOL     OW25357   2.067   0.153   5.185  0.1429  0.6007 -0.1410
 4633SOL    HW125358   2.129   0.127   5.253 -0.9022  1.1807  1.0420
 4633SOL    HW225359   2.080   0.248   5.188  1.0491  0.5339 -2.1873
 4634SOL     OW25360   2.137   0.532   7.036  0.0132  0.1879 -0.7739
 4634SOL    HW125361   2.203   0.469   7.065 -0.6609  1.0384  2.6534
 4634SOL    HW225362   2.106   0.557   7.124  0.2113  2.2817 -1.2999
 4635SOL     OW25363   1.831   2.444   5.266  0.0261 -0.1103  0.1823
 4635SOL    HW125364   1.768   2.420   5.198  0.0654 -0.1094  0.1456
 4635SOL    HW225365   1.893   2.372   5.273 -0.1296 -0.3653 -0.9967
 4636SOL     OW25366   2.234   4.375   8.878  0.0551 -0.2303  0.5533
 4636SOL    HW125367   2.143   4.385   8.848  0.0495  3.7275  1.7920
 4636SOL    HW225368   2.276   4.393   8.794  1.9217  0.3696  1.6250
 4637SOL     OW25369   3.858   3.316   2.694 -0.0366  0.2564  0.0361
 4637SOL    HW125370   3.900   3.241   2.651 -0.2820 -0.1766  0.5490
 4637SOL    HW225371   3.789   3.347   2.635  2.4812 -0.2132 -3.2188
 4638SOL     OW25372   4.093   0.884   4.736 -0.0087  0.3968 -0.3017
 4638SOL    HW125373   4.116   0.873   4.829 -1.1455  1.1334  0.0579
 4638SOL    HW225374   4.064   0.974   4.751 -1.3304  0.3521 -2.6864
 4639SOL     OW25375   1.280   1.047  11.298  0.0594  0.0805  0.5216
 4639SOL    HW125376   1.315   0.991  11.228  2.4440 -2.5348  3.8061
 4639SOL    HW225377   1.210   1.082  11.242  0.3886 -0.5595 -0.2986
 4640SOL     OW25378   1.389   1.134   2.896  0.7014 -0.1609  0.0590
 4640SOL    HW125379   1.420   1.224   2.899  0.9972 -0.3468  2.5870
 4640SOL    HW225380   1.307   1.149   2.849  1.2225  0.5730 -0.6148
 4641SOL     OW25381   0.182   0.731  12.192 -0.2273 -0.2610  0.1350
 4641SOL    HW125382   0.107   0.709  12.247 -2.0904  1.9647 -1.5252
 4641SOL    HW225383   0.200   0.816  12.233 -0.8772  1.2667 -2.7832
 4642SOL     OW25384   1.522   3.947   8.032  0.6248 -0.3037 -0.4977
 4642SOL    HW125385   1.536   3.864   7.986  0.3940 -0.7608  0.2627
 4642SOL    HW225386   1.571   3.936   8.114 -1.6325 -0.7429  0.7741
 4643SOL     OW25387   2.293   4.458  15.478 -0.3374  0.0796 -0.2082
 4643SOL    HW125388   2.237   4.458  15.556 -0.0405  1.1474  0.0069
 4643SOL    HW225389   2.379   4.493  15.503  0.7173 -2.3902 -0.3599
 4644SOL     OW25390   2.302   0.754   4.882 -0.1705  0.5537 -0.2509
 4644SOL    HW125391   2.383   0.797   4.852 -0.2772 -0.0519 -1.3942
 4644SOL    HW225392   2.289   0.817   4.954 -0.2628 -1.1578  1.2361
 4645SOL     OW25393   0.893   2.426   5.142  0.5104 -0.2825 -0.6765
 4645SOL    HW125394   0.863   2.431   5.233  0.5299 -4.3831 -0.4390
 4645SOL    HW225395   0.838   2.494   5.104  0.0325  0.0506  0.6083
 4646SOL     OW25396   1.124   2.579  12.751 -0.3465 -0.2883  0.1161
 4646SOL    HW125397   1.106   2.653  12.809 -0.0313 -0.3172  0.2536
 4646SOL    HW225398   1.219   2.573  12.742 -0.3690 -0.9388  0.3240
 4647SOL     OW25399   3.951   3.618   0.751 -0.4606  0.1947 -0.7326
 4647SOL    HW125400   3.934   3.618   0.656  0.5968 -1.1921 -0.9129
 4647SOL    HW225401   3.862   3.608   0.786 -0.0999  0.2812  0.2092
 4648SOL     OW25402   4.161   2.483   1.834  0.0034 -0.0570  0.2752
 4648SOL    HW125403   4.197   2.551   1.891  0.6969 -0.6955  0.5884
 4648SOL    HW225404   4.124   2.421   1.897 -1.5645  0.6485  0.0572
 4649SOL     OW25405   2.286   2.290   1.169 -0.2477 -0.5139 -0.5025
 4649SOL    HW125406   2.207   2.279   1.116  0.1644 -0.3765 -1.1462
 4649SOL    HW225407   2.263   2.223   1.233 -0.7570 -0.3494 -0.5060
 4650SOL     OW25408   1.576   2.868   6.952  0.1355 -0.4951 -0.3596
 4650SOL    HW125409   1.628   2.878   7.032 -0.7811 -0.8842  0.2891
 4650SOL    HW225410   1.548   2.777   6.947 -0.2336 -0.2378 -3.1078
 4651SOL     OW25411   1.369   4.171  10.413  0.1303  0.5586 -0.5223
 4651SOL    HW125412   1.431   4.238  10.442 -1.2795  0.7106  2.2110
 4651SOL    HW225413   1.385   4.149  10.321 -0.5072 -1.0610 -0.2502
 4652SOL     OW25414   4.080   3.474  14.662 -0.1006 -0.4868 -1.1061
 4652SOL    HW125415   4.031   3.522  14.595 -0.7898 -1.1079 -1.0504
 4652SOL    HW225416   4.020   3.467  14.736 -0.3000 -1.4875 -1.3678
 4653SOL     OW25417   1.454   3.158   8.629  0.3930  0.4267 -0.3745
 4653SOL    HW125418   1.479   3.183   8.540 -0.8545 -2.7847 -1.5978
 4653SOL    HW225419   1.366   3.124   8.616  0.0148  0.6991  1.5160
 4654SOL     OW25420   0.620   3.048   5.612 -0.5237  0.3079 -0.2016
 4654SOL    HW125421   0.685   3.056   5.542 -1.0337 -0.6110 -0.7647
 4654SOL    HW225422   0.603   3.142   5.625 -1.3874  0.0487  0.5185
 4655SOL     OW25423   4.564   0.645   3.413 -0.4316  0.4331 -0.0971
 4655SOL    HW125424   4.501   0.673   3.480 -1.8742  0.1624 -1.3253
 4655SOL    HW225425   4.495   0.635   3.347 -0.4727  0.2104 -0.0212
 4656SOL     OW25426   4.189   1.652  15.502  0.2291 -0.4881  0.0733
 4656SOL    HW125427   4.244   1.725  15.531 -0.9923  0.8237 -0.9217
 4656SOL    HW225428   4.110   1.697  15.470 -2.0710 -3.1182  2.1481
 4657SOL     OW25429   3.695   0.456  12.351 -0.5403 -0.0675  0.2441
 4657SOL    HW125430   3.620   0.508  12.320 -0.2832  0.3988  0.4090
 4657SOL    HW225431   3.646   0.376  12.373  0.4808 -1.1749 -1.4668
 4658SOL     OW25432   0.070   3.652   4.833  0.2024 -0.6273  0.5948
 4658SOL    HW125433   0.093   3.615   4.748  1.3880  2.6605 -0.5330
 4658SOL    HW225434   0.140   3.632   4.895  0.4919  0.4580  0.6145
 4659SOL     OW25435   2.312   1.881   4.009 -0.1775 -0.9388  0.2973
 4659SOL    HW125436   2.377   1.841   4.066  0.6408  0.7923  0.5843
 4659SOL    HW225437   2.325   1.826   3.932 -0.2284 -0.6872  0.1083
 4660SOL     OW25438   3.070   0.046   3.442 -0.4416 -0.3118 -0.4221
 4660SOL    HW125439   3.006   0.078   3.506 -1.0049 -1.4974 -0.4070
 4660SOL    HW225440   3.079   4.685   3.485 -0.7974 -0.0428  0.1914
 4661SOL     OW25441   0.493   4.651  13.533  0.2059 -0.7117 -0.0366
 4661SOL    HW125442   0.531   4.676  13.618 -1.6799  3.4447 -0.4090
 4661SOL    HW225443   0.513   4.558  13.544 -0.5203 -0.9563 -0.8049
 4662SOL     OW25444   0.351   3.251  10.191 -0.7484 -0.4510 -0.1770
 4662SOL    HW125445   0.404   3.173  10.210 -1.7998 -1.0835  0.1541
 4662SOL    HW225446   0.405   3.329  10.180  1.7482 -1.9983  0.9200
 4663SOL     OW25447   2.526   4.569   2.625 -0.0197 -0.2673  0.3431
 4663SOL    HW125448   2.531   4.503   2.556 -0.3084  0.5540 -0.4614
 4663SOL    HW225449   2.572   4.645   2.588 -0.2069 -1.1331 -1.6444
 4664SOL     OW25450   1.163   4.610   8.331  0.0682 -0.4532 -0.4915
 4664SOL    HW125451   1.248   4.617   8.288  0.0209 -1.2481 -0.7235
 4664SOL    HW225452   1.188   4.604   8.423  1.7438  0.0522 -0.9183
 4665SOL     OW25453   4.405   0.802   4.859 -0.4529 -0.3209 -0.0863
 4665SOL    HW125454   4.330   0.835   4.909 -1.7133  0.7043 -2.6509
 4665SOL    HW225455   4.372   0.717   4.829  1.1491 -0.7998 -0.5173
 4666SOL     OW25456   4.245   2.641  15.988 -0.3976 -0.9794 -0.4163
 4666SOL    HW125457   4.187   2.713  16.013  2.2609  1.3267 -0.8641
 4666SOL    HW225458   4.211   2.567  16.037  3.4857 -0.8014  2.5244
 4667SOL     OW25459   0.861   1.080   9.303 -0.4163  0.4221 -0.4684
 4667SOL    HW125460   0.800   1.082   9.377  1.2683 -2.1818  0.9611
 4667SOL    HW225461   0.804   1.075   9.226  2.5581 -1.7245 -2.5329
 4668SOL     OW25462   1.989   4.723   9.615  0.2493 -0.3750  0.0230
 4668SOL    HW125463   2.080   4.715   9.585  0.8531  0.0516  1.7704
 4668SOL    HW225464   1.982   0.091   9.639 -0.1527 -0.5900  0.7368
 4669SOL     OW25465   1.164   1.163   1.123 -0.0404 -0.1520  0.3679
 4669SOL    HW125466   1.224   1.206   1.062  1.3521 -1.5394  0.7623
 4669SOL    HW225467   1.079   1.152   1.081 -0.9549  1.5454  1.7325
 4670SOL     OW25468   0.794   3.067   0.467 -0.3829  0.0024 -0.0972
 4670SOL    HW125469   0.709   3.049   0.426 -1.7323  3.1405  1.3483
 4670SOL    HW225470   0.775   3.127   0.540 -0.6151 -2.1306  1.5769
 4671SOL     OW25471   0.875   3.738   6.712 -0.3812  0.1637  1.5221
 4671SOL    HW125472   0.829   3.698   6.638  0.8957 -2.2258  2.0331
 4671SOL    HW225473   0.925   3.803   6.663  0.1924  0.2772  2.2664
 4672SOL     OW25474   1.879   1.992   4.476  0.0224 -0.0631 -0.0043
 4672SOL    HW125475   1.928   2.037   4.545 -0.0754  1.2688 -0.8104
 4672SOL    HW225476   1.936   1.917   4.460 -0.4926  0.0428 -2.3649
 4673SOL     OW25477   0.442   1.869  10.940 -0.6949 -0.4250 -0.1260
 4673SOL    HW125478   0.469   1.936  10.877  0.1264 -1.9686 -1.4125
 4673SOL    HW225479   0.392   1.920  11.003 -0.5199  0.7521 -0.9350
 4674SOL     OW25480   0.086   1.626   5.823 -0.5115 -0.0863  0.6352
 4674SOL    HW125481   4.723   1.626   5.865  0.2304 -0.9906  2.1790
 4674SOL    HW225482   0.139   1.572   5.881  1.0192 -0.3157 -0.9724
 4675SOL     OW25483   0.355   3.525  14.971 -0.8389  0.0241  0.3315
 4675SOL    HW125484   0.382   3.441  14.935  0.0070  0.3785  0.1424
 4675SOL    HW225485   0.335   3.503  15.062  0.1678 -0.4090  0.4461
 4676SOL     OW25486   0.686   3.280   3.064 -0.0924  0.0867 -0.1263
 4676SOL    HW125487   0.765   3.330   3.085  0.2407  0.2359 -1.7108
 4676SOL    HW225488   0.683   3.287   2.969 -0.0131 -1.8685 -0.2683
 4677SOL     OW25489   2.804   3.090   4.034 -0.0314 -0.0077 -0.4883
 4677SOL    HW125490   2.758   3.155   4.088  0.3081  0.0546 -0.2726
 4677SOL    HW225491   2.797   3.020   4.098 -0.5940  0.3146 -0.1897
 4678SOL     OW25492   0.291   4.095   7.988 -0.3202  0.1532  0.0093
 4678SOL    HW125493   0.328   4.107   7.900 -0.7826 -0.6080 -0.2898
 4678SOL    HW225494   0.354   4.152   8.032 -1.3858  1.1243  0.2682
 4679SOL     OW25495   1.830   3.393   3.931 -0.4181  0.1585 -0.4169
 4679SOL    HW125496   1.904   3.388   3.870  1.0222 -2.5257  1.6125
 4679SOL    HW225497   1.753   3.369   3.878 -1.6577 -0.4642  1.6867
 4680SOL     OW25498   1.581   1.336   7.054  0.6887 -0.2486 -0.2103
 4680SOL    HW125499   1.663   1.380   7.035  0.1777 -0.1274 -2.0835
 4680SOL    HW225500   1.529   1.416   7.066  0.3513 -0.3972 -0.6890
 4681SOL     OW25501   2.403   0.228   8.707 -0.3006  0.2197  0.0540
 4681SOL    HW125502   2.458   0.164   8.753 -2.0125 -1.4711 -0.2525
 4681SOL    HW225503   2.441   0.241   8.620 -0.5189 -0.0294 -0.0810
 4682SOL     OW25504   0.581   1.616   7.813 -0.0612  0.0029 -0.1253
 4682SOL    HW125505   0.508   1.677   7.823 -0.8255 -1.1881  1.5990
 4682SOL    HW225506   0.534   1.537   7.786 -0.5913 -0.3615  1.8269
 4683SOL     OW25507   3.313   3.839  14.374 -0.2376  0.0140 -0.1513
 4683SOL    HW125508   3.227   3.802  14.356  0.0048 -1.8194  2.4776
 4683SOL    HW225509   3.342   3.802  14.457 -0.6474 -1.6035 -0.7145
 4684SOL     OW25510   2.842   1.525   3.322  0.7851 -0.5973  0.3053
 4684SOL    HW125511   2.917   1.471   3.347  0.2722 -0.9224  1.1375
 4684SOL    HW225512   2.776   1.485   3.379  0.2873 -0.3882 -0.1192
 4685SOL     OW25513   0.899   1.820   4.734 -0.7783  0.2026  0.2581
 4685SOL    HW125514   0.971   1.882   4.747  0.5513 -1.5095  1.0562
 4685SOL    HW225515   0.881   1.835   4.642  0.5826  1.4509  0.1859
 4686SOL     OW25516   2.534   2.828   3.279 -0.4832 -0.2957  0.4023
 4686SOL    HW125517   2.564   2.869   3.198 -1.3107  1.6972  1.1224
 4686SOL    HW225518   2.444   2.810   3.253  0.4648 -0.8625 -2.4558
 4687SOL     OW25519   4.559   0.472  14.351  0.7718 -0.1667 -0.3688
 4687SOL    HW125520   4.598   0.509  14.272 -2.8386  1.0908 -1.5203
 4687SOL    HW225521   4.543   0.549  14.405  0.4096 -0.0721 -0.6144
 4688SOL     OW25522   1.415   2.449   8.909 -0.1420  0.4716  0.5188
 4688SOL    HW125523   1.480   2.459   8.839 -1.3528 -1.1083 -0.8261
 4688SOL    HW225524   1.350   2.515   8.882 -1.3430 -0.8393  0.2144
 4689SOL     OW25525   1.707   2.728   0.533 -0.6003  0.5063 -0.0389
 4689SOL    HW125526   1.682   2.725   0.625 -0.5379 -0.6050 -0.0593
 4689SOL    HW225527   1.751   2.813   0.532  2.2039 -0.9491 -2.1404
 4690SOL     OW25528   2.847   2.955   2.529 -0.4940  0.0836  0.3343
 4690SOL    HW125529   2.808   2.964   2.442  0.0293 -1.9053 -0.1055
 4690SOL    HW225530   2.821   3.043   2.557  1.7565  1.6501 -2.3365
 4691SOL     OW25531   1.196   1.008   6.644  0.5828 -0.2444  0.2978
 4691SOL    HW125532   1.247   0.936   6.680  0.0733  0.4087  2.3677
 4691SOL    HW225533   1.110   1.016   6.686  0.1646 -1.7609 -0.2841
 4692SOL     OW25534   4.315   4.543   6.106 -0.7990  0.0297 -0.0267
 4692SOL    HW125535   4.262   4.464   6.098  0.1555 -0.8505  2.3251
 4692SOL    HW225536   4.246   4.609   6.101 -2.3659 -1.6582 -0.6768
 4693SOL     OW25537   1.280   3.440   2.835 -0.2573  0.4875 -0.0242
 4693SOL    HW125538   1.233   3.468   2.757  1.8075 -0.3157 -1.5471
 4693SOL    HW225539   1.369   3.464   2.813  0.5538 -0.7408  1.8897
 4694SOL     OW25540   4.166   2.137   2.965 -0.0421  0.1311 -0.1162
 4694SOL    HW125541   4.094   2.157   2.906  1.0217 -0.2713 -1.5694
 4694SOL    HW225542   4.219   2.217   2.957  0.7224 -0.3660  0.0304
 4695SOL     OW25543   2.159   3.916   4.733 -1.0171  0.2427 -0.2938
 4695SOL    HW125544   2.086   3.955   4.685 -0.8684 -0.1816 -0.8691
 4695SOL    HW225545   2.230   3.980   4.729  0.0759 -0.9247  0.4463
 4696SOL     OW25546   2.696   4.124   6.051 -0.6121  0.0932  0.1006
 4696SOL    HW125547   2.766   4.086   5.999 -2.2080  1.1669 -2.8302
 4696SOL    HW225548   2.658   4.179   5.982  2.8384  1.0899 -1.0325
 4697SOL     OW25549   0.925   3.401   4.386  0.3271  0.4988  0.0591
 4697SOL    HW125550   0.899   3.314   4.414 -3.5314  1.6989  0.3026
 4697SOL    HW225551   0.907   3.454   4.464 -0.1490 -1.8079  1.5021
 4698SOL     OW25552   2.504   0.658  11.143  0.3795 -0.7457  0.2794
 4698SOL    HW125553   2.410   0.671  11.156  0.1847  0.5631 -2.4274
 4698SOL    HW225554   2.495   0.591  11.076  1.0275 -1.4139  0.8593
 4699SOL     OW25555   4.450   1.115   6.926  0.5079  0.3072 -0.2775
 4699SOL    HW125556   4.537   1.134   6.891  2.5071 -2.3854  3.1710
 4699SOL    HW225557   4.419   1.031   6.892  0.2925 -0.0442  0.7702
 4700SOL     OW25558   0.067   0.298   3.869  0.3273 -0.1382  0.3926
 4700SOL    HW125559   0.036   0.255   3.949 -1.8715  0.2239 -0.2746
 4700SOL    HW225560   0.012   0.377   3.862  0.9421  0.2335 -0.2618
 4701SOL     OW25561   3.614   1.105  17.305  0.1975  0.1065 -0.2332
 4701SOL    HW125562   3.685   1.041  17.309 -0.9539 -1.0581  1.4697
 4701SOL    HW225563   3.566   1.088  17.386  0.5918  2.1761  0.4296
 4702SOL     OW25564   0.206   3.816   6.898  0.2211  0.1818  0.0184
 4702SOL    HW125565   0.175   3.732   6.932  1.2210 -0.5202 -0.7949
 4702SOL    HW225566   0.296   3.800   6.927 -0.0022 -0.1532  0.5358
 4703SOL     OW25567   3.069   3.812   8.191 -0.2913  0.4811  0.5053
 4703SOL    HW125568   3.120   3.782   8.266 -2.5764 -0.8467  1.5338
 4703SOL    HW225569   2.979   3.791   8.215 -1.0810  1.6053 -1.4478
 4704SOL     OW25570   0.069   3.587   6.108  0.1629  0.0190 -0.1624
 4704SOL    HW125571   0.138   3.571   6.044 -0.1985 -2.5519  0.0727
 4704SOL    HW225572   4.718   3.539   6.072  0.4490 -0.9246  0.4846
 4705SOL     OW25573   0.310   0.223   8.271  0.1647 -0.0731 -0.7321
 4705SOL    HW125574   0.379   0.232   8.336 -0.4985 -0.9303  0.0891
 4705SOL    HW225575   0.352   0.166   8.207  0.0428 -1.5550  0.5041
 4706SOL     OW25576   0.736   0.329  13.279 -0.4413  0.2822  0.1479
 4706SOL    HW125577   0.661   0.280  13.312  0.1600  0.3535  1.6488
 4706SOL    HW225578   0.809   0.270  13.297 -0.9582 -0.5956 -0.6049
 4707SOL     OW25579   1.853   2.391  11.912  0.2251 -0.6914 -0.2567
 4707SOL    HW125580   1.850   2.319  11.849  1.3962  0.9008 -2.1322
 4707SOL    HW225581   1.937   2.432  11.895 -0.2385  0.1980 -0.3934
 4708SOL     OW25582   3.206   3.480   2.760 -0.0297 -0.5602 -0.4006
 4708SOL    HW125583   3.227   3.443   2.675 -1.3254  0.0963 -1.0112
 4708SOL    HW225584   3.235   3.412   2.820  0.1538  0.1775  0.3522
 4709SOL     OW25585   3.798   0.331   7.510 -0.1415  0.5144 -0.3579
 4709SOL    HW125586   3.732   0.288   7.564  2.9148 -1.0235  2.0970
 4709SOL    HW225587   3.794   0.424   7.532  0.4709  0.4314  0.1031
 4710SOL     OW25588   0.893   2.316  17.278  0.1896 -0.2228 -0.6131
 4710SOL    HW125589   0.858   2.323  17.367 -0.3589  2.8658 -1.0569
 4710SOL    HW225590   0.920   2.407  17.261 -0.8004  0.5200  1.7566
 4711SOL     OW25591   3.774   0.218   4.261 -0.2117  0.1328  0.2552
 4711SOL    HW125592   3.761   0.218   4.356  2.7930  1.1339  0.6313
 4711SOL    HW225593   3.687   0.250   4.235  1.3382  3.3216 -0.9655
 4712SOL     OW25594   3.595   0.431   7.844  0.1782  0.4433 -0.4970
 4712SOL    HW125595   3.517   0.394   7.803  0.3780 -1.2980  0.7139
 4712SOL    HW225596   3.553   0.487   7.910  1.0372 -2.1052  2.2161
 4713SOL     OW25597   2.857   0.384   3.244 -0.5886  0.2424 -0.0090
 4713SOL    HW125598   2.769   0.351   3.224 -0.6054  0.1713  0.1750
 4713SOL    HW225599   2.851   0.442   3.321 -0.1289 -0.1729  0.3407
 4714SOL     OW25600   3.356   3.187   4.345  0.1788 -0.4717  0.1579
 4714SOL    HW125601   3.340   3.095   4.368  2.1808 -1.9023 -4.1669
 4714SOL    HW225602   3.281   3.209   4.290  1.0146  0.2341 -0.6946
 4715SOL     OW25603   2.658   1.404   1.711  0.3644  0.0729  0.0888
 4715SOL    HW125604   2.751   1.415   1.732  0.5627  0.4017 -0.9817
 4715SOL    HW225605   2.653   1.309   1.707  0.1783  0.0589  0.6029
 4716SOL     OW25606   0.053   1.532  10.252 -0.2146  0.0416  0.0663
 4716SOL    HW125607   4.710   1.487  10.304 -2.3195  0.6108 -2.1779
 4716SOL    HW225608   0.128   1.490  10.295 -0.1645 -0.2644 -0.3290
 4717SOL     OW25609   2.186   0.657  10.075  0.0342  0.1816  0.5987
 4717SOL    HW125610   2.148   0.570  10.088 -1.2070  0.7015  0.4881
 4717SOL    HW225611   2.277   0.630  10.061 -0.7117 -1.5639 -0.8198
 4718SOL     OW25612   3.507   2.177   7.192  0.2821  1.1593  0.0358
 4718SOL    HW125613   3.458   2.100   7.163  1.4375  0.2765  0.4434
 4718SOL    HW225614   3.446   2.246   7.167 -1.9919 -0.5474  0.8383
 4719SOL     OW25615   3.521   0.296   9.459 -0.1573 -0.3802 -0.0407
 4719SOL    HW125616   3.586   0.348   9.505 -0.3611  0.8522 -1.1635
 4719SOL    HW225617   3.555   0.206   9.457  0.1389 -0.2625 -0.2412
 4720SOL     OW25618   1.905   3.549   4.152  0.4290 -0.0228 -0.1281
 4720SOL    HW125619   1.885   3.493   4.077  0.3356 -1.1568  0.7356
 4720SOL    HW225620   2.000   3.546   4.163  0.3534  1.2998  0.8418
 4721SOL     OW25621   2.333   4.233  10.550 -0.6393 -0.3525 -0.5248
 4721SOL    HW125622   2.405   4.266  10.497 -1.7173  0.7170 -1.3314
 4721SOL    HW225623   2.315   4.313  10.601 -0.4647 -1.8882  1.9625
 4722SOL     OW25624   0.721   1.734   6.806  0.3052 -0.4319  0.0635
 4722SOL    HW125625   0.693   1.643   6.792 -2.8148  0.4806  0.5112
 4722SOL    HW225626   0.732   1.734   6.901  3.1721 -0.7719 -0.2524
 4723SOL     OW25627   1.102   3.347   6.596  0.4241  0.6518  0.1844
 4723SOL    HW125628   1.097   3.385   6.508  0.2061 -0.0096 -0.0899
 4723SOL    HW225629   1.175   3.391   6.640  0.7714 -1.9330  2.1470
 4724SOL     OW25630   1.712   0.683  10.580  0.3047 -0.1644  1.1594
 4724SOL    HW125631   1.765   0.744  10.529 -0.1230 -1.6336 -1.0355
 4724SOL    HW225632   1.711   0.602  10.530  1.2053  1.0316 -0.8020
 4725SOL     OW25633   4.231   4.053  14.933  0.1192  0.3487  0.4318
 4725SOL    HW125634   4.142   4.021  14.921  0.1769  0.0640  0.7679
 4725SOL    HW225635   4.251   4.047  14.840  3.5101  0.7084  1.1359
 4726SOL     OW25636   4.549   1.126   4.602 -0.0412 -0.1758 -0.0502
 4726SOL    HW125637   4.495   1.193   4.644  0.0382  0.3279 -0.7620
 4726SOL    HW225638   4.580   1.090   4.685 -1.4577 -0.6141  0.3072
 4727SOL     OW25639   2.693   3.472   8.006 -0.3799  0.1925  0.0886
 4727SOL    HW125640   2.632   3.399   7.994  1.5020 -1.7243  2.3138
 4727SOL    HW225641   2.689   3.476   8.101  0.7095 -0.0359  0.1411
 4728SOL     OW25642   2.778   1.168  15.917 -0.2264  0.4539 -0.0120
 4728SOL    HW125643   2.806   1.217  15.994 -1.4646 -1.6562  1.7960
 4728SOL    HW225644   2.697   1.212  15.890  0.0282  0.1736 -1.2285
 4729SOL     OW25645   0.457   2.062  15.819  0.5165 -0.0364 -0.7769
 4729SOL    HW125646   0.541   2.095  15.850  0.5866 -1.7963  0.8994
 4729SOL    HW225647   0.399   2.131  15.853  0.9045  0.1239 -0.4423
 4730SOL     OW25648   3.837   2.449  10.796 -0.2460  0.4409  0.0230
 4730SOL    HW125649   3.770   2.479  10.857 -2.3224  1.8819 -2.9644
 4730SOL    HW225650   3.814   2.510  10.726  2.5222 -0.0329 -1.3037
 4731SOL     OW25651   4.165   1.119  17.362  0.5670 -0.0001 -0.2764
 4731SOL    HW125652   4.192   1.195  17.414  0.4584  1.0985 -1.8354
 4731SOL    HW225653   4.227   1.062  17.406 -1.7244 -1.2699  1.2883
 4732SOL     OW25654   4.454   3.152   9.431  0.0782  0.3426 -0.4740
 4732SOL    HW125655   4.532   3.110   9.466 -0.2997  1.0918  1.2651
 4732SOL    HW225656   4.476   3.136   9.339 -0.2676  0.5586 -0.5963
 4733SOL     OW25657   4.192   2.412  11.985 -0.4926 -0.2041  0.1439
 4733SOL    HW125658   4.267   2.453  11.941  0.4194 -0.2045  1.7070
 4733SOL    HW225659   4.160   2.472  12.052  1.4627  1.2212 -0.2000
 4734SOL     OW25660   4.440   1.778  10.729  0.1598 -0.2859  0.0092
 4734SOL    HW125661   4.531   1.809  10.733  0.8914 -2.5969  1.2924
 4734SOL    HW225662   4.458   1.689  10.700  0.9380  0.2330 -1.0811
 4735SOL     OW25663   1.304   2.109   8.803  0.0178  0.0453 -0.4141
 4735SOL    HW125664   1.384   2.149   8.839 -0.4585 -0.1569  0.8793
 4735SOL    HW225665   1.239   2.118   8.872  0.1246 -1.3736 -0.1284
 4736SOL     OW25666   1.709   3.667   3.945 -0.5259 -0.0815 -0.9636
 4736SOL    HW125667   1.766   3.744   3.941  0.0873 -0.4737  0.2310
 4736SOL    HW225668   1.781   3.604   3.945  1.4877  2.2185  1.6136
 4737SOL     OW25669   2.815   2.909   8.317 -0.2852  0.0145 -0.2315
 4737SOL    HW125670   2.904   2.922   8.282 -0.8573 -1.0040 -2.0462
 4737SOL    HW225671   2.784   2.999   8.324 -1.1499 -0.2809 -0.2927
 4738SOL     OW25672   4.259   3.895   4.501  0.1398  0.3287 -0.4204
 4738SOL    HW125673   4.171   3.896   4.539 -0.3198  1.2150 -1.4984
 4738SOL    HW225674   4.259   3.979   4.454  1.4783 -0.1940 -1.3551
 4739SOL     OW25675   1.713   2.342   7.512  0.4644 -0.3804  0.1690
 4739SOL    HW125676   1.654   2.269   7.492  0.8320 -0.6515  0.0658
 4739SOL    HW225677   1.790   2.285   7.510  2.0075  1.6777  1.4687
 4740SOL     OW25678   0.118   4.155  17.343 -0.1026  0.0829  0.3128
 4740SOL    HW125679   0.068   4.079  17.372 -0.6316 -0.5524 -2.2751
 4740SOL    HW225680   0.064   4.229  17.368  0.7568  0.3162  1.5093
 4741SOL     OW25681   3.379   0.481   8.699  0.3829 -0.5929 -0.1849
 4741SOL    HW125682   3.463   0.438   8.710  0.1057 -1.5401 -1.7495
 4741SOL    HW225683   3.379   0.562   8.751 -1.9577 -0.9647  0.4068
 4742SOL     OW25684   3.075   4.147   6.096  0.1154 -0.2644 -0.2369
 4742SOL    HW125685   3.170   4.137   6.107 -0.1150  0.2240  2.1869
 4742SOL    HW225686   3.077   4.239   6.070  0.8367 -0.7570 -1.9211
 4743SOL     OW25687   4.384   2.001   7.652 -0.2422 -0.6335  0.2805
 4743SOL    HW125688   4.380   1.911   7.619 -2.3550 -0.9218  1.3621
 4743SOL    HW225689   4.313   1.994   7.716  1.3354 -0.4154  2.0499
 4744SOL     OW25690   4.049   3.799   5.430 -0.3290  0.8581 -0.3804
 4744SOL    HW125691   4.090   3.713   5.441  0.0813  1.0594 -0.3254
 4744SOL    HW225692   3.977   3.803   5.492 -0.4168 -3.0970 -0.2616
 4745SOL     OW25693   0.750   1.671   2.556 -0.1486 -0.4315  0.1840
 4745SOL    HW125694   0.793   1.757   2.560 -0.7948 -0.0163 -1.6946
 4745SOL    HW225695   0.802   1.640   2.482  1.3320 -1.3668  1.6193
 4746SOL     OW25696   4.492   3.544   0.075 -0.1100 -0.0332 -0.3777
 4746SOL    HW125697   4.487   3.621   0.019 -0.0027  0.3383  0.1270
 4746SOL    HW225698   4.426   3.560   0.142  0.1706 -0.9789  0.1262
 4747SOL     OW25699   3.801   3.659  12.328 -0.2963 -0.1945 -0.5762
 4747SOL    HW125700   3.823   3.745  12.362  0.0816 -1.0540  1.3686
 4747SOL    HW225701   3.752   3.624  12.403  1.2240 -0.9174  0.0794
 4748SOL     OW25702   2.510   1.244   7.145  0.4326 -0.1771  0.0252
 4748SOL    HW125703   2.517   1.160   7.100  0.5471  0.1612 -0.5901
 4748SOL    HW225704   2.514   1.206   7.233  0.3331 -1.8001 -0.6636
 4749SOL     OW25705   2.320   0.881   5.759  0.5053  0.0756 -0.4334
 4749SOL    HW125706   2.251   0.946   5.773  0.3021 -0.1344 -0.4503
 4749SOL    HW225707   2.288   0.851   5.674  1.3788  2.5954 -1.6340
 4750SOL     OW25708   4.614   4.589   7.414 -0.0678 -0.2987  0.0062
 4750SOL    HW125709   4.688   4.604   7.356  1.0553 -0.6384  1.3555
 4750SOL    HW225710   4.657   4.552   7.491  0.3975  1.1747  0.4496
 4751SOL     OW25711   0.789   0.549   6.347 -0.5465  0.7133  0.0723
 4751SOL    HW125712   0.738   0.571   6.425  0.3628 -1.3098  1.2237
 4751SOL    HW225713   0.781   0.454   6.347  0.5536  0.6187  1.3121
 4752SOL     OW25714   0.341   3.185   5.924 -0.4452 -0.1366 -0.2101
 4752SOL    HW125715   0.341   3.214   5.833  0.8346  1.9366  0.4397
 4752SOL    HW225716   0.425   3.139   5.929 -0.9230 -0.9766 -0.0594
 4753SOL     OW25717   3.773   0.728  16.142 -0.2237  0.6055 -0.4249
 4753SOL    HW125718   3.862   0.722  16.176 -1.1015 -2.4868  1.3076
 4753SOL    HW225719   3.717   0.721  16.219  2.8695  0.9439  1.8485
 4754SOL     OW25720   2.315   1.551   1.475 -0.6696 -0.0573  0.2566
 4754SOL    HW125721   2.352   1.464   1.458 -1.1879 -0.1030 -0.6589
 4754SOL    HW225722   2.236   1.523   1.520  0.6783 -1.4945  1.7112
 4755SOL     OW25723   2.114   2.632   3.272 -0.1180 -0.0433  0.2230
 4755SOL    HW125724   2.166   2.594   3.201 -1.7834  0.8287 -1.4532
 4755SOL    HW225725   2.027   2.593   3.264  0.7097 -1.6927 -0.6919
 4756SOL     OW25726   3.500   4.721  14.407  0.8813  0.2012 -0.3088
 4756SOL    HW125727   3.558   4.655  14.445  0.5602 -0.2363 -0.5652
 4756SOL    HW225728   3.411   4.687  14.423  0.7648  0.0527 -1.2779
 4757SOL     OW25729   0.532   2.640  15.085  0.0690  0.3186 -0.7647
 4757SOL    HW125730   0.449   2.677  15.114 -0.4505 -0.4582 -1.2686
 4757SOL    HW225731   0.531   2.675  14.996 -1.2406 -1.1857 -1.3358
 4758SOL     OW25732   0.718   4.674  17.308  0.3163 -0.2229 -0.3371
 4758SOL    HW125733   0.731   4.688  17.402  0.2586 -0.2322 -0.3279
 4758SOL    HW225734   0.720   0.043  17.287 -1.9709 -0.5975 -2.1677
 4759SOL     OW25735   4.684   4.194   6.494 -0.3401  0.3837  0.4769
 4759SOL    HW125736   4.667   4.257   6.424  1.0437  1.4013  1.0673
 4759SOL    HW225737   4.701   4.112   6.448 -1.4957  0.6348 -0.4038
 4760SOL     OW25738   2.979   3.084  13.753 -0.0279 -0.8430 -0.3571
 4760SOL    HW125739   2.918   3.058  13.822 -0.3409  0.3665 -0.1836
 4760SOL    HW225740   2.967   3.178  13.759  2.8570 -0.5439  1.0202
 4761SOL     OW25741   3.692   2.358   7.073  0.4252 -0.0615 -0.0340
 4761SOL    HW125742   3.627   2.419   7.037  1.0902  1.5154  1.4255
 4761SOL    HW225743   3.643   2.306   7.137  1.3775  1.1772  1.7095
 4762SOL     OW25744   2.037   2.258   1.009 -0.1537 -0.0271  0.0199
 4762SOL    HW125745   2.053   2.290   0.921  0.7790 -0.5335  0.0059
 4762SOL    HW225746   2.020   2.339   1.057  1.0581 -0.8648  1.8710
 4763SOL     OW25747   2.735   4.664   4.915  0.0649  0.4131 -0.2161
 4763SOL    HW125748   2.811   4.719   4.931  0.2100  0.1009  0.1705
 4763SOL    HW225749   2.669   4.715   4.963  0.0068  2.6804 -2.7155
 4764SOL     OW25750   4.312   2.997   4.920  0.7846 -0.2530  0.0326
 4764SOL    HW125751   4.341   3.088   4.914  1.4891 -0.3974  1.2957
 4764SOL    HW225752   4.296   2.982   4.827  1.4665  0.2634 -0.1669
 4765SOL     OW25753   1.924   3.330   3.045 -0.0149  0.0659 -0.4919
 4765SOL    HW125754   1.890   3.245   3.019  1.8253 -0.9473  0.3778
 4765SOL    HW225755   1.971   3.355   2.965  0.9799  0.6780  0.2831
 4766SOL     OW25756   1.426   3.946   5.297  0.0229 -0.1300 -0.1971
 4766SOL    HW125757   1.342   3.912   5.268 -0.8626  0.9224  1.1219
 4766SOL    HW225758   1.490   3.910   5.236  1.8679  3.7506 -0.5901
 4767SOL     OW25759   4.657   0.520   4.746 -0.3884 -0.0204 -0.0001
 4767SOL    HW125760   4.615   0.605   4.761  0.0568 -0.1426  1.9148
 4767SOL    HW225761   4.633   0.473   4.826 -2.6621  0.7528 -0.2472
 4768SOL     OW25762   1.101   4.577  12.532 -0.0600 -0.1518 -0.3015
 4768SOL    HW125763   1.164   4.574  12.604 -0.9914 -0.9195  0.4743
 4768SOL    HW225764   1.032   4.515  12.555 -2.7593  2.3858 -1.6356
 4769SOL     OW25765   3.377   3.952   8.291  0.2008  0.3240 -0.0440
 4769SOL    HW125766   3.304   3.976   8.347  0.0925 -1.7559  0.7162
 4769SOL    HW225767   3.435   3.930   8.364 -1.9754 -2.1536  0.9297
 4770SOL     OW25768   2.333   1.312   6.660 -0.0050  0.2479  0.0667
 4770SOL    HW125769   2.388   1.368   6.715 -0.3224  1.9535 -1.3364
 4770SOL    HW225770   2.377   1.227   6.666 -0.3051  0.0190 -0.9615
 4771SOL     OW25771   1.366   2.864   8.139  0.2840 -0.4788 -0.1280
 4771SOL    HW125772   1.408   2.936   8.092  1.4519  0.8141  2.8724
 4771SOL    HW225773   1.418   2.787   8.116 -0.7835 -0.8579 -1.2299
 4772SOL     OW25774   4.365   4.074  15.866  0.0855 -0.0777 -0.4030
 4772SOL    HW125775   4.334   4.026  15.790 -0.4929 -0.2024 -0.0836
 4772SOL    HW225776   4.458   4.065  15.847  0.2260 -1.1153  0.7412
 4773SOL     OW25777   0.434   3.798   7.027 -0.3779 -0.3909 -0.3390
 4773SOL    HW125778   0.464   3.857   7.097 -0.2053 -0.9554  0.0627
 4773SOL    HW225779   0.506   3.791   6.964 -1.3932  0.0741 -1.5382
 4774SOL     OW25780   2.034   3.907   8.916  0.1465 -0.0315 -0.7883
 4774SOL    HW125781   2.044   3.816   8.888 -5.7494 -0.9623  0.0779
 4774SOL    HW225782   2.100   3.906   8.985 -1.9069  0.2414  1.2129
 4775SOL     OW25783   1.231   3.418   9.042 -0.2899 -0.0674  0.3412
 4775SOL    HW125784   1.161   3.368   9.000  0.3256 -0.4752 -0.2049
 4775SOL    HW225785   1.205   3.499   8.999 -0.2083  0.1516  0.7092
 4776SOL     OW25786   3.981   1.125   4.784 -0.0844 -0.2396 -0.0980
 4776SOL    HW125787   4.023   1.190   4.840 -0.9002 -0.3223  0.6107
 4776SOL    HW225788   3.961   1.181   4.709  1.8461  0.4149 -0.1360
 4777SOL     OW25789   1.732   1.064   9.737 -0.2389  0.2891  0.4749
 4777SOL    HW125790   1.659   1.121   9.714 -0.4954 -1.3024 -2.7301
 4777SOL    HW225791   1.731   1.072   9.832 -1.7775 -0.7355  0.5573
 4778SOL     OW25792   0.347   3.557   3.187  0.9321 -0.3631  0.1186
 4778SOL    HW125793   0.287   3.553   3.262 -0.3755 -1.8800 -1.0139
 4778SOL    HW225794   0.430   3.559   3.235  0.9743 -0.2435  0.0382
 4779SOL     OW25795   3.695   0.498   6.429 -0.1018 -0.4053 -0.3088
 4779SOL    HW125796   3.608   0.503   6.389  0.0927 -1.9156 -0.9448
 4779SOL    HW225797   3.678   0.516   6.521  1.2740  1.1107 -0.3408
 4780SOL     OW25798   2.079   0.919   2.927 -0.5420  0.0499 -0.4584
 4780SOL    HW125799   2.066   0.902   2.834 -0.7664 -0.3716 -0.3491
 4780SOL    HW225800   2.031   0.845   2.963  0.2826 -0.8406 -1.2017
 4781SOL     OW25801   3.230   2.867  12.023 -0.1748 -0.1331 -0.0983
 4781SOL    HW125802   3.291   2.806  11.982 -1.4257  0.5155 -2.9242
 4781SOL    HW225803   3.279   2.911  12.092  0.7509  0.5644 -1.2023
 4782SOL     OW25804   4.345   0.656   3.594  0.2718  0.6173 -0.0098
 4782SOL    HW125805   4.320   0.678   3.684  0.2812  2.1244 -0.3787
 4782SOL    HW225806   4.269   0.686   3.544  0.1382  2.2315  1.1309
 4783SOL     OW25807   1.064   3.274  17.370 -0.3149 -0.3316  0.2153
 4783SOL    HW125808   1.012   3.283  17.449 -0.3235  0.5469  0.1055
 4783SOL    HW225809   1.003   3.295  17.299 -0.0695  1.8953  0.6739
 4784SOL     OW25810   3.408   0.184  14.579  0.3093  0.0165  0.1794
 4784SOL    HW125811   3.401   0.276  14.553  3.4080  0.5662  1.2473
 4784SOL    HW225812   3.458   0.140  14.510 -0.7656 -0.8588 -0.0362
 4785SOL     OW25813   3.336   3.046   8.002  0.3676 -0.3767  0.7089
 4785SOL    HW125814   3.320   2.951   8.006 -1.5855 -0.0916  0.0136
 4785SOL    HW225815   3.408   3.049   8.064 -0.2699  2.6897  1.2670
 4786SOL     OW25816   2.099   1.863   4.957 -0.6577  0.0931 -0.2921
 4786SOL    HW125817   2.064   1.789   5.007  0.9014 -0.2734  0.2418
 4786SOL    HW225818   2.027   1.888   4.899  1.2023  1.4994 -2.0175
 4787SOL     OW25819   3.457   1.803   5.915  0.6395 -0.6296  0.3668
 4787SOL    HW125820   3.535   1.750   5.901  0.7678 -0.1518 -0.7183
 4787SOL    HW225821   3.394   1.731   5.920  1.8876 -1.6695  0.9431
 4788SOL     OW25822   1.867   4.689  10.355 -0.4022  0.4187  0.7310
 4788SOL    HW125823   1.845   4.649  10.270  1.7788  1.7230 -0.4519
 4788SOL    HW225824   1.913   4.620  10.402  1.3278 -0.6586 -2.5087
 4789SOL     OW25825   2.360   0.846   1.568 -0.2736  0.2948  0.7238
 4789SOL    HW125826   2.296   0.904   1.609  0.0487  1.4733 -0.4311
 4789SOL    HW225827   2.426   0.910   1.539 -0.6273 -0.2573 -1.2851
 4790SOL     OW25828   4.600   0.329   2.249  0.2974  0.1428  0.0298
 4790SOL    HW125829   4.648   0.351   2.169 -1.1387 -0.3735 -0.9679
 4790SOL    HW225830   4.513   0.362   2.226  0.0522 -0.1319  0.5652
 4791SOL     OW25831   1.128   2.538   3.011 -0.1232  0.4536 -0.7916
 4791SOL    HW125832   1.078   2.456   3.009  0.9426 -0.2386  1.1229
 4791SOL    HW225833   1.055   2.599   3.015  1.2676  1.9773  1.0392
 4792SOL     OW25834   3.865   1.627  12.214 -0.1870 -0.1677 -0.0039
 4792SOL    HW125835   3.954   1.594  12.202  0.0827 -0.0343  1.6790
 4792SOL    HW225836   3.879   1.699  12.152  1.9422  0.3101  1.0250
 4793SOL     OW25837   2.494   0.700   2.489  0.1349 -0.0771 -0.7444
 4793SOL    HW125838   2.463   0.729   2.575 -0.1500 -1.8982 -0.2325
 4793SOL    HW225839   2.567   0.761   2.479  1.0385 -1.0300 -0.0682
 4794SOL     OW25840   1.625   1.733   5.793 -0.3107  0.8334 -0.2345
 4794SOL    HW125841   1.582   1.730   5.879 -2.8782 -1.8862 -1.6141
 4794SOL    HW225842   1.591   1.807   5.744 -0.5252 -0.9700 -2.7959
 4795SOL     OW25843   0.239   3.506   0.538 -0.2221 -0.0979  0.1603
 4795SOL    HW125844   0.293   3.441   0.583 -0.4010  1.7685  3.0723
 4795SOL    HW225845   0.229   3.566   0.612  4.6773  2.2224 -1.0297
 4796SOL     OW25846   2.028   0.646  13.321 -0.5132 -0.3153  0.1566
 4796SOL    HW125847   2.034   0.686  13.234  3.4078  2.0494  1.4980
 4796SOL    HW225848   2.076   0.566  13.298  1.1699  0.3313  1.3719
 4797SOL     OW25849   0.263   3.107   5.637  0.2681  0.9583  0.1678
 4797SOL    HW125850   0.279   3.152   5.554 -0.0514 -0.3496 -0.5938
 4797SOL    HW225851   0.279   3.018   5.608  0.4067  0.3535  2.0933
 4798SOL     OW25852   2.158   4.694   7.408 -0.0052 -0.1037  1.0911
 4798SOL    HW125853   2.066   4.680   7.431 -0.5257  0.2254 -0.8348
 4798SOL    HW225854   2.148   0.065   7.412 -0.7865 -0.1769  0.8359
 4799SOL     OW25855   3.799   1.243   7.802 -0.7910  0.0508 -0.2726
 4799SOL    HW125856   3.767   1.197   7.725  1.2406 -1.7623 -0.0475
 4799SOL    HW225857   3.855   1.305   7.755 -0.2508 -1.2988 -1.4113
 4800SOL     OW25858   3.053   2.453   9.994  0.4093  0.1239 -0.0449
 4800SOL    HW125859   3.010   2.455  10.079  1.2480 -0.7214  0.3839
 4800SOL    HW225860   3.082   2.544  10.002 -0.0934  0.4396 -1.6269
 4801SOL     OW25861   0.697   0.306   8.080  0.0807  0.4726 -0.1802
 4801SOL    HW125862   0.620   0.362   8.089 -0.9881 -0.7407 -1.8414
 4801SOL    HW225863   0.755   0.372   8.044 -2.7676  1.9259 -2.0408
 4802SOL     OW25864   0.113   4.544  13.186  0.2674 -0.2809  0.6040
 4802SOL    HW125865   0.166   4.555  13.264  1.2401 -1.0295  0.0530
 4802SOL    HW225866   0.113   4.450  13.171  0.8681 -0.2952  0.6979
 4803SOL     OW25867   2.253   0.587   9.331  0.2258 -0.3144  0.3587
 4803SOL    HW125868   2.188   0.640   9.376  0.8603  1.6351 -0.9991
 4803SOL    HW225869   2.186   0.531   9.292 -0.7801  1.9869 -1.2776
 4804SOL     OW25870   1.923   3.849   4.129  0.8535  0.2842  0.0594
 4804SOL    HW125871   1.908   3.755   4.125  1.4230  0.1492  1.0871
 4804SOL    HW225872   1.881   3.869   4.213  1.4037 -0.7316  0.5641
 4805SOL     OW25873   1.764   1.036   3.238  0.5542  0.2211  0.2775
 4805SOL    HW125874   1.859   1.033   3.252  0.2873 -2.6681  1.5609
 4805SOL    HW225875   1.762   1.046   3.143  3.8708  0.6575  0.2585
 4806SOL     OW25876   0.699   4.554  14.282  0.4057  1.0570 -0.1346
 4806SOL    HW125877   0.699   4.534  14.376 -0.1018 -1.0746 -0.5898
 4806SOL    HW225878   0.612   4.523  14.256  1.1160 -2.7657  1.9903
 4807SOL     OW25879   3.926   0.203   3.234 -0.2000 -0.3207  0.7236
 4807SOL    HW125880   3.943   0.297   3.234  0.0464 -0.3598  0.2327
 4807SOL    HW225881   4.016   0.181   3.257 -0.0784  1.0200  1.5076
 4808SOL     OW25882   4.050   0.928   4.258 -0.0665 -0.2828 -0.0882
 4808SOL    HW125883   3.967   0.976   4.250  0.4427  0.7306  0.6870
 4808SOL    HW225884   4.111   0.997   4.285  1.7536 -2.0388  0.2307
 4809SOL     OW25885   1.429   2.217   2.538  0.3396  0.6868  0.5956
 4809SOL    HW125886   1.390   2.159   2.604  0.0972 -2.1697 -2.1050
 4809SOL    HW225887   1.376   2.295   2.550 -2.3892 -0.6449 -2.7932
 4810SOL     OW25888   3.013   1.325   5.323  0.0451  0.1014  0.0413
 4810SOL    HW125889   2.982   1.310   5.412 -0.7281 -1.9839 -0.5819
 4810SOL    HW225890   3.104   1.333   5.350 -0.2338  1.3768  0.6016
 4811SOL     OW25891   2.539   4.410   1.155  0.0744  0.0844 -0.1759
 4811SOL    HW125892   2.575   4.495   1.128 -0.2622 -0.4261 -2.2444
 4811SOL    HW225893   2.461   4.452   1.189 -0.6231 -0.1233 -1.5322
 4812SOL     OW25894   2.621   4.503   9.865 -0.3141  0.4820  0.3987
 4812SOL    HW125895   2.568   4.539   9.936 -2.9035  2.1667 -2.3963
 4812SOL    HW225896   2.572   4.535   9.789  0.4200 -0.3549 -0.4218
 4813SOL     OW25897   2.652   0.241  16.493 -0.3325  0.3305 -0.0976
 4813SOL    HW125898   2.648   0.333  16.467  1.7357  0.5356  0.2888
 4813SOL    HW225899   2.722   0.246  16.559 -0.2786  0.3089 -0.1530
 4814SOL     OW25900   4.681   1.841  10.585  0.1488  0.2595 -0.1943
 4814SOL    HW125901   0.028   1.902  10.566  0.4149 -0.5442 -1.8056
 4814SOL    HW225902   4.606   1.893  10.555 -0.1888 -0.3299 -0.3769
 4815SOL     OW25903   0.673   2.794   7.590 -0.0778 -0.2756 -0.1371
 4815SOL    HW125904   0.687   2.775   7.683 -0.0270  2.1244  0.3473
 4815SOL    HW225905   0.662   2.889   7.595 -1.0277 -0.5218  2.1860
 4816SOL     OW25906   3.866   0.718  15.176 -0.5855 -0.0318 -0.0504
 4816SOL    HW125907   3.946   0.667  15.166  1.8684  3.6686  0.6923
 4816SOL    HW225908   3.902   0.799  15.139  1.7161  0.2954  2.9115
 4817SOL     OW25909   2.438   2.932   3.710  0.0703 -0.0313  0.3732
 4817SOL    HW125910   2.473   2.844   3.696 -1.4360 -0.7234  0.9151
 4817SOL    HW225911   2.516   2.977   3.741  0.8980 -1.6010  0.5932
 4818SOL     OW25912   4.168   3.447   2.683 -0.1293 -0.1428  0.4032
 4818SOL    HW125913   4.248   3.425   2.730 -0.5951  2.4952  2.4144
 4818SOL    HW225914   4.128   3.361   2.670  2.0315 -1.2895  1.4486
 4819SOL     OW25915   3.757   3.485   1.277  0.1086 -0.2653 -0.3846
 4819SOL    HW125916   3.845   3.521   1.289 -0.3649  0.9975 -0.8043
 4819SOL    HW225917   3.778   3.438   1.196  0.1481  2.9625 -2.2151
 4820SOL     OW25918   2.865   3.848   1.390 -0.3679 -0.3332  0.2336
 4820SOL    HW125919   2.802   3.870   1.321  0.8853 -0.4422 -0.9398
 4820SOL    HW225920   2.903   3.929   1.422  0.8621 -0.3699 -1.1485
 4821SOL     OW25921   0.458   3.955   8.308  0.4155  0.3532 -0.1439
 4821SOL    HW125922   0.413   3.887   8.258  0.0350 -0.8741  1.8740
 4821SOL    HW225923   0.384   4.004   8.343  0.9511  1.2973 -0.3283
 4822SOL     OW25924   2.991   0.274   4.498 -0.0956  0.6039 -0.3592
 4822SOL    HW125925   3.065   0.264   4.438 -1.2406 -2.2663 -1.2688
 4822SOL    HW225926   3.004   0.361   4.536 -1.8158  1.0864 -0.8999
 4823SOL     OW25927   1.841   3.627  13.209 -0.4151 -0.1370  0.0839
 4823SOL    HW125928   1.824   3.701  13.150 -0.7020 -1.4196 -1.4342
 4823SOL    HW225929   1.884   3.563  13.153  2.1176  0.6517  1.1129
 4824SOL     OW25930   3.639   2.903  17.641 -0.3006  0.1756  0.1572
 4824SOL    HW125931   3.607   2.829  17.590  1.1567 -0.2577 -0.1258
 4824SOL    HW225932   3.615   2.870   0.029 -1.4206 -0.1186 -0.2647
 4825SOL     OW25933   3.972   4.549  17.264 -0.3418  0.2266  0.3154
 4825SOL    HW125934   3.886   4.590  17.252 -0.8458 -1.0243 -0.4171
 4825SOL    HW225935   3.947   4.461  17.292  1.2099  0.0851  1.2747
 4826SOL     OW25936   2.749   2.665   2.162 -0.5419 -0.0681  0.1335
 4826SOL    HW125937   2.735   2.743   2.109 -1.1526  0.9008  1.7316
 4826SOL    HW225938   2.660   2.633   2.173 -0.8176  0.9516  0.8238
 4827SOL     OW25939   1.805   3.056   8.001  0.7550 -0.0017  0.3189
 4827SOL    HW125940   1.799   3.041   8.095  0.0807  1.7368  0.5552
 4827SOL    HW225941   1.714   3.043   7.975  0.5278  2.1329  0.0072
 4828SOL     OW25942   0.901   4.229   2.638 -0.3816  0.1586 -0.4012
 4828SOL    HW125943   0.956   4.159   2.673  0.5778  1.7030  1.1167
 4828SOL    HW225944   0.912   4.208   2.545 -0.0142 -0.5794 -0.1931
 4829SOL     OW25945   4.278   0.323  10.547  0.0225  0.1210  0.5228
 4829SOL    HW125946   4.327   0.246  10.575 -2.4779 -1.7434 -0.2306
 4829SOL    HW225947   4.353   0.382  10.548 -2.7144  3.6255 -0.6791
 4830SOL     OW25948   0.870   0.081  10.191 -0.2309  0.2247 -0.3857
 4830SOL    HW125949   0.851   0.102  10.282 -0.5045  0.8930 -0.5953
 4830SOL    HW225950   0.842   0.167  10.159 -0.9484 -0.8190 -2.5739
 4831SOL     OW25951   2.612   1.940   8.528  0.5161 -0.1121 -0.4119
 4831SOL    HW125952   2.537   1.886   8.552  1.7523 -1.9904 -0.7008
 4831SOL    HW225953   2.568   2.002   8.470 -0.9396  0.0728  0.9211
 4832SOL     OW25954   4.051   0.399   7.909 -0.2267 -0.8236 -0.0804
 4832SOL    HW125955   3.956   0.384   7.910  0.0008 -2.2185 -0.1497
 4832SOL    HW225956   4.076   0.361   7.992  0.6816  0.5768  0.2862
 4833SOL     OW25957   3.831   4.499   6.989  0.1981 -0.5659 -0.4495
 4833SOL    HW125958   3.804   4.588   6.966 -0.4202 -1.0213 -1.5000
 4833SOL    HW225959   3.768   4.455   6.932  0.1947 -1.1172 -0.0159
 4834SOL     OW25960   3.698   0.973   8.634 -0.9180 -0.1203  0.2431
 4834SOL    HW125961   3.614   0.937   8.605 -0.8768 -0.2067  0.2327
 4834SOL    HW225962   3.671   1.065   8.640  0.1076  0.1305  0.9440
 4835SOL     OW25963   4.077   3.500   4.917 -0.4908 -0.1210  0.0606
 4835SOL    HW125964   4.027   3.579   4.898 -1.1404 -0.3265  0.9122
 4835SOL    HW225965   4.129   3.523   4.994  0.3175  0.0120 -0.5304
 4836SOL     OW25966   3.002   4.520   7.662  0.1684 -0.1712  0.0419
 4836SOL    HW125967   2.926   4.516   7.604 -0.0108  1.0196  0.1970
 4836SOL    HW225968   2.971   4.470   7.737 -1.0142  3.2937  1.8507
 4837SOL     OW25969   3.468   0.680   3.492  0.0416  0.5497 -0.0641
 4837SOL    HW125970   3.503   0.608   3.439  1.5532  0.4432  1.0870
 4837SOL    HW225971   3.498   0.761   3.452  3.5676  0.6135  2.7229
 4838SOL     OW25972   0.278   2.785   1.269  0.5838 -0.0028 -0.0626
 4838SOL    HW125973   0.366   2.748   1.262 -0.1673 -1.4884 -1.7306
 4838SOL    HW225974   0.287   2.841   1.191 -0.4570  2.6421  1.7292
 4839SOL     OW25975   4.443   2.551   5.416 -0.0574 -0.3599  0.4918
 4839SOL    HW125976   4.409   2.630   5.456 -0.4327 -1.1514  1.7371
 4839SOL    HW225977   4.430   2.492   5.490 -1.1664 -0.2503  0.3773
 4840SOL     OW25978   2.119   0.902   1.802 -0.2884  0.0950 -0.0078
 4840SOL    HW125979   2.136   0.879   1.893 -1.0927 -0.4872 -0.0095
 4840SOL    HW225980   2.160   0.987   1.786  1.8285 -0.9633 -0.2211
 4841SOL     OW25981   0.331   0.505   0.209 -0.2809 -0.0249  0.4343
 4841SOL    HW125982   0.399   0.541   0.266 -1.1530 -0.1114  1.5194
 4841SOL    HW225983   0.276   0.474   0.281 -2.3151  1.2799 -0.5433
 4842SOL     OW25984   2.473   0.592   6.967 -0.3873  0.1170  0.1333
 4842SOL    HW125985   2.411   0.640   7.020 -0.6569  2.3141 -2.1686
 4842SOL    HW225986   2.445   0.614   6.878 -0.0016 -3.7857 -0.9669
 4843SOL     OW25987   0.781   4.445   3.755  0.1439 -0.1461 -0.1279
 4843SOL    HW125988   0.772   4.504   3.679  1.2929 -2.7180 -2.2493
 4843SOL    HW225989   0.864   4.484   3.785 -0.0552 -1.1115  1.6553
 4844SOL     OW25990   3.897   0.887   8.911  0.1582  0.1055  0.5781
 4844SOL    HW125991   3.880   0.981   8.914  1.0978  0.2688  0.9058
 4844SOL    HW225992   3.962   0.877   8.981 -0.5748 -1.2702  1.0733
 4845SOL     OW25993   3.624   2.853  17.196  0.1404  0.3096  0.0285
 4845SOL    HW125994   3.553   2.810  17.243  0.0317 -0.8590 -1.2110
 4845SOL    HW225995   3.679   2.885  17.268 -1.5080  0.1825  1.3388
 4846SOL     OW25996   1.612   1.782   5.345  0.2706  0.1821  0.0160
 4846SOL    HW125997   1.697   1.819   5.369  1.2169 -0.6908 -1.9676
 4846SOL    HW225998   1.568   1.760   5.426 -0.5715 -0.6494 -0.6772
 4847SOL     OW25999   2.559   3.425   2.339 -0.2939  0.6133  0.1629
 4847SOL    HW126000   2.585   3.512   2.369  2.5806 -0.2750  0.2277
 4847SOL    HW226001   2.562   3.451   2.247  3.0568 -0.9445 -0.1629
 4848SOL     OW26002   1.576   0.145  11.858  0.3503 -0.2083 -0.2064
 4848SOL    HW126003   1.530   0.202  11.920 -2.0835 -3.0153  0.5475
 4848SOL    HW226004   1.653   0.126  11.911 -0.0382 -0.8273  0.1403
 4849SOL     OW26005   4.646   2.861  14.160 -0.1474 -0.2616  0.0602
 4849SOL    HW126006   4.630   2.889  14.250 -1.1802  0.0938 -0.2387
 4849SOL    HW226007   4.568   2.805  14.158 -0.9755  0.9542 -1.0604
 4850SOL     OW26008   4.008   3.234   1.963 -0.2878  0.1329 -0.3191
 4850SOL    HW126009   3.920   3.204   1.941 -0.9842  2.0444 -0.1271
 4850SOL    HW226010   4.066   3.224   1.887 -1.5721  1.9993 -1.5380
 4851SOL     OW26011   0.438   4.032  13.512  0.3620  0.1953  0.4035
 4851SOL    HW126012   0.468   4.113  13.469 -1.1414 -0.7092 -2.2919
 4851SOL    HW226013   0.377   4.066  13.577  0.6436  0.0084  0.7683
 4852SOL     OW26014   3.835   3.173  15.900  0.4374  0.3180  0.1534
 4852SOL    HW126015   3.886   3.244  15.939  0.2888 -0.3730  1.5897
 4852SOL    HW226016   3.856   3.103  15.961 -0.4612  1.1703  1.4437
 4853SOL     OW26017   3.631   4.071   3.412 -0.3799  0.4180 -0.4149
 4853SOL    HW126018   3.669   4.137   3.470  0.3851  0.7138 -1.2483
 4853SOL    HW226019   3.549   4.113   3.387 -0.0852  0.5962 -1.0887
 4854SOL     OW26020   2.632   4.553   3.653  0.0068  0.1614  0.0808
 4854SOL    HW126021   2.659   4.615   3.720  0.5180  1.0499 -0.9681
 4854SOL    HW226022   2.604   4.610   3.582  0.5698  0.8660  0.4349
 4855SOL     OW26023   0.823   1.715  10.335  0.1725  0.4937 -0.1289
 4855SOL    HW126024   0.860   1.768  10.265 -0.6783  0.9384 -0.2355
 4855SOL    HW226025   0.731   1.706  10.309 -0.1765 -0.4518  1.3844
 4856SOL     OW26026   2.151   2.655   7.622  0.6482 -0.3722  0.0641
 4856SOL    HW126027   2.184   2.583   7.675  0.8338  1.0651  1.9099
 4856SOL    HW226028   2.084   2.610   7.569  0.0242  1.7253 -0.9211
 4857SOL     OW26029   4.435   1.982   8.739 -0.7355  0.0361 -0.3376
 4857SOL    HW126030   4.470   1.894   8.750 -1.1956 -0.2806 -1.3999
 4857SOL    HW226031   4.363   1.982   8.803  0.9651  0.0480  1.5839
 4858SOL     OW26032   3.008   3.054   2.192 -0.2909  0.2696  0.2208
 4858SOL    HW126033   3.074   3.122   2.210  2.5399 -2.1215 -1.1635
 4858SOL    HW226034   2.932   3.104   2.164 -2.6714 -3.3480  0.2731
 4859SOL     OW26035   4.177   2.858   2.373 -0.0910 -0.5970  0.0951
 4859SOL    HW126036   4.113   2.840   2.304  0.0365 -0.4817 -0.0512
 4859SOL    HW226037   4.140   2.819   2.453  0.0966 -1.2379 -0.1299
 4860SOL     OW26038   2.713   0.728  14.524  0.0439  0.0601 -0.2911
 4860SOL    HW126039   2.736   0.758  14.436  2.0828 -0.1473  0.1569
 4860SOL    HW226040   2.781   0.772  14.576 -0.4867  2.2347 -1.4410
 4861SOL     OW26041   1.800   3.337   2.704 -0.0002 -0.4932 -0.4675
 4861SOL    HW126042   1.894   3.327   2.687  0.2215  2.5783 -1.0528
 4861SOL    HW226043   1.794   3.423   2.745 -1.2263  0.2902 -2.2710
 4862SOL     OW26044   1.270   1.266   5.952  0.3676  0.2900 -0.1357
 4862SOL    HW126045   1.351   1.275   5.902  1.9947 -0.7953  2.3006
 4862SOL    HW226046   1.294   1.193   6.009  0.3471 -0.2351 -0.8034
 4863SOL     OW26047   4.490   1.847   2.238  0.1847 -0.3791 -0.3248
 4863SOL    HW126048   4.414   1.862   2.182  0.1356 -1.3064 -0.5123
 4863SOL    HW226049   4.553   1.832   2.167  0.2849 -1.1496 -0.0699
 4864SOL     OW26050   1.905   4.484   3.619 -0.3083  0.0339  0.4490
 4864SOL    HW126051   1.817   4.466   3.650 -0.3840 -0.2105  0.1018
 4864SOL    HW226052   1.938   4.394   3.616  0.3337  0.2872 -0.2300
 4865SOL     OW26053   0.596   0.236  16.625 -0.1742  0.2022 -0.8358
 4865SOL    HW126054   0.524   0.175  16.644 -0.0069  0.2443 -0.0565
 4865SOL    HW226055   0.547   0.310  16.590  0.8996  0.9970 -0.6685
 4866SOL     OW26056   3.890   1.776   2.916 -0.4913 -0.2996  0.0624
 4866SOL    HW126057   3.861   1.864   2.940 -3.7853 -1.3939  0.0369
 4866SOL    HW226058   3.982   1.798   2.931 -0.5336  0.4929 -0.8567
 4867SOL     OW26059   3.907   1.569   8.061  0.0708 -0.0762 -0.3635
 4867SOL    HW126060   3.968   1.589   8.132  0.3278  0.2402 -0.6754
 4867SOL    HW226061   3.823   1.566   8.108 -0.9230  1.0719 -2.0506
 4868SOL     OW26062   4.191   2.448   4.041  0.3197  0.2966  0.1787
 4868SOL    HW126063   4.124   2.516   4.048  0.8154  0.6011  1.9608
 4868SOL    HW226064   4.175   2.417   3.951 -2.4331 -0.0283  0.7839
 4869SOL     OW26065   1.194   2.192   8.348 -0.4373 -0.3846 -0.0977
 4869SOL    HW126066   1.150   2.273   8.375  0.5124  0.0895  0.0469
 4869SOL    HW226067   1.124   2.142   8.306 -1.3669  0.5123  0.3760
 4870SOL     OW26068   4.295   0.041  11.862 -0.3526  0.2978 -0.0073
 4870SOL    HW126069   4.247   0.015  11.941 -0.2682 -1.6834 -0.6195
 4870SOL    HW226070   4.259   4.699  11.803  0.7033 -0.0784 -0.2370
 4871SOL     OW26071   1.332   4.101  15.830  0.5665 -0.0604 -0.5934
 4871SOL    HW126072   1.410   4.140  15.790  0.3144  0.8861 -0.1514
 4871SOL    HW226073   1.265   4.168  15.815 -0.5303 -1.4539 -1.9631
 4872SOL     OW26074   3.706   1.835   4.640  0.0796 -0.1120  0.0282
 4872SOL    HW126075   3.718   1.919   4.683  1.5080  1.0447 -2.6928
 4872SOL    HW226076   3.649   1.797   4.707 -1.7422 -0.1707 -1.5627
 4873SOL     OW26077   3.698   2.520  17.672  0.2929  0.4505  0.0952
 4873SOL    HW126078   3.751   2.488   0.047  2.5108  0.8355 -1.3342
 4873SOL    HW226079   3.687   2.439  17.621 -1.0621  0.8541 -0.2490
 4874SOL     OW26080   4.070   1.988   7.150  0.5416 -0.0526 -0.3538
 4874SOL    HW126081   3.976   1.967   7.155  0.8444 -1.6972 -1.3566
 4874SOL    HW226082   4.097   1.952   7.234  0.3108 -0.2400 -0.3569
 4875SOL     OW26083   1.807   2.066   5.200  0.1479 -0.4445  0.1661
 4875SOL    HW126084   1.820   1.993   5.261 -0.8079  0.4121  1.3959
 4875SOL    HW226085   1.835   2.137   5.258  1.5293 -2.1270  1.5500
 4876SOL     OW26086   4.549   1.724   8.705  0.2342  0.6999 -0.4234
 4876SOL    HW126087   4.523   1.683   8.788 -2.1017  2.2440 -0.3947
 4876SOL    HW226088   4.515   1.659   8.643  0.9372 -0.0446 -0.0443
 4877SOL     OW26089   4.474   2.499  14.231  0.3815  0.1459 -0.5489
 4877SOL    HW126090   4.491   2.504  14.325 -2.6206  1.5352 -0.0829
 4877SOL    HW226091   4.566   2.508  14.207  0.1910  0.1141 -1.2928
 4878SOL     OW26092   0.683   1.503   8.904 -0.5933 -0.0206  0.3920
 4878SOL    HW126093   0.709   1.570   8.968 -0.8623 -0.3031  0.7998
 4878SOL    HW226094   0.606   1.535   8.856 -0.9986 -1.2107  0.2505
 4879SOL     OW26095   1.854   0.149   3.036 -0.2851  0.9013  0.0698
 4879SOL    HW126096   1.793   0.163   2.964  2.4405 -0.3364 -2.5014
 4879SOL    HW226097   1.933   0.123   2.988  0.4098 -1.8478  2.6487
 4880SOL     OW26098   1.033   3.928   6.556  0.2368 -0.7900  0.4209
 4880SOL    HW126099   1.045   3.875   6.477  2.1677 -1.5117  1.2124
 4880SOL    HW226100   1.024   4.019   6.526  1.7275 -0.8736 -0.2450
 4881SOL     OW26101   4.633   4.437  11.435 -0.1164 -0.2892  0.6841
 4881SOL    HW126102   4.543   4.440  11.468 -1.3448 -2.7499 -2.4671
 4881SOL    HW226103   4.644   4.525  11.399  2.8004 -0.6843  0.6011
 4882SOL     OW26104   0.229   4.568  13.871 -0.3783 -0.3654 -0.2627
 4882SOL    HW126105   0.235   4.591  13.964 -0.0521 -2.1044  0.1443
 4882SOL    HW226106   0.136   4.547  13.868 -1.1084  3.0378 -2.4176
 4883SOL     OW26107   0.242   1.112  13.253 -0.1700  0.5622 -0.4051
 4883SOL    HW126108   0.323   1.133  13.298  0.9269 -0.6860 -1.8069
 4883SOL    HW226109   0.233   1.190  13.199 -0.6440  0.8855  0.1375
 4884SOL     OW26110   1.179   0.751   7.430  0.1348  0.2201 -0.4702
 4884SOL    HW126111   1.264   0.723   7.465  0.6761  2.9867  0.4333
 4884SOL    HW226112   1.130   0.674   7.459 -0.0721  0.7736  0.6321
 4885SOL     OW26113   3.484   4.227   1.859 -0.2083 -0.0672  0.3790
 4885SOL    HW126114   3.577   4.209   1.869 -0.4702 -1.6735 -0.0742
 4885SOL    HW226115   3.471   4.265   1.772  1.4919  0.3449  0.2990
 4886SOL     OW26116   3.636   4.682   4.828 -0.4113 -0.1735 -0.0693
 4886SOL    HW126117   3.710   0.012   4.801  1.1759 -2.3748 -0.0569
 4886SOL    HW226118   3.682   4.598   4.824 -1.1871 -0.7329  2.9217
 4887SOL     OW26119   4.363   3.432   2.881  0.2654  0.1554  0.2197
 4887SOL    HW126120   4.325   3.448   2.967  0.6526 -1.5410  0.7003
 4887SOL    HW226121   4.374   3.522   2.849  2.6879  0.4657  1.9516
 4888SOL     OW26122   2.088   0.566   0.764  0.3593 -0.5885  0.7231
 4888SOL    HW126123   2.181   0.563   0.739 -0.1565 -0.1736 -1.2679
 4888SOL    HW226124   2.061   0.478   0.741 -0.7880 -0.6344  2.2459
 4889SOL     OW26125   2.920   1.635  11.869  0.8364 -0.1851  0.7544
 4889SOL    HW126126   2.880   1.721  11.883  1.3153  0.0958  0.3692
 4889SOL    HW226127   3.014   1.652  11.883  1.1411 -0.0388 -1.5434
 4890SOL     OW26128   0.598   2.774   8.136  0.1003 -0.9211  0.0488
 4890SOL    HW126129   0.531   2.829   8.178  0.2763  0.2332 -1.1809
 4890SOL    HW226130   0.596   2.692   8.184 -2.5997 -1.2278 -0.5695
 4891SOL     OW26131   1.190   1.089   2.109  0.3979  0.0844 -0.1666
 4891SOL    HW126132   1.237   1.169   2.085 -1.9958  0.9387 -2.0555
 4891SOL    HW226133   1.218   1.036   2.034 -0.0439  1.1325 -1.0700
 4892SOL     OW26134   0.894   3.197   6.347  0.6983 -0.3407 -0.4351
 4892SOL    HW126135   0.817   3.177   6.399  1.1163 -0.0192  0.3006
 4892SOL    HW226136   0.857   3.258   6.284  0.1148 -1.4513 -1.1781
 4893SOL     OW26137   0.190   2.263   5.262 -0.3469  0.0415  0.0799
 4893SOL    HW126138   0.192   2.246   5.168  1.8602  1.1052 -0.0553
 4893SOL    HW226139   0.246   2.340   5.267  1.2072 -1.0040 -1.7315
 4894SOL     OW26140   4.191   4.526   8.111  0.3459 -0.2353  0.9712
 4894SOL    HW126141   4.236   4.442   8.100 -0.8470 -0.6144 -0.9465
 4894SOL    HW226142   4.266   4.583   8.127 -0.0555  0.9352 -1.3132
 4895SOL     OW26143   1.625   2.915  16.127  0.2802  0.4110 -0.0886
 4895SOL    HW126144   1.687   2.913  16.200  2.3339  3.0537 -1.7634
 4895SOL    HW226145   1.678   2.981  16.081  0.0112 -0.0388 -1.0404
 4896SOL     OW26146   3.373   1.371  15.311 -0.0224 -0.4472  0.0654
 4896SOL    HW126147   3.421   1.333  15.237 -0.1750 -1.2103  0.3584
 4896SOL    HW226148   3.371   1.466  15.300 -0.3842 -0.6087 -1.2375
 4897SOL     OW26149   0.730   1.642   8.514 -0.0249 -0.0512 -0.1612
 4897SOL    HW126150   0.655   1.698   8.531 -0.4468 -0.5292 -0.4420
 4897SOL    HW226151   0.776   1.666   8.594 -0.6296  1.3655 -0.2503
 4898SOL     OW26152   1.886   0.099   4.835 -0.5800 -0.1806  0.5174
 4898SOL    HW126153   1.809   0.135   4.792 -0.6958 -0.7065  0.2813
 4898SOL    HW226154   1.856   0.107   4.926  0.9518  2.8965  0.7425
 4899SOL     OW26155   2.926   1.546  15.605 -0.2622 -0.3547 -1.0781
 4899SOL    HW126156   2.967   1.484  15.664  1.8902 -0.5757 -2.7953
 4899SOL    HW226157   2.842   1.561  15.648  0.6002 -1.2684  0.9232
 4900SOL     OW26158   0.718   3.166  13.955 -0.6190 -0.5112  0.4508
 4900SOL    HW126159   0.750   3.254  13.932 -0.8042 -0.0713  1.8844
 4900SOL    HW226160   0.752   3.161  14.044 -1.5367 -1.6113  0.7369
 4901SOL     OW26161   3.164   0.430   8.532  0.0600  0.0164 -0.2998
 4901SOL    HW126162   3.148   0.338   8.511  0.3526  0.3444 -1.9974
 4901SOL    HW226163   3.241   0.417   8.587 -0.7017 -3.6070 -0.0956
 4902SOL     OW26164   1.441   4.678   2.515 -0.1787 -0.1841 -0.0948
 4902SOL    HW126165   1.514   0.009   2.543  0.4220 -0.7994 -0.4554
 4902SOL    HW226166   1.367   4.711   2.565 -0.7004 -0.9040 -0.3762
 4903SOL     OW26167   3.082   2.554   4.433  0.0513 -0.1334  0.1718
 4903SOL    HW126168   3.063   2.561   4.527 -3.1169  1.8209 -0.6209
 4903SOL    HW226169   3.075   2.459   4.417 -2.8585  0.3351 -1.3015
 4904SOL     OW26170   3.029   0.615   9.686 -0.0593 -0.4209  0.2236
 4904SOL    HW126171   3.037   0.676   9.760  0.5553  2.1588 -1.9448
 4904SOL    HW226172   3.011   0.538   9.739 -1.9830  0.4145  0.7797
 4905SOL     OW26173   1.414   3.527  10.930 -0.0780 -0.0851  0.5235
 4905SOL    HW126174   1.371   3.444  10.912  0.4261 -0.7071  2.1368
 4905SOL    HW226175   1.490   3.516  10.873 -1.8390  0.3034 -1.8705
 4906SOL     OW26176   3.538   0.271   2.985  0.0512  0.7644  0.0197
 4906SOL    HW126177   3.628   0.240   2.993 -0.6294 -1.2023  0.0320
 4906SOL    HW226178   3.495   0.211   2.925  2.0604 -0.5985 -0.0563
 4907SOL     OW26179   2.622   4.372   8.472  0.7703 -0.2605 -0.3541
 4907SOL    HW126180   2.698   4.365   8.531 -0.0629  0.8044  0.8404
 4907SOL    HW226181   2.659   4.430   8.406  0.5938  0.5093  0.2236
 4908SOL     OW26182   3.912   3.256   4.343  0.2230 -0.2827 -0.2144
 4908SOL    HW126183   3.920   3.164   4.369 -0.0554 -0.3229 -0.2659
 4908SOL    HW226184   4.001   3.287   4.327  0.4296 -0.3364  0.8524
 4909SOL     OW26185   0.406   2.534   7.245  0.0672  0.4016  0.2692
 4909SOL    HW126186   0.475   2.512   7.307 -0.7701 -0.9402  0.7349
 4909SOL    HW226187   0.450   2.520   7.161  0.1410 -1.0715  0.5427
 4910SOL     OW26188   1.105   2.797  14.016 -0.7096 -0.7713  0.4167
 4910SOL    HW126189   1.013   2.815  13.994 -1.1401 -2.8908  0.4737
 4910SOL    HW226190   1.110   2.866  14.081  2.5064 -1.6303  1.0521
 4911SOL     OW26191   1.310   3.587   7.189 -0.6496 -0.0798  0.3969
 4911SOL    HW126192   1.301   3.662   7.248 -1.5959  0.9404 -1.0566
 4911SOL    HW226193   1.272   3.514   7.239  0.1524 -1.6756 -1.3521
 4912SOL     OW26194   2.298   1.844   7.981 -0.9443  0.3325 -0.4521
 4912SOL    HW126195   2.303   1.879   7.892 -0.0486  1.6099  0.1043
 4912SOL    HW226196   2.384   1.878   8.005 -0.7230 -2.2638  2.3796
 4913SOL     OW26197   3.891   4.388  14.365  0.2758  0.4940 -0.3145
 4913SOL    HW126198   3.894   4.473  14.407 -0.4153 -0.3125  1.3739
 4913SOL    HW226199   3.961   4.398  14.300  1.4475 -2.9187  0.4038
 4914SOL     OW26200   2.113   3.186  14.897  0.1249  0.1843  0.1431
 4914SOL    HW126201   2.183   3.154  14.840 -1.3931 -2.0540 -0.4633
 4914SOL    HW226202   2.057   3.108  14.898 -1.3339  1.1778 -2.3764
 4915SOL     OW26203   1.364   1.125   0.600  0.1820  0.3535  0.3530
 4915SOL    HW126204   1.399   1.179   0.529  1.8622  1.2486  1.8576
 4915SOL    HW226205   1.326   1.057   0.545  0.1079  0.9431 -0.3226
 4916SOL     OW26206   1.372   3.000   7.258 -0.0920  0.3778  0.6611
 4916SOL    HW126207   1.379   2.908   7.231  0.7017  0.4632  0.5806
 4916SOL    HW226208   1.280   3.023   7.242  0.1407 -0.6826 -2.1524
 4917SOL     OW26209   1.452   4.080   8.305 -0.0025 -0.1454 -0.3272
 4917SOL    HW126210   1.532   4.038   8.336  1.0933  1.1009 -1.4292
 4917SOL    HW226211   1.495   4.159   8.271  1.9940 -0.5984  1.1511
 4918SOL     OW26212   0.728   0.145  14.421 -0.5084 -0.5658  0.0631
 4918SOL    HW126213   0.781   0.141  14.501 -0.2448  0.4378 -0.0544
 4918SOL    HW226214   0.730   0.052  14.398 -0.5578 -0.4923 -0.2402
 4919SOL     OW26215   4.675   1.900   6.133 -0.1997 -0.0823  0.2860
 4919SOL    HW126216   4.699   1.809   6.113  3.0147  0.9838 -0.7204
 4919SOL    HW226217   0.034   1.940   6.158  0.8329  0.2300 -3.6245
 4920SOL     OW26218   2.439   2.894   5.517  0.2229  0.5932  0.5312
 4920SOL    HW126219   2.395   2.976   5.496 -2.0980 -0.6457  0.5152
 4920SOL    HW226220   2.432   2.838   5.439  1.6179 -1.4432  1.8894
 4921SOL     OW26221   4.402   3.526  13.538 -0.1460  0.1202 -0.0999
 4921SOL    HW126222   4.343   3.562  13.604  1.6020  1.4325  0.7238
 4921SOL    HW226223   4.442   3.604  13.499  4.0666 -1.0421  1.9188
 4922SOL     OW26224   2.234   3.480   8.638  0.4340 -0.3107  0.1043
 4922SOL    HW126225   2.138   3.478   8.642  0.5888 -2.6594  2.3055
 4922SOL    HW226226   2.247   3.404   8.695 -0.7221  0.0903  0.9155
 4923SOL     OW26227   0.794   0.032   4.531 -0.1544 -0.3175  0.2212
 4923SOL    HW126228   0.706   0.065   4.519  0.2889  0.0091 -2.1192
 4923SOL    HW226229   0.824   0.090   4.601 -0.7296 -0.5252  0.6355
 4924SOL     OW26230   0.625   4.204   7.028  0.3116  0.2142  0.3658
 4924SOL    HW126231   0.644   4.116   7.060  2.4171 -0.1593 -1.9231
 4924SOL    HW226232   0.573   4.199   6.948  0.1832  0.0602  0.4592
 4925SOL     OW26233   0.311   0.539   9.225  0.1584  0.2058  0.5828
 4925SOL    HW126234   0.304   0.443   9.234  1.1286 -0.0052 -0.9982
 4925SOL    HW226235   0.397   0.530   9.184 -0.3129 -0.8761 -0.1748
 4926SOL     OW26236   4.305   1.448   5.890 -0.4027 -0.4682 -0.8426
 4926SOL    HW126237   4.372   1.441   5.958 -1.9385  0.0263  0.7232
 4926SOL    HW226238   4.228   1.477   5.939 -1.3513 -0.6342 -2.2531
 4927SOL     OW26239   2.762   4.270   8.119  0.1177  0.1108 -0.2048
 4927SOL    HW126240   2.692   4.226   8.070 -1.0624  0.4358  1.1510
 4927SOL    HW226241   2.781   4.196   8.177 -0.1435  0.2519  0.0634
 4928SOL     OW26242   1.592   3.182   7.182  0.0419 -0.4549 -0.4082
 4928SOL    HW126243   1.552   3.226   7.107  0.1648 -1.1408 -0.8767
 4928SOL    HW226244   1.517   3.136   7.218 -0.4047  1.4655  1.1257
 4929SOL     OW26245   1.012   3.848  16.005  0.4499 -0.1005 -0.1047
 4929SOL    HW126246   1.044   3.776  16.060  0.8940  0.9171  0.9643
 4929SOL    HW226247   1.026   3.818  15.915 -0.8507 -0.5743 -0.1498
 4930SOL     OW26248   1.819   0.108   6.899 -0.9680  0.5002 -0.0908
 4930SOL    HW126249   1.894   0.103   6.958 -0.9532  0.5703 -0.1042
 4930SOL    HW226250   1.822   0.023   6.855 -2.1091  0.5539 -0.2726
 4931SOL     OW26251   2.270   3.526  17.099  0.3731  0.1532 -0.2167
 4931SOL    HW126252   2.347   3.473  17.083  0.4136 -0.2130  1.1484
 4931SOL    HW226253   2.252   3.505  17.191 -2.3310  2.5814 -0.1773
 4932SOL     OW26254   1.090   3.909  11.327 -0.0874 -0.3670  0.1153
 4932SOL    HW126255   1.103   3.875  11.238  1.0690  0.3057  0.0260
 4932SOL    HW226256   0.995   3.921  11.334 -0.4478 -2.3010 -1.2840
 4933SOL     OW26257   3.041   1.585   2.430 -0.5176 -0.0073 -0.2419
 4933SOL    HW126258   2.965   1.552   2.478  0.9058 -0.7190  1.5404
 4933SOL    HW226259   3.012   1.589   2.339 -0.2277 -0.8389 -0.3727
 4934SOL     OW26260   4.375   1.651  16.346 -0.5162  0.2270 -0.1940
 4934SOL    HW126261   4.390   1.601  16.426 -2.4897  0.9237  0.6168
 4934SOL    HW226262   4.447   1.711  16.361  1.7574 -2.1826 -1.4880
 4935SOL     OW26263   3.003   3.490   4.110  0.2549  0.0321  0.9699
 4935SOL    HW126264   3.082   3.505   4.162  0.5223 -1.6544  1.0732
 4935SOL    HW226265   3.024   3.407   4.066 -0.1375  0.1805  0.4966
 4936SOL     OW26266   4.228   1.917  14.688 -0.1489 -0.0694  0.0562
 4936SOL    HW126267   4.189   2.004  14.685  1.7112  0.8446  2.3453
 4936SOL    HW226268   4.285   1.905  14.612  1.2841 -1.7183  1.3734
 4937SOL     OW26269   3.670   3.379   7.885 -0.5212 -0.0739  0.6764
 4937SOL    HW126270   3.622   3.296   7.877  2.4527 -1.5836 -1.7299
 4937SOL    HW226271   3.761   3.349   7.895  0.2822  1.7625 -1.3156
 4938SOL     OW26272   3.115   4.489  10.663 -0.1058  0.0505  0.5228
 4938SOL    HW126273   3.020   4.493  10.653 -0.0114  2.2026  0.4471
 4938SOL    HW226274   3.144   4.520  10.577 -1.6561 -1.2236 -0.4666
 4939SOL     OW26275   1.666   3.781  14.141 -0.1741  0.5656 -0.1106
 4939SOL    HW126276   1.746   3.815  14.180  0.1269 -0.8734  0.5450
 4939SOL    HW226277   1.610   3.783  14.219  0.6211 -1.0792  0.5052
 4940SOL     OW26278   1.453   0.528   0.986  0.0094 -0.1105  0.4428
 4940SOL    HW126279   1.430   0.603   1.041  0.0450 -0.3590  0.8003
 4940SOL    HW226280   1.536   0.563   0.954 -0.8401  2.0251  0.5702
 4941SOL     OW26281   4.126   3.226  13.993 -0.1181 -0.6438 -0.3971
 4941SOL    HW126282   4.112   3.248  13.901 -0.4476 -2.6515 -0.8251
 4941SOL    HW226283   4.190   3.294  14.014  0.8371 -1.6898  0.0445
 4942SOL     OW26284   2.043   1.515   7.816 -0.1131 -0.3914 -0.6531
 4942SOL    HW126285   1.984   1.563   7.758 -1.6867  1.7331  2.7851
 4942SOL    HW226286   2.132   1.535   7.787 -0.8261 -0.0134 -2.5688
 4943SOL     OW26287   0.317   3.081   6.718  0.4363  0.1127 -0.3876
 4943SOL    HW126288   0.363   3.127   6.647 -0.5846 -1.2210 -1.9330
 4943SOL    HW226289   0.257   3.152   6.741  0.0035  0.5860 -2.9572
 4944SOL     OW26290   2.675   2.754   6.293  0.1567  0.7395  0.8456
 4944SOL    HW126291   2.764   2.732   6.322  0.3065 -2.0370 -1.7275
 4944SOL    HW226292   2.630   2.673   6.317 -0.4219  0.7397 -0.2355
 4945SOL     OW26293   2.976   4.236   3.938  0.2460 -0.5661  0.1783
 4945SOL    HW126294   2.978   4.161   3.879 -1.2770  0.4729 -1.1944
 4945SOL    HW226295   2.898   4.222   3.992 -1.2302  0.2900 -1.7418
 4946SOL     OW26296   0.239   2.949  16.101  0.2110 -0.3269 -0.5289
 4946SOL    HW126297   0.328   2.982  16.113 -0.8117  2.3261 -0.1421
 4946SOL    HW226298   0.241   2.921  16.010 -2.0168  1.0826 -1.0178
 4947SOL     OW26299   1.781   4.706   8.208 -0.1689  0.6531  0.1796
 4947SOL    HW126300   1.717   4.698   8.137  1.1951 -0.8383 -0.8782
 4947SOL    HW226301   1.845   4.643   8.177  0.8918  1.3581  0.9486
 4948SOL     OW26302   0.633   0.759  10.596  0.0913 -0.0047 -0.7119
 4948SOL    HW126303   0.725   0.763  10.572  0.5448 -3.5891  0.4397
 4948SOL    HW226304   0.600   0.721  10.515 -0.9231  1.6646 -1.0795
 4949SOL     OW26305   3.111   0.420   3.132 -0.6111  0.0206 -0.6181
 4949SOL    HW126306   3.028   0.389   3.168 -0.5306  0.8882  0.2972
 4949SOL    HW226307   3.158   0.336   3.131  0.2170  0.4838 -0.6728
 4950SOL     OW26308   3.931   1.680   4.580  0.2987  0.1370 -0.2932
 4950SOL    HW126309   3.846   1.722   4.591  0.1761 -0.0552 -0.5167
 4950SOL    HW226310   3.976   1.729   4.648  1.2632 -0.0708 -0.7778
 4951SOL     OW26311   3.810   0.894   9.241  0.2846 -0.0464 -0.1499
 4951SOL    HW126312   3.840   0.913   9.330  0.2437 -2.2332  0.3132
 4951SOL    HW226313   3.744   0.963   9.230 -1.0699 -1.0244  1.8786
 4952SOL     OW26314   4.685   4.452   2.865 -0.1433 -0.0133 -0.3463
 4952SOL    HW126315   4.663   4.400   2.787 -1.6626 -0.5761  0.4520
 4952SOL    HW226316   4.598   4.489   2.881 -0.3247 -0.7088  0.2845
 4953SOL     OW26317   1.305   2.178   3.140 -0.3322 -0.1391  0.1789
 4953SOL    HW126318   1.313   2.145   3.230  2.9726 -1.3387 -0.5696
 4953SOL    HW226319   1.218   2.145   3.118  0.3670 -2.8159  1.3745
 4954SOL     OW26320   3.149   1.984   9.768 -0.6896 -0.2010  0.4846
 4954SOL    HW126321   3.085   1.989   9.698 -1.0169  1.3193  0.8999
 4954SOL    HW226322   3.097   2.006   9.845  0.1288  0.2973  0.9004
 4955SOL     OW26323   1.003   0.733   8.639  0.1751 -0.6206  0.2401
 4955SOL    HW126324   0.932   0.674   8.665 -2.3573  0.8822 -3.3013
 4955SOL    HW226325   1.075   0.680   8.604  1.9081  1.6244  0.4096
 4956SOL     OW26326   1.223   1.394   2.973 -0.0489 -0.1984 -0.7003
 4956SOL    HW126327   1.280   1.379   2.897 -0.5008 -2.1918 -0.6496
 4956SOL    HW226328   1.144   1.364   2.928  1.1438  0.3042 -3.0807
 4957SOL     OW26329   0.645   1.992   7.704 -0.2577  0.1314  0.3029
 4957SOL    HW126330   0.739   1.985   7.720 -0.6496  0.2658  2.7088
 4957SOL    HW226331   0.605   1.908   7.681 -0.7224  0.8042 -1.3224
 4958SOL     OW26332   1.183   3.246   4.576 -0.2577 -0.0018  0.0720
 4958SOL    HW126333   1.168   3.242   4.481 -3.9952 -1.1799  0.6947
 4958SOL    HW226334   1.277   3.228   4.577  0.6631  4.9621 -0.2664
 4959SOL     OW26335   2.507   2.057   2.487  0.2136 -0.3992  0.3930
 4959SOL    HW126336   2.503   2.096   2.399  0.7550 -1.1518  0.0280
 4959SOL    HW226337   2.425   2.093   2.522 -1.0591 -2.9794  0.0398
 4960SOL     OW26338   0.613   2.664   6.748  0.5025 -0.0213 -0.1854
 4960SOL    HW126339   0.544   2.729   6.758  1.5125  0.8842  0.8814
 4960SOL    HW226340   0.685   2.722   6.773  2.7164 -2.2974 -1.3229
 4961SOL     OW26341   4.469   4.512   1.697 -0.1932  0.1779  0.3133
 4961SOL    HW126342   4.459   4.513   1.602 -3.1722  1.6280  0.6604
 4961SOL    HW226343   4.388   4.472   1.727 -0.8991 -0.2556 -2.1803
 4962SOL     OW26344   4.233   2.459  14.085  0.1465 -0.0811  0.1044
 4962SOL    HW126345   4.316   2.444  14.132  0.3033 -2.5424 -0.9655
 4962SOL    HW226346   4.241   2.406  14.005  0.8053 -0.4719  0.4219
 4963SOL     OW26347   2.034   4.347   3.134 -0.3040  0.4805 -0.1355
 4963SOL    HW126348   2.087   4.400   3.074  3.2276 -1.2833  1.4342
 4963SOL    HW226349   1.959   4.347   3.075 -0.6073  0.7934  0.2535
 4964SOL     OW26350   4.446   4.151   1.387  0.0327 -0.0629  0.5245
 4964SOL    HW126351   4.457   4.238   1.426  2.3835  0.6612 -1.7578
 4964SOL    HW226352   4.411   4.097   1.458  0.2417  0.3310  0.9278
 4965SOL     OW26353   1.590   1.192   7.793 -0.3723 -0.1961 -0.0524
 4965SOL    HW126354   1.615   1.134   7.864 -1.8840 -1.3794 -0.4720
 4965SOL    HW226355   1.557   1.269   7.840  3.4462  1.4992 -0.1363
 4966SOL     OW26356   3.055   3.768   5.026 -0.4917  0.2931 -0.5845
 4966SOL    HW126357   3.091   3.733   5.107  1.1941  0.9711 -1.0244
 4966SOL    HW226358   2.987   3.704   5.006 -0.6349 -0.1361  1.3630
 4967SOL     OW26359   3.417   4.183   9.482  0.3029 -0.0758  0.2273
 4967SOL    HW126360   3.328   4.217   9.470  0.1922 -0.0478  1.1392
 4967SOL    HW226361   3.412   4.147   9.570  0.1820 -1.3293 -0.2982
 4968SOL     OW26362   1.930   1.979   8.847  0.4791 -0.2780 -0.0155
 4968SOL    HW126363   1.945   2.031   8.926  1.3660  1.3148 -1.2352
 4968SOL    HW226364   1.847   1.940   8.873  1.3831 -2.6802 -0.7510
 4969SOL     OW26365   4.640   3.456  10.577 -0.3918 -0.3142 -0.2487
 4969SOL    HW126366   4.696   3.382  10.553  0.8270 -0.1217  1.9532
 4969SOL    HW226367   4.689   3.525  10.533 -0.3758 -1.3144 -1.8048
 4970SOL     OW26368   2.583   2.909   2.080  0.2433 -0.0666 -0.0938
 4970SOL    HW126369   2.582   2.935   1.988 -0.7712  1.3358  0.3169
 4970SOL    HW226370   2.650   2.971   2.108  0.8663 -0.9411  0.3403
 4971SOL     OW26371   0.777   2.037  13.518  0.1130 -0.2187 -0.0053
 4971SOL    HW126372   0.791   1.984  13.597  1.7019  1.7653  1.0482
 4971SOL    HW226373   0.708   1.981  13.484 -0.0658 -0.2331  0.3787
 4972SOL     OW26374   0.265   2.278   6.956 -0.4563 -0.1137 -0.4394
 4972SOL    HW126375   0.216   2.198   6.974  2.3239 -2.2530 -2.3890
 4972SOL    HW226376   0.205   2.331   6.903  1.4418  1.1298 -1.3579
 4973SOL     OW26377   2.207   1.669  13.253  0.2266  0.0313  0.1193
 4973SOL    HW126378   2.143   1.658  13.182 -0.4616 -0.0285  0.7391
 4973SOL    HW226379   2.167   1.623  13.328 -0.1614  0.4731  0.1853
 4974SOL     OW26380   0.196   2.673   5.272 -0.3017  0.2170  0.2061
 4974SOL    HW126381   0.207   2.715   5.186  0.0280 -0.3355 -0.0189
 4974SOL    HW226382   0.122   2.614   5.255 -0.6799  1.4574 -2.4939
 4975SOL     OW26383   1.816   1.295  11.778 -0.1631  0.3585  0.2028
 4975SOL    HW126384   1.880   1.364  11.796  1.0578 -0.3478 -1.4674
 4975SOL    HW226385   1.839   1.215  11.824 -0.1011 -0.1746 -0.7472
 4976SOL     OW26386   2.918   0.577   6.349 -0.1326  0.2930  0.3208
 4976SOL    HW126387   2.910   0.481   6.351  0.3855  0.2456 -0.2373
 4976SOL    HW226388   2.978   0.596   6.277 -1.7434 -1.5812 -1.5193
 4977SOL     OW26389   4.090   0.097   2.694  0.2684  0.5433  0.0824
 4977SOL    HW126390   4.100   0.011   2.651 -2.5751 -0.4559  1.3823
 4977SOL    HW226391   4.063   0.151   2.619 -0.1050 -2.3058 -1.8441
 4978SOL     OW26392   4.355   2.602   5.162  0.1994 -0.2176 -0.5868
 4978SOL    HW126393   4.380   2.566   5.248 -0.9265 -1.2855 -0.7049
 4978SOL    HW226394   4.368   2.695   5.178  0.3012 -0.1932 -0.8226
 4979SOL     OW26395   3.027   4.430   2.708 -0.5113 -0.6406 -0.2505
 4979SOL    HW126396   3.080   4.428   2.788  1.9505 -0.1592 -1.8440
 4979SOL    HW226397   2.965   4.502   2.718  2.1634  1.3841  1.6636
 4980SOL     OW26398   2.378   1.905   9.611 -0.2650 -0.0779  0.3156
 4980SOL    HW126399   2.321   1.977   9.638  0.7801 -0.7459  4.3248
 4980SOL    HW226400   2.318   1.844   9.569  0.3169 -1.0996  0.9654
 4981SOL     OW26401   0.959   0.098   2.293 -0.1188  0.7273 -0.2644
 4981SOL    HW126402   0.943   0.058   2.207  0.6114 -0.2299  0.0462
 4981SOL    HW226403   1.043   0.140   2.273  0.3283  0.0841  0.2368
 4982SOL     OW26404   3.169   1.761  13.804  0.3183  0.5443 -0.0655
 4982SOL    HW126405   3.176   1.694  13.872  1.8698 -0.0114 -0.7774
 4982SOL    HW226406   3.260   1.766  13.775  1.9803 -2.4313  4.6584
 4983SOL     OW26407   3.908   1.029   2.584  0.1300  0.3068 -0.0464
 4983SOL    HW126408   3.853   1.058   2.511  0.0080 -1.0601 -0.4987
 4983SOL    HW226409   3.973   0.972   2.543  1.9726  1.9033  0.6185
 4984SOL     OW26410   1.051   0.981   7.536  0.7167  0.1118  0.0345
 4984SOL    HW126411   1.093   0.912   7.484 -0.3389 -0.1665 -0.4450
 4984SOL    HW226412   1.084   0.958   7.623 -0.1825  1.2458  0.6768
 4985SOL     OW26413   3.364   3.195   3.697 -0.0224 -0.4149  0.2240
 4985SOL    HW126414   3.390   3.242   3.617 -0.0670 -0.5305  0.1415
 4985SOL    HW226415   3.444   3.146   3.714 -0.1132 -0.5548  0.2459
 4986SOL     OW26416   2.393   1.461   3.308  0.1274 -0.5024 -0.2976
 4986SOL    HW126417   2.461   1.403   3.273 -2.2121 -2.2775 -1.9194
 4986SOL    HW226418   2.375   1.408   3.386 -2.3931  1.1933  0.2686
 4987SOL     OW26419   3.241   3.309  12.378  0.3615  0.1531 -0.1100
 4987SOL    HW126420   3.299   3.233  12.385 -0.5464 -0.5554 -0.2678
 4987SOL    HW226421   3.237   3.322  12.472 -0.1570  0.5901 -0.1962
 4988SOL     OW26422   4.582   1.079   5.760  0.3771 -0.1784 -0.0152
 4988SOL    HW126423   4.620   1.140   5.823 -0.4179  1.6799 -1.3477
 4988SOL    HW226424   4.576   1.001   5.816  1.7665  0.3442  0.8823
 4989SOL     OW26425   4.183   0.856   6.827  0.3745 -0.1537 -0.9401
 4989SOL    HW126426   4.262   0.882   6.781  1.8257 -2.2385  0.3819
 4989SOL    HW226427   4.108   0.892   6.779 -0.3251 -1.0069 -0.4897
 4990SOL     OW26428   1.992   0.279  16.284 -0.2453  1.1397 -0.1734
 4990SOL    HW126429   2.078   0.244  16.305 -0.9746 -1.5777 -1.5481
 4990SOL    HW226430   2.011   0.372  16.286  0.6159  0.9242  1.1848
 4991SOL     OW26431   2.138   3.951   7.359 -0.3848 -0.0883 -0.2529
 4991SOL    HW126432   2.215   3.927   7.308 -0.8506 -0.0302 -0.9801
 4991SOL    HW226433   2.094   4.020   7.310  1.2293  0.7357 -0.5478
 4992SOL     OW26434   2.362   3.759   2.670  0.6563 -0.1915  0.5468
 4992SOL    HW126435   2.327   3.793   2.752  0.4016 -2.2257  1.2866
 4992SOL    HW226436   2.282   3.770   2.618  1.4442  0.9029 -0.4457
 4993SOL     OW26437   4.044   2.696   2.173  0.6653  0.0077 -0.1029
 4993SOL    HW126438   4.028   2.641   2.250 -1.6072 -1.1827 -1.4317
 4993SOL    HW226439   3.955   2.715   2.144 -0.2940  0.4303  3.0678
 4994SOL     OW26440   3.081   2.712   6.602  0.5395 -0.4318  0.2496
 4994SOL    HW126441   3.095   2.719   6.697  4.3773  0.6553 -0.3900
 4994SOL    HW226442   3.085   2.617   6.588 -1.5553 -0.3533 -0.9380
 4995SOL     OW26443   2.032   0.451   9.258  0.2243  0.1168  0.2602
 4995SOL    HW126444   1.959   0.466   9.318  0.8252 -0.2690  1.0791
 4995SOL    HW226445   2.011   0.514   9.188 -2.6375 -0.5661  0.4881
 4996SOL     OW26446   0.996   3.752   4.645 -0.0463  0.3604  0.0865
 4996SOL    HW126447   0.908   3.718   4.627  0.4497 -0.5238 -0.6786
 4996SOL    HW226448   0.980   3.844   4.624  1.6048  0.8579  0.9755
 4997SOL     OW26449   1.118   0.435   5.367  0.1656 -0.4193 -0.0082
 4997SOL    HW126450   1.050   0.468   5.308 -0.6402 -0.7883  0.7192
 4997SOL    HW226451   1.186   0.411   5.304 -1.0427 -1.0963 -1.0655
 4998SOL     OW26452   2.637   1.250   7.453 -0.2645  0.1808 -0.0842
 4998SOL    HW126453   2.637   1.346   7.452 -0.1380  0.1820  0.2758
 4998SOL    HW226454   2.544   1.229   7.446  0.1553 -1.4896 -0.5065
 4999SOL     OW26455   4.572   0.077  16.082  0.0249  0.3544 -0.1372
 4999SOL    HW126456   4.587   0.127  16.162 -0.4423 -1.0872  0.8543
 4999SOL    HW226457   4.560   0.146  16.016  0.8459  0.9344  0.3188
 5000SOL     OW26458   2.125   4.269   5.625 -0.4460  0.5696  0.1742
 5000SOL    HW126459   2.186   4.326   5.579  1.6013 -0.5379  1.5252
 5000SOL    HW226460   2.062   4.244   5.556  1.0321 -2.5842 -0.0399
 5001SOL     OW26461   1.360   0.361   2.333  0.1803  0.4692 -0.5052
 5001SOL    HW126462   1.425   0.378   2.265 -0.0582 -2.6526 -1.5127
 5001SOL    HW226463   1.411   0.397   2.405 -0.1398 -0.6860  0.2955
 5002SOL     OW26464   0.164   2.647   3.665 -0.0811 -0.1113  0.2094
 5002SOL    HW126465   0.226   2.610   3.602  2.0687  4.3053 -0.2651
 5002SOL    HW226466   0.088   2.592   3.646  0.8127 -0.9614 -0.9301
 5003SOL     OW26467   3.701   4.128  10.256  0.2002  0.5914  0.0793
 5003SOL    HW126468   3.707   4.146  10.162  0.9225 -2.0221 -0.3695
 5003SOL    HW226469   3.789   4.093  10.269  0.4672  1.0403 -0.5257
 5004SOL     OW26470   2.670   3.774   3.090 -0.4203  0.4966 -0.5421
 5004SOL    HW126471   2.736   3.805   3.027  0.3483  1.1740  0.5963
 5004SOL    HW226472   2.651   3.683   3.066  0.4389  0.3531 -0.6635
 5005SOL     OW26473   2.422   3.964   5.505 -0.1646  0.1261  0.1443
 5005SOL    HW126474   2.508   4.005   5.507  0.1186 -0.5294  1.1175
 5005SOL    HW226475   2.390   4.007   5.584  1.3880 -0.3031  0.9872
 5006SOL     OW26476   3.393   4.578   0.253  0.1813  0.9576  0.6008
 5006SOL    HW126477   3.320   4.520   0.234  3.1205 -3.0742  1.6024
 5006SOL    HW226478   3.440   4.588   0.170  0.2971 -2.9536  0.2109
 5007SOL     OW26479   3.669   1.559   7.764  0.1553 -0.6137 -0.0385
 5007SOL    HW126480   3.574   1.562   7.772 -0.1669 -1.1621 -3.4348
 5007SOL    HW226481   3.691   1.652   7.758 -2.3782 -0.2297 -3.5263
 5008SOL     OW26482   2.815   4.121   0.200 -0.2724  0.2064  0.4561
 5008SOL    HW126483   2.771   4.054   0.147 -2.0656  0.3480  1.7828
 5008SOL    HW226484   2.829   4.085   0.288 -0.0108  1.5043  0.9420
 5009SOL     OW26485   2.239   0.792   9.119 -0.3606  0.1824 -0.5697
 5009SOL    HW126486   2.146   0.782   9.138  0.3565 -2.8793  1.2814
 5009SOL    HW226487   2.276   0.715   9.161  1.5928  1.7828  0.6841
 5010SOL     OW26488   0.261   1.857   5.568 -0.7176 -0.0832 -0.5334
 5010SOL    HW126489   0.208   1.893   5.497 -0.6095 -0.1330 -0.6388
 5010SOL    HW226490   0.248   1.920   5.639 -1.9881 -1.3656  0.3637
 5011SOL     OW26491   0.228   3.529  10.671  0.4905  0.0061  0.0061
 5011SOL    HW126492   0.216   3.499  10.761  0.0347  1.7917  0.5537
 5011SOL    HW226493   0.215   3.621  10.696 -1.1103  0.2228 -1.6764
 5012SOL     OW26494   3.288   1.278   3.473 -0.0046 -0.2168  0.0573
 5012SOL    HW126495   3.347   1.203   3.482  2.6429  1.8672 -0.0064
 5012SOL    HW226496   3.253   1.272   3.562  1.1420 -0.2892  0.5027
 5013SOL     OW26497   1.278   2.628   4.301 -0.1310  0.0972 -0.9089
 5013SOL    HW126498   1.204   2.574   4.273  0.9280 -0.9122 -1.7711
 5013SOL    HW226499   1.232   2.682   4.365 -2.4064 -1.3661 -1.2968
 5014SOL     OW26500   3.294   3.123   0.130  0.4749  0.3529 -0.3478
 5014SOL    HW126501   3.372   3.129   0.075 -0.1466 -1.0528 -1.3773
 5014SOL    HW226502   3.294   3.031   0.156 -2.4485  0.5618  0.3385
 5015SOL     OW26503   2.494   3.501   5.427  0.4585 -0.0153 -0.3226
 5015SOL    HW126504   2.538   3.560   5.488 -1.2626  0.5649  0.3327
 5015SOL    HW226505   2.531   3.417   5.454  0.2326 -0.5324 -1.6140
 5016SOL     OW26506   1.577   3.512  16.375  0.7712  0.8821  0.2094
 5016SOL    HW126507   1.526   3.450  16.323  2.1161  0.9743 -1.2475
 5016SOL    HW226508   1.667   3.480  16.367 -0.6956 -3.0103 -0.6810
 5017SOL     OW26509   3.339   0.708   8.081 -0.6917 -0.4503 -0.4549
 5017SOL    HW126510   3.282   0.722   8.156 -0.5908  1.0181 -0.6690
 5017SOL    HW226511   3.421   0.692   8.128 -1.8030  0.1846  1.6724
 5018SOL     OW26512   2.982   3.025   6.427  0.1057  0.1946 -0.0997
 5018SOL    HW126513   2.911   3.087   6.444 -0.3412 -0.0277 -1.1693
 5018SOL    HW226514   2.996   3.038   6.334  1.3466 -2.1923 -0.2563
 5019SOL     OW26515   1.538   2.245   4.583 -0.2313 -0.1519  0.1181
 5019SOL    HW126516   1.480   2.265   4.656 -1.3078  1.6278 -1.2140
 5019SOL    HW226517   1.488   2.277   4.508 -1.4863 -5.1865 -1.2030
 5020SOL     OW26518   3.760   1.470  11.611  0.0391  0.0209  0.4717
 5020SOL    HW126519   3.681   1.421  11.589  0.9176 -1.8140  1.4111
 5020SOL    HW226520   3.818   1.463  11.534  0.0448  0.2755  0.4539
 5021SOL     OW26521   1.576   2.541   3.682  0.0355  0.0596  0.3121
 5021SOL    HW126522   1.516   2.599   3.729 -0.5834 -0.4260  0.1281
 5021SOL    HW226523   1.548   2.564   3.593  0.5788 -0.1202  0.0955
 5022SOL     OW26524   2.790   0.360   4.984  0.2896 -0.1276 -0.1097
 5022SOL    HW126525   2.848   0.427   4.948 -0.0713  0.3604  0.2216
 5022SOL    HW226526   2.714   0.415   5.005  1.2001  1.0225  0.1445
 5023SOL     OW26527   4.400   2.688   2.672  0.2703  0.1452 -0.1419
 5023SOL    HW126528   4.468   2.631   2.636  1.2553  0.3520  1.4097
 5023SOL    HW226529   4.332   2.620   2.682 -0.0432  0.5165  0.2404
 5024SOL     OW26530   3.207   1.590   2.797  0.2257  0.2328 -0.7446
 5024SOL    HW126531   3.197   1.643   2.718  2.1166  1.5909 -0.0782
 5024SOL    HW226532   3.113   1.573   2.808  0.2347 -0.2362 -1.3941
 5025SOL     OW26533   1.253   1.928   2.451  0.2302  0.1492  0.0359
 5025SOL    HW126534   1.219   1.870   2.520  0.0854  3.0139  2.3492
 5025SOL    HW226535   1.198   1.899   2.379  0.6878 -2.0702  0.5787
 5026SOL     OW26536   0.152   0.618   7.076  0.1869  0.2482  0.1675
 5026SOL    HW126537   0.223   0.580   7.128 -0.3371  0.2814  0.9137
 5026SOL    HW226538   0.184   0.707   7.062  0.2941  0.1415 -0.2574
 5027SOL     OW26539   1.641   2.679   7.642 -0.1111 -0.2077  0.0914
 5027SOL    HW126540   1.655   2.604   7.584  0.1695 -0.2728  0.2423
 5027SOL    HW226541   1.550   2.707   7.628  0.1964 -0.0206 -1.4806
 5028SOL     OW26542   2.141   4.338   3.367 -0.1127  0.2259  0.6324
 5028SOL    HW126543   2.197   4.412   3.346 -1.7571  1.3324  0.1640
 5028SOL    HW226544   2.092   4.322   3.287  0.8205  1.8604 -0.2526
 5029SOL     OW26545   0.988   1.165   3.218 -0.4959 -0.0591 -0.6470
 5029SOL    HW126546   0.909   1.182   3.268  0.2478 -2.1104  1.2713
 5029SOL    HW226547   0.979   1.072   3.194 -2.0979  0.3344 -1.5765
 5030SOL     OW26548   2.143   2.941   5.714  0.0977  0.2182 -0.7411
 5030SOL    HW126549   2.058   2.900   5.700 -0.1607  0.2619  0.6672
 5030SOL    HW226550   2.146   2.995   5.635  1.3629  0.3532 -0.5938
 5031SOL     OW26551   4.299   0.087  10.308 -0.4639  0.5994 -0.1139
 5031SOL    HW126552   4.335   0.068  10.394  0.6852 -0.7083 -0.8988
 5031SOL    HW226553   4.207   0.076  10.335 -0.0533  0.5249  1.2326
 5032SOL     OW26554   2.437   3.052   5.833  0.6276 -0.2696 -0.0753
 5032SOL    HW126555   2.496   2.978   5.819  0.6332 -0.6858  2.1373
 5032SOL    HW226556   2.349   3.015   5.836 -0.0059  1.1458 -1.2958
 5033SOL     OW26557   1.144   2.928  11.581 -0.5608 -0.2435  0.1775
 5033SOL    HW126558   1.129   2.948  11.673 -0.7987  0.5640 -0.0316
 5033SOL    HW226559   1.239   2.911  11.581 -0.9478 -2.3608  0.9321
 5034SOL     OW26560   1.152   3.816   6.299 -0.1714  0.3247 -0.0596
 5034SOL    HW126561   1.234   3.858   6.274  0.3009 -0.0366  0.8964
 5034SOL    HW226562   1.089   3.861   6.242  1.1705  1.2518 -0.7864
 5035SOL     OW26563   2.222   3.772   5.396 -0.4314  0.1315  0.1711
 5035SOL    HW126564   2.298   3.819   5.429 -1.0583  3.1905 -2.6764
 5035SOL    HW226565   2.210   3.812   5.309 -0.3622 -0.6207 -0.1847
 5036SOL     OW26566   2.514   4.077   4.598 -0.4801 -0.0337  0.3979
 5036SOL    HW126567   2.503   4.046   4.688  2.2718  1.2831  1.1932
 5036SOL    HW226568   2.472   4.163   4.609 -2.7332 -0.8867 -1.6945
 5037SOL     OW26569   0.581   2.832   8.732  0.0142 -0.7763  0.6174
 5037SOL    HW126570   0.598   2.865   8.820 -0.8286  0.7606  0.2036
 5037SOL    HW226571   0.669   2.794   8.724  0.7859  1.3307 -0.8072
 5038SOL     OW26572   2.377   1.375   8.711 -0.1533 -0.0669  0.1596
 5038SOL    HW126573   2.309   1.309   8.725 -0.1770  0.2830  1.6773
 5038SOL    HW226574   2.442   1.350   8.777  1.1706  0.9350 -0.7888
 5039SOL     OW26575   1.631   1.102   6.194  0.1423  0.1177  0.3028
 5039SOL    HW126576   1.579   1.069   6.267  0.1625  2.1184  1.2022
 5039SOL    HW226577   1.627   1.037   6.123 -0.0106  1.2598 -0.7303
 5040SOL     OW26578   0.295   0.524  17.638  0.2017  0.2241  0.0629
 5040SOL    HW126579   0.384   0.495  17.623 -1.0146 -3.0159 -0.8153
 5040SOL    HW226580   0.289   0.535   0.035  0.5125 -0.5685  0.1690
 5041SOL     OW26581   3.321   3.537   9.869 -0.4652  0.2976 -0.0732
 5041SOL    HW126582   3.272   3.474   9.921 -0.7227 -0.5525 -1.3299
 5041SOL    HW226583   3.402   3.489   9.850  0.8649  2.2410  0.7091
 5042SOL     OW26584   2.128   1.168   6.515 -0.2174  0.1222 -0.1386
 5042SOL    HW126585   2.167   1.254   6.529  1.3023 -0.8874  1.6758
 5042SOL    HW226586   2.187   1.127   6.451 -0.6522 -1.7927  0.6979
 5043SOL     OW26587   0.078   4.052   6.967  0.1259 -0.3080 -0.1422
 5043SOL    HW126588   0.102   3.965   6.935 -1.5753 -0.7790 -0.1821
 5043SOL    HW226589   0.163   4.093   6.981  0.8537 -1.6959 -0.4774
 5044SOL     OW26590   1.744   3.793   6.425 -0.0440 -0.3514 -0.2556
 5044SOL    HW126591   1.677   3.737   6.386  0.2095 -0.0153 -1.1650
 5044SOL    HW226592   1.826   3.750   6.405 -0.3975 -1.5393  0.8716
 5045SOL     OW26593   1.847   4.632  17.649 -0.3392 -0.0611  0.2835
 5045SOL    HW126594   1.811   4.721  17.652 -1.7459 -0.5990 -0.5640
 5045SOL    HW226595   1.770   4.583  17.620 -1.0267  0.3264  1.4360
 5046SOL     OW26596   2.298   4.374   5.464  0.2333 -0.1511 -0.4557
 5046SOL    HW126597   2.286   4.300   5.405  1.2097 -1.4554  1.0044
 5046SOL    HW226598   2.386   4.351   5.493  0.3379  0.6390 -0.1558
 5047SOL     OW26599   4.261   3.915  15.686 -0.1597 -0.2284  0.1095
 5047SOL    HW126600   4.313   3.834  15.686  1.2747  0.6864  1.8862
 5047SOL    HW226601   4.226   3.914  15.597 -2.5467  1.9752  1.0332
 5048SOL     OW26602   1.547   3.518   2.717  0.0860 -0.6830  0.1147
 5048SOL    HW126603   1.574   3.547   2.630 -0.7728  1.2025  0.4857
 5048SOL    HW226604   1.535   3.597   2.769  1.3041 -0.2124 -0.3203
 5049SOL     OW26605   3.318   0.886   5.669 -0.7173 -0.5489 -0.4366
 5049SOL    HW126606   3.331   0.804   5.717  2.7410 -0.3499 -1.0657
 5049SOL    HW226607   3.349   0.949   5.734 -0.9189  0.4947 -1.3573
 5050SOL     OW26608   0.358   1.205  12.842 -0.3866 -0.3064  0.4465
 5050SOL    HW126609   0.298   1.229  12.912  0.5492  2.0479  0.4357
 5050SOL    HW226610   0.440   1.184  12.888 -0.1144 -0.6002 -0.1692
 5051SOL     OW26611   3.537   2.431   5.123  0.2122 -0.0875  0.1433
 5051SOL    HW126612   3.508   2.516   5.088  2.8222  1.5944  2.0067
 5051SOL    HW226613   3.505   2.431   5.214  0.6441 -1.4730  0.2909
 5052SOL     OW26614   4.169   1.602   3.767  0.2091  0.6684 -0.9476
 5052SOL    HW126615   4.083   1.628   3.734 -0.0316 -0.7186 -1.4237
 5052SOL    HW226616   4.209   1.594   3.681  2.3162 -0.1821  0.1208
 5053SOL     OW26617   0.695   2.832   6.044 -0.3323 -0.0007  0.0028
 5053SOL    HW126618   0.780   2.872   6.066 -0.3038  0.5669 -1.1411
 5053SOL    HW226619   0.703   2.757   6.102  0.8540 -1.1789 -1.7030
 5054SOL     OW26620   2.603   4.062   5.102 -0.2021  0.4338  0.1300
 5054SOL    HW126621   2.603   3.988   5.163 -1.8976 -0.9227 -1.5138
 5054SOL    HW226622   2.605   4.138   5.160 -2.9614  0.6090 -0.0458
 5055SOL     OW26623   1.170   0.996   4.790  0.9487  0.1042 -0.0154
 5055SOL    HW126624   1.155   0.952   4.707  2.0937  1.5821 -1.0005
 5055SOL    HW226625   1.179   1.086   4.759 -1.3463  0.2181 -0.4025
 5056SOL     OW26626   3.233   1.604  15.832 -0.4629  0.4893  0.4234
 5056SOL    HW126627   3.169   1.667  15.863 -1.8585 -0.3907 -0.6503
 5056SOL    HW226628   3.191   1.518  15.821  2.5203 -0.5325 -3.2844
 5057SOL     OW26629   2.949   4.402   1.927 -0.0119 -0.0223 -0.2929
 5057SOL    HW126630   3.004   4.471   1.891 -0.5419  1.1048  1.0398
 5057SOL    HW226631   3.017   4.369   1.985 -0.6265  0.2930  0.6083
 5058SOL     OW26632   2.252   1.748  15.703 -0.7296 -0.1092 -0.4309
 5058SOL    HW126633   2.313   1.734  15.631  0.4026  0.0716  0.4870
 5058SOL    HW226634   2.202   1.816  15.659  1.4431  0.0955 -2.5964
 5059SOL     OW26635   2.486   3.694  13.319 -0.0673 -0.5923 -0.4099
 5059SOL    HW126636   2.451   3.611  13.289 -0.2102 -0.5380 -0.3910
 5059SOL    HW226637   2.443   3.706  13.404  0.4015 -1.5480 -0.0365
 5060SOL     OW26638   4.356   1.377   3.037  0.0286  0.1086 -0.4376
 5060SOL    HW126639   4.298   1.305   3.012  2.3361 -1.2792 -1.8100
 5060SOL    HW226640   4.441   1.341   3.009  0.3450  1.4766 -1.2137
 5061SOL     OW26641   4.505   1.643  16.093  0.3167 -0.5373 -0.2811
 5061SOL    HW126642   4.504   1.721  16.037 -0.4198 -1.4651 -1.5419
 5061SOL    HW226643   4.575   1.665  16.155  0.5241  1.0891 -1.0856
 5062SOL     OW26644   3.303   4.569  16.693  0.3650 -0.6673 -0.0359
 5062SOL    HW126645   3.243   4.506  16.734 -1.3851  1.5821  0.8185
 5062SOL    HW226646   3.354   4.598  16.769  1.1950  1.2121 -1.2978
 5063SOL     OW26647   0.521   2.692   1.324  0.1154  0.1512 -0.3405
 5063SOL    HW126648   0.568   2.628   1.377  1.3041  1.0389 -0.3381
 5063SOL    HW226649   0.548   2.764   1.381  0.1748 -0.9337  1.0177
 5064SOL     OW26650   2.496   1.508   9.565  0.3300 -0.0052  0.3298
 5064SOL    HW126651   2.410   1.527   9.604 -1.0465  1.0573 -3.2893
 5064SOL    HW226652   2.477   1.424   9.524  0.4910 -0.4241  1.1152
 5065SOL     OW26653   2.596   1.992  10.597  0.2832 -0.3569  0.7042
 5065SOL    HW126654   2.546   2.033  10.667  1.3710 -1.1854  1.9507
 5065SOL    HW226655   2.677   2.041  10.610  0.0365 -0.3866  2.3074
 5066SOL     OW26656   3.973   0.313  10.775 -0.3169 -0.3210 -0.4648
 5066SOL    HW126657   3.977   0.292  10.681 -1.3554 -0.3132 -0.5134
 5066SOL    HW226658   4.040   0.263  10.821 -1.1847 -0.7142  0.3572
 5067SOL     OW26659   2.055   1.645  13.025 -0.1112 -0.1724 -0.5509
 5067SOL    HW126660   2.048   1.723  12.969 -0.6057  1.5701  1.9468
 5067SOL    HW226661   2.117   1.590  12.976 -0.5265 -1.9663  0.9669
 5068SOL     OW26662   3.020   1.593   9.724  0.5300 -0.4532  0.1326
 5068SOL    HW126663   2.971   1.511   9.717 -0.2080 -0.0295  0.3157
 5068SOL    HW226664   2.959   1.654   9.767  0.4579  0.2665 -0.9940
 5069SOL     OW26665   2.510   1.666   7.920  0.0344 -0.2750 -0.2019
 5069SOL    HW126666   2.530   1.603   7.989  0.1342 -1.7851 -1.6202
 5069SOL    HW226667   2.505   1.745   7.973 -1.2676 -0.0000 -0.7276
 5070SOL     OW26668   2.323   2.758   2.476 -0.1278  0.2866 -0.0705
 5070SOL    HW126669   2.335   2.852   2.492 -2.7848  0.5695  0.3261
 5070SOL    HW226670   2.399   2.723   2.522  0.3471 -0.3059 -1.3170
 5071SOL     OW26671   3.402   2.487   5.905 -0.0528  0.1177 -0.4381
 5071SOL    HW126672   3.375   2.426   5.973  1.8725  1.8046  1.8214
 5071SOL    HW226673   3.318   2.534   5.899  0.4335  1.2443  1.6138
 5072SOL     OW26674   1.878   0.703   9.917 -0.3093 -0.2475  0.2774
 5072SOL    HW126675   1.939   0.746   9.858 -0.4430  1.3717  1.3212
 5072SOL    HW226676   1.903   0.736  10.003 -1.1794  0.8956  0.0971
 5073SOL     OW26677   1.443   3.288   7.001 -0.5464 -0.0795  0.4475
 5073SOL    HW126678   1.418   3.217   6.941 -1.1485  0.5841 -0.0926
 5073SOL    HW226679   1.381   3.348   6.959 -1.6107 -0.4621  1.4717
 5074SOL     OW26680   0.304   0.520   4.816  0.2729  0.2037 -0.5710
 5074SOL    HW126681   0.268   0.599   4.776 -2.7599 -0.3036  1.1645
 5074SOL    HW226682   0.388   0.509   4.772  2.3963 -0.6989  3.7172
 5075SOL     OW26683   3.283   3.375   7.857 -0.6335 -0.2165 -0.4896
 5075SOL    HW126684   3.262   3.292   7.899  0.9885 -1.5128 -2.2605
 5075SOL    HW226685   3.362   3.401   7.905 -1.0815  1.5948 -0.7232
 5076SOL     OW26686   4.639   3.842   6.157 -0.3679 -0.5459  0.2287
 5076SOL    HW126687   4.681   3.759   6.132 -1.9552 -1.4711  0.6406
 5076SOL    HW226688   4.659   3.896   6.080 -0.2973 -0.4534  0.3132
 5077SOL     OW26689   0.900   1.823   2.892 -0.0059 -0.2096 -0.6542
 5077SOL    HW126690   0.942   1.789   2.972 -0.4824 -0.9062 -0.6917
 5077SOL    HW226691   0.852   1.744   2.866 -0.1727 -0.5520  0.6548
 5078SOL     OW26692   0.617   3.929   8.892 -0.4415 -0.3877 -0.3364
 5078SOL    HW126693   0.579   3.990   8.955  1.0341  1.2061 -0.9985
 5078SOL    HW226694   0.662   3.993   8.838  0.7917  0.5227  1.7679
 5079SOL     OW26695   4.064   1.819   4.792  0.6673 -0.3514 -0.0854
 5079SOL    HW126696   4.152   1.855   4.801 -0.4458  2.3109  0.1838
 5079SOL    HW226697   4.038   1.863   4.873 -1.8482  0.5075 -1.3456
 5080SOL     OW26698   3.416   3.897   5.972  0.2564  0.0787  0.1577
 5080SOL    HW126699   3.377   3.978   5.938  0.0423  0.0314  0.2884
 5080SOL    HW226700   3.341   3.844   6.001  1.1966 -0.0280  2.3923
 5081SOL     OW26701   2.513   2.683  12.676  0.6626  0.3727 -0.2800
 5081SOL    HW126702   2.497   2.690  12.582  1.1279 -0.7943 -0.4437
 5081SOL    HW226703   2.609   2.686  12.679  0.7505 -1.1084 -1.8853
 5082SOL     OW26704   4.131   2.545   0.348 -0.2596  0.2111  0.0495
 5082SOL    HW126705   4.100   2.455   0.352  0.8475 -0.2009 -0.5912
 5082SOL    HW226706   4.197   2.528   0.280 -1.2957 -0.0274 -0.8998
 5083SOL     OW26707   4.134   3.180  17.012 -0.3877 -0.4973  0.0502
 5083SOL    HW126708   4.093   3.264  17.032  0.7031  0.1784 -0.5807
 5083SOL    HW226709   4.141   3.188  16.917  0.0190 -0.2718  0.0998
 5084SOL     OW26710   0.912   3.740   7.354 -0.3625  0.5468 -0.3082
 5084SOL    HW126711   0.855   3.667   7.379 -0.1945  0.1070 -1.1892
 5084SOL    HW226712   0.978   3.736   7.424 -0.3418  0.6550 -0.3220
 5085SOL     OW26713   0.833   0.412   6.720  0.3135  0.3780  0.3941
 5085SOL    HW126714   0.810   0.505   6.720 -0.0374  0.2948 -0.5635
 5085SOL    HW226715   0.891   0.418   6.797 -0.7040  0.5090  1.1460
 5086SOL     OW26716   0.402   1.154   8.127 -0.0838 -0.5547  0.3711
 5086SOL    HW126717   0.425   1.199   8.208  0.2752  0.8815 -0.5319
 5086SOL    HW226718   0.316   1.181   8.094  0.1212  0.4859  0.6977
 5087SOL     OW26719   0.503   4.540   2.456  1.2246 -0.1819  0.1009
 5087SOL    HW126720   0.466   4.611   2.508  0.5954 -0.4382 -0.0036
 5087SOL    HW226721   0.597   4.559   2.453  1.3114 -0.0821  2.8517
 5088SOL     OW26722   0.047   4.264   8.062  0.8637  0.6712  0.1646
 5088SOL    HW126723   0.102   4.301   8.131 -1.6016  0.7829  2.0620
 5088SOL    HW226724   0.098   4.198   8.015 -0.6478  0.8134 -1.6482
 5089SOL     OW26725   3.579   3.710   0.958  0.2159  0.0447 -0.4587
 5089SOL    HW126726   3.666   3.750   0.961 -0.5332  1.7127 -1.3140
 5089SOL    HW226727   3.521   3.786   0.968  1.3744  1.0823 -1.7958
 5090SOL     OW26728   4.233   0.424   5.317 -0.2352  0.3908  0.2989
 5090SOL    HW126729   4.238   0.331   5.336 -0.1725  0.5583  1.1309
 5090SOL    HW226730   4.247   0.467   5.402 -1.7702  0.5414  0.4651
 5091SOL     OW26731   3.606   4.510   5.528  0.1700 -0.2135  0.0320
 5091SOL    HW126732   3.597   4.540   5.618 -3.5852  0.4244 -0.5797
 5091SOL    HW226733   3.599   4.415   5.540  2.8652 -0.7661 -2.4738
 5092SOL     OW26734   1.108   0.800   7.740 -0.5994 -0.1569 -0.0198
 5092SOL    HW126735   1.108   0.742   7.816  3.3842 -0.2676 -0.0968
 5092SOL    HW226736   1.079   0.739   7.672  0.2654  0.6521 -1.1111
 5093SOL     OW26737   0.159   0.360   7.975  0.3964 -0.1407  0.1975
 5093SOL    HW126738   0.191   0.389   7.889 -0.7592 -1.6915 -0.7510
 5093SOL    HW226739   0.232   0.391   8.028  0.9915 -0.9519 -0.1479
 5094SOL     OW26740   3.333   3.313   6.070  0.3437  0.5976  0.1308
 5094SOL    HW126741   3.243   3.307   6.039  1.2452 -2.0525 -2.0151
 5094SOL    HW226742   3.372   3.229   6.045  3.6858  1.5476  2.1221
 5095SOL     OW26743   1.508   3.056   5.009  0.7224 -0.4919 -0.2123
 5095SOL    HW126744   1.534   3.142   4.974 -0.9710  0.1556  0.1504
 5095SOL    HW226745   1.571   3.004   4.958 -1.2021 -1.4517 -1.6080
 5096SOL     OW26746   1.510   4.562   3.491  0.3904  0.0659 -0.2181
 5096SOL    HW126747   1.536   4.620   3.419 -0.1467 -2.5196 -2.4714
 5096SOL    HW226748   1.430   4.518   3.463 -0.7902  0.8996  1.8486
 5097SOL     OW26749   4.466   4.215   5.448  0.1385 -0.2499  0.4653
 5097SOL    HW126750   4.500   4.145   5.392 -0.0694 -1.2019  1.5218
 5097SOL    HW226751   4.484   4.288   5.389 -1.3445  2.0316  2.8683
 5098SOL     OW26752   0.039   3.957   6.386 -0.5313 -0.0055  0.0112
 5098SOL    HW126753   4.708   3.910   6.324 -0.8076  0.8517 -0.3871
 5098SOL    HW226754   0.072   3.879   6.430  0.7313  0.6949  0.3099
 5099SOL     OW26755   3.615   3.887   0.630  0.0235 -0.0108 -0.0207
 5099SOL    HW126756   3.548   3.869   0.563 -1.2616  1.2985  0.9165
 5099SOL    HW226757   3.678   3.816   0.615 -0.4334 -0.1527 -1.3166
 5100SOL     OW26758   1.344   2.083   9.663 -0.5112  0.1131 -1.0019
 5100SOL    HW126759   1.276   2.045   9.719  0.3004 -1.3923 -1.0389
 5100SOL    HW226760   1.406   2.014   9.639  2.1497  1.4011  2.2332
 5101SOL     OW26761   1.807   1.576  13.128  0.9647 -0.1560 -0.5124
 5101SOL    HW126762   1.897   1.595  13.102  1.8389 -0.1152  2.5107
 5101SOL    HW226763   1.758   1.633  13.068 -1.3617 -0.8874  0.6587
 5102SOL     OW26764   4.715   1.173   9.208 -0.2876 -0.1975  0.0186
 5102SOL    HW126765   4.626   1.153   9.179 -0.0519 -2.0588  0.6307
 5102SOL    HW226766   0.036   1.097   9.243 -0.6878 -0.0795  0.8047
 5103SOL     OW26767   3.888   0.421   7.148  0.0087 -0.4885  0.3228
 5103SOL    HW126768   3.957   0.365   7.185  1.0282 -0.2296 -1.1604
 5103SOL    HW226769   3.931   0.472   7.079  0.9097 -0.1070  1.1494
 5104SOL     OW26770   3.257   1.360   4.332  0.1421 -0.5201  0.0007
 5104SOL    HW126771   3.239   1.405   4.415 -0.9079 -0.0742 -0.4685
 5104SOL    HW226772   3.305   1.285   4.367  0.4940 -0.9885 -1.4759
 5105SOL     OW26773   0.118   2.823   4.478  0.4113 -0.1012 -0.0600
 5105SOL    HW126774   0.023   2.816   4.465  0.2936 -1.8648  1.8294
 5105SOL    HW226775   0.135   2.917   4.476 -0.9658  0.1604  0.6430
 5106SOL     OW26776   2.742   3.498   4.147 -0.3004 -0.6921  0.4196
 5106SOL    HW126777   2.836   3.493   4.126 -0.1722  0.7501  0.6268
 5106SOL    HW226778   2.722   3.592   4.140  0.4545 -0.4492  1.4926
 5107SOL     OW26779   1.422   3.293   8.162  0.4193  0.2370  0.5217
 5107SOL    HW126780   1.481   3.345   8.107 -0.0359 -0.0172 -0.2185
 5107SOL    HW226781   1.337   3.337   8.175  0.4830  0.4987  0.0745
 5108SOL     OW26782   0.953   1.874  10.936 -0.0006 -0.2245 -0.5152
 5108SOL    HW126783   0.923   1.807  10.998 -1.1513  0.5447 -0.2354
 5108SOL    HW226784   0.993   1.822  10.866  0.9850  1.4060 -1.1604
 5109SOL     OW26785   1.740   0.219   2.160  0.6054 -0.1913 -0.2807
 5109SOL    HW126786   1.755   0.312   2.142  1.6188  0.0390  1.7083
 5109SOL    HW226787   1.743   0.199   2.067 -0.4103 -2.4073  0.1469
 5110SOL     OW26788   4.113   0.986   1.031  0.0736 -0.2768  0.3154
 5110SOL    HW126789   4.049   1.057   1.043  0.0237 -0.0010 -1.5818
 5110SOL    HW226790   4.104   0.960   0.940 -0.0299 -0.4247  0.3681
 5111SOL     OW26791   1.548   3.509   5.146 -1.1731 -0.0480  0.5844
 5111SOL    HW126792   1.542   3.483   5.238  0.8912 -1.0176  0.4445
 5111SOL    HW226793   1.620   3.447   5.135 -0.8160  0.2199  1.4173
 5112SOL     OW26794   0.168   2.925   3.130  0.3234 -0.3198 -0.1585
 5112SOL    HW126795   0.209   3.011   3.143 -0.4607  0.3160 -1.8137
 5112SOL    HW226796   0.111   2.921   3.207  0.4507  0.3542 -0.0228
 5113SOL     OW26797   2.621   0.158   6.763 -1.1306 -0.0145  0.0567
 5113SOL    HW126798   2.703   0.130   6.805 -1.8746  0.2653  1.7100
 5113SOL    HW226799   2.633   0.252   6.755 -0.7409 -0.2657 -2.1345
 5114SOL     OW26800   0.775   4.418   8.535 -0.1662 -0.0871 -0.3619
 5114SOL    HW126801   0.750   4.353   8.469 -0.4035  0.1562 -0.5096
 5114SOL    HW226802   0.864   4.433   8.504 -1.3027  2.0052 -2.6255
 5115SOL     OW26803   3.666   2.971   1.191 -0.0917  0.2493 -0.0602
 5115SOL    HW126804   3.691   3.060   1.214 -0.1471 -0.1836  1.7202
 5115SOL    HW226805   3.691   2.937   1.278  0.1630  1.0323  0.1687
 5116SOL     OW26806   3.037   3.811  12.471 -0.2345  0.1018  0.1519
 5116SOL    HW126807   3.082   3.763  12.541 -0.2462  0.4557  0.4028
 5116SOL    HW226808   2.948   3.777  12.465  0.3946 -1.1079 -2.3405
 5117SOL     OW26809   4.431   0.102  10.553  0.4403  0.1062 -0.7245
 5117SOL    HW126810   4.454   0.013  10.581  0.7489  0.0030 -1.3177
 5117SOL    HW226811   4.515   0.146  10.547 -0.5181  2.1686  0.8101
 5118SOL     OW26812   2.925   3.398  12.137 -0.0139  0.1109 -0.0157
 5118SOL    HW126813   2.844   3.350  12.154  0.7033 -0.9018  0.5724
 5118SOL    HW226814   2.887   3.480  12.106  0.5740  0.5588  0.4590
 5119SOL     OW26815   0.262   4.623  14.169 -0.2889  0.2365  0.2834
 5119SOL    HW126816   0.283   4.607  14.261 -0.4311 -0.0447  0.2653
 5119SOL    HW226817   0.189   4.683  14.183 -1.8019 -1.1837 -1.3948
 5120SOL     OW26818   4.382   1.134   1.180 -0.4940  0.1791  0.1972
 5120SOL    HW126819   4.465   1.109   1.221 -0.8870 -2.4689 -0.5931
 5120SOL    HW226820   4.329   1.066   1.222 -0.9117 -0.2242 -0.9734
 5121SOL     OW26821   4.318   4.144   4.054 -0.2004  0.3846  0.3163
 5121SOL    HW126822   4.327   4.077   3.986  0.0126 -1.0990  1.7999
 5121SOL    HW226823   4.231   4.177   4.031  0.7922  1.0313 -2.4479
 5122SOL     OW26824   2.862   0.256  15.938  0.3247  0.4938  0.0895
 5122SOL    HW126825   2.914   0.236  15.860  1.5237 -0.6455  1.1819
 5122SOL    HW226826   2.856   0.351  15.929 -0.3378  0.7787  3.5788
 5123SOL     OW26827   1.797   4.391   0.079  0.2193  0.2803 -0.4320
 5123SOL    HW126828   1.736   4.373   0.151  2.3034  0.5690  1.3943
 5123SOL    HW226829   1.845   4.463   0.118 -1.0938  1.1930 -0.4992
 5124SOL     OW26830   1.096   0.009   7.816 -0.2093 -0.1119 -0.1799
 5124SOL    HW126831   1.093   4.671   7.889 -0.8691 -0.8464 -0.8208
 5124SOL    HW226832   1.028   0.070   7.846  0.9445  0.9121  0.3403
 5125SOL     OW26833   0.975   2.157   9.582  0.2314 -0.3144 -0.4836
 5125SOL    HW126834   1.027   2.113   9.515  2.0447  0.1199  0.6383
 5125SOL    HW226835   1.012   2.245   9.575  0.3403 -0.4396 -1.4283
 5126SOL     OW26836   1.301   2.884   6.563  0.8106 -0.3247 -0.1860
 5126SOL    HW126837   1.249   2.964   6.562 -0.8497 -1.3799  1.5423
 5126SOL    HW226838   1.238   2.824   6.602  1.1212 -2.0531 -2.3650
 5127SOL     OW26839   1.023   0.900  13.189  0.0148 -0.0653 -0.1895
 5127SOL    HW126840   1.088   0.939  13.247  0.3559 -1.3399  0.2929
 5127SOL    HW226841   1.027   0.807  13.212  2.6181 -0.2318 -1.3130
 5128SOL     OW26842   2.905   0.863  11.240 -0.3389 -0.2028  0.0469
 5128SOL    HW126843   2.987   0.907  11.263 -1.4349  1.0837  1.6039
 5128SOL    HW226844   2.923   0.775  11.271 -0.9996 -0.3396  0.0481
 5129SOL     OW26845   3.516   0.857   9.597 -0.1149 -0.9352  0.0945
 5129SOL    HW126846   3.536   0.943   9.561  1.2725 -0.0700  2.9327
 5129SOL    HW226847   3.508   0.822   9.508  0.6785 -0.1933 -0.2590
 5130SOL     OW26848   2.651   3.776  12.703 -0.4208 -0.2521 -0.4757
 5130SOL    HW126849   2.603   3.732  12.633 -2.1273  0.2386  0.3861
 5130SOL    HW226850   2.617   3.718  12.772  0.5017 -0.8951 -0.5653
 5131SOL     OW26851   1.540   0.743   3.498  0.3408 -0.6986  0.2859
 5131SOL    HW126852   1.526   0.737   3.593  0.9128  0.1210  0.4198
 5131SOL    HW226853   1.448   0.736   3.473  0.5892 -1.7443 -0.3207
 5132SOL     OW26854   2.119   4.569  11.015  0.3364 -0.1563  0.4227
 5132SOL    HW126855   2.024   4.567  11.028  0.4488 -0.6225  1.1511
 5132SOL    HW226856   2.137   4.511  11.088  2.5197  0.6949  0.5480
 5133SOL     OW26857   4.348   3.030   2.263 -0.2089 -0.2125  0.1007
 5133SOL    HW126858   4.314   3.086   2.333 -0.6081 -0.1454 -0.1487
 5133SOL    HW226859   4.301   2.949   2.284 -1.2192  0.8942  2.1031
 5134SOL     OW26860   1.705   1.915   7.953  0.5803 -0.3870  0.3871
 5134SOL    HW126861   1.720   1.831   7.911  0.8957 -0.1897  0.1040
 5134SOL    HW226862   1.748   1.907   8.039  0.6006 -0.1787  0.3984
 5135SOL     OW26863   1.048   0.178   5.583  0.6288 -0.2786  0.1997
 5135SOL    HW126864   1.136   0.208   5.605  0.3515  0.5416  0.1522
 5135SOL    HW226865   1.073   0.143   5.498  0.0360  0.4792 -0.2867
 5136SOL     OW26866   4.599   3.729   5.281 -0.1973  0.2538 -0.2158
 5136SOL    HW126867   4.689   3.703   5.264  0.3047  0.7323  1.6936
 5136SOL    HW226868   4.570   3.647   5.321  0.9659 -0.1630 -0.2230
 5137SOL     OW26869   1.394   1.266  11.708  0.6402 -0.1586 -0.2806
 5137SOL    HW126870   1.352   1.181  11.724  0.0851 -0.0332 -1.0293
 5137SOL    HW226871   1.402   1.261  11.612  1.4655 -0.6859 -0.1819
 5138SOL     OW26872   4.120   2.142   5.597  0.3184 -0.4284 -0.3426
 5138SOL    HW126873   4.151   2.085   5.526 -3.8209  1.3774 -3.5927
 5138SOL    HW226874   4.033   2.168   5.566 -0.0441 -1.1848  0.0399
 5139SOL     OW26875   3.384   4.004   5.342 -0.3435  0.0547 -0.7645
 5139SOL    HW126876   3.468   3.975   5.376  0.3033  1.5415 -1.1134
 5139SOL    HW226877   3.377   3.962   5.256 -0.5060  0.5077 -0.9721
 5140SOL     OW26878   3.570   2.978   6.208 -0.4157 -0.4714  0.2187
 5140SOL    HW126879   3.503   2.968   6.276 -1.7301  2.6616 -0.6327
 5140SOL    HW226880   3.607   3.063   6.234 -1.6626 -0.2701  1.3313
 5141SOL     OW26881   1.344   0.555   2.583  0.2716  0.2133 -0.0345
 5141SOL    HW126882   1.411   0.600   2.531 -1.4563 -1.3705 -3.6151
 5141SOL    HW226883   1.377   0.573   2.671 -2.0991 -0.9015  1.0868
 5142SOL     OW26884   0.729   4.268  15.814  0.0008  0.1077 -0.2771
 5142SOL    HW126885   0.801   4.238  15.759 -1.9483 -0.7265 -2.3679
 5142SOL    HW226886   0.758   4.254  15.904  1.2000 -1.0681 -0.8494
 5143SOL     OW26887   1.690   3.762   7.199  0.0884  0.1504 -0.2200
 5143SOL    HW126888   1.611   3.790   7.153 -0.2319 -0.9003 -0.3280
 5143SOL    HW226889   1.671   3.671   7.222  2.0573  0.3507  2.1420
 5144SOL     OW26890   4.074   0.047   4.524  0.6658 -0.0506  0.3727
 5144SOL    HW126891   4.082   0.075   4.433  3.5948  0.5845  0.8425
 5144SOL    HW226892   4.150   4.717   4.542 -0.7463 -1.9185  0.7148
 5145SOL     OW26893   1.011   1.982   8.306  0.2598  0.2396  0.4180
 5145SOL    HW126894   1.026   1.962   8.398  0.4552 -0.6567  0.1947
 5145SOL    HW226895   0.939   1.925   8.281 -0.5348  0.4288  2.3119
 5146SOL     OW26896   2.727   0.600  10.429 -0.2365  0.0118 -0.2132
 5146SOL    HW126897   2.802   0.624  10.482 -1.4859  3.1415  0.1269
 5146SOL    HW226898   2.682   0.685  10.426 -1.0416 -0.4284 -0.6907
 5147SOL     OW26899   1.787   2.519   8.921  0.0086 -0.5889  0.6512
 5147SOL    HW126900   1.833   2.442   8.953 -0.7506  0.1762  3.6133
 5147SOL    HW226901   1.830   2.593   8.964  2.5910 -2.4385  1.2402
 5148SOL     OW26902   3.449   0.550  12.267  0.2169 -0.0742 -0.5855
 5148SOL    HW126903   3.429   0.470  12.219 -1.2894 -0.0439 -0.0128
 5148SOL    HW226904   3.364   0.575  12.303  1.2303 -0.3044  2.0287
 5149SOL     OW26905   1.947   3.430   6.840  0.2134  0.1269 -0.3242
 5149SOL    HW126906   1.969   3.438   6.747 -1.6251  2.3689 -0.5368
 5149SOL    HW226907   1.968   3.338   6.856 -1.5106 -0.2224 -0.0772
 5150SOL     OW26908   2.354   2.747   2.038  0.4104  0.1369  0.7185
 5150SOL    HW126909   2.424   2.810   2.057 -0.3428  1.1372  0.1782
 5150SOL    HW226910   2.292   2.808   1.997 -1.8404 -2.9135 -0.4376
 5151SOL     OW26911   4.630   2.977  12.050  0.2661 -0.0966 -0.2427
 5151SOL    HW126912   4.571   3.051  12.063 -1.3568 -1.9135  2.7236
 5151SOL    HW226913   4.706   3.008  12.001 -1.0652  1.2035 -1.4534
 5152SOL     OW26914   1.518   4.374   0.695  0.4598  0.1693  0.0715
 5152SOL    HW126915   1.591   4.347   0.752  1.2042  0.1631 -0.8868
 5152SOL    HW226916   1.518   4.299   0.635 -0.2240 -0.6189  1.0556
 5153SOL     OW26917   2.323   2.640  12.174 -0.0563 -0.5502  0.0016
 5153SOL    HW126918   2.236   2.664  12.141  0.3673 -0.8461 -1.3258
 5153SOL    HW226919   2.357   2.589  12.101  2.4959  0.8954  0.2106
 5154SOL     OW26920   3.635   3.369   8.286 -0.3364 -0.0244 -0.1881
 5154SOL    HW126921   3.665   3.286   8.323  1.2439  0.6896  0.1157
 5154SOL    HW226922   3.713   3.415   8.315 -1.0443  0.9631  0.1426
 5155SOL     OW26923   4.382   2.877   5.175  0.0803 -0.3971  0.1393
 5155SOL    HW126924   4.470   2.914   5.175 -0.6758  1.4072  1.4404
 5155SOL    HW226925   4.340   2.927   5.105  1.8915  0.0633 -0.6191
 5156SOL     OW26926   0.626   3.633   5.272 -0.1862  0.3554 -0.1288
 5156SOL    HW126927   0.694   3.694   5.243  0.2773 -0.6045 -1.0467
 5156SOL    HW226928   0.588   3.691   5.338  1.4271  1.7226 -0.4251
 5157SOL     OW26929   2.418   3.592   3.773  0.6967  0.5169 -0.3419
 5157SOL    HW126930   2.338   3.631   3.810  0.2465 -0.3693 -0.3854
 5157SOL    HW226931   2.471   3.672   3.769  0.4740  0.6388 -0.8257
 5158SOL     OW26932   1.172   3.914   0.094 -0.2096 -0.0214 -0.5876
 5158SOL    HW126933   1.169   3.899  17.697  0.6905  2.3244 -0.9873
 5158SOL    HW226934   1.108   3.985   0.099 -0.8795 -0.6969  0.4475
 5159SOL     OW26935   0.830   3.484   7.167  0.0510 -0.3440  0.3202
 5159SOL    HW126936   0.738   3.512   7.165  1.4272  3.9904 -2.5757
 5159SOL    HW226937   0.863   3.508   7.080  0.6054 -0.7448  0.4218
 5160SOL     OW26938   4.192   3.408   3.724 -0.2756  0.2995  0.5053
 5160SOL    HW126939   4.194   3.482   3.663 -1.6370  1.1999  1.5553
 5160SOL    HW226940   4.143   3.452   3.793  0.6726 -1.0228  2.0261
 5161SOL     OW26941   4.142   4.251  17.523  0.4539  0.2728 -0.0347
 5161SOL    HW126942   4.180   4.339  17.520  2.9653 -0.7338  2.4474
 5161SOL    HW226943   4.205   4.226  17.591 -0.2098 -1.2115  0.0283
 5162SOL     OW26944   2.241   0.716   7.961 -0.0308 -0.4526 -0.1580
 5162SOL    HW126945   2.229   0.675   8.046 -1.6012 -0.2552 -0.2780
 5162SOL    HW226946   2.282   0.650   7.904  0.5231 -0.4315  0.2225
 5163SOL     OW26947   2.818   0.010   5.979 -0.2135  0.0739 -0.4217
 5163SOL    HW126948   2.861   0.047   5.902 -0.6860 -0.5612 -0.9905
 5163SOL    HW226949   2.874   0.040   6.050  1.2568 -0.7959 -1.2016
 5164SOL     OW26950   2.561   2.804  12.112  0.4384  0.1195 -0.3789
 5164SOL    HW126951   2.565   2.818  12.017  3.3469 -0.6513 -0.3569
 5164SOL    HW226952   2.492   2.739  12.125 -3.3164  4.0420 -0.7661
 5165SOL     OW26953   3.565   1.124   9.517 -0.4526  0.0796 -0.1077
 5165SOL    HW126954   3.598   1.211   9.493 -0.1396  0.1114  0.4414
 5165SOL    HW226955   3.490   1.153   9.570 -0.6335 -1.4887  0.4677
 5166SOL     OW26956   2.229   2.461  13.751  0.4373 -0.4212  0.6678
 5166SOL    HW126957   2.254   2.481  13.841  0.2090 -2.8191  1.2617
 5166SOL    HW226958   2.175   2.539  13.739 -2.3602 -2.4856 -0.1659
 5167SOL     OW26959   0.587   4.470   1.580 -0.4937 -0.1729  0.0666
 5167SOL    HW126960   0.604   4.549   1.632  0.9546  0.4989 -1.4052
 5167SOL    HW226961   0.497   4.449   1.604 -0.0060  0.9781  2.8623
 5168SOL     OW26962   2.829   1.895  11.105 -0.3422 -0.2390  0.1456
 5168SOL    HW126963   2.812   1.820  11.162  1.5322  0.0984  1.1416
 5168SOL    HW226964   2.799   1.847  11.027  0.9896 -1.9713  0.7111
 5169SOL     OW26965   4.568   1.694   2.448  0.0850 -0.1593  0.1750
 5169SOL    HW126966   4.530   1.743   2.374  1.3084 -2.5338 -2.0401
 5169SOL    HW226967   4.487   1.668   2.491  1.8166  0.0636  3.5330
 5170SOL     OW26968   1.193   0.684  11.400 -0.7494  0.0436 -0.0742
 5170SOL    HW126969   1.128   0.727  11.344  0.5044 -1.0904 -2.3828
 5170SOL    HW226970   1.218   0.765  11.445  2.1333  0.1963 -1.9688
 5171SOL     OW26971   3.110   0.563   3.866  0.3227  0.0320 -0.1413
 5171SOL    HW126972   3.042   0.494   3.868  1.0995 -0.7418 -0.4325
 5171SOL    HW226973   3.175   0.523   3.809  0.8064  0.6975 -0.0484
 5172SOL     OW26974   0.973   0.348   6.223 -0.3584  0.4598 -0.2669
 5172SOL    HW126975   0.938   0.295   6.151  0.6173 -2.5354  1.4661
 5172SOL    HW226976   0.923   0.429   6.217  0.4507  0.9274 -0.8588
 5173SOL     OW26977   2.423   2.850   4.161 -0.5478  0.0546  0.3982
 5173SOL    HW126978   2.388   2.764   4.136 -1.5743  0.7262 -0.5108
 5173SOL    HW226979   2.388   2.908   4.093 -1.4968 -1.9039 -0.7985
 5174SOL     OW26980   4.311   4.610   6.456 -0.7186 -0.2060 -0.5408
 5174SOL    HW126981   4.326   4.516   6.465  1.0271 -0.0427 -1.7842
 5174SOL    HW226982   4.222   4.616   6.421 -1.2372  1.4637  1.0515
 5175SOL     OW26983   3.424   3.841   2.197 -0.3951 -0.3265  0.2076
 5175SOL    HW126984   3.493   3.807   2.253  0.2060 -0.6870 -0.7511
 5175SOL    HW226985   3.443   3.934   2.189 -0.3217 -0.3557  0.0564
 5176SOL     OW26986   4.085   1.626   5.450  0.1773  0.6682 -0.0100
 5176SOL    HW126987   4.131   1.542   5.451 -0.6510  0.2529  3.1084
 5176SOL    HW226988   4.143   1.667   5.515 -1.4324  0.7452  1.3866
 5177SOL     OW26989   1.459   1.571   5.167  0.5185 -0.6647  0.0833
 5177SOL    HW126990   1.428   1.569   5.258  0.6422 -0.7450  0.1229
 5177SOL    HW226991   1.553   1.588   5.170 -0.0159  2.2606  0.2149
 5178SOL     OW26992   2.599   3.679   5.611 -0.6481 -0.0146  0.5738
 5178SOL    HW126993   2.522   3.650   5.659 -2.7803  2.3180 -1.4622
 5178SOL    HW226994   2.638   3.736   5.677 -0.8258  0.7187  0.0416
 5179SOL     OW26995   0.175   4.206   9.887 -0.7552  0.0722 -0.2816
 5179SOL    HW126996   0.217   4.285   9.853  0.2898  0.9048  3.0113
 5179SOL    HW226997   0.138   4.159   9.812  1.6765  0.1081 -1.5251
 5180SOL     OW26998   1.582   0.770   2.190  0.3308  0.3365  0.0986
 5180SOL    HW126999   1.592   0.849   2.137 -0.5272  0.7874  0.6137
 5180SOL    HW227000   1.649   0.797   2.253  0.0912  2.0769 -0.3853
 5181SOL     OW27001   1.592   0.082   9.044  0.0104  0.0425  0.2390
 5181SOL    HW127002   1.570   0.168   9.009  1.8424  0.1323 -0.6885
 5181SOL    HW227003   1.518   0.053   9.097  0.3992  1.2324  1.4467
 5182SOL     OW27004   0.369   0.419   2.569  0.1936 -0.0621 -0.3454
 5182SOL    HW127005   0.392   0.505   2.606  1.5453 -0.1309 -1.0156
 5182SOL    HW227006   0.274   0.426   2.568  0.0770 -1.5605  0.3195
 5183SOL     OW27007   1.230   3.790   1.460 -0.0225 -0.3536 -0.3441
 5183SOL    HW127008   1.204   3.762   1.548 -1.6918  0.7071 -0.5109
 5183SOL    HW227009   1.304   3.845   1.485 -0.7462  0.6506 -0.4455
 5184SOL     OW27010   1.285   0.870  16.062 -0.1139 -0.2055 -0.4408
 5184SOL    HW127011   1.262   0.889  16.153  0.8355 -1.0589 -0.0325
 5184SOL    HW227012   1.327   0.953  16.037 -1.0857 -0.1450 -1.9033
 5185SOL     OW27013   2.543   1.845   8.149 -0.0807  0.1540  0.2929
 5185SOL    HW127014   2.623   1.819   8.195  0.5176  1.8118  0.1863
 5185SOL    HW227015   2.586   1.896   8.080  0.5859  0.6503  1.0773
 5186SOL     OW27016   0.177   2.237   1.493  0.3684  0.0034 -0.4379
 5186SOL    HW127017   0.148   2.328   1.479 -1.0809 -0.2766  0.6946
 5186SOL    HW227018   0.220   2.219   1.409 -2.2257 -1.3399 -1.4889
 5187SOL     OW27019   2.471   2.824   6.998  0.3065  0.2127 -0.4539
 5187SOL    HW127020   2.475   2.917   7.021 -2.2075 -0.2758  2.0535
 5187SOL    HW227021   2.507   2.800   7.084  0.1647 -2.7426 -1.2177
 5188SOL     OW27022   1.492   0.945   3.229  0.5773 -0.4154 -0.0434
 5188SOL    HW127023   1.463   0.980   3.313  3.4885  0.4105  0.6292
 5188SOL    HW227024   1.579   0.982   3.212  0.1975  0.5134  0.0250
 5189SOL     OW27025   0.707   3.449  10.005 -0.0782 -0.2549 -0.3124
 5189SOL    HW127026   0.635   3.456  10.068  1.3953  0.5064  1.3018
 5189SOL    HW227027   0.666   3.468   9.921  0.3742 -0.9097 -0.6745
 5190SOL     OW27028   4.715   3.544  11.914  0.5938  0.5648  0.2332
 5190SOL    HW127029   4.711   3.637  11.891  0.8850  0.7647  0.9858
 5190SOL    HW227030   0.060   3.501  11.865 -0.8131 -1.4882  0.0451
 5191SOL     OW27031   4.538   3.347   2.212 -0.0869 -0.4521 -0.7504
 5191SOL    HW127032   4.592   3.360   2.290 -1.3461 -1.3752  0.2837
 5191SOL    HW227033   4.463   3.396   2.245 -1.7068 -4.0427  0.9314
 5192SOL     OW27034   3.141   3.957   4.005  0.0592 -0.0625 -0.1767
 5192SOL    HW127035   3.083   3.913   4.066  0.8024 -0.0003  0.5806
 5192SOL    HW227036   3.093   3.957   3.922  0.0357 -1.0465 -0.1661
 5193SOL     OW27037   3.548   4.248   5.195 -0.5408 -0.2283 -0.1139
 5193SOL    HW127038   3.528   4.216   5.282  0.7051 -0.6364  0.0175
 5193SOL    HW227039   3.581   4.335   5.217 -1.5335 -0.5993  2.7583
 5194SOL     OW27040   3.075   1.882  11.884 -0.3446 -0.0925  0.1632
 5194SOL    HW127041   3.079   1.840  11.969 -1.0903  2.2843  1.3552
 5194SOL    HW227042   3.163   1.863  11.851 -0.4144 -1.7810  0.9395
 5195SOL     OW27043   2.740   1.098   4.796 -0.1782  0.2711 -0.0692
 5195SOL    HW127044   2.833   1.079   4.802 -0.3617 -0.5247  0.2527
 5195SOL    HW227045   2.741   1.179   4.746  2.0926  0.8564  0.9393
 5196SOL     OW27046   4.269   0.592  16.284 -0.0474 -0.1549 -0.3969
 5196SOL    HW127047   4.320   0.651  16.230  0.0580  0.0972 -0.0220
 5196SOL    HW227048   4.180   0.598  16.247  0.3007  0.7349 -1.0883
 5197SOL     OW27049   0.686   4.129   3.627 -0.0215 -0.1647 -0.2340
 5197SOL    HW127050   0.635   4.210   3.634  2.9902  1.8511 -1.4708
 5197SOL    HW227051   0.760   4.159   3.573  2.3057 -2.2949  1.7881
 5198SOL     OW27052   1.790   1.767   1.875 -0.1401  0.3612  0.2654
 5198SOL    HW127053   1.738   1.753   1.954 -0.6718 -0.0135 -0.1489
 5198SOL    HW227054   1.720   1.786   1.813  0.5664 -0.1362 -0.6835
 5199SOL     OW27055   3.436   0.917   6.466 -0.3205  0.5612  0.0334
 5199SOL    HW127056   3.352   0.927   6.421 -0.3874  0.3572  0.1126
 5199SOL    HW227057   3.412   0.832   6.504  0.7716  0.0394 -0.4507
 5200SOL     OW27058   0.353   3.743  11.030 -0.2728 -0.3244 -0.3821
 5200SOL    HW127059   0.361   3.777  11.119  1.6079  0.1812 -0.7375
 5200SOL    HW227060   0.421   3.676  11.038 -0.4467 -0.2339  1.9223
 5201SOL     OW27061   1.922   2.805   7.640  0.5947  0.5089  0.2737
 5201SOL    HW127062   1.987   2.773   7.702 -2.5212 -3.0784  1.7319
 5201SOL    HW227063   1.893   2.720   7.608  0.5333 -0.1844  2.1648
 5202SOL     OW27064   2.493   0.936  11.098 -0.0758 -0.1335 -0.6614
 5202SOL    HW127065   2.528   0.986  11.173  2.8551 -1.3037 -1.2314
 5202SOL    HW227066   2.501   0.845  11.124  2.3495  0.2685  0.0925
 5203SOL     OW27067   3.853   4.477   4.846 -0.4597 -0.1199 -0.3337
 5203SOL    HW127068   3.872   4.438   4.761  0.0107 -4.0718  1.5682
 5203SOL    HW227069   3.807   4.402   4.884  2.3914 -0.4657  2.3404
 5204SOL     OW27070   1.278   4.671   6.691 -0.2390  0.3258 -0.0184
 5204SOL    HW127071   1.288   4.616   6.769 -3.3715  0.4786  0.4683
 5204SOL    HW227072   1.190   4.657   6.658  0.3648  0.2868 -1.5871
 5205SOL     OW27073   1.290   0.919   8.938  0.2923  0.7163  0.2517
 5205SOL    HW127074   1.242   0.866   9.001  0.7665 -1.0782 -0.8773
 5205SOL    HW227075   1.227   0.919   8.866  0.2707 -1.4357  0.2688
 5206SOL     OW27076   3.681   2.796   5.378  0.3837 -0.1628  0.3617
 5206SOL    HW127077   3.732   2.722   5.344  0.4072 -0.3366  0.7757
 5206SOL    HW227078   3.696   2.767   5.469  1.8808 -0.3486  0.0615
 5207SOL     OW27079   4.509   4.589  10.626 -0.7650  0.2161  0.6877
 5207SOL    HW127080   4.486   4.599  10.719 -0.6450 -1.5740  0.9071
 5207SOL    HW227081   4.604   4.601  10.629 -0.9271  0.9614  2.9658
 5208SOL     OW27082   1.823   0.795   2.535 -0.3340  0.6136  0.3241
 5208SOL    HW127083   1.909   0.826   2.562 -0.5890  1.6027 -0.0080
 5208SOL    HW227084   1.801   0.758   2.621  1.4426  1.4449  1.1395
 5209SOL     OW27085   0.505   4.386  16.761  0.4061 -0.1269 -0.4267
 5209SOL    HW127086   0.480   4.443  16.688  1.3079 -0.2099 -0.7923
 5209SOL    HW227087   0.587   4.348  16.731  0.7450  0.8681 -0.7514
 5210SOL     OW27088   4.563   0.399   4.254  0.2301 -0.3009  0.6186
 5210SOL    HW127089   4.553   0.389   4.348  0.1175 -0.6881  0.5640
 5210SOL    HW227090   4.582   0.490   4.230  1.5459 -0.7732 -0.1399
 5211SOL     OW27091   3.047   2.256  16.701  0.4510  0.2347  0.2365
 5211SOL    HW127092   2.962   2.219  16.727  0.3853  0.3040  0.1212
 5211SOL    HW227093   3.026   2.319  16.632  0.4032  1.8092  1.6769
 5212SOL     OW27094   3.045   2.337   3.909 -0.4542 -0.4662  0.6808
 5212SOL    HW127095   3.131   2.330   3.950 -1.0033  2.7810  2.4385
 5212SOL    HW227096   3.062   2.299   3.823  1.1583  2.2804 -0.1994
 5213SOL     OW27097   1.966   2.365  17.513  0.0406  0.2218 -0.1074
 5213SOL    HW127098   1.976   2.392  17.605 -1.9792  2.5380 -0.5601
 5213SOL    HW227099   1.873   2.372  17.490 -0.2038  0.8075  1.0356
 5214SOL     OW27100   3.058   0.536   2.714  0.6216 -0.3194  0.1919
 5214SOL    HW127101   3.151   0.518   2.727  0.7525 -0.6451 -1.2467
 5214SOL    HW227102   3.034   0.591   2.789  0.5431  0.2142 -0.2279
 5215SOL     OW27103   4.157   0.986  10.181 -0.0638 -0.1967 -0.3000
 5215SOL    HW127104   4.091   1.055  10.177  0.6660  0.4949 -0.4133
 5215SOL    HW227105   4.230   1.018  10.128 -0.6389  0.3540 -0.7568
 5216SOL     OW27106   3.439   2.235   1.430  0.5214  0.6122 -0.4319
 5216SOL    HW127107   3.456   2.266   1.519  4.2533  0.3286 -1.0689
 5216SOL    HW227108   3.411   2.151   1.466  1.1595 -0.3427 -2.1802
 5217SOL     OW27109   1.425   4.642  17.288  0.0667 -0.6334  0.3861
 5217SOL    HW127110   1.471   4.697  17.351  1.8506 -2.0341  0.3224
 5217SOL    HW227111   1.444   4.684  17.204 -1.9101  0.8095  0.6649
 5218SOL     OW27112   4.410   4.111   5.115  0.2894 -0.0549  0.3545
 5218SOL    HW127113   4.484   4.131   5.057  1.5708  0.2877  2.1095
 5218SOL    HW227114   4.394   4.019   5.093  2.1810 -0.2042 -0.4514
 5219SOL     OW27115   1.640   3.681   3.475  0.1508 -0.2104 -0.3243
 5219SOL    HW127116   1.654   3.731   3.555 -1.4371  0.6841 -0.5979
 5219SOL    HW227117   1.576   3.737   3.433 -1.5157  0.1592  2.7075
 5220SOL     OW27118   1.692   3.010   2.260 -0.4585 -0.2011  0.6250
 5220SOL    HW127119   1.776   3.056   2.255 -0.7469  0.4796  2.0308
 5220SOL    HW227120   1.661   2.999   2.170  1.8903 -3.8510  0.2371
 5221SOL     OW27121   3.074   0.203   8.728  0.5250  0.2998  0.7879
 5221SOL    HW127122   3.081   0.285   8.778 -2.5878  0.8561  0.3010
 5221SOL    HW227123   3.075   0.143   8.802  2.8211 -2.3256 -1.3759
 5222SOL     OW27124   4.468   3.625   8.921 -0.1498 -0.2230  0.4844
 5222SOL    HW127125   4.414   3.593   8.994 -0.2079  1.4046  1.1551
 5222SOL    HW227126   4.402   3.679   8.878  2.2374  2.1279 -0.2073
 5223SOL     OW27127   4.697   3.128   0.096 -0.4144 -0.2505 -0.1662
 5223SOL    HW127128   0.029   3.073   0.042  0.4988  0.0931  0.4365
 5223SOL    HW227129   4.680   3.063   0.165 -2.8240  0.8423  0.2727
 5224SOL     OW27130   4.541   3.937   4.199 -0.6769  0.3522 -0.2281
 5224SOL    HW127131   4.522   3.874   4.268  0.1295 -1.3862 -1.5967
 5224SOL    HW227132   4.459   3.987   4.200 -0.6609  0.4002 -2.0004
 5225SOL     OW27133   4.718   2.434   6.847  0.0940  0.1607  0.2584
 5225SOL    HW127134   4.654   2.377   6.804  0.4081 -0.0128  0.0320
 5225SOL    HW227135   4.699   2.516   6.802 -0.7700 -0.1066  0.1226
 5226SOL     OW27136   1.612   3.889  12.515  0.0191 -0.1759 -0.1082
 5226SOL    HW127137   1.550   3.869  12.445  1.1107  0.6295 -1.2968
 5226SOL    HW227138   1.696   3.855  12.486  0.2198 -0.7829  1.1833
 5227SOL     OW27139   1.517   2.356   7.690 -0.2029 -0.1908  0.2401
 5227SOL    HW127140   1.592   2.377   7.635  0.1691 -2.4178 -0.1127
 5227SOL    HW227141   1.564   2.344   7.772 -1.4386 -0.0120  0.9786
 5228SOL     OW27142   2.023   3.240   9.350 -0.6374 -0.1478  0.0335
 5228SOL    HW127143   2.067   3.322   9.371  1.0745 -1.1382  0.2772
 5228SOL    HW227144   1.995   3.202   9.433  0.8210  0.2989  0.7276
 5229SOL     OW27145   3.047   2.700   2.970 -0.2206  0.5465 -0.9366
 5229SOL    HW127146   3.079   2.631   2.912  2.0625  2.8501 -2.4184
 5229SOL    HW227147   2.968   2.728   2.924  1.0975  0.9200 -2.9611
 5230SOL     OW27148   4.547   3.135  12.825 -0.1798 -0.4778 -0.3254
 5230SOL    HW127149   4.574   3.224  12.801  4.4755 -1.8777 -0.2304
 5230SOL    HW227150   4.625   3.089  12.795  2.5224  2.5114  2.1732
 5231SOL     OW27151   3.848   2.844  14.714  0.1092 -0.1637 -0.3137
 5231SOL    HW127152   3.797   2.827  14.793  2.4060 -5.0073  0.1297
 5231SOL    HW227153   3.882   2.933  14.725 -0.6337  0.2855 -1.6669
 5232SOL     OW27154   0.854   0.529  15.342  0.1624 -0.0341  0.0961
 5232SOL    HW127155   0.903   0.595  15.293 -0.4420  2.4170  2.8112
 5232SOL    HW227156   0.904   0.451  15.318  0.7420  0.1212  0.7806
 5233SOL     OW27157   3.773   0.864   3.867  0.3917  0.5534 -0.0406
 5233SOL    HW127158   3.679   0.883   3.866 -0.1728 -2.2030  1.1799
 5233SOL    HW227159   3.812   0.948   3.841  0.5410  0.1451 -1.1283
 5234SOL     OW27160   0.002   3.157   5.673  0.2224  0.4199 -0.5690
 5234SOL    HW127161   4.670   3.125   5.602  1.2405 -1.5080 -0.5218
 5234SOL    HW227162   0.087   3.135   5.634  0.5786  1.6689 -0.4841
 5235SOL     OW27163   2.153   4.084   9.667  0.5944 -0.1755  0.7215
 5235SOL    HW127164   2.204   4.017   9.621 -1.9526 -0.5578 -1.6034
 5235SOL    HW227165   2.061   4.060   9.652  1.0454 -1.7847  0.5032
 5236SOL     OW27166   4.640   2.871   4.079 -0.3780  0.2605  0.1005
 5236SOL    HW127167   4.555   2.836   4.105 -0.3349  0.9477  1.1785
 5236SOL    HW227168   4.643   2.939   4.146  2.5837  1.0352 -0.8008
 5237SOL     OW27169   2.078   2.573  11.859 -0.1174  0.1290 -0.2629
 5237SOL    HW127170   2.042   2.655  11.825  0.9391  0.5207 -0.4350
 5237SOL    HW227171   2.083   2.597  11.951  0.1081  0.3662 -0.3388
 5238SOL     OW27172   1.420   3.487   1.506  0.3351 -0.3317  0.0624
 5238SOL    HW127173   1.332   3.453   1.489  0.6688  0.2066 -2.7197
 5238SOL    HW227174   1.468   3.405   1.523  0.0777 -0.5675 -0.3486
 5239SOL     OW27175   0.414   3.664   7.889 -0.0220 -0.6589 -0.1149
 5239SOL    HW127176   0.371   3.596   7.941  0.8860 -1.8238 -0.8756
 5239SOL    HW227177   0.458   3.706   7.962  1.7892  0.0632 -1.6300
 5240SOL     OW27178   1.135   2.385  16.463 -0.5321  0.2037  0.4959
 5240SOL    HW127179   1.188   2.308  16.483 -0.8443 -0.5550 -1.5790
 5240SOL    HW227180   1.160   2.438  16.539 -1.1972  0.9288  0.2181
 5241SOL     OW27181   4.537   2.386   3.811  0.4669 -0.2621 -0.4153
 5241SOL    HW127182   4.597   2.398   3.737  0.4000  0.2763 -0.3832
 5241SOL    HW227183   4.579   2.315   3.859  0.6726  0.0413 -0.1462
 5242SOL     OW27184   0.654   1.887   5.551  0.1774 -0.4247 -0.6957
 5242SOL    HW127185   0.680   1.940   5.476  2.1402  1.7888  1.5456
 5242SOL    HW227186   0.617   1.810   5.507 -0.3936 -1.2180  1.1254
 5243SOL     OW27187   1.669   4.451   9.342 -0.6187 -0.1029 -0.2088
 5243SOL    HW127188   1.739   4.512   9.364  0.6426 -0.2085 -3.9331
 5243SOL    HW227189   1.729   4.377   9.349 -0.0428  0.4301  0.4433
 5244SOL     OW27190   0.759   4.199   0.426  0.1715  0.0036  0.1930
 5244SOL    HW127191   0.715   4.240   0.352  1.8635  0.2833 -0.6497
 5244SOL    HW227192   0.842   4.175   0.385 -0.5898 -0.1293 -1.2611
 5245SOL     OW27193   2.125   1.889  11.260 -0.1135 -0.1298  0.2286
 5245SOL    HW127194   2.203   1.941  11.277  0.4041 -0.1410 -2.0273
 5245SOL    HW227195   2.114   1.915  11.168  1.3975 -1.1960 -0.2489
 5246SOL     OW27196   2.061   1.995   0.933 -0.1796 -0.1904  0.4948
 5246SOL    HW127197   2.090   2.081   0.961 -1.9465 -0.3809  2.9791
 5246SOL    HW227198   1.970   2.004   0.963 -0.2460  0.1827  0.1805
 5247SOL     OW27199   1.773   0.716   3.357  0.7232 -0.4621  0.2771
 5247SOL    HW127200   1.793   0.626   3.382 -0.2745 -0.4506  1.0508
 5247SOL    HW227201   1.684   0.736   3.384  0.1730 -0.4491 -1.5528
 5248SOL     OW27202   3.096   3.323   5.942 -0.0444  0.1512  0.1832
 5248SOL    HW127203   3.026   3.386   5.956  1.7618  2.2860 -0.5348
 5248SOL    HW227204   3.055   3.255   5.889  3.4216 -1.5654 -0.3401
 5249SOL     OW27205   1.149   4.670   4.713  0.9734 -0.2022 -0.2934
 5249SOL    HW127206   1.168   4.696   4.803  2.0260  3.2607 -1.4901
 5249SOL    HW227207   1.194   0.018   4.669  2.8647 -0.9483  0.4504
 5250SOL     OW27208   0.795   2.995   8.144 -0.2958  0.4320 -0.0845
 5250SOL    HW127209   0.882   2.965   8.117 -0.7487  0.7771 -1.9522
 5250SOL    HW227210   0.747   2.913   8.140  0.8904 -0.2518 -0.2016
 5251SOL     OW27211   1.634   0.368  10.499  0.3471 -0.1106  0.7234
 5251SOL    HW127212   1.670   0.378  10.587 -0.3011 -0.0115  0.9748
 5251SOL    HW227213   1.588   0.286  10.520 -0.3644  0.7181  2.4578
 5252SOL     OW27214   2.223   1.757   6.309  0.3231  0.1363  0.1117
 5252SOL    HW127215   2.202   1.815   6.236 -0.5690  0.1230  0.3536
 5252SOL    HW227216   2.238   1.674   6.264 -1.6876 -0.0330 -0.2654
 5253SOL     OW27217   4.010   1.239  12.591 -0.3698 -0.5241  0.2506
 5253SOL    HW127218   3.933   1.269  12.639  2.4417 -0.0422  4.4559
 5253SOL    HW227219   3.988   1.148  12.572 -1.3460 -0.4021  0.7563
 5254SOL     OW27220   4.398   0.066   8.362  0.3174 -0.3393 -0.1640
 5254SOL    HW127221   4.382   4.705   8.403  1.6550 -0.0191  1.0080
 5254SOL    HW227222   4.409   0.020   8.279 -0.2481 -0.7905  0.0089
 5255SOL     OW27223   4.489   2.657   8.396  0.5748  1.0327 -0.3008
 5255SOL    HW127224   4.498   2.576   8.446  1.0221  1.0297 -0.3852
 5255SOL    HW227225   4.538   2.631   8.317  0.7027 -0.3442  0.2290
 5256SOL     OW27226   1.689   3.472   6.925  0.1267  0.6084  0.2041
 5256SOL    HW127227   1.773   3.491   6.883  0.4903 -0.6883  0.3460
 5256SOL    HW227228   1.716   3.392   6.969  2.0678  1.5924  0.7878
 5257SOL     OW27229   0.144   2.872   6.678 -0.0764 -0.3768  0.0444
 5257SOL    HW127230   0.093   2.852   6.756 -0.2726 -0.4516 -0.1045
 5257SOL    HW227231   0.189   2.953   6.702  1.5300 -1.1363 -0.3934
 5258SOL     OW27232   1.021   2.726  11.101 -0.2705  0.1970  0.5226
 5258SOL    HW127233   0.954   2.756  11.162  0.1241  0.7168  0.7014
 5258SOL    HW227234   1.070   2.661  11.151  0.9445 -0.2525 -1.2555
 5259SOL     OW27235   4.690   3.347   3.390 -0.2857  0.3185  1.0574
 5259SOL    HW127236   0.061   3.345   3.394 -0.2620 -3.2820 -0.9180
 5259SOL    HW227237   4.669   3.352   3.483 -0.5663  0.9875  0.9591
 5260SOL     OW27238   4.437   3.072  14.922 -0.2073  0.2357 -0.1592
 5260SOL    HW127239   4.364   3.018  14.953  0.7676 -0.1696  1.3988
 5260SOL    HW227240   4.435   3.033  14.835 -2.2639 -2.2150  0.9682
 5261SOL     OW27241   4.420   1.870  15.179 -0.2370  0.0986  0.1425
 5261SOL    HW127242   4.458   1.866  15.091 -0.3622 -0.1682  0.1000
 5261SOL    HW227243   4.374   1.790  15.202  0.0796  0.4591  2.0139
 5262SOL     OW27244   1.457   1.568  14.266 -0.1883 -0.0923  0.2122
 5262SOL    HW127245   1.518   1.512  14.315 -3.3100 -1.2102  2.8353
 5262SOL    HW227246   1.483   1.549  14.176  0.6201  0.3514  0.3523
 5263SOL     OW27247   0.926   2.739  14.244 -0.0989  0.1020  0.0428
 5263SOL    HW127248   0.900   2.779  14.162  1.9189 -1.3602 -1.3211
 5263SOL    HW227249   0.898   2.799  14.313  1.2282 -0.5515  1.1690
 5264SOL     OW27250   4.008   3.421   8.880 -0.0993 -0.1744  0.0977
 5264SOL    HW127251   3.997   3.349   8.942 -0.1930  0.5668  0.9465
 5264SOL    HW227252   3.947   3.394   8.810 -2.0623  1.3129  1.2332
 5265SOL     OW27253   1.930   0.660   1.835  0.2038 -0.0831 -0.2977
 5265SOL    HW127254   1.986   0.698   1.767  4.0578  0.2428  3.0423
 5265SOL    HW227255   1.924   0.567   1.813 -0.2170  0.2682 -1.6497
 5266SOL     OW27256   2.072   0.855   6.038  0.5830 -0.0487 -0.0228
 5266SOL    HW127257   2.154   0.822   6.076  0.4942 -1.1420 -0.7868
 5266SOL    HW227258   2.029   0.769   6.044  1.8742 -0.8151 -1.8335
 5267SOL     OW27259   2.320   4.242  11.043  0.6736 -0.0710  0.3965
 5267SOL    HW127260   2.247   4.225  11.102 -0.1143 -1.4748 -0.9753
 5267SOL    HW227261   2.307   4.174  10.977  4.0594 -0.3785  0.0483
 5268SOL     OW27262   3.810   2.072   9.532 -0.1312  0.4193 -0.2376
 5268SOL    HW127263   3.878   2.027   9.581 -0.6212 -0.0914 -0.0388
 5268SOL    HW227264   3.731   2.032   9.569  0.2184  0.9203  1.0613
 5269SOL     OW27265   2.183   1.418   4.521  0.0485  0.0178  0.1908
 5269SOL    HW127266   2.199   1.336   4.569  1.9197 -0.2558 -0.9121
 5269SOL    HW227267   2.202   1.393   4.431  1.4305 -0.7854  0.7030
 5270SOL     OW27268   1.520   4.344   6.903  0.3571  0.2448  0.1136
 5270SOL    HW127269   1.592   4.282   6.914  0.5078  0.5555  0.8538
 5270SOL    HW227270   1.509   4.340   6.808  0.1492  1.6906  0.0864
 5271SOL     OW27271   3.717   3.222  10.162  0.0708  0.3884  0.2904
 5271SOL    HW127272   3.785   3.280  10.129  1.5966 -1.7286 -0.2646
 5271SOL    HW227273   3.655   3.241  10.092 -0.1799  0.8372  0.6338
 5272SOL     OW27274   2.476   0.552  10.096 -0.1098  0.5444 -0.9595
 5272SOL    HW127275   2.530   0.520  10.168 -1.7061  0.9103  0.3888
 5272SOL    HW227276   2.514   0.514  10.017  0.4340 -0.3264 -0.2679
 5273SOL     OW27277   1.435   2.869  13.225 -0.3899 -0.0869 -0.4324
 5273SOL    HW127278   1.345   2.901  13.234 -1.5203 -3.1579 -0.7599
 5273SOL    HW227279   1.486   2.945  13.252 -1.6643  0.6345 -0.0803
 5274SOL     OW27280   2.014   1.099  13.935 -0.0706 -0.8494 -0.0357
 5274SOL    HW127281   1.994   1.162  14.005  3.5939 -0.5338  0.7122
 5274SOL    HW227282   2.110   1.104  13.936 -0.0055 -2.6510  1.1376
 5275SOL     OW27283   4.109   0.742  15.949 -0.4515  0.0906 -0.1941
 5275SOL    HW127284   4.174   0.690  15.901 -0.3145  0.7092 -0.6823
 5275SOL    HW227285   4.106   0.819  15.893 -0.7245  0.8035  0.8192
 5276SOL     OW27286   3.075   3.391   6.547  0.0652 -0.2538 -0.5813
 5276SOL    HW127287   3.164   3.355   6.558 -0.5713 -1.4888  0.5113
 5276SOL    HW227288   3.042   3.365   6.632 -0.2980  2.5022  0.1258
 5277SOL     OW27289   0.119   1.269   0.279  0.4793 -0.0050 -0.4913
 5277SOL    HW127290   0.167   1.332   0.225 -2.4524  0.3674 -2.6463
 5277SOL    HW227291   0.187   1.266   0.347 -0.6311 -0.3478  0.6124
 5278SOL     OW27292   2.629   1.638   6.679  0.0542 -0.2241  0.2503
 5278SOL    HW127293   2.672   1.626   6.764 -0.0046 -0.3297  0.2648
 5278SOL    HW227294   2.541   1.610   6.703 -1.7885  4.5525 -1.1516
 5279SOL     OW27295   3.932   3.526  15.285  0.5562  0.2832  0.1789
 5279SOL    HW127296   3.906   3.614  15.256 -1.3904 -0.0005  1.0931
 5279SOL    HW227297   3.876   3.503  15.359 -1.2116  2.5005 -0.4666
 5280SOL     OW27298   4.240   1.658  14.767  0.0798 -0.0017  0.3851
 5280SOL    HW127299   4.232   1.753  14.762 -1.0595 -0.1396 -0.4581
 5280SOL    HW227300   4.312   1.638  14.826  1.7343 -1.2817 -2.0879
 5281SOL     OW27301   4.503   3.521   5.407  0.3011 -0.0318 -0.0643
 5281SOL    HW127302   4.447   3.530   5.484 -1.4979 -0.6811 -1.3057
 5281SOL    HW227303   4.433   3.486   5.353  1.1125 -0.1649 -1.0350
 5282SOL     OW27304   1.446   3.940   1.558  0.3817 -0.8288 -0.1690
 5282SOL    HW127305   1.534   3.964   1.529 -0.1405 -0.1582 -1.1714
 5282SOL    HW227306   1.426   4.020   1.605 -0.3181 -2.8713  3.0200
 5283SOL     OW27307   3.306   0.208  14.126 -0.6877 -0.5202  0.3084
 5283SOL    HW127308   3.258   0.143  14.178 -0.3097 -0.9369  0.1337
 5283SOL    HW227309   3.392   0.185  14.161 -0.3994 -0.7938 -0.5820
 5284SOL     OW27310   0.868   2.047  17.171  0.6017 -0.6453  0.0961
 5284SOL    HW127311   0.792   2.070  17.117  1.2569 -0.1298 -0.6081
 5284SOL    HW227312   0.888   2.130  17.215 -0.5046 -0.3899  0.1182
 5285SOL     OW27313   4.683   2.334   2.713 -0.2180  0.2673 -0.2101
 5285SOL    HW127314   4.664   2.389   2.637  1.7301  1.4182  0.1473
 5285SOL    HW227315   0.006   2.399   2.765 -1.6816 -0.8443  2.5045
 5286SOL     OW27316   1.863   0.545   8.143  0.4568 -0.8963  0.1841
 5286SOL    HW127317   1.843   0.456   8.115 -1.3935 -0.3705 -0.1231
 5286SOL    HW227318   1.837   0.549   8.235  0.7352  2.8626  0.1194
 5287SOL     OW27319   1.298   1.630   8.691  0.0623  0.2830  0.2920
 5287SOL    HW127320   1.215   1.625   8.737 -0.4294 -0.3630 -0.6567
 5287SOL    HW227321   1.285   1.707   8.635 -2.0985  0.0338  0.4503
 5288SOL     OW27322   3.159   3.095   6.691 -0.0475 -0.2720  0.4683
 5288SOL    HW127323   3.222   3.033   6.655 -2.3145 -2.6441  0.5622
 5288SOL    HW227324   3.097   3.094   6.618 -0.3149  1.9960  0.6506
 5289SOL     OW27325   4.067   3.173   5.228  0.2675  0.0512  0.3829
 5289SOL    HW127326   4.077   3.114   5.154  1.0008  0.1506  0.3992
 5289SOL    HW227327   4.137   3.133   5.281  1.3568  0.5363 -0.6835
 5290SOL     OW27328   2.757   2.666   3.239  0.2144 -0.0114  0.0228
 5290SOL    HW127329   2.669   2.703   3.246  0.8361  1.4214  0.4031
 5290SOL    HW227330   2.750   2.578   3.274  0.1144 -0.9601 -2.3937
 5291SOL     OW27331   0.715   3.957   0.564  0.2229  0.1058 -0.7249
 5291SOL    HW127332   0.808   3.977   0.575  0.5980 -2.4035  0.6419
 5291SOL    HW227333   0.685   4.041   0.529 -1.9025 -1.6198 -2.9707
 5292SOL     OW27334   3.661   2.814   1.440  0.1153  0.1687 -0.2854
 5292SOL    HW127335   3.638   2.724   1.459 -0.3253  0.7920  2.0613
 5292SOL    HW227336   3.589   2.861   1.482 -0.1876 -0.5124 -0.0502
 5293SOL     OW27337   0.498   4.215   8.148 -0.6810 -0.5316  0.2254
 5293SOL    HW127338   0.564   4.175   8.091 -1.2788 -0.0316 -0.8162
 5293SOL    HW227339   0.545   4.214   8.231 -0.7725 -0.3186  0.2805
 5294SOL     OW27340   1.337   1.372  16.329 -0.8380 -0.2487 -0.0842
 5294SOL    HW127341   1.278   1.308  16.289 -3.0655  2.2725 -0.8879
 5294SOL    HW227342   1.387   1.314  16.385  0.6773 -0.7897 -2.0171
 5295SOL     OW27343   0.368   3.343  10.974 -0.4049  0.6214 -0.0086
 5295SOL    HW127344   0.291   3.399  10.964 -2.0611 -1.2405  2.2003
 5295SOL    HW227345   0.435   3.408  10.994 -0.9013  0.7859  1.1266
 5296SOL     OW27346   0.763   1.374   5.700  0.4767 -0.3353 -0.1971
 5296SOL    HW127347   0.772   1.438   5.771  0.5909  1.4651 -1.8301
 5296SOL    HW227348   0.795   1.303   5.755 -0.8099 -1.1485 -0.5046
 5297SOL     OW27349   3.339   4.659   8.246  0.1278 -0.5723  0.2569
 5297SOL    HW127350   3.390   0.005   8.205  0.2437 -1.6527 -1.4464
 5297SOL    HW227351   3.367   4.575   8.209 -1.4611 -1.0101  0.0519
 5298SOL     OW27352   2.563   3.662   0.409 -0.1814 -0.4358 -0.0500
 5298SOL    HW127353   2.533   3.599   0.343  1.7275  0.2727 -1.5721
 5298SOL    HW227354   2.580   3.595   0.476 -1.7085  0.0162  0.7973
 5299SOL     OW27355   1.874   0.601  13.944  0.3626 -0.6896 -0.0039
 5299SOL    HW127356   1.859   0.695  13.938 -1.2123 -0.9452  0.1146
 5299SOL    HW227357   1.967   0.602  13.969  0.5208 -0.7681 -0.5954
 5300SOL     OW27358   1.100   3.105   7.237 -0.3159  0.1759 -0.2745
 5300SOL    HW127359   1.093   3.174   7.171 -1.0637 -0.9073 -1.3491
 5300SOL    HW227360   1.077   3.154   7.315 -2.4311 -1.2527  0.0117
 5301SOL     OW27361   1.820   2.609   5.702 -0.1086 -0.6557  0.2280
 5301SOL    HW127362   1.848   2.700   5.702 -0.5695 -0.5095  0.4610
 5301SOL    HW227363   1.752   2.613   5.635  0.6296 -1.0357 -0.5353
 5302SOL     OW27364   1.098   0.893   4.547  0.2173 -0.2161 -0.7565
 5302SOL    HW127365   1.138   0.841   4.478  1.0131 -1.2429  0.4847
 5302SOL    HW227366   1.084   0.977   4.502 -0.5378 -0.2601 -0.6094
 5303SOL     OW27367   3.383   0.820   4.391 -0.6396 -0.4756  0.0884
 5303SOL    HW127368   3.449   0.762   4.354  0.7329  1.2202 -0.1103
 5303SOL    HW227369   3.382   0.791   4.482  0.4692  0.9407  0.5475
 5304SOL     OW27370   4.065   0.094  14.632 -0.1050 -0.0794 -0.2041
 5304SOL    HW127371   4.048   0.105  14.538 -2.3705  0.2399  0.2274
 5304SOL    HW227372   4.072   4.724  14.647  0.7178  0.3025  1.7460
 5305SOL     OW27373   0.517   2.814  12.246  0.0459 -0.0677 -0.3936
 5305SOL    HW127374   0.576   2.806  12.321  0.9810  0.5502 -1.0512
 5305SOL    HW227375   0.580   2.829  12.175 -0.9461 -1.4022 -1.5621
 5306SOL     OW27376   0.360   2.741   3.212 -0.4996  0.2230 -0.0257
 5306SOL    HW127377   0.414   2.735   3.133  0.8259  1.7349  0.7527
 5306SOL    HW227378   0.279   2.780   3.179 -1.6463 -0.6520  1.7295
 5307SOL     OW27379   1.847   1.111   6.511  0.5739 -0.4330  0.2655
 5307SOL    HW127380   1.941   1.124   6.520  0.4295  0.3818  0.5449
 5307SOL    HW227381   1.840   1.069   6.425  0.8560 -0.9809  0.5150
 5308SOL     OW27382   1.872   2.359  14.580 -0.5039  0.0083  0.3745
 5308SOL    HW127383   1.923   2.440  14.574 -1.6368  0.6728 -0.3040
 5308SOL    HW227384   1.930   2.311  14.639  1.5026 -0.4075 -1.9860
 5309SOL     OW27385   0.026   0.581   5.051  0.5456 -0.1684  0.1385
 5309SOL    HW127386   0.108   0.531   5.049  0.8272  0.2968  0.0530
 5309SOL    HW227387   0.048   0.673   5.041 -0.3244 -0.0134 -0.3642
 5310SOL     OW27388   1.998   0.106   2.802  0.0479  0.0535 -0.2645
 5310SOL    HW127389   1.905   0.106   2.779  0.0974  2.3282 -0.5039
 5310SOL    HW227390   2.035   0.092   2.714 -2.1565 -0.1873 -1.1358
 5311SOL     OW27391   4.633   0.156  12.666 -0.3522  0.0495  0.0421
 5311SOL    HW127392   4.551   0.155  12.617  1.0366 -0.3670 -2.2839
 5311SOL    HW227393   4.629   0.066  12.697 -0.0990 -1.4332 -4.1797
 5312SOL     OW27394   0.142   4.436  10.059 -0.1932  0.4400 -0.2176
 5312SOL    HW127395   0.143   4.525  10.095  0.1877  0.5703 -0.5472
 5312SOL    HW227396   0.141   4.463   9.968 -1.5372  3.6647  0.7542
 5313SOL     OW27397   1.750   0.786   9.346 -0.2141 -0.3704 -0.7895
 5313SOL    HW127398   1.779   0.876   9.332 -0.4293 -0.3098 -0.8540
 5313SOL    HW227399   1.718   0.791   9.436  0.6307 -2.5343 -0.3696
 5314SOL     OW27400   2.621   0.564   5.363  0.3946  0.5603 -0.5064
 5314SOL    HW127401   2.587   0.529   5.280  0.5455 -2.5005  0.7286
 5314SOL    HW227402   2.712   0.541   5.347  0.9394  2.1102  0.4340
 5315SOL     OW27403   4.426   0.274   3.054 -0.4324 -0.3852  0.0388
 5315SOL    HW127404   4.355   0.265   2.991  0.9477 -0.7988 -1.4829
 5315SOL    HW227405   4.408   0.204   3.117 -0.9676  0.3174  0.6564
 5316SOL     OW27406   2.458   2.475   3.900 -0.0320  0.2665 -0.3363
 5316SOL    HW127407   2.535   2.418   3.911 -0.9100 -1.3110 -2.3887
 5316SOL    HW227408   2.440   2.454   3.809 -2.3182  0.5164  0.0500
 5317SOL     OW27409   2.240   4.486  10.088 -0.3212 -0.1298  0.6750
 5317SOL    HW127410   2.196   4.545  10.026  1.0025  1.2251  1.0412
 5317SOL    HW227411   2.181   4.410  10.096 -0.0090 -0.6132 -1.7147
 5318SOL     OW27412   3.378   0.460   5.948  0.5069 -0.0130  0.4554
 5318SOL    HW127413   3.372   0.371   5.913  1.1013  0.0400  0.2103
 5318SOL    HW227414   3.330   0.446   6.029 -1.4116  4.0289  0.0476
 5319SOL     OW27415   4.462   1.335   8.724 -0.0073 -0.0763 -0.4409
 5319SOL    HW127416   4.502   1.260   8.681  1.1503  1.6996 -2.4195
 5319SOL    HW227417   4.533   1.374   8.775 -0.7041  0.2074  0.3191
 5320SOL     OW27418   1.118   3.844   2.533  0.2486  0.4320 -0.1574
 5320SOL    HW127419   1.134   3.894   2.613 -0.6083 -0.8598  0.8114
 5320SOL    HW227420   1.190   3.871   2.475 -1.0420 -0.0917 -1.9966
 5321SOL     OW27421   1.608   2.241   5.404  0.5463 -0.6579 -0.1626
 5321SOL    HW127422   1.632   2.332   5.383 -2.8234  0.2226 -0.1387
 5321SOL    HW227423   1.606   2.247   5.500 -2.4168 -2.7422 -0.1099
 5322SOL     OW27424   2.883   3.316   2.280 -0.2767 -0.4091  1.5053
 5322SOL    HW127425   2.977   3.303   2.296  0.3685 -1.3055 -2.8242
 5322SOL    HW227426   2.856   3.401   2.314  0.1154  0.7182 -0.9880
 5323SOL     OW27427   0.654   2.500   1.495 -0.0258  0.5106 -0.5185
 5323SOL    HW127428   0.646   2.536   1.584  3.3621 -2.4369  0.9678
 5323SOL    HW227429   0.744   2.520   1.468 -0.0969  0.3729 -0.8586
 5324SOL     OW27430   1.141   2.716   2.680 -0.2225 -0.3626 -0.3926
 5324SOL    HW127431   1.046   2.703   2.678 -0.4804  1.4473  0.5943
 5324SOL    HW227432   1.140   2.802   2.721 -2.2552 -0.1894 -0.8145
 5325SOL     OW27433   2.256   1.140   8.579 -0.1320 -0.0934  0.4757
 5325SOL    HW127434   2.253   1.050   8.610  1.3126 -0.3500 -0.1227
 5325SOL    HW227435   2.204   1.180   8.649  0.1090  1.0319  0.0141
 5326SOL     OW27436   2.848   2.039   8.533  0.3446  0.4197 -0.1197
 5326SOL    HW127437   2.836   2.129   8.563  0.3727  0.6890 -0.9065
 5326SOL    HW227438   2.757   2.009   8.533  0.3007  0.5352  1.0215
 5327SOL     OW27439   0.323   1.211   4.845  0.0518  0.6422 -0.6777
 5327SOL    HW127440   0.404   1.168   4.873  0.2625  1.3023 -0.2893
 5327SOL    HW227441   0.295   1.246   4.929 -2.3644 -0.3527 -1.0638
 5328SOL     OW27442   1.745   1.519   1.470  0.2555  0.1871 -0.5091
 5328SOL    HW127443   1.771   1.560   1.553 -0.7415  0.1991 -0.2050
 5328SOL    HW227444   1.658   1.556   1.457  0.2251  0.6140  0.8589
 5329SOL     OW27445   0.606   1.010   5.949  0.0301  0.1354 -0.6243
 5329SOL    HW127446   0.673   0.942   5.942 -0.5660 -0.5306  0.1384
 5329SOL    HW227447   0.538   0.961   5.995  0.6335  1.2908  1.4761
 5330SOL     OW27448   2.096   2.626   0.455 -0.3821 -0.2954  0.0566
 5330SOL    HW127449   2.168   2.632   0.392 -0.5015 -0.0963 -0.0605
 5330SOL    HW227450   2.146   2.593   0.530  0.3471  0.2559 -0.1857
 5331SOL     OW27451   1.109   3.044   7.689  0.2146 -0.0611 -0.2836
 5331SOL    HW127452   1.015   3.031   7.700  0.2720  0.6910  1.0670
 5331SOL    HW227453   1.126   3.112   7.624  3.1875 -0.3910  0.1455
 5332SOL     OW27454   3.325   1.104  11.843  0.3367 -0.3104 -0.3751
 5332SOL    HW127455   3.237   1.130  11.867  0.6324 -0.8547  1.3054
 5332SOL    HW227456   3.361   1.188  11.870  2.5706 -1.2796 -0.2576
 5333SOL     OW27457   0.611   3.840   9.521  0.4233  0.5499 -0.4811
 5333SOL    HW127458   0.626   3.906   9.589  2.5376 -0.8431  0.4200
 5333SOL    HW227459   0.697   3.798   9.525  0.6423  1.0069 -0.3518
 5334SOL     OW27460   2.209   0.792   2.420  0.9727  0.5031 -0.1316
 5334SOL    HW127461   2.297   0.759   2.435  0.2254 -0.0574  3.0095
 5334SOL    HW227462   2.226   0.855   2.349  0.5839  0.8813  0.1082
 5335SOL     OW27463   1.233   4.709   9.612 -0.5522 -0.0024 -0.0349
 5335SOL    HW127464   1.324   0.014   9.618 -0.2067 -1.2543  0.6806
 5335SOL    HW227465   1.202   4.719   9.522 -3.7907 -0.5481  1.0279
 5336SOL     OW27466   2.140   3.820   2.510  0.2860 -0.1522  0.0316
 5336SOL    HW127467   2.145   3.915   2.517  3.1896 -0.2722 -0.5461
 5336SOL    HW227468   2.063   3.789   2.558  0.2962 -0.7999 -0.3744
 5337SOL     OW27469   3.686   1.817   5.159 -0.5062 -0.0884  0.9154
 5337SOL    HW127470   3.676   1.771   5.076  2.0828 -1.4465  1.3483
 5337SOL    HW227471   3.770   1.798   5.201 -0.5584  1.1075  1.5544
 5338SOL     OW27472   4.183   2.916  11.809 -0.4164 -0.0384  0.1276
 5338SOL    HW127473   4.175   2.826  11.779  1.5722 -0.1278 -0.1248
 5338SOL    HW227474   4.253   2.909  11.874  0.0156  0.8479 -0.2347
 5339SOL     OW27475   4.367   0.391   5.930 -0.2582  0.4879 -0.4381
 5339SOL    HW127476   4.358   0.316   5.871 -0.9692  0.7229 -0.6304
 5339SOL    HW227477   4.432   0.352   5.988  2.6665  5.2688 -0.5562
 5340SOL     OW27478   0.823   0.979   3.811 -0.6199  0.2426  0.1380
 5340SOL    HW127479   0.826   0.901   3.867  0.7831 -0.3687 -0.7915
 5340SOL    HW227480   0.788   0.940   3.730  0.8345  2.8342 -1.7487
 5341SOL     OW27481   4.689   2.079   8.139  0.5610  0.4767  0.0751
 5341SOL    HW127482   4.665   2.087   8.231  1.5424 -1.4774  0.4915
 5341SOL    HW227483   4.607   2.102   8.095  0.2850 -1.1346 -0.2371
 5342SOL     OW27484   0.806   0.682  14.204  0.2071  0.0643 -0.3436
 5342SOL    HW127485   0.855   0.605  14.175  1.6378  0.5540  0.7108
 5342SOL    HW227486   0.752   0.642  14.272 -0.4295 -0.1828 -1.0003
 5343SOL     OW27487   0.021   1.879   3.418  0.0710 -0.7232 -0.5206
 5343SOL    HW127488   4.675   1.881   3.483  1.1812  1.4121  0.5961
 5343SOL    HW227489   0.093   1.914   3.470 -1.0285  0.2227  0.3711
 5344SOL     OW27490   0.213   3.752   7.738  0.0818  0.1552  0.1431
 5344SOL    HW127491   0.153   3.790   7.803 -1.8664 -2.0115 -0.4104
 5344SOL    HW227492   0.282   3.726   7.800  0.7928 -1.5069 -1.3688
 5345SOL     OW27493   2.881   0.377   7.319 -0.1562 -0.3238 -0.5575
 5345SOL    HW127494   2.960   0.413   7.361  0.0537 -1.0136 -0.3612
 5345SOL    HW227495   2.917   0.349   7.235  0.5051  1.7816 -0.9698
 5346SOL     OW27496   1.046   1.605   9.558 -0.6013  0.0366  0.4443
 5346SOL    HW127497   1.025   1.690   9.597  1.1018  1.0424 -0.8489
 5346SOL    HW227498   1.135   1.587   9.586 -0.7685 -1.8475 -0.2594
 5347SOL     OW27499   0.229   4.527   4.804 -0.5100 -0.1671  0.3835
 5347SOL    HW127500   0.175   4.572   4.739  3.0055  3.0586 -0.2917
 5347SOL    HW227501   0.202   4.590   4.870  0.2262 -0.3926  0.8943
 5348SOL     OW27502   4.169   4.509  13.946  0.1946  0.1604  0.0425
 5348SOL    HW127503   4.200   4.474  13.863  0.9944  0.4417  0.2262
 5348SOL    HW227504   4.240   4.567  13.973  1.2164 -0.8631 -0.4838
 5349SOL     OW27505   2.261   0.325   9.085  0.4431  0.7261  0.4184
 5349SOL    HW127506   2.183   0.368   9.121  0.5087  0.8498  0.4096
 5349SOL    HW227507   2.264   0.383   9.009  2.3243 -0.4062 -0.3737
 5350SOL     OW27508   0.553   3.629  15.925 -0.4992  0.6040 -0.3158
 5350SOL    HW127509   0.612   3.696  15.891  0.7214  1.2583  3.0923
 5350SOL    HW227510   0.477   3.686  15.938  0.3586  0.8569  3.6577
 5351SOL     OW27511   4.581   1.810  12.818 -0.2637  0.5388  0.1845
 5351SOL    HW127512   4.673   1.820  12.794 -0.7242  0.1535 -1.7554
 5351SOL    HW227513   4.568   1.884  12.876  1.0100  0.5799  0.4176
 5352SOL     OW27514   0.662   2.312   2.785  0.0657  0.0530  0.2131
 5352SOL    HW127515   0.740   2.338   2.737  0.1611  0.1317  0.4135
 5352SOL    HW227516   0.648   2.223   2.752  0.5083 -0.0922  0.4248
 5353SOL     OW27517   1.256   2.367  11.243 -0.1363 -0.0620  0.1265
 5353SOL    HW127518   1.228   2.450  11.280  0.0165 -0.6478  1.5708
 5353SOL    HW227519   1.317   2.334  11.310  1.0533  1.8363 -0.0362
 5354SOL     OW27520   3.525   3.239   4.687 -0.1312  0.4527  0.2021
 5354SOL    HW127521   3.501   3.330   4.675  2.0992  0.9116 -0.7849
 5354SOL    HW227522   3.618   3.243   4.708 -0.3268 -0.8607  1.2942
 5355SOL     OW27523   2.269   1.504  12.896  0.1881 -0.1993 -0.0845
 5355SOL    HW127524   2.249   1.563  12.824  0.6643  1.1423  0.8831
 5355SOL    HW227525   2.282   1.419  12.853  2.0863  0.3683 -0.6595
 5356SOL     OW27526   3.670   3.447  11.600  0.3610 -0.3930 -0.0121
 5356SOL    HW127527   3.629   3.506  11.536 -0.7334  1.0207  2.0019
 5356SOL    HW227528   3.718   3.388  11.542  0.1712 -0.4080 -0.1544
 5357SOL     OW27529   3.307   3.474   8.883 -0.0165 -0.0165  0.2111
 5357SOL    HW127530   3.366   3.502   8.813  1.5041  1.2138  1.9940
 5357SOL    HW227531   3.300   3.381   8.860  0.7090 -0.7773  3.0658
 5358SOL     OW27532   3.628   4.599   5.799 -0.0690  0.3590 -0.7146
 5358SOL    HW127533   3.722   4.593   5.816 -0.6437 -2.2748  1.5411
 5358SOL    HW227534   3.623   4.694   5.800 -0.1292  0.3865 -2.8205
 5359SOL     OW27535   2.463   0.999   6.973  0.1361  0.3350 -0.2347
 5359SOL    HW127536   2.554   1.009   6.946  0.4373  2.1127  1.4081
 5359SOL    HW227537   2.414   0.980   6.893  0.0484 -4.5781  0.9962
 5360SOL     OW27538   1.391   4.055  14.361 -0.0322  0.2444  0.4177
 5360SOL    HW127539   1.441   4.089  14.436 -0.3773  0.3457  0.6048
 5360SOL    HW227540   1.434   4.093  14.285  0.2666  1.1081  1.0131
 5361SOL     OW27541   3.267   1.076   5.465  0.2193  0.0359  0.0444
 5361SOL    HW127542   3.319   1.035   5.534 -1.5443 -0.0226  1.3601
 5361SOL    HW227543   3.195   1.113   5.517  0.2948  0.1675  0.0522
 5362SOL     OW27544   3.438   3.907  10.509  0.1134 -0.9530  0.2856
 5362SOL    HW127545   3.436   3.949  10.424 -0.8507  1.0242  1.2889
 5362SOL    HW227546   3.358   3.855  10.506  1.1310 -2.4902 -0.1926
 5363SOL     OW27547   2.978   2.638   0.748  0.0306  0.4767 -0.5063
 5363SOL    HW127548   3.051   2.699   0.756 -0.2877  0.6986  0.7266
 5363SOL    HW227549   2.911   2.700   0.717 -0.3676 -0.7447 -2.0762
 5364SOL     OW27550   1.421   4.631  17.684  0.2841 -0.0719 -0.2999
 5364SOL    HW127551   1.426   4.546  17.640 -0.4264 -1.3498  2.1113
 5364SOL    HW227552   1.344   4.627   0.042  0.8632 -1.6040  0.3843
 5365SOL     OW27553   1.512   0.018   1.115  0.3694  0.0610  0.0661
 5365SOL    HW127554   1.463   0.101   1.119  0.4344  0.1520 -0.9732
 5365SOL    HW227555   1.437   4.682   1.112  0.2909  0.2140 -1.2258
 5366SOL     OW27556   2.900   0.265   6.825 -0.4688 -0.1373  0.0542
 5366SOL    HW127557   2.892   0.339   6.765 -2.2382 -0.7623 -0.4954
 5366SOL    HW227558   2.981   0.221   6.800  0.4182  2.3560 -1.3328
 5367SOL     OW27559   0.114   3.689   5.203 -0.5980 -0.4313 -0.5223
 5367SOL    HW127560   0.118   3.780   5.174 -0.5153  0.5641  2.6736
 5367SOL    HW227561   0.184   3.654   5.148 -0.0553  2.7958 -1.8797
 5368SOL     OW27562   4.426   1.584   9.849  0.3505  0.5930 -0.3762
 5368SOL    HW127563   4.397   1.498   9.818  0.3922  0.5251 -0.2281
 5368SOL    HW227564   4.454   1.568   9.939  1.4671 -1.1223 -1.0194
 5369SOL     OW27565   1.957   0.471   4.638 -0.1529  0.5975 -0.0027
 5369SOL    HW127566   2.043   0.435   4.658  0.2884  1.9255  0.5138
 5369SOL    HW227567   1.988   0.561   4.648  1.6736  0.1615 -1.7774
 5370SOL     OW27568   0.615   1.461  13.513  0.0389 -0.0193  0.3439
 5370SOL    HW127569   0.665   1.405  13.573 -0.6111 -2.4602 -1.3761
 5370SOL    HW227570   0.545   1.486  13.573  1.7715  2.3561  1.3303
 5371SOL     OW27571   3.785   4.525   7.340 -0.5241  0.2106  0.6000
 5371SOL    HW127572   3.797   4.583   7.265 -3.3628 -0.5197 -0.4378
 5371SOL    HW227573   3.857   4.556   7.394 -0.3266 -0.3815  0.6820
 5372SOL     OW27574   2.163   4.345   7.928 -0.0101 -0.0266 -0.3494
 5372SOL    HW127575   2.145   4.408   7.997 -1.4546 -0.0315 -0.7009
 5372SOL    HW227576   2.151   4.264   7.978 -3.0777  0.9380  0.5210
 5373SOL     OW27577   3.592   1.511  12.634 -0.2351 -0.3408 -0.2175
 5373SOL    HW127578   3.634   1.426  12.619 -1.0060 -0.6816 -0.4416
 5373SOL    HW227579   3.590   1.539  12.543  0.4043 -4.0407 -1.3700
 5374SOL     OW27580   2.634   2.780   3.961 -0.1419  0.5197  0.1866
 5374SOL    HW127581   2.578   2.808   4.033 -1.4492  3.4121 -1.9293
 5374SOL    HW227582   2.723   2.780   3.996  0.3234 -0.6728 -1.0037
 5375SOL     OW27583   2.835   1.924   9.038 -0.4001  0.2214  0.3893
 5375SOL    HW127584   2.910   1.903   8.982 -0.4622 -2.4376  1.3370
 5375SOL    HW227585   2.857   1.874   9.116 -0.3357 -0.0919  0.1683
 5376SOL     OW27586   0.579   1.356   5.456  0.2030 -0.0354 -0.1904
 5376SOL    HW127587   0.636   1.351   5.379  0.4789  1.0615 -0.0560
 5376SOL    HW227588   0.637   1.352   5.533  0.0588  0.2518 -0.0688
 5377SOL     OW27589   1.197   3.532   9.488  0.2926 -0.2527  0.4189
 5377SOL    HW127590   1.292   3.524   9.474  0.1858 -1.4160  0.3441
 5377SOL    HW227591   1.172   3.602   9.428  1.1932 -0.7286 -0.5337
 5378SOL     OW27592   4.064   4.489   1.474 -0.1157  0.1853 -0.0722
 5378SOL    HW127593   3.984   4.490   1.422 -0.0903 -0.7699 -0.1298
 5378SOL    HW227594   4.101   4.575   1.456 -0.4614  0.3943  0.2108
 5379SOL     OW27595   3.112   1.679   3.586 -0.1275 -0.1541 -0.0357
 5379SOL    HW127596   3.124   1.648   3.675  2.8017  0.8295 -0.0554
 5379SOL    HW227597   3.074   1.766   3.598  2.2109  0.7199  1.1439
 5380SOL     OW27598   0.492   0.506  13.127  0.6657 -0.5450 -0.3579
 5380SOL    HW127599   0.506   0.442  13.058  1.6290 -1.2732  0.5201
 5380SOL    HW227600   0.442   0.455  13.190 -0.5255  0.2028 -0.7052
 5381SOL     OW27601   2.099   1.707   4.203  0.1059  0.0677  0.5755
 5381SOL    HW127602   2.154   1.747   4.136 -2.9507  1.4563 -1.0404
 5381SOL    HW227603   2.015   1.749   4.188  0.9653  2.7220  3.2039
 5382SOL     OW27604   1.012   1.919  11.281 -0.0008 -0.0891 -0.8607
 5382SOL    HW127605   0.917   1.911  11.272 -0.3551  0.8068  1.8996
 5382SOL    HW227606   1.040   1.834  11.314 -0.3566 -0.5273 -1.6840
 5383SOL     OW27607   1.837   4.405   0.739  0.2758 -0.7309  0.0718
 5383SOL    HW127608   1.854   4.441   0.652 -1.1933  0.0154  0.0924
 5383SOL    HW227609   1.871   4.315   0.736 -0.4156 -1.0245  1.0950
 5384SOL     OW27610   4.263   3.083   5.957 -0.2854  0.3183  0.2879
 5384SOL    HW127611   4.293   2.999   5.991 -0.1522  0.3912  0.3534
 5384SOL    HW227612   4.201   3.059   5.888  0.5790  1.5667 -0.9307
 5385SOL     OW27613   4.488   3.749   4.580 -0.7206 -0.0086  0.2120
 5385SOL    HW127614   4.538   3.736   4.500  1.1658 -0.9612  1.5656
 5385SOL    HW227615   4.406   3.797   4.564 -0.9854 -0.2757  0.7532
 5386SOL     OW27616   0.940   0.389   5.791  0.1273 -0.0936 -0.1682
 5386SOL    HW127617   0.918   0.318   5.850 -1.4593  2.5401  2.4342
 5386SOL    HW227618   0.984   0.334   5.726  0.8519 -0.2780  0.4833
 5387SOL     OW27619   3.610   4.203  10.566  0.5848  0.3724  0.0970
 5387SOL    HW127620   3.637   4.174  10.479  2.9179  1.3426  0.4963
 5387SOL    HW227621   3.552   4.132  10.595  0.3036  0.2613 -0.7185
 5388SOL     OW27622   4.065   3.535   3.928 -0.5853  0.9451  0.5138
 5388SOL    HW127623   3.991   3.530   3.989 -1.6814  1.5393 -0.7637
 5388SOL    HW227624   4.033   3.606   3.873 -2.6639 -2.0272 -2.0582
 5389SOL     OW27625   1.382   2.354  16.077  0.0792 -0.4776  0.3277
 5389SOL    HW127626   1.385   2.422  16.144  1.2240  1.2627 -1.5139
 5389SOL    HW227627   1.288   2.355  16.062 -0.0720  0.5974  1.3291
 5390SOL     OW27628   3.319   3.326   6.711 -0.5116 -0.0504  0.0291
 5390SOL    HW127629   3.352   3.334   6.800  0.7894 -3.7242 -0.1450
 5390SOL    HW227630   3.265   3.248   6.718  2.7324 -2.2415  0.6399
 5391SOL     OW27631   0.376   4.575  14.414 -0.2468 -0.0116  0.0933
 5391SOL    HW127632   0.342   4.578  14.504  2.5090  0.0574  1.1336
 5391SOL    HW227633   0.440   4.504  14.414 -0.0886  0.1408 -1.2208
 5392SOL     OW27634   4.382   0.918   1.561 -0.5834  0.2418 -0.5251
 5392SOL    HW127635   4.318   0.904   1.631  0.2630 -0.2599  0.1585
 5392SOL    HW227636   4.438   0.989   1.593 -0.6624 -0.2946  0.7994
 5393SOL     OW27637   3.154   4.073   7.318  0.6088  0.3271  0.0698
 5393SOL    HW127638   3.132   4.086   7.410 -0.1560  0.4586 -0.1326
 5393SOL    HW227639   3.198   4.158   7.306  2.7596 -1.0159 -1.6388
 5394SOL     OW27640   4.390   1.875  14.473 -0.5174 -0.1088 -0.3303
 5394SOL    HW127641   4.412   1.806  14.410  0.6559 -0.2183  0.1974
 5394SOL    HW227642   4.478   1.911  14.470 -1.2544  2.0341  3.8350
 5395SOL     OW27643   2.309   0.275  10.798 -0.3960  0.2017 -0.9301
 5395SOL    HW127644   2.244   0.339  10.827 -1.6624 -0.7038 -1.7947
 5395SOL    HW227645   2.304   0.204  10.862 -0.7399  2.6444  1.7753
 5396SOL     OW27646   0.673   1.352   3.138  0.1462  0.4692 -0.1335
 5396SOL    HW127647   0.697   1.263   3.113 -0.5825  0.3253 -0.3110
 5396SOL    HW227648   0.615   1.340   3.213  1.4820 -2.4277  0.4180
 5397SOL     OW27649   1.523   1.635   1.596  0.9261  0.6154 -0.3631
 5397SOL    HW127650   1.466   1.710   1.576  0.2363 -0.7663 -3.5822
 5397SOL    HW227651   1.509   1.621   1.690 -0.0531 -2.2445 -0.9439
 5398SOL     OW27652   3.148   0.188   9.029 -0.2673 -0.1861 -0.0151
 5398SOL    HW127653   3.124   0.110   9.079 -0.9133 -0.3685 -0.6032
 5398SOL    HW227654   3.147   0.257   9.096 -0.7136  1.3101 -1.5386
 5399SOL     OW27655   0.537   4.553  13.283  0.5069 -0.2553 -0.3923
 5399SOL    HW127656   0.527   4.571  13.377 -3.5400 -1.8443 -0.5331
 5399SOL    HW227657   0.620   4.597  13.266 -0.7054  1.5659 -1.5834
 5400SOL     OW27658   4.483   4.179   7.028  0.4808  0.2135 -0.5179
 5400SOL    HW127659   4.540   4.174   6.951  0.3553  2.6373 -0.7656
 5400SOL    HW227660   4.499   4.262   7.071 -1.5130  0.7926 -0.8674
 5401SOL     OW27661   3.415   2.830   0.821 -0.3712  0.0081 -0.3571
 5401SOL    HW127662   3.507   2.856   0.829  0.3424 -2.5723 -0.2722
 5401SOL    HW227663   3.384   2.861   0.906 -1.6503  0.7521 -1.0917
 5402SOL     OW27664   2.392   0.483   8.870 -0.6024  0.0740 -0.2344
 5402SOL    HW127665   2.391   0.405   8.815  0.1278  0.7797 -1.2530
 5402SOL    HW227666   2.456   0.542   8.829  1.6171 -2.9661 -1.0929
 5403SOL     OW27667   0.904   2.331   7.901 -0.2902 -0.3205  0.1937
 5403SOL    HW127668   0.949   2.247   7.898  1.5680  0.7476 -2.7842
 5403SOL    HW227669   0.988   2.375   7.889 -0.4667 -0.0477 -0.0640
 5404SOL     OW27670   0.216   0.220   2.774  0.0908  0.6439 -0.2028
 5404SOL    HW127671   0.220   0.214   2.679  0.8225 -0.2014 -0.1132
 5404SOL    HW227672   0.247   0.135   2.804 -1.2590  0.5238  0.8940
 5405SOL     OW27673   4.574   1.959   0.820 -0.3342 -0.1865  0.3889
 5405SOL    HW127674   4.649   1.972   0.761 -1.1004 -0.3085 -0.6097
 5405SOL    HW227675   4.620   1.919   0.894  0.2055 -0.9940 -0.3858
 5406SOL     OW27676   3.477   3.086   0.362  0.1313  0.0849 -0.2780
 5406SOL    HW127677   3.528   3.163   0.336 -0.2211  1.0867  2.0107
 5406SOL    HW227678   3.413   3.099   0.291  0.7440 -0.8637 -1.0126
 5407SOL     OW27679   3.294   1.482  16.433 -0.2651  0.0890  0.4855
 5407SOL    HW127680   3.366   1.435  16.475 -2.0799 -1.8624  1.4117
 5407SOL    HW227681   3.343   1.500  16.353 -1.5353  1.1557 -0.0401
 5408SOL     OW27682   3.400   0.420   6.977 -0.1820 -0.0003 -0.2368
 5408SOL    HW127683   3.407   0.459   7.064 -1.9564  1.5686 -0.8174
 5408SOL    HW227684   3.327   0.478   6.957 -0.1588  0.1532  0.1216
 5409SOL     OW27685   2.422   2.103   6.806  0.1333  0.2513 -0.2655
 5409SOL    HW127686   2.513   2.097   6.777 -0.0599 -0.4150 -0.7394
 5409SOL    HW227687   2.369   2.055   6.742  2.2739 -2.3834 -0.0542
 5410SOL     OW27688   2.547   3.516   4.468  0.1137  0.5730  0.4522
 5410SOL    HW127689   2.478   3.471   4.518 -0.9056  0.8372 -0.7022
 5410SOL    HW227690   2.588   3.558   4.544  1.2601 -1.3736  0.9110
 5411SOL     OW27691   4.465   4.259   3.050 -0.5048 -0.4844  0.0640
 5411SOL    HW127692   4.484   4.238   3.142 -0.6162 -2.2563 -0.3200
 5411SOL    HW227693   4.377   4.296   3.055 -1.0730 -1.6430 -1.4110
 5412SOL     OW27694   1.439   2.202   7.318  0.6193  0.3456 -0.1326
 5412SOL    HW127695   1.469   2.138   7.382 -1.3087 -1.1660 -0.7480
 5412SOL    HW227696   1.346   2.178   7.314  0.2738  1.9134 -1.5400
 5413SOL     OW27697   4.480   1.673   5.789 -0.4256  0.2196 -0.7373
 5413SOL    HW127698   4.458   1.712   5.874 -1.5836  0.7360 -1.2759
 5413SOL    HW227699   4.467   1.581   5.810  2.3060  0.0336  0.1303
 5414SOL     OW27700   2.341   4.663   4.966 -0.3074  0.3315  0.8865
 5414SOL    HW127701   2.272   4.718   4.929  1.7246  2.3616  0.0847
 5414SOL    HW227702   2.283   4.627   5.033  0.0459 -0.1935  0.9177
 5415SOL     OW27703   4.679   3.482  10.048  0.2544 -0.3055 -0.1991
 5415SOL    HW127704   0.027   3.430  10.012  0.0218  1.0292 -2.6099
 5415SOL    HW227705   4.623   3.504   9.974  1.4016  0.7920 -0.7419
 5416SOL     OW27706   3.362   4.664   3.852  0.2273  0.6211  0.6196
 5416SOL    HW127707   3.301   4.658   3.778  0.5452  0.3873  0.3785
 5416SOL    HW227708   3.321   4.609   3.918  1.7331 -0.3444  0.7355
 5417SOL     OW27709   1.194   0.730   6.528  0.4033 -0.7038  0.1232
 5417SOL    HW127710   1.159   0.787   6.460 -0.4564 -0.3570  0.8587
 5417SOL    HW227711   1.168   0.644   6.495  1.4244 -0.6208 -0.9440
 5418SOL     OW27712   1.171   1.823   7.184  0.4537  0.4631  0.1580
 5418SOL    HW127713   1.266   1.827   7.196  0.7009 -2.4758 -0.9896
 5418SOL    HW227714   1.172   1.801   7.091 -0.9338 -3.5683  1.1243
 5419SOL     OW27715   2.960   0.815  14.386  0.1004 -0.1808 -0.4451
 5419SOL    HW127716   2.886   0.789  14.332  0.3175  0.2883 -0.9741
 5419SOL    HW227717   2.986   0.893  14.336 -0.4382 -1.2432 -2.4022
 5420SOL     OW27718   0.019   3.474  17.635  0.3516 -0.4170 -0.4017
 5420SOL    HW127719   4.713   3.556  17.597  0.7689 -0.1620 -0.1831
 5420SOL    HW227720   0.111   3.485  17.659 -0.3890 -1.5033  2.8627
 5421SOL     OW27721   0.408   3.245  16.057 -0.0617  0.1869  0.2320
 5421SOL    HW127722   0.323   3.239  16.013  1.0091 -0.7120 -1.7533
 5421SOL    HW227723   0.427   3.153  16.070  2.2388  0.5131 -0.7412
 5422SOL     OW27724   0.024   2.922  12.751 -1.1586  0.8718 -0.3910
 5422SOL    HW127725   4.691   2.869  12.696 -0.6265 -1.3886  1.2226
 5422SOL    HW227726   0.012   2.870  12.830 -1.1661  2.2364  0.5130
 5423SOL     OW27727   3.655   2.072   8.166 -1.1728  0.0636 -0.2048
 5423SOL    HW127728   3.688   2.154   8.130  1.7365 -0.9644  0.1316
 5423SOL    HW227729   3.627   2.104   8.252  1.0990  0.0282  0.5453
 5424SOL     OW27730   3.848   4.610   9.966 -0.3135 -0.0088  0.2316
 5424SOL    HW127731   3.890   4.633   9.882 -0.0502 -3.7510 -0.6467
 5424SOL    HW227732   3.861   4.692  10.014  2.4363 -0.0588 -0.4347
 5425SOL     OW27733   3.202   1.864   6.334 -0.1421  0.0723  0.0118
 5425SOL    HW127734   3.281   1.810   6.337  1.0476  1.8175 -0.3413
 5425SOL    HW227735   3.157   1.814   6.266  0.8741 -3.9348  2.2778
 5426SOL     OW27736   1.283   0.603   6.217 -0.2551  0.6753 -0.2292
 5426SOL    HW127737   1.349   0.654   6.264 -0.6856  0.1230  0.9882
 5426SOL    HW227738   1.283   0.515   6.256 -1.2730  0.7801  0.0081
 5427SOL     OW27739   4.215   1.989   8.906  0.2603  0.4582 -0.0770
 5427SOL    HW127740   4.131   2.028   8.881  0.1285  0.2396  0.0179
 5427SOL    HW227741   4.229   2.034   8.989 -1.3415  0.5005  0.1800
 5428SOL     OW27742   0.602   0.635  11.448 -0.5916 -0.1469 -0.1310
 5428SOL    HW127743   0.554   0.716  11.464 -0.2140 -0.3195  1.8376
 5428SOL    HW227744   0.632   0.612  11.536 -1.0380 -1.0142 -0.2045
 5429SOL     OW27745   2.592   3.600  12.890  0.2578 -0.4743 -0.2314
 5429SOL    HW127746   2.513   3.639  12.926  0.7623  0.6665 -0.3503
 5429SOL    HW227747   2.655   3.591  12.962 -1.0351 -1.6219  0.7414
 5430SOL     OW27748   4.381   0.135   2.405  0.2610 -0.3813 -0.3767
 5430SOL    HW127749   4.291   0.131   2.438  1.1120  0.3815  2.0848
 5430SOL    HW227750   4.362   0.145   2.312  2.0414 -0.8670 -0.7948
 5431SOL     OW27751   4.208   1.091   7.596 -0.1675  0.7711  0.0246
 5431SOL    HW127752   4.287   1.045   7.570 -0.9373 -1.5688  1.8062
 5431SOL    HW227753   4.249   1.177   7.588  0.9523  0.2755  0.4399
 5432SOL     OW27754   3.230   0.016   6.020  0.1873 -0.2445 -0.1419
 5432SOL    HW127755   3.294   0.067   5.969  0.5882 -1.9527 -1.3572
 5432SOL    HW227756   3.215   4.678   5.950 -0.7516 -0.6861  0.4630
 5433SOL     OW27757   1.786   1.395   6.691  0.1782 -0.6408 -0.3034
 5433SOL    HW127758   1.729   1.429   6.622 -0.1578  0.5478  0.5586
 5433SOL    HW227759   1.783   1.306   6.656  0.9457 -1.0721  0.7546
 5434SOL     OW27760   1.301   4.434   9.633 -0.1321 -0.3543  0.3861
 5434SOL    HW127761   1.262   4.520   9.620 -0.7325 -0.4542  1.5607
 5434SOL    HW227762   1.343   4.404   9.552  0.9358  0.2201  0.7250
 5435SOL     OW27763   0.140   1.630   4.192 -0.1224 -0.2464  0.0079
 5435SOL    HW127764   0.200   1.561   4.220  2.0731  0.5455 -2.6697
 5435SOL    HW227765   0.061   1.593   4.232  0.8090 -1.6042  0.5905
 5436SOL     OW27766   2.489   4.579  10.087 -0.4970 -1.0176 -0.2429
 5436SOL    HW127767   2.536   4.549  10.165 -0.8646 -0.1016  0.3292
 5436SOL    HW227768   2.404   4.538  10.103 -0.8458 -0.3434 -0.3827
 5437SOL     OW27769   2.209   1.346   8.409  0.4422 -0.1668 -0.0201
 5437SOL    HW127770   2.154   1.418   8.440 -1.7335 -1.2036 -1.4294
 5437SOL    HW227771   2.228   1.284   8.479 -0.6303  0.3489  0.7224
 5438SOL     OW27772   2.639   3.682   2.388  0.2623 -0.1354  0.5514
 5438SOL    HW127773   2.638   3.744   2.460 -3.7443 -3.2738  3.2183
 5438SOL    HW227774   2.693   3.738   2.331 -0.8059 -0.7505 -1.0795
 5439SOL     OW27775   3.740   2.810   4.290 -0.2023  0.1183 -0.0747
 5439SOL    HW127776   3.682   2.747   4.247  0.3283 -0.7918  0.5397
 5439SOL    HW227777   3.700   2.807   4.377  0.0313  2.2474  0.0888
 5440SOL     OW27778   1.227   3.329  10.389  0.0894 -0.7288  0.1531
 5440SOL    HW127779   1.183   3.271  10.326  2.7083 -1.3692 -1.0835
 5440SOL    HW227780   1.236   3.404  10.330  0.3768 -0.9189 -0.0411
 5441SOL     OW27781   3.643   3.078   0.743  0.3723  0.0817  0.3318
 5441SOL    HW127782   3.685   3.022   0.678  0.6374  0.7440 -0.0632
 5441SOL    HW227783   3.641   3.017   0.817  1.0809 -0.1182  0.1815
 5442SOL     OW27784   2.457   2.319   9.185 -0.0087  0.6095 -0.1908
 5442SOL    HW127785   2.449   2.292   9.277  1.0331  1.2923  0.1100
 5442SOL    HW227786   2.398   2.264   9.134 -1.3827 -0.4676  2.5285
 5443SOL     OW27787   4.099   3.161  12.132  0.4142 -0.6353 -0.2655
 5443SOL    HW127788   4.138   3.074  12.123 -2.0881 -1.6925 -0.9051
 5443SOL    HW227789   4.049   3.149  12.213 -0.1004  1.1267 -0.3262
 5444SOL     OW27790   0.929   3.125  14.641 -0.3035 -0.1855 -0.9349
 5444SOL    HW127791   0.929   3.220  14.633  2.6124 -0.1695 -0.6249
 5444SOL    HW227792   0.991   3.109  14.712 -3.2562 -1.2546  1.3949
 5445SOL     OW27793   1.288   4.265   3.747 -0.1487  0.5219 -0.4519
 5445SOL    HW127794   1.304   4.247   3.840 -1.2434 -3.1454 -0.9864
 5445SOL    HW227795   1.197   4.240   3.737  0.3000 -1.5833  0.8151
 5446SOL     OW27796   1.815   4.378   2.945  0.3537 -0.0096  0.4188
 5446SOL    HW127797   1.746   4.334   2.895  0.5519  1.2283 -0.9480
 5446SOL    HW227798   1.816   4.458   2.893 -2.6695  0.5617  1.2509
 5447SOL     OW27799   1.452   2.085   9.247 -0.5588 -0.6896 -0.5169
 5447SOL    HW127800   1.519   2.086   9.179  1.0951  0.1335  1.1026
 5447SOL    HW227801   1.494   2.024   9.308 -1.0569  0.2427  0.7755
 5448SOL     OW27802   1.944   1.794  15.375 -0.3862 -0.3049  0.3349
 5448SOL    HW127803   1.963   1.702  15.392 -1.8037 -0.4724  1.0472
 5448SOL    HW227804   1.849   1.805  15.371 -0.3844  0.2554  1.8811
 5449SOL     OW27805   0.298   1.802   6.937 -0.0535 -0.6132 -0.2505
 5449SOL    HW127806   0.316   1.766   7.024 -0.2468 -0.2588 -0.0614
 5449SOL    HW227807   0.226   1.748   6.907  0.1024 -1.6644  1.2648
 5450SOL     OW27808   3.461   0.131   0.453 -0.3361  0.0270  0.5587
 5450SOL    HW127809   3.423   0.219   0.456  0.6670  0.4501  0.5501
 5450SOL    HW227810   3.379   0.083   0.439  0.6075 -0.5188 -3.2869
 5451SOL     OW27811   2.429   0.470  10.962  0.3205 -0.4284  0.0648
 5451SOL    HW127812   2.337   0.461  10.938 -0.1414  2.3236  0.7599
 5451SOL    HW227813   2.472   0.424  10.890  0.0431 -1.7334  0.7390
 5452SOL     OW27814   3.180   1.106   5.905 -0.1875  0.2150  0.0119
 5452SOL    HW127815   3.206   1.147   5.987 -0.0481 -0.5222  0.3291
 5452SOL    HW227816   3.259   1.053   5.900 -0.9210 -0.8782  0.0415
 5453SOL     OW27817   1.112   0.303   4.301 -0.7708 -0.0208 -0.2949
 5453SOL    HW127818   1.142   0.394   4.297 -0.5949 -0.0670 -0.0128
 5453SOL    HW227819   1.110   0.282   4.208  2.8590 -0.8753 -0.1927
 5454SOL     OW27820   2.524   0.961  15.794 -0.3238  0.0340 -0.0325
 5454SOL    HW127821   2.579   1.024  15.747  1.4032 -2.0329 -0.7747
 5454SOL    HW227822   2.496   0.899  15.727 -0.3312  1.3511 -1.2523
 5455SOL     OW27823   0.800   0.666   6.821 -0.3824  0.2719  0.6287
 5455SOL    HW127824   0.860   0.624   6.882  3.2280  3.2605 -0.8271
 5455SOL    HW227825   0.766   0.742   6.869  1.8165  2.3834 -1.1542
 5456SOL     OW27826   3.544   1.284  11.590  0.6683 -0.0273  0.0388
 5456SOL    HW127827   3.518   1.294  11.498  0.6005 -2.2426 -0.1767
 5456SOL    HW227828   3.486   1.342  11.640  1.7691  0.1905  1.0778
 5457SOL     OW27829   4.222   1.140   4.307  0.3368  0.0374  0.0155
 5457SOL    HW127830   4.222   1.157   4.401  0.5498 -1.0399  0.2070
 5457SOL    HW227831   4.152   1.205   4.293 -1.4960 -1.9455  0.0577
 5458SOL     OW27832   1.307   2.671   6.252 -0.2956  0.0329  1.0429
 5458SOL    HW127833   1.238   2.731   6.223 -0.9210 -0.9454  0.5173
 5458SOL    HW227834   1.317   2.617   6.173  0.8030 -0.0093  1.2163
 5459SOL     OW27835   3.961   0.535   0.783  0.1130  0.4334  0.4241
 5459SOL    HW127836   4.005   0.451   0.769 -0.2325  0.5357 -1.2664
 5459SOL    HW227837   3.917   0.550   0.699 -0.2803 -1.0037  0.3814
 5460SOL     OW27838   3.651   2.959  10.343 -0.2892  0.4820  0.9341
 5460SOL    HW127839   3.685   2.874  10.315  0.5562  1.0537  0.2246
 5460SOL    HW227840   3.559   2.949  10.320 -0.1956  0.5142  0.5566
 5461SOL     OW27841   3.797   3.505   5.488 -0.1842 -0.7079  0.5572
 5461SOL    HW127842   3.750   3.553   5.556 -1.5799 -2.2595  0.6760
 5461SOL    HW227843   3.786   3.415   5.521  2.9560 -1.5759 -0.6836
 5462SOL     OW27844   3.606   2.874   8.507 -0.0261 -0.0158 -0.2416
 5462SOL    HW127845   3.603   2.853   8.600 -0.0497  2.2722  0.2607
 5462SOL    HW227846   3.558   2.799   8.470  1.3922 -0.7298 -0.6356
 5463SOL     OW27847   3.926   2.932   6.988  0.3204  0.1157  0.5086
 5463SOL    HW127848   3.938   2.915   7.081 -1.5998 -0.3205  0.6798
 5463SOL    HW227849   3.947   2.848   6.947  1.1201 -0.3595  1.8960
 5464SOL     OW27850   2.238   3.069   6.043 -0.1814  0.2132 -0.0616
 5464SOL    HW127851   2.269   3.129   6.111 -0.0227 -0.8070  0.7691
 5464SOL    HW227852   2.258   3.116   5.962  1.8110  1.6431  1.2648
 5465SOL     OW27853   0.138   4.400   7.017 -0.3445  0.0670  0.2516
 5465SOL    HW127854   0.209   4.404   6.953 -1.0319 -0.1777 -0.5213
 5465SOL    HW227855   0.172   4.352   7.093  1.2035 -1.0842 -1.1917
 5466SOL     OW27856   3.138   3.699   3.747 -0.5925  0.4181 -0.8008
 5466SOL    HW127857   3.223   3.716   3.788 -0.2907  0.7799 -1.5695
 5466SOL    HW227858   3.164   3.701   3.655 -1.5622  0.4965 -1.0723
 5467SOL     OW27859   2.462   2.153   2.933  0.0605  0.5416  0.2225
 5467SOL    HW127860   2.372   2.167   2.903  0.9367  2.7052 -1.4260
 5467SOL    HW227861   2.509   2.230   2.899  2.2148  0.1444  2.2624
 5468SOL     OW27862   0.944   0.745   4.711 -0.1527  0.2325 -0.2144
 5468SOL    HW127863   1.005   0.805   4.669 -0.7840  1.0542  0.0508
 5468SOL    HW227864   1.004   0.672   4.731  0.7549  0.3447 -2.5806
 5469SOL     OW27865   4.223   0.111  14.970 -0.2703 -0.5165 -0.3477
 5469SOL    HW127866   4.219   0.019  14.947  1.8012 -0.9166  0.8655
 5469SOL    HW227867   4.276   0.137  14.895 -0.0377 -1.5433 -0.5323
 5470SOL     OW27868   0.966   0.298   2.689  0.3014 -0.2896 -0.1292
 5470SOL    HW127869   0.989   0.209   2.661 -3.2930 -0.4830 -2.4469
 5470SOL    HW227870   0.992   0.349   2.612 -1.4385 -2.2381 -2.0038
 5471SOL     OW27871   4.422   2.332   3.084  0.3505  0.4373 -0.6673
 5471SOL    HW127872   4.468   2.256   3.118 -1.5299 -0.7742 -0.8260
 5471SOL    HW227873   4.494   2.392   3.062 -0.0693  1.6093  1.1461
 5472SOL     OW27874   2.565   0.342  10.258 -0.7424 -0.0657  0.0221
 5472SOL    HW127875   2.639   0.364  10.200 -2.3977 -0.2625 -2.1782
 5472SOL    HW227876   2.523   0.270  10.210  1.3749 -2.4340  1.7486
 5473SOL     OW27877   2.811   0.033  12.967  0.0764 -0.1653 -0.6355
 5473SOL    HW127878   2.728   4.710  12.972  0.2117 -0.2713  0.4899
 5473SOL    HW227879   2.813   0.052  12.873 -2.2907  1.3718 -0.3731
 5474SOL     OW27880   3.878   2.059  15.411  0.7408 -0.0071 -0.6610
 5474SOL    HW127881   3.879   1.963  15.410  0.7527  0.0124 -2.3507
 5474SOL    HW227882   3.878   2.086  15.320  0.5065  0.1737 -0.6072
 5475SOL     OW27883   2.390   3.075   7.374  0.4116  0.2256  0.0440
 5475SOL    HW127884   2.481   3.072   7.405 -0.3787  0.3675  2.3376
 5475SOL    HW227885   2.342   3.039   7.448  0.1546 -1.0197 -0.7175
 5476SOL     OW27886   1.950   3.649   5.450  0.4693 -0.0704  0.3638
 5476SOL    HW127887   2.036   3.681   5.422  0.7658 -1.6785 -0.5492
 5476SOL    HW227888   1.897   3.728   5.443  1.6152  0.6603 -0.0606
 5477SOL     OW27889   4.663   0.690  12.669 -1.0443 -0.0625 -0.2073
 5477SOL    HW127890   4.637   0.600  12.690  0.7754 -0.6780 -0.6322
 5477SOL    HW227891   0.021   0.708  12.715 -0.8094 -1.3714 -0.1075
 5478SOL     OW27892   2.293   1.343   0.081  0.6850  0.0812 -0.2881
 5478SOL    HW127893   2.258   1.420   0.037 -1.9991 -1.5110 -0.9443
 5478SOL    HW227894   2.308   1.379   0.169  2.0033  1.2917 -0.9987
 5479SOL     OW27895   4.103   2.695   2.580 -0.1599 -0.5319  0.6095
 5479SOL    HW127896   4.086   2.603   2.600 -0.0068 -0.4552  1.0940
 5479SOL    HW227897   4.163   2.727   2.647  2.0319 -0.5039 -1.3764
 5480SOL     OW27898   0.249   2.079   8.256 -0.2069  0.1256 -0.2749
 5480SOL    HW127899   0.223   1.994   8.220  3.2525 -0.4737 -1.2820
 5480SOL    HW227900   0.179   2.130   8.213  1.8663  3.5308  0.4128
 5481SOL     OW27901   1.152   2.418   5.244  0.0372  0.0410  0.2460
 5481SOL    HW127902   1.060   2.433   5.224 -0.2234 -2.6212 -0.4985
 5481SOL    HW227903   1.151   2.438   5.338  2.9299 -1.5842  0.6324
 5482SOL     OW27904   0.112   4.118   2.246 -0.2672 -0.3191 -0.3083
 5482SOL    HW127905   0.100   4.194   2.189 -1.9376  2.7596  4.2145
 5482SOL    HW227906   0.192   4.073   2.218 -0.5768  0.8322 -3.1196
 5483SOL     OW27907   2.826   1.639   6.175  0.5048 -0.0955  0.2234
 5483SOL    HW127908   2.780   1.589   6.108  0.7224  1.9685 -1.4697
 5483SOL    HW227909   2.780   1.603   6.251  0.7004  0.1240  0.4486
 5484SOL     OW27910   0.154   2.232   9.471 -0.3189  0.3451 -0.2107
 5484SOL    HW127911   0.226   2.210   9.412 -0.7625 -0.6208 -0.3907
 5484SOL    HW227912   0.190   2.190   9.549 -0.3170 -2.4556 -1.7179
 5485SOL     OW27913   2.078   3.088   4.029  0.5402  0.0775  0.1911
 5485SOL    HW127914   2.167   3.071   3.999  0.7001  0.3457  0.5085
 5485SOL    HW227915   2.078   3.016   4.092  1.3787  1.0453  1.3048
 5486SOL     OW27916   4.177   2.028   6.492  0.4251 -0.4075 -0.0079
 5486SOL    HW127917   4.129   1.958   6.537 -0.1791  0.0600  0.0673
 5486SOL    HW227918   4.111   2.076   6.442 -0.3598 -0.9192  0.5249
 5487SOL     OW27919   1.637   4.260  16.593 -0.1775 -0.2711 -0.1853
 5487SOL    HW127920   1.700   4.246  16.663  0.5866 -0.6614 -0.9568
 5487SOL    HW227921   1.661   4.193  16.529  0.3156 -0.4141  0.1556
 5488SOL     OW27922   2.816   1.822  14.975  0.0511 -0.2687 -0.5877
 5488SOL    HW127923   2.789   1.875  15.050 -0.6466 -0.3259 -0.7964
 5488SOL    HW227924   2.902   1.793  15.005  0.0716 -0.7163 -1.0853
 5489SOL     OW27925   0.252   0.976  12.250 -0.2167 -0.0513  0.3089
 5489SOL    HW127926   0.231   1.027  12.328  1.9392 -1.0095  1.4934
 5489SOL    HW227927   0.169   1.000  12.207 -0.8279  0.9383  2.0197
 5490SOL     OW27928   0.790   3.956   6.899  0.1612  0.0069  0.0557
 5490SOL    HW127929   0.807   3.894   6.971  0.7291  0.9084  0.7097
 5490SOL    HW227930   0.801   3.903   6.820 -0.2989 -1.9610  1.3055
 5491SOL     OW27931   3.561   0.098  14.159 -0.0464 -0.4078  0.2090
 5491SOL    HW127932   3.560   0.089  14.254 -2.2046  0.6868  0.2944
 5491SOL    HW227933   3.553   0.007  14.132 -1.2944 -0.0143 -0.7617
 5492SOL     OW27934   3.037   0.180  17.082  0.6014  0.4830  0.3278
 5492SOL    HW127935   3.052   0.091  17.050 -0.3942 -0.0307  1.2566
 5492SOL    HW227936   2.977   0.217  17.017  2.4620  2.7990 -0.0596
 5493SOL     OW27937   4.243   4.113   4.346 -0.3313 -0.4079 -0.4660
 5493SOL    HW127938   4.217   4.164   4.270  0.5886  0.1371 -0.4157
 5493SOL    HW227939   4.166   4.123   4.402  2.6674 -0.2222  3.6037
 5494SOL     OW27940   2.178   1.866   0.464  0.7072 -0.1005  0.3046
 5494SOL    HW127941   2.124   1.831   0.535  1.0793  2.0349  1.6458
 5494SOL    HW227942   2.188   1.954   0.501 -0.7701  0.4899 -0.6953
 5495SOL     OW27943   4.096   0.241  11.677  0.0162 -0.1968 -0.2600
 5495SOL    HW127944   4.123   0.272  11.591 -2.1096 -1.0053 -1.2223
 5495SOL    HW227945   4.131   0.306  11.738 -0.5477 -0.7378  0.6391
 5496SOL     OW27946   3.093   3.060  16.305 -0.2089  0.0699 -0.7758
 5496SOL    HW127947   3.153   3.112  16.251  0.4826 -0.4070 -0.4763
 5496SOL    HW227948   3.040   3.131  16.339 -0.3614 -0.9996  1.2008
 5497SOL     OW27949   4.003   1.325   7.617 -0.2291  0.2472 -0.6542
 5497SOL    HW127950   3.995   1.397   7.680  2.2318  1.5393 -1.8433
 5497SOL    HW227951   4.087   1.289   7.644  0.1004  0.9638 -0.7415
 5498SOL     OW27952   1.120   0.886  11.588 -0.3892 -0.1745 -0.2723
 5498SOL    HW127953   1.073   0.810  11.623  1.5218 -0.5549  1.4677
 5498SOL    HW227954   1.055   0.941  11.545  0.9975  1.5734 -0.1693
 5499SOL     OW27955   3.714   2.018   8.730  0.6315 -0.1893  0.0227
 5499SOL    HW127956   3.781   1.975   8.678  0.0847 -3.6807  2.2357
 5499SOL    HW227957   3.762   2.069   8.795  0.0702 -0.4649  0.6538
 5500SOL     OW27958   3.077   0.277  14.972  0.4217  0.0231 -0.0531
 5500SOL    HW127959   3.065   0.332  14.894 -2.2536 -1.8441 -0.9396
 5500SOL    HW227960   2.991   0.263  15.011  0.2267  1.5898  0.0984
 5501SOL     OW27961   0.767   0.310   7.683  0.1163  0.4417 -0.0073
 5501SOL    HW127962   0.708   0.331   7.611 -1.7010 -2.7606  0.5352
 5501SOL    HW227963   0.749   0.377   7.750 -1.0094  0.2910 -0.1617
 5502SOL     OW27964   4.237   3.349   0.621 -0.1753  0.0838  0.0938
 5502SOL    HW127965   4.172   3.315   0.559 -0.4283 -1.2835  1.1087
 5502SOL    HW227966   4.186   3.348   0.702 -1.3654  1.5587 -0.6424
 5503SOL     OW27967   4.631   1.058   2.770 -0.0121 -0.0979 -0.4293
 5503SOL    HW127968   4.680   1.006   2.834  0.5804  2.3405  1.0703
 5503SOL    HW227969   4.584   1.110   2.835 -2.8927 -2.5838 -0.5219
 5504SOL     OW27970   4.263   0.564   5.551 -0.7146 -0.0085 -0.1531
 5504SOL    HW127971   4.269   0.658   5.538  0.4294  0.0301  0.6251
 5504SOL    HW227972   4.338   0.567   5.611 -1.2678  0.1970  0.5252
 5505SOL     OW27973   3.021   3.470   8.312 -0.5159 -0.2299  0.2029
 5505SOL    HW127974   2.978   3.515   8.385  2.9121 -0.3084  2.2700
 5505SOL    HW227975   3.101   3.521   8.304 -0.9897  0.7006  1.4746
 5506SOL     OW27976   3.753   0.608   5.094  0.4067 -0.3080 -0.6086
 5506SOL    HW127977   3.760   0.695   5.053  1.7774  0.4013  1.1268
 5506SOL    HW227978   3.781   0.630   5.183 -1.3163 -0.4095 -0.0422
 5507SOL     OW27979   0.312   2.306   0.483 -0.0648 -0.3113 -0.1652
 5507SOL    HW127980   0.341   2.354   0.561 -0.6068 -0.8285  0.3594
 5507SOL    HW227981   0.235   2.260   0.517  0.6727 -1.0134  0.5343
 5508SOL     OW27982   0.906   2.918   9.773  0.1384  0.1287  0.5879
 5508SOL    HW127983   0.829   2.974   9.782  0.0569  0.1125 -0.0358
 5508SOL    HW227984   0.899   2.883   9.685  1.7410  1.9226 -0.2615
 5509SOL     OW27985   0.185   2.238   7.727 -0.2348  0.0126  0.7608
 5509SOL    HW127986   0.197   2.185   7.806  2.8895 -0.1437  0.1743
 5509SOL    HW227987   0.182   2.325   7.768  0.3069 -0.0797  0.9994
 5510SOL     OW27988   3.459   2.222   7.907 -0.0163 -0.1218 -0.3529
 5510SOL    HW127989   3.432   2.309   7.936  0.8077  0.3895 -1.1287
 5510SOL    HW227990   3.554   2.234   7.901  0.2284 -0.6477  2.6143
 5511SOL     OW27991   3.900   3.350   5.103  0.4336 -0.1388 -0.0268
 5511SOL    HW127992   3.964   3.393   5.046  0.5987  0.2518  0.4567
 5511SOL    HW227993   3.958   3.293   5.152  0.8332  1.0953  0.9381
 5512SOL     OW27994   4.675   4.182   8.496  0.1167  0.2923 -0.0629
 5512SOL    HW127995   4.599   4.136   8.533 -0.2440  1.7224  0.9936
 5512SOL    HW227996   4.684   4.252   8.560 -2.4102  2.1832 -1.7880
 5513SOL     OW27997   3.194   2.508   1.370 -0.2563  0.0425 -0.0655
 5513SOL    HW127998   3.230   2.443   1.310 -0.9756  0.5104 -0.9972
 5513SOL    HW227999   3.207   2.584   1.312  2.5646 -0.3056  0.0880
 5514SOL     OW28000   2.075   4.272   9.852  0.1181  0.3775  0.2859
 5514SOL    HW128001   2.094   4.180   9.835  2.7523  1.0495 -0.2829
 5514SOL    HW228002   2.076   4.322   9.771  0.4758  1.3804  0.9068
 5515SOL     OW28003   3.666   3.855   1.614 -0.4762  0.2993 -0.5242
 5515SOL    HW128004   3.635   3.775   1.571 -0.8068  0.0206  0.2340
 5515SOL    HW228005   3.750   3.873   1.572  0.9484 -2.2569  1.1719
 5516SOL     OW28006   3.604   2.161   1.180 -0.1508 -0.0316  0.4486
 5516SOL    HW128007   3.542   2.169   1.252 -1.1771 -2.0501 -0.2243
 5516SOL    HW228008   3.687   2.195   1.214  0.1561  0.6761 -1.0150
 5517SOL     OW28009   4.230   1.523   8.749 -0.4178  0.1932 -0.7260
 5517SOL    HW128010   4.296   1.453   8.749 -1.7105 -1.0140 -0.2807
 5517SOL    HW228011   4.186   1.503   8.666 -1.2403 -0.1091 -0.2136
 5518SOL     OW28012   0.527   1.090   0.499  0.2143  0.1844 -0.2809
 5518SOL    HW128013   0.606   1.093   0.444  1.0325  2.1073  0.9886
 5518SOL    HW228014   0.572   1.107   0.582  0.4800  2.2112 -0.8480
 5519SOL     OW28015   0.380   2.131   9.666  0.2124 -0.0072 -0.0876
 5519SOL    HW128016   0.457   2.097   9.712 -0.2094 -0.1651  0.5020
 5519SOL    HW228017   0.427   2.180   9.599 -0.7769  0.7179 -0.2432
 5520SOL     OW28018   2.446   4.580   4.556  0.5416  0.2428  0.8067
 5520SOL    HW128019   2.412   4.666   4.533  0.8626  0.0264 -0.4508
 5520SOL    HW228020   2.369   4.534   4.590 -0.7860  0.8212 -1.4148
 5521SOL     OW28021   0.369   0.705   7.712  0.6256  0.2882 -0.3721
 5521SOL    HW128022   0.410   0.766   7.651  2.6544 -1.4958 -0.8089
 5521SOL    HW228023   0.378   0.757   7.791 -1.6824 -1.8933  1.3117
 5522SOL     OW28024   0.016   4.501   5.272  0.1958 -0.2184 -0.5839
 5522SOL    HW128025   0.074   4.576   5.284 -0.8204  0.7395 -1.8081
 5522SOL    HW228026   0.075   4.433   5.307  0.1559 -0.2103 -0.5014
 5523SOL     OW28027   0.250   2.341  12.861 -0.1024  0.3491  0.0543
 5523SOL    HW128028   0.263   2.262  12.808 -0.3480 -0.6776  1.5330
 5523SOL    HW228029   0.299   2.406  12.810 -0.2163 -0.2116 -0.7650
 5524SOL     OW28030   0.774   3.238   5.930  0.6316  0.4897  1.0716
 5524SOL    HW128031   0.708   3.172   5.953 -0.1669 -0.0635 -2.8886
 5524SOL    HW228032   0.720   3.317   5.923  2.2315  1.2893 -2.0366
 5525SOL     OW28033   2.240   2.749   0.950  0.2309  0.0487 -0.0355
 5525SOL    HW128034   2.161   2.802   0.957 -1.3410 -2.4163  0.6026
 5525SOL    HW228035   2.287   2.788   0.876  1.6531 -0.2353  0.7092
 5526SOL     OW28036   0.522   3.277   0.597  0.0461 -0.3355  0.0835
 5526SOL    HW128037   0.529   3.370   0.574 -0.5407 -0.3687 -0.2363
 5526SOL    HW228038   0.609   3.252   0.627 -0.1213 -0.3009  0.5940
 5527SOL     OW28039   1.479   2.402   8.116  1.0344  0.0128  0.3141
 5527SOL    HW128040   1.427   2.402   8.196  0.8485  3.2028  0.1949
 5527SOL    HW228041   1.431   2.474   8.073 -0.9247 -1.0244  0.7640
 5528SOL     OW28042   2.618   4.453  15.833  0.0728  0.3159  0.1212
 5528SOL    HW128043   2.597   4.527  15.890  0.5137 -0.5467  1.3911
 5528SOL    HW228044   2.548   4.392  15.851  0.4515  0.2008  1.1907
 5529SOL     OW28045   0.913   0.780   8.207 -0.0182  0.1622 -0.2756
 5529SOL    HW128046   0.909   0.684   8.209  1.0711  0.1544  1.5357
 5529SOL    HW228047   0.841   0.795   8.145 -2.0974 -3.5341  1.2529
 5530SOL     OW28048   2.635   2.742  12.974  0.4879 -0.2484  0.2590
 5530SOL    HW128049   2.572   2.681  13.014  0.1198 -0.7896 -1.1512
 5530SOL    HW228050   2.693   2.681  12.929  0.9565 -1.6464  2.7589
 5531SOL     OW28051   0.683   3.815   2.161  0.2865  0.2091  0.5018
 5531SOL    HW128052   0.677   3.822   2.066  0.9013 -0.6789  0.3966
 5531SOL    HW228053   0.653   3.903   2.180  1.4877  0.7894 -0.2548
 5532SOL     OW28054   3.308   0.470   4.240 -0.3663  0.7652 -0.2020
 5532SOL    HW128055   3.367   0.458   4.166  1.1240 -0.0247  1.1126
 5532SOL    HW228056   3.252   0.536   4.199 -0.1975  2.3637  2.1167
 5533SOL     OW28057   2.638   2.359   2.119 -0.5725 -0.1808  0.2408
 5533SOL    HW128058   2.566   2.423   2.121  0.4978  1.1022 -2.1794
 5533SOL    HW228059   2.595   2.280   2.152 -0.4388 -0.4608 -0.2531
 5534SOL     OW28060   3.852   3.587   1.879 -0.3596 -0.1898  0.0665
 5534SOL    HW128061   3.794   3.591   1.956 -0.7161 -0.2394 -0.2001
 5534SOL    HW228062   3.941   3.572   1.910 -0.0306  0.2508 -0.6780
 5535SOL     OW28063   3.971   3.947  14.857 -0.4629  0.3072  0.2239
 5535SOL    HW128064   4.009   3.892  14.788 -0.3144  0.7983 -0.0859
 5535SOL    HW228065   3.879   3.922  14.849 -0.5909  0.3334  1.6515
 5536SOL     OW28066   2.702   3.224   1.325  0.4284 -0.2572  0.4743
 5536SOL    HW128067   2.628   3.285   1.327  0.0796 -0.7344  1.9310
 5536SOL    HW228068   2.714   3.227   1.230 -3.8988  0.7510 -0.0286
 5537SOL     OW28069   1.627   4.282   0.957  0.2341  0.2464  0.4177
 5537SOL    HW128070   1.607   4.204   0.906 -0.8298  2.2760 -2.2222
 5537SOL    HW228071   1.670   4.235   1.029  2.0856  0.6423 -0.4286
 5538SOL     OW28072   2.988   0.236  12.529 -0.1235  0.0175  1.0193
 5538SOL    HW128073   3.054   0.222  12.461 -0.0830 -0.4950  1.1647
 5538SOL    HW228074   2.945   0.318  12.506  0.9377 -0.0865 -1.3496
 5539SOL     OW28075   3.789   4.011   2.739  0.2207 -0.2725 -0.2735
 5539SOL    HW128076   3.833   3.985   2.658 -0.2417 -2.9270  0.3138
 5539SOL    HW228077   3.702   3.973   2.729  1.6856 -3.1707 -1.9517
 5540SOL     OW28078   2.727   2.497   0.458 -0.0377  0.1848  0.3209
 5540SOL    HW128079   2.821   2.511   0.447  0.2204 -0.9628  1.1326
 5540SOL    HW228080   2.724   2.403   0.442 -0.6033 -0.0461  1.7504
 5541SOL     OW28081   3.590   3.684   2.833 -0.0769 -0.5662  0.4028
 5541SOL    HW128082   3.505   3.684   2.876 -0.2792  1.7630 -0.0084
 5541SOL    HW228083   3.560   3.738   2.760 -0.4501 -0.6819  0.4711
 5542SOL     OW28084   2.074   0.867   2.644  0.7384 -0.1231 -0.4879
 5542SOL    HW128085   2.135   0.834   2.578  1.8394 -0.6327  0.7819
 5542SOL    HW228086   2.097   0.960   2.643 -4.7734  1.2300 -0.6358
 5543SOL     OW28087   1.184   0.575   5.703 -0.0936 -0.0290  0.2982
 5543SOL    HW128088   1.232   0.590   5.785  2.7313  0.6476 -1.4825
 5543SOL    HW228089   1.110   0.524   5.737  0.1506  0.0388  0.9368
 5544SOL     OW28090   3.076   3.734  14.307  0.4838  0.2171 -0.0325
 5544SOL    HW128091   2.995   3.783  14.315  0.1058  0.1409 -3.1889
 5544SOL    HW228092   3.082   3.700  14.217 -3.1564 -2.6396  0.8016
 5545SOL     OW28093   2.622   0.885   8.398  0.1816  0.5762  0.2193
 5545SOL    HW128094   2.583   0.959   8.444 -0.9951  0.1000 -0.0348
 5545SOL    HW228095   2.537   0.842   8.399  0.2533  0.4023 -1.8056
 5546SOL     OW28096   1.510   1.484  16.745  0.2972 -0.0018  0.0802
 5546SOL    HW128097   1.449   1.415  16.772  1.7158 -1.2364  0.1770
 5546SOL    HW228098   1.482   1.557  16.800 -0.4819 -0.2555  0.0246
 5547SOL     OW28099   3.746   1.337   5.046 -0.1040 -0.0320 -0.3330
 5547SOL    HW128100   3.701   1.381   5.119 -0.8790  1.7234 -1.8449
 5547SOL    HW228101   3.812   1.393   5.005  0.7073 -1.5507 -1.0642
 5548SOL     OW28102   1.912   2.108   2.980  0.2315 -0.1170 -0.0697
 5548SOL    HW128103   1.923   2.103   2.885 -3.0561  0.6495 -0.5135
 5548SOL    HW228104   1.867   2.192   2.990  0.2973  0.2021 -2.4619
 5549SOL     OW28105   0.691   2.389   6.893 -0.4220 -0.1895  0.0479
 5549SOL    HW128106   0.667   2.378   6.801  0.8906 -1.5202 -0.1462
 5549SOL    HW228107   0.613   2.430   6.930 -0.9854  0.2063 -1.5860
 5550SOL     OW28108   0.137   1.228   4.347  0.8087 -1.0561 -0.3033
 5550SOL    HW128109   0.156   1.201   4.437  0.0783  2.8005  0.9911
 5550SOL    HW228110   0.192   1.306   4.341  2.0716 -1.9470 -0.2986
 5551SOL     OW28111   3.096   3.254   0.293  0.4729 -0.7001 -0.1655
 5551SOL    HW128112   3.154   3.202   0.238 -0.6337  0.5651 -2.5347
 5551SOL    HW228113   3.083   3.329   0.235 -1.9265 -2.1115 -1.4529
 5552SOL     OW28114   0.474   0.219   4.839 -0.0318  0.4977  0.5250
 5552SOL    HW128115   0.452   0.198   4.930 -0.2190  0.9228  0.5777
 5552SOL    HW228116   0.513   0.306   4.837 -0.3977  0.6754  1.1035
 5553SOL     OW28117   0.349   4.272   0.859  0.0726  0.0828 -0.0470
 5553SOL    HW128118   0.300   4.351   0.879 -0.4390  0.0018 -1.0191
 5553SOL    HW228119   0.329   4.220   0.937 -1.1333  1.8226  0.7836
 5554SOL     OW28120   3.536   0.861   7.554  0.2609 -0.6144 -0.2280
 5554SOL    HW128121   3.462   0.818   7.597  0.1808  1.0049  1.2584
 5554SOL    HW228122   3.560   0.797   7.488 -1.6722 -1.8441  0.2625
 5555SOL     OW28123   1.496   4.168   0.482 -0.1500 -0.1010  0.6214
 5555SOL    HW128124   1.401   4.174   0.474 -0.1301 -0.4063  0.1487
 5555SOL    HW228125   1.501   4.074   0.500 -1.5619 -0.6912 -2.1219
 5556SOL     OW28126   0.824   0.989   4.850 -0.1037 -0.2576  0.5364
 5556SOL    HW128127   0.746   1.027   4.809  0.8352  0.8081 -0.2624
 5556SOL    HW228128   0.868   0.948   4.776 -1.5509  1.6322 -1.3755
 5557SOL     OW28129   0.877   0.519   0.695  0.7030  0.2765 -0.0637
 5557SOL    HW128130   0.896   0.511   0.789  0.2588 -0.3853 -0.0315
 5557SOL    HW228131   0.938   0.589   0.676 -1.2560  1.9699 -0.1468
 5558SOL     OW28132   1.607   3.201  13.803 -0.6983 -0.1911  0.1352
 5558SOL    HW128133   1.545   3.273  13.815 -3.1359 -2.4031  0.8733
 5558SOL    HW228134   1.665   3.230  13.732  2.3940  1.0943  3.2121
 5559SOL     OW28135   0.773   3.304   9.704  0.1729 -0.6800  0.2348
 5559SOL    HW128136   0.833   3.286   9.632  0.4457 -0.7470  0.4816
 5559SOL    HW228137   0.840   3.331   9.766 -1.3482  1.1386  1.0930
 5560SOL     OW28138   2.766   1.290  14.630 -0.4898 -0.1275 -0.4952
 5560SOL    HW128139   2.708   1.326  14.698 -1.6466  0.7578 -1.9463
 5560SOL    HW228140   2.700   1.241  14.581  0.9219 -0.9112 -1.5761
 5561SOL     OW28141   0.575   3.899   6.628 -0.4540 -0.3077 -0.8052
 5561SOL    HW128142   0.639   3.835   6.598 -1.5827 -0.6687 -2.4249
 5561SOL    HW228143   0.497   3.845   6.636 -1.0885  0.7501  0.1071
 5562SOL     OW28144   0.645   3.523  13.084 -0.0833  0.1188  0.2743
 5562SOL    HW128145   0.638   3.486  13.172 -2.3205  2.4579  1.0633
 5562SOL    HW228146   0.693   3.459  13.031  1.8668  2.3172 -0.6311
 5563SOL     OW28147   1.343   2.014   3.881  0.2599 -0.0164 -0.0230
 5563SOL    HW128148   1.308   1.930   3.851  0.1061  0.0653 -0.0671
 5563SOL    HW228149   1.308   2.067   3.810 -0.3090  1.2509  1.2117
 5564SOL     OW28150   0.023   0.782   1.732  0.1246  0.1163  0.3546
 5564SOL    HW128151   4.666   0.771   1.782  0.0376  2.6180  0.7817
 5564SOL    HW228152   0.006   0.704   1.680  0.2208  0.0224  0.4658
 5565SOL     OW28153   1.263   2.833   8.406  0.1708  0.4745  0.0492
 5565SOL    HW128154   1.300   2.842   8.318 -1.8159 -1.2036 -0.9710
 5565SOL    HW228155   1.183   2.784   8.386  1.4127 -1.2589 -0.7226
 5566SOL     OW28156   1.300   2.689   1.602 -0.0245 -0.0555  0.6440
 5566SOL    HW128157   1.365   2.678   1.533 -0.1685 -2.2869  0.8634
 5566SOL    HW228158   1.321   2.774   1.640  2.1447  0.2629 -1.2345
 5567SOL     OW28159   3.699   0.144   5.848  0.1811  0.2977 -0.5294
 5567SOL    HW128160   3.745   0.164   5.766 -0.1532 -1.4928 -1.1532
 5567SOL    HW228161   3.765   0.167   5.914 -0.3577 -0.3382  0.2255
 5568SOL     OW28162   4.454   3.817   3.054 -0.9588  0.0632  0.6088
 5568SOL    HW128163   4.385   3.812   2.988  0.2902  1.7337 -0.8288
 5568SOL    HW228164   4.511   3.881   3.012 -0.2746  0.4357  2.0945
 5569SOL     OW28165   1.998   1.887   1.366  0.1846  0.1447 -0.1714
 5569SOL    HW128166   2.055   1.813   1.346  0.1093  0.6696 -2.3135
 5569SOL    HW228167   1.928   1.848   1.418 -0.1637  0.2846 -0.5412
 5570SOL     OW28168   2.766   1.895   6.269  0.1642 -0.1033 -0.4239
 5570SOL    HW128169   2.764   1.964   6.202  1.8150  1.4848  1.1662
 5570SOL    HW228170   2.812   1.817   6.237 -0.6954 -0.7662 -0.0297
 5571SOL     OW28171   2.719   3.510  13.115 -0.2756 -0.3427  0.3679
 5571SOL    HW128172   2.757   3.423  13.104  2.1104  0.8412 -0.7208
 5571SOL    HW228173   2.635   3.502  13.162  0.0832 -2.9930  0.5320
 5572SOL     OW28174   0.317   1.325   5.545 -0.0852  0.1337  0.0702
 5572SOL    HW128175   0.289   1.409   5.509 -0.5331  0.0818  0.2990
 5572SOL    HW228176   0.411   1.335   5.532  0.1985 -1.5324  0.8852
 5573SOL     OW28177   0.011   3.202   3.662  0.5000 -0.0510 -0.1921
 5573SOL    HW128178   4.670   3.231   3.726  0.7215 -1.4379  0.6703
 5573SOL    HW228179   0.041   3.117   3.695  1.5193 -0.1508 -1.4099
 5574SOL     OW28180   1.143   2.296  15.911  0.3417 -0.4691 -0.1170
 5574SOL    HW128181   1.104   2.209  15.918  3.1171 -1.7927 -0.8753
 5574SOL    HW228182   1.176   2.290  15.821  0.4453  0.1444 -0.1188
 5575SOL     OW28183   2.082   3.133   8.224  0.0074 -0.6535 -0.1406
 5575SOL    HW128184   2.035   3.050   8.232  0.2183 -0.7653 -0.0612
 5575SOL    HW228185   2.136   3.118   8.147  0.4093  2.7986 -0.5093
 5576SOL     OW28186   2.987   2.097   2.668 -0.1443  0.5098 -0.2496
 5576SOL    HW128187   2.907   2.046   2.654  1.5000 -1.6527 -1.7170
 5576SOL    HW228188   3.007   2.071   2.758 -2.2059  0.0079  0.0595
 5577SOL     OW28189   1.529   0.281  17.420  0.3268 -0.3294  0.3222
 5577SOL    HW128190   1.622   0.285  17.445  0.2997 -0.7942  0.4908
 5577SOL    HW228191   1.530   0.186  17.418  0.2904 -0.3572  1.7535
 5578SOL     OW28192   2.287   0.488   1.398  0.1958  0.1074 -0.1008
 5578SOL    HW128193   2.245   0.425   1.456 -1.5397  0.4211 -1.0129
 5578SOL    HW228194   2.249   0.465   1.313  0.2389 -1.8638  0.4045
 5579SOL     OW28195   1.304   4.208   6.518 -0.8952  0.2922  0.2445
 5579SOL    HW128196   1.343   4.123   6.498 -2.3009 -0.3151  0.0230
 5579SOL    HW228197   1.240   4.188   6.586 -0.2533 -0.2067  0.7009
 5580SOL     OW28198   4.326   4.146   1.092  0.0870 -0.4724 -0.3532
 5580SOL    HW128199   4.233   4.144   1.068  0.1100 -0.1808 -0.4704
 5580SOL    HW228200   4.330   4.122   1.184 -1.2117 -0.5821 -0.3277
 5581SOL     OW28201   2.738   2.686   6.036  0.0683 -0.4033  0.2065
 5581SOL    HW128202   2.793   2.612   6.063  0.0092 -1.9776 -4.0029
 5581SOL    HW228203   2.710   2.720   6.121  0.0399 -0.4096  0.1995
 5582SOL     OW28204   4.535   4.282   2.635 -0.5177  0.7286  0.1052
 5582SOL    HW128205   4.579   4.351   2.584 -1.3838  0.4081 -1.0616
 5582SOL    HW228206   4.530   4.220   2.562 -2.0802  0.5864  0.3375
 5583SOL     OW28207   4.453   2.906   3.708  0.2410  0.5072  0.8015
 5583SOL    HW128208   4.479   2.814   3.710  0.5781  0.5386 -1.7673
 5583SOL    HW228209   4.537   2.951   3.722  0.5522 -0.1775  1.1028
 5584SOL     OW28210   4.480   4.355  11.787 -0.1419 -0.3752 -0.2003
 5584SOL    HW128211   4.472   4.266  11.820 -0.3272 -0.6702 -1.0235
 5584SOL    HW228212   4.485   4.402  11.870 -2.5143 -1.1095  0.3584
 5585SOL     OW28213   0.679   2.793   7.878 -0.2000  0.7505  0.3330
 5585SOL    HW128214   0.682   2.790   7.974 -0.2940  1.1026  0.3450
 5585SOL    HW228215   0.688   2.698   7.871  1.9399  1.1696 -2.3069
 5586SOL     OW28216   3.584   2.028   6.596 -0.2705  0.7198 -0.9033
 5586SOL    HW128217   3.668   2.005   6.555  0.1712 -2.6891  1.9563
 5586SOL    HW228218   3.607   2.106   6.648  1.6924  0.2347 -1.0393
 5587SOL     OW28219   1.529   4.496  15.884  0.0821 -0.1772  0.0695
 5587SOL    HW128220   1.460   4.537  15.936 -0.4090 -0.2250 -0.5394
 5587SOL    HW228221   1.544   4.569  15.824  2.1488  0.8393  1.8296
 5588SOL     OW28222   2.160   0.334   4.766 -0.3111  0.2602 -0.1153
 5588SOL    HW128223   2.089   0.308   4.825 -1.3323  0.9016 -1.0559
 5588SOL    HW228224   2.208   0.254   4.747 -0.4896 -0.1293  1.0590
 5589SOL     OW28225   3.339   3.272  10.905 -0.2372  1.0651 -0.1871
 5589SOL    HW128226   3.404   3.272  10.834  0.7927  0.1572  0.7608
 5589SOL    HW228227   3.275   3.325  10.859 -1.4840 -0.7580 -0.5409
 5590SOL     OW28228   1.824   1.535  17.026 -0.1388 -0.5328  0.4334
 5590SOL    HW128229   1.861   1.538  16.938  2.1018 -3.3137  1.2728
 5590SOL    HW228230   1.905   1.554  17.075 -0.3697  1.5372  0.0189
 5591SOL     OW28231   3.738   4.631  14.715 -0.1990 -0.5667 -0.7617
 5591SOL    HW128232   3.683   4.574  14.662 -0.3270 -0.5581 -0.6384
 5591SOL    HW228233   3.793   4.675  14.649 -0.0137 -0.6001 -0.6271
 5592SOL     OW28234   1.115   4.690   3.455 -0.0041 -0.2446 -0.3289
 5592SOL    HW128235   1.040   4.667   3.401 -1.2845  0.1780  1.2573
 5592SOL    HW228236   1.142   4.611   3.503 -0.5571  0.0255  0.4282
 5593SOL     OW28237   3.013   2.919  17.413  0.7384  0.0689 -0.4403
 5593SOL    HW128238   2.930   2.893  17.453  0.3411  1.9027 -0.0865
 5593SOL    HW228239   3.072   2.885  17.480  1.4528 -0.3947 -1.3098
 5594SOL     OW28240   0.566   3.492   9.773  0.1193  0.2635 -0.5279
 5594SOL    HW128241   0.530   3.567   9.725 -1.2974 -1.4168 -2.1041
 5594SOL    HW228242   0.618   3.438   9.713  1.4412  0.1905  0.7010
 5595SOL     OW28243   2.070   3.813  13.444 -0.2647 -0.1255 -0.6967
 5595SOL    HW128244   2.008   3.874  13.485  0.5505 -0.2517  0.7117
 5595SOL    HW228245   2.132   3.877  13.409 -0.6050  0.4111 -0.3171
 5596SOL     OW28246   4.309   2.827   7.131 -0.2084  1.2285 -0.4860
 5596SOL    HW128247   4.279   2.769   7.201 -0.3708 -0.7939 -2.2392
 5596SOL    HW228248   4.223   2.859   7.103 -0.6666  0.3291 -0.0837
 5597SOL     OW28249   0.940   1.291   2.395  0.5020  0.3545 -0.0770
 5597SOL    HW128250   0.896   1.373   2.372 -0.0292  0.5607  1.7200
 5597SOL    HW228251   0.902   1.269   2.480  1.9578 -4.5369 -0.6724
 5598SOL     OW28252   3.298   1.528  16.812  0.3387  0.3475  0.0223
 5598SOL    HW128253   3.367   1.568  16.865  1.1365  0.0710 -0.7832
 5598SOL    HW228254   3.350   1.466  16.759  0.1385 -0.0241  0.2583
 5599SOL     OW28255   4.148   0.805   5.015  0.3331 -0.5920 -0.3436
 5599SOL    HW128256   4.061   0.786   5.050 -0.7581  0.4121 -2.4759
 5599SOL    HW228257   4.178   0.868   5.081  1.2823 -1.1735 -0.2258
 5600SOL     OW28258   1.442   4.485  12.144 -0.7687  0.3167  0.1966
 5600SOL    HW128259   1.520   4.536  12.168 -0.9844  1.8152 -2.3338
 5600SOL    HW228260   1.377   4.528  12.200 -2.0079  0.7745 -1.5900
 5601SOL     OW28261   3.413   4.206   3.619 -0.8134 -0.0892  0.3655
 5601SOL    HW128262   3.398   4.258   3.541  0.4263 -0.4157 -0.0801
 5601SOL    HW228263   3.431   4.273   3.685  2.2911 -0.1710 -0.4339
 5602SOL     OW28264   3.212   0.188   3.709 -0.1759 -0.2935  0.2048
 5602SOL    HW128265   3.198   0.141   3.791  1.4284 -1.7753 -0.3571
 5602SOL    HW228266   3.137   0.154   3.662  0.5887  1.0799 -1.9776
 5603SOL     OW28267   4.287   0.755   3.080  0.8162  0.4284  0.0826
 5603SOL    HW128268   4.213   0.716   3.033  0.1717 -1.2327  2.4513
 5603SOL    HW228269   4.317   0.668   3.106  0.7564  0.7181  1.1301
 5604SOL     OW28270   2.916   3.820   4.614  0.1168 -0.0164  0.3683
 5604SOL    HW128271   3.008   3.841   4.629 -0.5214  1.1189  2.5917
 5604SOL    HW228272   2.943   3.762   4.542 -0.5336 -0.8313  0.7880
 5605SOL     OW28273   0.402   1.711   6.115  0.3765  0.0024  0.0742
 5605SOL    HW128274   0.397   1.759   6.033 -3.1909  0.9928  0.8562
 5605SOL    HW228275   0.471   1.761   6.159  0.1250  1.9778 -1.8347
 5606SOL     OW28276   2.578   2.141   4.474 -0.0202  0.4687 -0.0591
 5606SOL    HW128277   2.545   2.109   4.390 -0.8934 -1.0825  0.8680
 5606SOL    HW228278   2.566   2.236   4.477 -0.4907  0.4103 -0.0673
 5607SOL     OW28279   0.554   1.843  12.629 -0.0292 -0.8474 -0.0842
 5607SOL    HW128280   0.532   1.922  12.579 -1.0975 -1.8346 -1.1762
 5607SOL    HW228281   0.631   1.879  12.673  0.3371  0.1797 -1.5812
 5608SOL     OW28282   2.955   1.589   1.683  0.1454  0.3013 -0.3531
 5608SOL    HW128283   2.966   1.680   1.711 -0.3858 -0.4001  2.1406
 5608SOL    HW228284   2.977   1.548   1.767 -2.2252  0.2958  0.2576
 5609SOL     OW28285   3.574   0.427   2.318  0.0650 -0.6443  0.4680
 5609SOL    HW128286   3.551   0.483   2.392 -0.8975  0.4519 -0.6485
 5609SOL    HW228287   3.491   0.405   2.276 -0.6962  0.1565  1.5711
 5610SOL     OW28288   1.022   2.706   7.578 -0.2300 -0.3420 -0.0948
 5610SOL    HW128289   0.994   2.722   7.488  0.2012 -0.7075 -0.2866
 5610SOL    HW228290   1.092   2.772   7.581 -0.0607 -0.4885 -0.7868
 5611SOL     OW28291   1.802   1.111   5.872 -0.0196  0.1336 -0.4308
 5611SOL    HW128292   1.800   1.172   5.945 -1.4294 -0.9160  0.4103
 5611SOL    HW228293   1.744   1.044   5.909  1.6271 -0.1953  1.5505
 5612SOL     OW28294   1.547   2.508   3.008  0.6521 -0.0374  0.0907
 5612SOL    HW128295   1.505   2.524   2.923 -1.7087 -0.3158  1.2128
 5612SOL    HW228296   1.533   2.413   3.010 -1.9838  0.3756  1.2563
 5613SOL     OW28297   2.456   2.668   5.235  0.6859 -0.1206  0.0850
 5613SOL    HW128298   2.381   2.611   5.248  1.1843 -1.0396 -1.0974
 5613SOL    HW228299   2.533   2.612   5.226  0.4658 -0.1734 -1.3414
 5614SOL     OW28300   2.394   4.538   7.838 -0.0044  0.0372 -0.3893
 5614SOL    HW128301   2.319   4.506   7.889 -0.8754  1.1268 -0.9824
 5614SOL    HW228302   2.437   4.460   7.801 -0.0980  0.0259 -0.4751
 5615SOL     OW28303   1.410   3.374   3.869 -0.0371 -0.0114  0.0457
 5615SOL    HW128304   1.326   3.381   3.823  0.3693  2.2295 -0.3554
 5615SOL    HW228305   1.402   3.288   3.910  3.8687 -1.2292 -1.7277
 5616SOL     OW28306   3.735   3.333   0.588  0.2375  0.0269 -0.0528
 5616SOL    HW128307   3.708   3.406   0.643  1.2474 -1.6779  2.7363
 5616SOL    HW228308   3.659   3.274   0.587 -0.3681  0.7957  0.1327
 5617SOL     OW28309   2.397   3.454  10.182 -0.1072 -0.9069  0.3604
 5617SOL    HW128310   2.418   3.507  10.259 -0.3614  0.6412 -0.6308
 5617SOL    HW228311   2.474   3.477  10.129  0.0518 -2.1801  0.0263
 5618SOL     OW28312   0.445   0.165   7.002  0.5959 -0.6949 -0.7946
 5618SOL    HW128313   0.495   0.221   6.942  0.6101 -0.4162 -0.5210
 5618SOL    HW228314   0.411   0.107   6.934  1.3667 -1.7226 -0.3099
 5619SOL     OW28315   4.602   4.137   2.358  0.0440 -0.0253 -0.6541
 5619SOL    HW128316   4.690   4.111   2.331  0.0098  0.6133 -1.3688
 5619SOL    HW228317   4.548   4.095   2.291 -0.2893 -1.7247  0.6605
 5620SOL     OW28318   2.724   2.850   5.202  0.2764  0.3291 -0.1626
 5620SOL    HW128319   2.786   2.804   5.260 -0.0018  1.1776  0.7970
 5620SOL    HW228320   2.704   2.795   5.126  0.9540  0.8878 -0.7421
 5621SOL     OW28321   3.554   3.340   0.345 -0.2484  0.3775  0.1919
 5621SOL    HW128322   3.562   3.416   0.403  0.6448  0.7542 -0.4307
 5621SOL    HW228323   3.647   3.326   0.327 -1.0771 -3.1172 -1.4145
 5622SOL     OW28324   4.144   0.005   4.849  0.0857 -0.2769 -0.7028
 5622SOL    HW128325   4.154   4.670   4.923  1.7232  1.6816  0.6411
 5622SOL    HW228326   4.086   4.670   4.800  2.2583 -2.4814 -0.6445
 5623SOL     OW28327   2.094   2.613  13.127  0.0652  0.3019  0.3019
 5623SOL    HW128328   2.036   2.574  13.062  0.9192 -0.3805 -0.0493
 5623SOL    HW228329   2.056   2.588  13.212  0.6978 -0.8001  0.2597
 5624SOL     OW28330   4.422   1.616   8.933  0.4558  0.1997  0.3490
 5624SOL    HW128331   4.399   1.582   9.020 -2.6457  0.4711 -0.3744
 5624SOL    HW228332   4.339   1.611   8.886  1.5301  0.0742 -1.5385
 5625SOL     OW28333   3.191   2.871   3.390 -0.2649 -0.3812  0.5186
 5625SOL    HW128334   3.137   2.809   3.340 -0.4872  0.1684  0.0743
 5625SOL    HW228335   3.124   2.913   3.443 -1.9333 -0.7977 -1.2213
 5626SOL     OW28336   0.446   0.780  12.859  0.6059 -0.8955  0.1759
 5626SOL    HW128337   0.473   0.786  12.951 -1.2653 -1.4397  0.7698
 5626SOL    HW228338   0.531   0.747  12.831  1.5606  2.0408 -0.3908
 5627SOL     OW28339   3.116   2.818   0.934 -0.2395  0.3379  0.5310
 5627SOL    HW128340   3.091   2.868   1.012 -1.9925  1.5663 -0.8094
 5627SOL    HW228341   3.114   2.888   0.868 -0.1664 -1.9376 -1.8946
 5628SOL     OW28342   3.708   3.908   7.970 -0.9990 -0.4432  0.0333
 5628SOL    HW128343   3.709   3.882   7.878  1.1089 -0.3620  0.0147
 5628SOL    HW228344   3.690   3.825   8.015  0.1411  1.2023  3.5768
 5629SOL     OW28345   2.456   4.033   3.946 -0.4652 -0.0946  0.3371
 5629SOL    HW128346   2.508   3.975   3.890 -0.6706 -0.8208  0.8879
 5629SOL    HW228347   2.518   4.106   3.947  0.5006 -0.8992 -0.0286
 5630SOL     OW28348   1.118   0.462  12.468 -0.8377  0.8729 -0.1633
 5630SOL    HW128349   1.102   0.556  12.478 -1.1173  0.5219  2.6607
 5630SOL    HW228350   1.090   0.442  12.379 -0.7118 -0.1518  0.0271
 5631SOL     OW28351   3.144   4.482   4.678 -0.1348  0.3827 -0.1277
 5631SOL    HW128352   3.145   4.511   4.587 -1.0003  0.2279 -0.1805
 5631SOL    HW228353   3.216   4.533   4.715 -0.8299  0.8082  0.6418
 5632SOL     OW28354   3.085   2.567   6.302  0.5491  0.0502  0.0247
 5632SOL    HW128355   3.121   2.630   6.240 -0.1027 -0.2961 -0.7053
 5632SOL    HW228356   3.018   2.623   6.342  1.5048  0.9577  0.3199
 5633SOL     OW28357   1.789   3.965  16.821  0.2769 -0.1942  0.6671
 5633SOL    HW128358   1.789   4.060  16.808 -0.3925 -0.7813 -3.7006
 5633SOL    HW228359   1.757   3.944  16.733 -0.4316 -1.9426  1.3325
 5634SOL     OW28360   1.857   2.143  11.317  0.1435  0.3914  0.0080
 5634SOL    HW128361   1.916   2.209  11.353  0.9080 -0.3285  0.0866
 5634SOL    HW228362   1.775   2.191  11.313 -0.0359  0.2403  2.1582
 5635SOL     OW28363   1.685   1.391   4.370 -0.3405  0.1864  0.1353
 5635SOL    HW128364   1.635   1.349   4.441  1.8791 -2.5989  0.0795
 5635SOL    HW228365   1.770   1.417   4.405 -1.3906  1.2763  1.9022
 5636SOL     OW28366   3.787   1.932   6.451 -0.0586  0.5221  0.4416
 5636SOL    HW128367   3.831   1.906   6.532 -2.5741  0.9420  1.9510
 5636SOL    HW228368   3.764   1.847   6.414  0.1982  0.5207  0.2855
 5637SOL     OW28369   0.539   4.059   7.538 -1.2515  0.5039  0.2373
 5637SOL    HW128370   0.475   3.998   7.500 -0.8773  0.7463 -0.7589
 5637SOL    HW228371   0.617   4.037   7.488 -0.4800 -0.7010  1.9797
 5638SOL     OW28372   4.210   1.888   3.656 -0.6167  0.0378  0.1995
 5638SOL    HW128373   4.177   1.894   3.745  1.8233  1.6156  1.0096
 5638SOL    HW228374   4.230   1.981   3.642  0.8276 -0.1875  0.7906
 5639SOL     OW28375   4.310   4.358  14.780  0.1361  0.0624  0.0826
 5639SOL    HW128376   4.280   4.362  14.689  2.1320 -0.2694 -0.6002
 5639SOL    HW228377   4.314   4.263  14.793  1.4328  0.2416  1.0316
 5640SOL     OW28378   1.234   0.040   2.648  0.0267  0.2576  0.1125
 5640SOL    HW128379   1.249   0.040   2.743  1.4464 -1.2363 -0.1220
 5640SOL    HW228380   1.150   0.084   2.632  0.7915  0.3267 -3.7565
 5641SOL     OW28381   2.192   0.116   5.414 -0.7049  0.1317 -0.2443
 5641SOL    HW128382   2.137   0.105   5.491 -1.6665 -0.0079 -0.9545
 5641SOL    HW228383   2.229   0.028   5.409  0.8754  0.8112 -0.6948
 5642SOL     OW28384   1.890   2.892  12.992  0.1236 -0.4583  0.4136
 5642SOL    HW128385   1.797   2.890  13.013  0.1821  2.0965  0.8940
 5642SOL    HW228386   1.926   2.860  13.075  1.5233  1.1660  0.4333
 5643SOL     OW28387   1.465   0.036  12.323  0.3969  0.3810  0.0576
 5643SOL    HW128388   1.386   4.708  12.334 -0.0982  0.8333 -1.3810
 5643SOL    HW228389   1.423   0.122  12.329 -1.8436 -0.8442  1.6949
 5644SOL     OW28390   0.326   0.066  13.210  0.3271 -0.0310  0.4309
 5644SOL    HW128391   0.384   4.714  13.217 -2.0713 -1.6573  2.6395
 5644SOL    HW228392   0.392   0.135  13.213 -1.5893  1.8696 -1.5644
 5645SOL     OW28393   3.391   3.825   3.907 -0.5114 -0.0162 -0.0779
 5645SOL    HW128394   3.361   3.753   3.962  0.2201  0.1960  0.6021
 5645SOL    HW228395   3.330   3.889   3.945  1.1186  1.9744 -0.8305
 5646SOL     OW28396   4.288   2.774  13.354 -0.0067 -0.4833  0.9806
 5646SOL    HW128397   4.321   2.858  13.322  2.2772 -2.3170 -1.4464
 5646SOL    HW228398   4.215   2.747  13.299  1.5844 -1.5299 -0.6355
 5647SOL     OW28399   1.758   1.362   2.990  0.2543  0.1660  0.2875
 5647SOL    HW128400   1.844   1.400   3.007 -0.2704  1.0305  0.9774
 5647SOL    HW228401   1.751   1.389   2.898 -2.2357 -2.4139 -0.2797
 5648SOL     OW28402   2.320   2.056   5.706 -0.3063  0.3579 -0.2565
 5648SOL    HW128403   2.282   2.065   5.794 -0.0904 -0.3642 -0.0838
 5648SOL    HW228404   2.301   1.963   5.690  1.8193 -0.5406  2.2970
 5649SOL     OW28405   4.600   2.287  10.438  0.9546 -0.0911  0.4992
 5649SOL    HW128406   4.582   2.234  10.516 -1.1226 -0.0386  0.0460
 5649SOL    HW228407   4.607   2.378  10.467  0.0328  0.4466 -1.0079
 5650SOL     OW28408   2.029   3.374   7.861  0.0279  0.1223 -0.1379
 5650SOL    HW128409   2.059   3.364   7.952 -0.8438  0.0413  0.1365
 5650SOL    HW228410   1.934   3.364   7.867  0.0008 -0.3525 -1.2860
 5651SOL     OW28411   4.020   3.147   4.680 -0.1850  0.0498 -0.3465
 5651SOL    HW128412   4.082   3.130   4.750 -1.0882 -2.4787 -0.1779
 5651SOL    HW228413   4.072   3.185   4.609 -0.1645 -0.8182 -0.7872
 5652SOL     OW28414   3.827   2.409  14.433  0.6136  0.4839 -0.3469
 5652SOL    HW128415   3.855   2.491  14.474 -1.4884  0.4349  1.1778
 5652SOL    HW228416   3.883   2.403  14.355 -0.8836  0.5263 -1.4225
 5653SOL     OW28417   4.601   0.046   2.683 -0.5246 -0.0799 -0.1649
 5653SOL    HW128418   4.669   0.068   2.746 -0.1232 -1.3193 -0.1610
 5653SOL    HW228419   4.594   0.130   2.639 -2.1775 -0.7447 -1.1737
 5654SOL     OW28420   0.917   1.288  16.710 -0.0171  0.2554 -0.5842
 5654SOL    HW128421   0.997   1.324  16.747  0.0695  0.5313 -1.0360
 5654SOL    HW228422   0.947   1.254  16.625 -1.9293 -1.3592 -0.6156
 5655SOL     OW28423   2.259   4.505   8.186 -0.2590  0.2037  0.1597
 5655SOL    HW128424   2.339   4.545   8.220 -0.3434  0.9996 -0.5561
 5655SOL    HW228425   2.265   4.418   8.225 -0.4192 -0.5992 -1.6053
 5656SOL     OW28426   0.997   2.607   5.948 -0.1607  0.2068 -0.3304
 5656SOL    HW128427   0.923   2.631   6.003  0.5485  1.7126 -0.0347
 5656SOL    HW228428   0.962   2.632   5.863 -0.4115  0.1944 -0.2307
 5657SOL     OW28429   2.548   0.528   8.256 -0.1308 -0.4755  0.3864
 5657SOL    HW128430   2.464   0.518   8.302 -1.2397  2.4937 -1.0145
 5657SOL    HW228431   2.541   0.621   8.236  1.9554 -0.7128 -1.4456
 5658SOL     OW28432   2.167   0.704  15.149 -0.0318 -0.3641  0.1340
 5658SOL    HW128433   2.081   0.709  15.191  0.0690 -1.7248  0.5036
 5658SOL    HW228434   2.204   0.629  15.195 -1.3521 -0.7137  0.6206
 5659SOL     OW28435   2.149   1.199   2.931  0.0543  0.4493  0.1619
 5659SOL    HW128436   2.132   1.105   2.926 -0.4361  0.4834  1.1550
 5659SOL    HW228437   2.107   1.219   3.015 -1.7346 -1.9156 -0.1728
 5660SOL     OW28438   2.836   2.360   4.121  0.2954  0.0652 -0.1174
 5660SOL    HW128439   2.907   2.361   4.058  0.2921 -1.5416 -0.1501
 5660SOL    HW228440   2.839   2.271   4.157  2.4106  0.5741  0.9781
 5661SOL     OW28441   2.475   3.429   6.817  0.2127  0.1457  0.1986
 5661SOL    HW128442   2.398   3.477   6.785  1.4816  0.4259 -2.4330
 5661SOL    HW228443   2.445   3.415   6.906  0.3062  2.0233  0.5257
 5662SOL     OW28444   2.221   0.899   5.089  0.3676 -0.0398  0.1633
 5662SOL    HW128445   2.243   0.904   5.182 -0.2317 -1.8499  0.3937
 5662SOL    HW228446   2.125   0.898   5.096  0.3322  1.9128  0.1385
 5663SOL     OW28447   4.407   3.145  11.187 -0.0207  0.8620 -0.1002
 5663SOL    HW128448   4.363   3.122  11.269  0.6274  0.2455  0.0714
 5663SOL    HW228449   4.496   3.161  11.218  0.1616  1.8154 -1.1203
 5664SOL     OW28450   2.253   4.602  10.350 -0.1934 -0.0535  0.4820
 5664SOL    HW128451   2.270   4.518  10.307  1.2458 -0.0742  1.1043
 5664SOL    HW228452   2.178   4.576  10.405 -1.9683 -0.3849 -2.0544
 5665SOL     OW28453   2.819   2.733   4.455 -0.0614  0.1427 -0.5027
 5665SOL    HW128454   2.911   2.707   4.466  0.0373 -0.5881 -3.2019
 5665SOL    HW228455   2.777   2.679   4.389 -1.4524 -0.6029  1.0047
 5666SOL     OW28456   0.729   1.751  13.449  0.1727 -0.0369 -0.5637
 5666SOL    HW128457   0.667   1.682  13.424  1.8393 -0.6721 -3.0016
 5666SOL    HW228458   0.730   1.737  13.544  2.7369 -0.6919 -0.6857
 5667SOL     OW28459   3.401   1.455  16.194 -0.4919  0.0862 -0.2255
 5667SOL    HW128460   3.372   1.531  16.144 -2.3858  0.1320  0.9232
 5667SOL    HW228461   3.366   1.380  16.146  2.2752 -1.2090 -0.2539
 5668SOL     OW28462   1.408   4.069   3.108 -0.3598 -0.5674 -0.0465
 5668SOL    HW128463   1.372   4.158   3.102  2.4859  0.6051  0.7176
 5668SOL    HW228464   1.336   4.007   3.094 -1.8427  1.4833 -1.5907
 5669SOL     OW28465   1.532   1.387   9.098 -0.1608  0.1987 -0.1413
 5669SOL    HW128466   1.510   1.332   9.023 -0.7454  1.1819 -0.6962
 5669SOL    HW228467   1.506   1.335   9.174  3.4269  1.1289  1.6822
 5670SOL     OW28468   0.366   0.722   2.510 -0.1518 -0.6618  0.0778
 5670SOL    HW128469   0.307   0.667   2.458 -1.5552 -0.1169  1.0671
 5670SOL    HW228470   0.408   0.779   2.446  1.2617 -2.5688 -0.6596
 5671SOL     OW28471   0.128   4.187  16.794 -0.3149  0.0654  0.1477
 5671SOL    HW128472   0.214   4.167  16.831 -0.5667 -1.7343 -0.2503
 5671SOL    HW228473   0.113   4.280  16.811 -2.5589 -0.5467  1.3939
 5672SOL     OW28474   0.466   2.108   8.423 -0.3632  0.5831  0.0059
 5672SOL    HW128475   0.530   2.179   8.421  0.4086 -0.1617 -1.1971
 5672SOL    HW228476   0.412   2.116   8.344 -0.3400 -1.3385 -0.1899
 5673SOL     OW28477   0.761   4.696  16.634 -0.0504  0.0660 -1.0836
 5673SOL    HW128478   0.736   0.045  16.691 -0.2182 -0.0709 -0.9819
 5673SOL    HW228479   0.847   0.005  16.609 -0.2650  1.0360 -0.5248
 5674SOL     OW28480   1.096   1.487  17.053 -0.3090 -0.0140  0.0673
 5674SOL    HW128481   1.060   1.570  17.084  0.2821  0.9967 -1.9838
 5674SOL    HW228482   1.061   1.428  17.121 -0.3378 -0.4267 -0.3061
 5675SOL     OW28483   2.772   3.715  12.391  0.4297 -0.9086  0.0224
 5675SOL    HW128484   2.677   3.713  12.406  0.3887  0.1351 -0.0928
 5675SOL    HW228485   2.793   3.622  12.398 -0.9390 -1.3319 -1.4949
 5676SOL     OW28486   4.204   2.908  14.992 -0.0245  0.4115 -0.0152
 5676SOL    HW128487   4.128   2.962  15.017  1.1308  1.5046  1.1619
 5676SOL    HW228488   4.202   2.925  14.898 -2.7613 -1.6159 -0.3356
 5677SOL     OW28489   2.855   4.039   0.464  0.3364  0.2682 -0.3644
 5677SOL    HW128490   2.764   4.009   0.461  0.8683 -1.1437 -2.5926
 5677SOL    HW228491   2.898   3.954   0.468  0.2962  0.2700  0.0590
 5678SOL     OW28492   1.192   4.376   6.328 -0.1705 -0.6582  0.3921
 5678SOL    HW128493   1.250   4.311   6.369 -0.4979 -1.6779 -0.7339
 5678SOL    HW228494   1.141   4.332   6.260 -1.6427 -0.6112  1.4551
 5679SOL     OW28495   4.712   4.630   8.072 -0.5216  0.4556 -0.0126
 5679SOL    HW128496   0.050   4.684   8.024 -0.6264  1.1084  0.5968
 5679SOL    HW228497   0.010   4.668   8.156  0.5926  0.8985 -0.5073
 5680SOL     OW28498   2.378   3.100   1.983 -0.5503  0.3424 -0.8428
 5680SOL    HW128499   2.306   3.109   2.046 -0.1902 -2.5985 -0.0067
 5680SOL    HW228500   2.458   3.083   2.032 -1.0356 -2.2971 -0.9779
 5681SOL     OW28501   0.618   4.660   8.918 -0.4946  0.9128  0.0722
 5681SOL    HW128502   0.529   4.627   8.909  0.4610 -1.4838 -0.6063
 5681SOL    HW228503   0.642   4.573   8.886 -1.0723  0.5354  0.6735
 5682SOL     OW28504   3.920   2.850   7.639 -0.2904  0.1657 -0.1153
 5682SOL    HW128505   3.906   2.769   7.590  0.7389 -0.2825  0.3234
 5682SOL    HW228506   4.015   2.863   7.633  0.0726 -1.3993  2.5077
 5683SOL     OW28507   2.571   1.125   7.848 -0.4713 -0.3416  0.6793
 5683SOL    HW128508   2.523   1.055   7.891  1.0928 -1.1176  1.1676
 5683SOL    HW228509   2.501   1.176   7.807  0.8157  0.8193 -0.0998
 5684SOL     OW28510   1.035   1.810   3.124  0.0225 -0.5496  0.3588
 5684SOL    HW128511   1.055   1.842   3.212 -1.0524 -1.0944  0.8052
 5684SOL    HW228512   1.104   1.747   3.105 -0.0931 -0.2048 -1.2056
 5685SOL     OW28513   1.959   4.578   4.703 -0.3814  0.4084 -0.4340
 5685SOL    HW128514   1.928   4.542   4.786 -1.7959  0.8598 -0.7729
 5685SOL    HW228515   1.942   4.671   4.720  0.4624  0.0204  2.4879
 5686SOL     OW28516   2.808   3.989  17.401  0.2899  0.2256 -0.0793
 5686SOL    HW128517   2.759   4.067  17.373  0.4337  0.9758  1.7383
 5686SOL    HW228518   2.873   4.035  17.455 -1.7942  0.8542  1.8837
 5687SOL     OW28519   0.469   3.362   2.394 -0.1003  0.3706 -0.9691
 5687SOL    HW128520   0.496   3.413   2.317  1.5283  0.4004 -0.3851
 5687SOL    HW228521   0.559   3.350   2.424 -0.6672 -1.7426 -0.1472
 5688SOL     OW28522   0.203   3.973   5.667 -0.2458 -0.0527  0.1549
 5688SOL    HW128523   0.175   3.891   5.626  0.3295 -1.1089  1.8433
 5688SOL    HW228524   0.296   3.968   5.646 -0.5791  0.3789 -1.3893
 5689SOL     OW28525   4.095   0.145   2.416  0.3186 -0.0699  0.4560
 5689SOL    HW128526   4.078   0.067   2.364 -2.8896  0.8513  0.1569
 5689SOL    HW228527   4.075   0.220   2.360  2.3417  0.0620 -0.1074
 5690SOL     OW28528   4.531   4.688   5.011 -0.5676 -0.1034 -0.1437
 5690SOL    HW128529   4.466   0.016   4.963 -0.0411 -1.5787 -2.4570
 5690SOL    HW228530   4.530   0.009   5.095  2.7659 -0.1734 -0.0748
 5691SOL     OW28531   3.304   2.388   8.834  0.4360  0.6367 -0.2696
 5691SOL    HW128532   3.221   2.434   8.839 -0.0341 -0.5350  2.7539
 5691SOL    HW228533   3.293   2.297   8.863  0.8093  0.4495 -0.7062
 5692SOL     OW28534   0.638   3.652   2.981 -0.2621 -0.4023  0.0402
 5692SOL    HW128535   0.703   3.582   2.982 -1.0833 -1.1319  3.6142
 5692SOL    HW228536   0.618   3.664   2.888 -0.3506  1.0681  0.2458
 5693SOL     OW28537   0.907   4.518   6.094 -0.1332  0.1495 -0.4821
 5693SOL    HW128538   0.947   4.547   6.175  1.7291 -1.8320 -0.7177
 5693SOL    HW228539   0.970   4.543   6.027  2.6233 -0.3980  1.9438
 5694SOL     OW28540   1.319   2.722   7.213 -0.0636  0.0089  0.3161
 5694SOL    HW128541   1.325   2.688   7.124 -3.7602  0.5849 -0.1574
 5694SOL    HW228542   1.228   2.753   7.214  0.2642  0.9595 -0.3017
 5695SOL     OW28543   2.215   3.370  11.726  0.1368  0.5854  0.1081
 5695SOL    HW128544   2.267   3.378  11.646  0.8599  0.6092  0.5782
 5695SOL    HW228545   2.184   3.460  11.736  1.0406  0.6899  2.0043
 5696SOL     OW28546   1.177   1.463   6.807 -0.0567 -0.2136 -0.0128
 5696SOL    HW128547   1.164   1.377   6.848  1.5600  0.7523  2.5539
 5696SOL    HW228548   1.270   1.460   6.783  0.2379  3.7210  0.5959
 5697SOL     OW28549   2.370   1.797   0.781 -0.0464 -0.2819  0.0156
 5697SOL    HW128550   2.348   1.778   0.872  1.2018 -0.5855  0.2622
 5697SOL    HW228551   2.283   1.796   0.743  0.0112  3.3445 -0.2158
 5698SOL     OW28552   2.047   4.222   2.348 -0.1771 -0.0452 -0.2700
 5698SOL    HW128553   2.102   4.204   2.424 -1.3520 -2.6306 -0.0141
 5698SOL    HW228554   2.061   4.143   2.295  2.3130 -0.0415  0.4233
 5699SOL     OW28555   0.925   1.280   2.952  0.8587  0.2145 -0.0115
 5699SOL    HW128556   0.937   1.279   3.047 -0.9690  2.5021  0.2169
 5699SOL    HW228557   0.842   1.235   2.936  0.5548 -0.0417  2.3020
 5700SOL     OW28558   1.612   4.328   0.279  0.0815  0.3310  0.3477
 5700SOL    HW128559   1.545   4.391   0.253  1.0228  0.6285 -1.3704
 5700SOL    HW228560   1.569   4.281   0.351  1.9538 -0.3051  1.0334
 5701SOL     OW28561   3.270   0.915   5.233 -0.3973 -0.0883  0.4251
 5701SOL    HW128562   3.185   0.950   5.205 -0.5553  0.2555  1.3250
 5701SOL    HW228563   3.266   0.946   5.323 -0.2964 -1.2671  0.8292
 5702SOL     OW28564   0.204   1.445   7.846 -0.5754  0.0048  0.4057
 5702SOL    HW128565   0.192   1.376   7.911  2.3588 -1.3841 -0.5203
 5702SOL    HW228566   0.292   1.430   7.812 -0.6932  1.1663 -0.4105
 5703SOL     OW28567   3.561   2.453   8.903 -0.0755 -0.0034  0.3070
 5703SOL    HW128568   3.579   2.370   8.947 -1.0524 -1.5730 -2.2651
 5703SOL    HW228569   3.470   2.438   8.881 -0.9440  0.0769  3.7675
 5704SOL     OW28570   1.676   3.495   5.450 -0.4089 -0.5274  0.2420
 5704SOL    HW128571   1.668   3.469   5.542 -1.1565  0.8840  0.5860
 5704SOL    HW228572   1.764   3.532   5.445 -0.5753 -0.2653 -0.6946
 5705SOL     OW28573   0.257   2.524   4.636  1.0137 -0.0384  0.5081
 5705SOL    HW128574   0.340   2.504   4.592  1.4279  0.6883  0.9719
 5705SOL    HW228575   0.229   2.439   4.603  0.1029  1.1342 -1.6870
 5706SOL     OW28576   1.568   0.343   8.985 -0.4026 -0.4411 -0.9710
 5706SOL    HW128577   1.636   0.409   8.984 -0.4004 -0.4165  1.3585
 5706SOL    HW228578   1.536   0.352   9.075  1.2255  0.9682 -0.5472
 5707SOL     OW28579   1.362   0.473   7.721  0.1669  0.1612  0.3107
 5707SOL    HW128580   1.273   0.459   7.754  0.8490 -2.2897  1.0734
 5707SOL    HW228581   1.358   0.406   7.653 -3.8749 -0.1238  0.8092
 5708SOL     OW28582   1.278   1.002   9.241 -0.4683 -0.2427 -0.6148
 5708SOL    HW128583   1.234   1.064   9.298 -0.0889 -0.0026 -0.5760
 5708SOL    HW228584   1.366   1.038   9.229 -0.8258  0.7111 -0.3700
 5709SOL     OW28585   4.602   1.295   2.936  0.1561  0.0565  0.0512
 5709SOL    HW128586   4.594   1.359   2.865 -2.2568  0.3928  0.6294
 5709SOL    HW228587   4.692   1.291   2.968 -0.1986  0.6992  1.1386
 5710SOL     OW28588   3.658   3.807   3.429 -0.5953  0.3440  0.2158
 5710SOL    HW128589   3.618   3.802   3.516 -0.8584  1.2891  0.1469
 5710SOL    HW228590   3.650   3.901   3.415  0.5437  0.1452 -1.8086
 5711SOL     OW28591   0.264   1.122   4.563  0.1014  0.1614  0.1599
 5711SOL    HW128592   0.330   1.187   4.540 -0.6305  0.1952 -1.8329
 5711SOL    HW228593   0.267   1.135   4.658 -1.1191  2.0493 -0.0759
 5712SOL     OW28594   3.927   0.811   8.007  0.2025  0.2836 -0.5695
 5712SOL    HW128595   3.867   0.885   8.004  1.3931  1.2167 -1.0535
 5712SOL    HW228596   3.887   0.763   8.079 -2.2911 -0.8718 -2.7053
 5713SOL     OW28597   3.129   0.010  16.436 -0.2835 -0.1430  0.1319
 5713SOL    HW128598   3.166   0.013  16.347 -0.9198  0.1652 -0.1220
 5713SOL    HW228599   3.080   0.091  16.445 -0.7052 -0.3438 -0.3677
 5714SOL     OW28600   2.298   1.087   1.707  0.3159 -0.5415 -0.1666
 5714SOL    HW128601   2.334   1.124   1.787  0.5886 -2.9032  0.7882
 5714SOL    HW228602   2.315   1.155   1.642  0.7827  0.6989  1.2837
 5715SOL     OW28603   0.108   3.443  10.948 -0.1193  0.1141 -0.0880
 5715SOL    HW128604   0.048   3.378  10.912 -0.9403  1.3964 -1.0726
 5715SOL    HW228605   0.058   3.472  11.024 -0.5859 -1.1743  0.0893
 5716SOL     OW28606   1.209   0.173   2.219 -0.5728  0.2448 -0.1223
 5716SOL    HW128607   1.257   0.125   2.286  1.1985 -3.5927 -4.0650
 5716SOL    HW228608   1.236   0.257   2.255 -0.8186 -0.1919  1.0775
 5717SOL     OW28609   4.551   0.645  12.023 -0.3509 -0.0104 -0.6828
 5717SOL    HW128610   4.465   0.641  12.065 -0.6600 -1.4733 -1.4661
 5717SOL    HW228611   4.545   0.731  11.980 -0.3198  1.0277  1.3517
 5718SOL     OW28612   4.102   1.855   4.143 -0.4407 -0.0041  0.6209
 5718SOL    HW128613   4.013   1.823   4.157  0.2235 -2.0163  0.3125
 5718SOL    HW228614   4.146   1.770   4.142  2.6089  1.6019 -0.0266
 5719SOL     OW28615   4.330   3.274   5.683  0.4960 -0.1648 -0.2186
 5719SOL    HW128616   4.409   3.246   5.730  0.8914  0.6811 -0.3672
 5719SOL    HW228617   4.275   3.285   5.761 -0.6220  0.2889 -1.0825
 5720SOL     OW28618   0.664   0.828   5.300 -0.3898  0.2516 -0.6352
 5720SOL    HW128619   0.723   0.780   5.243 -0.4005 -1.0397  0.4404
 5720SOL    HW228620   0.704   0.915   5.306 -0.5597  0.3522 -0.9745
 5721SOL     OW28621   2.557   3.460   3.587  0.1309 -0.0457  0.0190
 5721SOL    HW128622   2.493   3.498   3.646  0.1903 -0.1059  0.1214
 5721SOL    HW228623   2.519   3.376   3.562 -3.1912  1.4872 -0.0873
 5722SOL     OW28624   3.580   1.198   8.644  0.5124 -0.3417 -0.0479
 5722SOL    HW128625   3.614   1.242   8.722  3.9664 -0.8027 -1.2926
 5722SOL    HW228626   3.490   1.175   8.668  0.4295 -0.3242 -0.3401
 5723SOL     OW28627   2.988   0.919   2.904 -0.4483 -0.2982  0.5203
 5723SOL    HW128628   2.971   0.826   2.918  0.0709 -0.2185  1.6755
 5723SOL    HW228629   3.076   0.921   2.941  0.3097  2.4973 -1.3867
 5724SOL     OW28630   1.981   1.090   7.273  0.2030 -0.2367 -0.1956
 5724SOL    HW128631   1.924   1.159   7.304 -0.6279 -0.4219 -1.3315
 5724SOL    HW228632   1.950   1.014   7.324  0.7544 -0.6905 -0.5277
 5725SOL     OW28633   2.355   3.043   9.387  0.0740 -0.2972  0.0272
 5725SOL    HW128634   2.412   3.114   9.416  1.6280 -1.2356 -0.7557
 5725SOL    HW228635   2.336   3.069   9.297 -0.3900 -1.5627 -0.2271
 5726SOL     OW28636   2.733   1.537   6.429 -0.2244  0.4288  0.6037
 5726SOL    HW128637   2.827   1.522   6.443  0.3356  1.1720 -2.3346
 5726SOL    HW228638   2.708   1.581   6.510  1.3237  0.7618  0.9093
 5727SOL     OW28639   2.567   0.351   7.757  0.1943  0.0835 -0.3491
 5727SOL    HW128640   2.506   0.424   7.756 -1.7489 -1.6155 -2.7127
 5727SOL    HW228641   2.549   0.293   7.684 -2.3139 -2.6842  2.4519
 5728SOL     OW28642   4.136   2.832   4.739 -0.2476  0.2680 -0.5313
 5728SOL    HW128643   4.075   2.892   4.783 -1.5935 -2.0003  0.7039
 5728SOL    HW228644   4.143   2.768   4.809 -0.1111 -0.6904 -1.4270
 5729SOL     OW28645   4.389   1.673   5.262  0.7356 -0.0377 -0.0508
 5729SOL    HW128646   4.467   1.693   5.211  1.2156 -1.4604  0.1249
 5729SOL    HW228647   4.415   1.587   5.295 -1.6614  0.0581  2.1170
 5730SOL     OW28648   1.923   2.265   4.908  0.0460 -0.1483 -0.2344
 5730SOL    HW128649   1.870   2.194   4.869  0.5535 -0.0300 -1.1389
 5730SOL    HW228650   1.854   2.326   4.933 -1.6682 -2.7566  1.4777
 5731SOL     OW28651   1.001   1.013   2.635 -0.3381  0.3620  0.5548
 5731SOL    HW128652   0.931   1.006   2.570 -0.9079 -3.0016  1.5089
 5731SOL    HW228653   0.956   0.964   2.704  2.1144 -0.9048  1.2356
 5732SOL     OW28654   0.674   2.002   3.702 -0.0993 -0.1852 -0.5508
 5732SOL    HW128655   0.618   1.988   3.625 -0.4228 -2.8284  0.1618
 5732SOL    HW228656   0.656   2.095   3.714 -1.6512 -0.6396  0.5975
 5733SOL     OW28657   4.111   3.690  10.763  1.3831 -0.2064 -0.3308
 5733SOL    HW128658   4.184   3.714  10.706  1.2360 -0.7751 -0.7656
 5733SOL    HW228659   4.100   3.778  10.798  4.3514  0.4971 -1.1901
 5734SOL     OW28660   1.918   1.582   4.999  0.0757  0.5236 -0.0230
 5734SOL    HW128661   1.910   1.488   5.015 -1.8464  1.0116  1.9153
 5734SOL    HW228662   1.871   1.611   5.077  0.1838 -0.9364  0.5763
 5735SOL     OW28663   3.818   1.736   6.808 -0.0369  0.0482  0.0874
 5735SOL    HW128664   3.734   1.691   6.816  0.1168 -0.0628  1.1759
 5735SOL    HW228665   3.817   1.770   6.898 -1.6933 -0.8377  0.4096
 5736SOL     OW28666   1.269   4.245   4.729  0.1010 -0.6222  0.2922
 5736SOL    HW128667   1.278   4.151   4.748 -1.2732 -0.4080  1.9231
 5736SOL    HW228668   1.195   4.239   4.669 -0.4064  1.0204  0.7889
 5737SOL     OW28669   3.580   4.525   5.245 -0.0389 -0.1516 -0.2647
 5737SOL    HW128670   3.595   4.498   5.336  3.6894  1.2552 -0.4729
 5737SOL    HW228671   3.535   4.607   5.262 -0.1748  0.2017 -2.2923
 5738SOL     OW28672   4.099   1.628   7.015 -0.0817  1.0265 -0.0411
 5738SOL    HW128673   4.040   1.669   6.952  1.1756 -0.4259 -2.1742
 5738SOL    HW228674   4.073   1.537   7.006 -0.0085  0.9799  0.2257
 5739SOL     OW28675   4.001   1.386  15.159  0.3798  0.2680  0.3275
 5739SOL    HW128676   4.022   1.474  15.127  0.4276 -0.0373 -0.4708
 5739SOL    HW228677   4.077   1.333  15.133  0.7979  0.4206  1.2315
 5740SOL     OW28678   2.941   3.490   1.133  0.0554  0.2561  0.4466
 5740SOL    HW128679   2.982   3.490   1.220  0.2229  0.4017  0.3676
 5740SOL    HW228680   3.021   3.502   1.082  0.0730 -0.9184  0.1878
 5741SOL     OW28681   0.537   2.190   6.266 -0.0711  0.0110  0.5421
 5741SOL    HW128682   0.527   2.283   6.246 -1.7055 -0.4594 -0.8461
 5741SOL    HW228683   0.588   2.195   6.346  3.0949 -0.1118 -1.4546
 5742SOL     OW28684   0.008   1.214   5.932 -0.0903  0.3049  0.9118
 5742SOL    HW128685   0.029   1.155   6.005  0.5851 -0.3175  0.2253
 5742SOL    HW228686   0.088   1.214   5.879  2.0295 -2.6720  4.1755
 5743SOL     OW28687   1.489   0.965  10.994  0.0567  0.1815 -0.3525
 5743SOL    HW128688   1.540   0.999  11.067  1.6212  2.3443 -2.4169
 5743SOL    HW228689   1.428   0.910  11.043 -0.8799 -0.8294 -2.6188
 5744SOL     OW28690   4.711   2.467   3.604  0.0474 -0.5109  0.4554
 5744SOL    HW128691   4.667   2.450   3.520 -1.3173 -2.7177  1.6210
 5744SOL    HW228692   0.043   2.390   3.604 -0.9967 -1.2840  0.2687
 5745SOL     OW28693   0.752   1.508  17.427  0.1662 -0.4512  0.5815
 5745SOL    HW128694   0.819   1.525  17.362 -0.0948 -0.3659  0.3341
 5745SOL    HW228695   0.672   1.524  17.376  0.9980  1.4065 -0.1287
 5746SOL     OW28696   0.635   0.260   1.407 -0.3961 -0.2869  0.2663
 5746SOL    HW128697   0.724   0.245   1.441 -0.5742 -0.3745  0.6905
 5746SOL    HW228698   0.594   0.314   1.475  1.5082  0.9147  0.4701
 5747SOL     OW28699   2.529   2.715   7.838 -0.7580  0.4849 -0.5651
 5747SOL    HW128700   2.576   2.704   7.755  1.0689 -1.4559  0.7347
 5747SOL    HW228701   2.567   2.641   7.885 -3.9202  0.0325  1.2844
 5748SOL     OW28702   2.490   3.398  12.119 -0.1810 -0.6732  0.0594
 5748SOL    HW128703   2.575   3.359  12.139 -0.0491 -1.5274 -2.1640
 5748SOL    HW228704   2.507   3.474  12.063  0.4679  0.8780  2.3335
 5749SOL     OW28705   0.626   2.130   6.517 -0.0173  0.4490 -0.7780
 5749SOL    HW128706   0.688   2.073   6.562 -2.1495 -1.2608  0.0016
 5749SOL    HW228707   0.582   2.164   6.596 -0.5223 -0.6875 -0.5623
 5750SOL     OW28708   4.456   3.153   4.699 -0.6297  0.3393 -1.1421
 5750SOL    HW128709   4.436   3.231   4.648  0.9896  1.7889  0.4247
 5750SOL    HW228710   4.402   3.091   4.650 -2.5347  0.7877  0.3569
 5751SOL     OW28711   4.212   4.663   7.365  0.6495  0.5322 -0.0655
 5751SOL    HW128712   4.155   4.639   7.293  2.5681 -2.8874 -0.4367
 5751SOL    HW228713   4.228   4.572   7.391 -0.3108 -0.2245 -2.1940
 5752SOL     OW28714   0.913   3.512   4.883  0.2815  0.0260 -0.2766
 5752SOL    HW128715   0.847   3.560   4.833  0.6715  2.7085  1.7976
 5752SOL    HW228716   0.947   3.463   4.808  1.1633  0.8354 -0.3998
 5753SOL     OW28717   2.501   1.139   8.463  0.2353  0.1991  0.1837
 5753SOL    HW128718   2.494   1.184   8.379 -1.5618  1.8333  1.1802
 5753SOL    HW228719   2.410   1.145   8.493  0.0528 -2.4254  0.1315
 5754SOL     OW28720   1.109   0.403   8.047  0.6437 -0.8844  0.3152
 5754SOL    HW128721   1.093   0.316   8.083 -2.1635 -1.0998 -1.3656
 5754SOL    HW228722   1.203   0.392   8.034  0.9031  1.2424  0.4424
 5755SOL     OW28723   3.534   0.784  12.139  0.4990  0.2695  0.3473
 5755SOL    HW128724   3.491   0.702  12.163 -1.9252  1.5634  0.3805
 5755SOL    HW228725   3.529   0.791  12.044  0.9727  2.2469  0.4704
 5756SOL     OW28726   2.374   2.721   6.305 -0.5295 -0.0374 -0.4612
 5756SOL    HW128727   2.435   2.790   6.330 -1.0829  0.0852  0.5423
 5756SOL    HW228728   2.367   2.735   6.210  2.8850 -2.5093 -1.0557
 5757SOL     OW28729   4.166   4.047   5.408  0.3500 -0.4329 -0.2934
 5757SOL    HW128730   4.230   4.063   5.339 -0.4946 -2.2394 -1.5022
 5757SOL    HW228731   4.136   3.957   5.395  0.3931 -0.4697 -0.1309
 5758SOL     OW28732   3.178   0.284   5.675  0.0881 -0.4630  0.1164
 5758SOL    HW128733   3.250   0.312   5.618  0.1953 -1.3823 -0.2089
 5758SOL    HW228734   3.125   0.363   5.668 -0.7730 -1.1082 -0.6071
 5759SOL     OW28735   1.177   1.340   6.388 -0.1658  0.0533 -0.0481
 5759SOL    HW128736   1.233   1.286   6.444 -0.9068  0.6385  1.2221
 5759SOL    HW228737   1.234   1.392   6.331  0.4166  0.3257  0.7893
 5760SOL     OW28738   1.973   0.478  13.036 -0.3307  0.4443 -0.4987
 5760SOL    HW128739   1.934   0.420  13.102  0.5857  0.4124  0.0221
 5760SOL    HW228740   1.956   0.420  12.962  1.6891  0.0762 -0.6882
 5761SOL     OW28741   4.379   3.055   2.813 -0.3891 -0.0446  0.1221
 5761SOL    HW128742   4.371   3.012   2.728 -0.9401 -1.4286  0.8742
 5761SOL    HW228743   4.290   3.054   2.850 -1.0731  2.2104 -1.4734
 5762SOL     OW28744   2.578   0.328   0.470  0.3074  0.0456 -0.4137
 5762SOL    HW128745   2.529   0.383   0.409  0.4709 -0.3621 -0.9127
 5762SOL    HW228746   2.642   0.386   0.511  1.5747 -0.1277 -2.1441
 5763SOL     OW28747   2.334   1.448  16.130 -0.3582 -0.0602  0.0901
 5763SOL    HW128748   2.312   1.508  16.059 -1.3452  0.4230  0.7990
 5763SOL    HW228749   2.308   1.370  16.081 -1.2176 -0.3523  1.0040
 5764SOL     OW28750   4.577   1.560   6.507  0.1429  0.9203  0.6262
 5764SOL    HW128751   4.672   1.563   6.523  0.1991 -1.1069  0.7238
 5764SOL    HW228752   4.589   1.499   6.434  4.9411 -1.1372  3.1109
 5765SOL     OW28753   2.680   1.490   3.973  0.0929 -0.4005  0.3342
 5765SOL    HW128754   2.587   1.490   3.950 -0.1411 -0.6500  1.2757
 5765SOL    HW228755   2.684   1.585   3.986  1.0994  0.1597 -4.0015
 5766SOL     OW28756   4.126   2.288   2.098  0.5672 -0.2228  0.1137
 5766SOL    HW128757   4.140   2.233   2.175  1.0043 -2.4497 -1.5688
 5766SOL    HW228758   4.167   2.367   2.134  0.1546 -0.4434  1.0429
 5767SOL     OW28759   4.371   2.803   5.433 -0.2453 -0.4656  0.2501
 5767SOL    HW128760   4.279   2.800   5.457  0.2050 -1.7891  1.7957
 5767SOL    HW228761   4.373   2.832   5.341  0.9988 -2.0678 -0.2359
 5768SOL     OW28762   3.831   3.997   0.328 -0.2634  0.4640 -0.1457
 5768SOL    HW128763   3.752   4.049   0.345 -0.0790  0.7188 -0.0769
 5768SOL    HW228764   3.799   3.944   0.254 -1.5079 -0.6358  1.1709
 5769SOL     OW28765   3.367   2.008   8.071  0.0198  0.1515  0.1764
 5769SOL    HW128766   3.457   2.002   8.103  0.1030 -0.4361 -0.1687
 5769SOL    HW228767   3.377   2.061   7.992 -0.3145  0.2891  0.2242
 5770SOL     OW28768   4.713   0.302   3.013 -0.3285  0.1855 -0.0600
 5770SOL    HW128769   4.617   0.303   3.013 -0.3209  0.6792  3.1513
 5770SOL    HW228770   0.013   0.211   2.997 -0.1565  0.0314  1.0882
 5771SOL     OW28771   0.054   2.893  15.775  0.1027 -0.4459 -0.5797
 5771SOL    HW128772   0.063   2.976  15.729 -1.7714  0.1140  0.0478
 5771SOL    HW228773   0.145   2.868  15.790  0.9812  2.4290 -1.2191
 5772SOL     OW28774   1.157   2.444   1.340 -0.3430 -0.0820 -0.1466
 5772SOL    HW128775   1.181   2.383   1.270  0.7504 -0.9584  1.0039
 5772SOL    HW228776   1.184   2.406   1.423  1.9215 -0.2712 -0.9632
 5773SOL     OW28777   1.199   2.547  16.254 -0.7992  0.6541  0.0080
 5773SOL    HW128778   1.279   2.584  16.290  0.5878 -0.7789 -1.5886
 5773SOL    HW228779   1.170   2.491  16.326 -1.3024  1.8636  0.7508
 5774SOL     OW28780   4.028   0.663  16.201  0.2639 -0.2359 -0.0993
 5774SOL    HW128781   4.069   0.692  16.120  1.6838 -0.3795  0.5535
 5774SOL    HW228782   3.972   0.589  16.177  1.4017 -0.8384 -0.9077
 5775SOL     OW28783   4.631   3.393  13.653 -0.7248  0.2236  0.0006
 5775SOL    HW128784   4.567   3.436  13.595  0.8286  2.3520 -0.1179
 5775SOL    HW228785   4.584   3.395  13.736 -0.4560 -1.3597  0.1859
 5776SOL     OW28786   4.067   1.293   5.467 -0.0055 -0.8406  0.4468
 5776SOL    HW128787   4.029   1.281   5.554 -0.6623  3.0539  0.7259
 5776SOL    HW228788   4.154   1.315   5.498 -0.9858 -0.8956  3.2755
 5777SOL     OW28789   0.233   0.510   3.977 -0.2836 -0.0211  0.1724
 5777SOL    HW128790   0.199   0.422   3.959 -1.7774 -0.1917  3.8449
 5777SOL    HW228791   0.314   0.496   4.026 -0.7282 -0.9869  0.6324
 5778SOL     OW28792   0.020   1.006   6.181  0.0940  0.2749  0.1962
 5778SOL    HW128793   0.109   0.990   6.212  0.4392 -0.8267 -1.3916
 5778SOL    HW228794   0.035   0.969   6.094 -2.8378  0.2925 -0.3085
 5779SOL     OW28795   0.793   1.050   7.009 -0.6589  0.3731  0.6037
 5779SOL    HW128796   0.745   0.981   6.963  1.9167 -1.2889  0.4072
 5779SOL    HW228797   0.860   1.073   6.944 -0.7284 -1.4513 -0.1194
 5780SOL     OW28798   3.324   2.600   4.808 -0.3956  0.2863 -0.4895
 5780SOL    HW128799   3.316   2.512   4.844 -1.0832  0.9257  0.9141
 5780SOL    HW228800   3.379   2.644   4.873 -2.1934  3.3604 -1.0603
 5781SOL     OW28801   4.096   1.781   6.136  0.1638  0.0441  0.2618
 5781SOL    HW128802   4.126   1.872   6.135 -0.4487  0.2791  2.7815
 5781SOL    HW228803   4.067   1.776   6.227 -0.4025 -1.9827 -0.0309
 5782SOL     OW28804   0.410   3.372   1.931  0.1730  0.1302 -0.3411
 5782SOL    HW128805   0.345   3.359   2.000 -0.7022  0.0057 -1.1941
 5782SOL    HW228806   0.364   3.437   1.877 -1.5844 -1.1057 -0.3425
 5783SOL     OW28807   2.111   0.973   7.838  0.4547 -0.0212 -0.3523
 5783SOL    HW128808   2.092   1.042   7.902 -2.0920  0.7179 -1.9159
 5783SOL    HW228809   2.142   0.904   7.896  1.9431  0.6410 -0.3479
 5784SOL     OW28810   4.423   0.659  14.514 -0.0434 -0.4366 -0.8450
 5784SOL    HW128811   4.461   0.728  14.568  0.4038 -1.1606 -0.2399
 5784SOL    HW228812   4.345   0.627  14.560  0.2038  0.1620 -0.0189
 5785SOL     OW28813   3.440   3.470   1.075 -0.0933  0.4489  0.1622
 5785SOL    HW128814   3.494   3.546   1.057  1.6713 -0.9679 -0.5394
 5785SOL    HW228815   3.486   3.409   1.018 -1.9713  0.9090 -1.8254
 5786SOL     OW28816   3.776   3.375   6.660 -0.1467  0.1880  0.7926
 5786SOL    HW128817   3.825   3.330   6.592  0.8486  1.8709  0.3977
 5786SOL    HW228818   3.688   3.347   6.636 -1.2810  2.5050  2.3104
 5787SOL     OW28819   4.554   4.664  12.220 -0.6566 -0.1686  0.6006
 5787SOL    HW128820   4.523   0.013  12.274 -0.0543  1.0254 -0.6564
 5787SOL    HW228821   4.649   4.675  12.217 -0.8739  1.3521 -1.0909
 5788SOL     OW28822   3.180   4.121  10.328  0.1379  0.2683  0.0721
 5788SOL    HW128823   3.164   4.138  10.421  1.9729 -0.9129  0.5925
 5788SOL    HW228824   3.273   4.101  10.333  0.2856  0.8955 -0.1746
 5789SOL     OW28825   4.003   2.154  14.024 -0.2551  0.0747  0.7768
 5789SOL    HW128826   4.031   2.110  14.104  1.1596 -1.1927 -0.3991
 5789SOL    HW228827   3.910   2.146  14.044  0.1969 -1.6992  2.1694
 5790SOL     OW28828   0.310   1.575   2.669 -0.0085 -0.2937 -0.0985
 5790SOL    HW128829   0.354   1.582   2.754  1.8032  0.2144 -1.0588
 5790SOL    HW228830   0.361   1.631   2.610 -0.3116  0.1626  0.0666
 5791SOL     OW28831   4.434   3.621  13.011  0.6821  0.6219 -0.4113
 5791SOL    HW128832   4.499   3.687  13.035  0.2190  1.2914 -0.9910
 5791SOL    HW228833   4.354   3.667  13.037  0.4177 -2.3740  4.1457
 5792SOL     OW28834   3.603   3.833  14.272  0.2717 -0.0493 -0.6628
 5792SOL    HW128835   3.656   3.891  14.326  1.0734 -1.3123 -0.1067
 5792SOL    HW228836   3.512   3.837  14.300  0.6199 -2.7590  0.8059
 5793SOL     OW28837   4.257   3.125   5.420  0.4063 -0.4176  0.3447
 5793SOL    HW128838   4.309   3.047   5.439  1.8063  0.0845 -1.4633
 5793SOL    HW228839   4.277   3.169   5.503 -0.0639  0.5987 -0.0782
 5794SOL     OW28840   2.380   1.389   0.780  0.4613  0.0053  0.2131
 5794SOL    HW128841   2.316   1.377   0.710  0.6471  1.4002 -0.1882
 5794SOL    HW228842   2.327   1.418   0.854 -0.3788 -0.4937 -0.1999
 5795SOL     OW28843   2.304   1.968   7.103 -0.4267  0.3474  0.2067
 5795SOL    HW128844   2.373   1.939   7.044 -1.9706  4.1173 -3.3934
 5795SOL    HW228845   2.267   1.888   7.142  0.5900 -0.2376 -0.0325
 5796SOL     OW28846   3.506   0.493   9.207 -0.5929  0.3230  0.0618
 5796SOL    HW128847   3.598   0.511   9.223 -0.6190 -0.5334  1.1599
 5796SOL    HW228848   3.479   0.426   9.270  0.8776  0.5399  0.9022
 5797SOL     OW28849   4.321   0.549   4.811  0.6537  0.0303 -0.2324
 5797SOL    HW128850   4.346   0.463   4.777 -0.7727 -1.6667  3.0836
 5797SOL    HW228851   4.320   0.524   4.903  0.3823 -0.4234 -0.3585
 5798SOL     OW28852   2.697   2.814   4.696  0.0050  0.4347  0.5250
 5798SOL    HW128853   2.655   2.896   4.669 -0.1119  0.0782 -0.3715
 5798SOL    HW228854   2.715   2.791   4.605 -1.9132 -0.0846  0.2689
 5799SOL     OW28855   0.033   3.985   5.121 -0.1707 -0.6404 -0.3178
 5799SOL    HW128856   0.090   4.062   5.127 -0.1515 -0.7444  0.7512
 5799SOL    HW228857   4.678   4.022   5.084  0.9583  0.3462 -1.7560
 5800SOL     OW28858   3.902   2.960   5.389  0.0125 -0.0503  0.2733
 5800SOL    HW128859   3.877   3.008   5.310  1.6432 -0.8283 -0.6999
 5800SOL    HW228860   3.818   2.914   5.401  0.5808 -1.0827  0.2912
 5801SOL     OW28861   3.266   0.661   9.469 -0.3689  0.1896  0.6905
 5801SOL    HW128862   3.322   0.587   9.495  0.0199  0.7109  1.3319
 5801SOL    HW228863   3.341   0.715   9.445  0.5805 -1.7578 -0.7226
 5802SOL     OW28864   1.124   3.323   1.734 -0.2600  0.0698  0.0756
 5802SOL    HW128865   1.131   3.237   1.776 -0.2658 -0.1034 -0.2694
 5802SOL    HW228866   1.063   3.367   1.792  0.9268  0.7627  0.7879
 5803SOL     OW28867   2.022   4.563   2.036 -0.2396  0.3871  0.6072
 5803SOL    HW128868   2.104   4.555   2.085 -0.7696  0.5008  1.5166
 5803SOL    HW228869   1.964   4.583   2.110  0.8446  1.1273  1.2596
 5804SOL     OW28870   3.029   4.598  10.903  0.6090 -0.4774  0.2817
 5804SOL    HW128871   3.119   4.577  10.878  1.1944  0.6272  1.3866
 5804SOL    HW228872   3.005   4.507  10.915  0.0300 -0.2468  0.8609
 5805SOL     OW28873   3.260   2.973   7.722 -0.5310 -0.6048  0.1669
 5805SOL    HW128874   3.337   2.966   7.665 -0.3360  1.2465  0.2278
 5805SOL    HW228875   3.298   2.955   7.808  1.0237  1.1744 -0.1388
 5806SOL     OW28876   4.285   0.400   7.323  0.2297 -0.1845  0.3839
 5806SOL    HW128877   4.315   0.310   7.338 -1.7774 -1.2216 -1.6065
 5806SOL    HW228878   4.249   0.415   7.410 -2.1719 -1.1732 -0.4188
 5807SOL     OW28879   2.655   3.129   5.263  0.1426  0.5640 -0.0494
 5807SOL    HW128880   2.683   3.038   5.268  0.4115  0.6408 -0.1226
 5807SOL    HW228881   2.611   3.130   5.178  0.9986 -2.7590 -0.5224
 5808SOL     OW28882   1.679   2.216   8.339 -0.1187  0.1493 -0.1056
 5808SOL    HW128883   1.589   2.186   8.330 -0.0312 -0.2978  0.5086
 5808SOL    HW228884   1.722   2.174   8.265 -1.5899 -1.0925 -0.2475
 5809SOL     OW28885   4.414   2.449   6.664  0.3893 -0.2360 -0.1120
 5809SOL    HW128886   4.340   2.448   6.723  1.0346  1.6007  0.7307
 5809SOL    HW228887   4.461   2.375   6.703 -1.2113 -1.8813 -1.2915
 5810SOL     OW28888   0.738   0.282   1.869  0.3322  0.1171  0.5916
 5810SOL    HW128889   0.788   0.200   1.869 -0.2065 -0.2151  1.4086
 5810SOL    HW228890   0.699   0.273   1.781 -0.1805 -0.2014  0.8515
 5811SOL     OW28891   2.182   3.456  14.854 -0.1313 -0.3281  0.0301
 5811SOL    HW128892   2.163   3.368  14.887 -1.0006 -0.0883  0.1868
 5811SOL    HW228893   2.277   3.460  14.865 -0.1732  0.3330  0.1307
 5812SOL     OW28894   4.552   4.445   4.891  0.2764  0.3456  0.2034
 5812SOL    HW128895   4.536   4.507   4.820 -0.0467 -1.2638 -1.1285
 5812SOL    HW228896   4.542   4.515   4.955 -2.3656  1.1543 -1.0950
 5813SOL     OW28897   2.087   0.446   5.719 -0.3656 -0.1792 -0.1770
 5813SOL    HW128898   2.153   0.434   5.788 -1.0272  1.0594  0.6660
 5813SOL    HW228899   2.145   0.452   5.644 -0.9371  2.4655 -0.4091
 5814SOL     OW28900   3.771   1.785  12.475 -0.5282  0.0873 -0.0700
 5814SOL    HW128901   3.767   1.707  12.421  1.1573  1.2669 -1.9279
 5814SOL    HW228902   3.802   1.755  12.561 -1.2082 -0.2490  0.0573
 5815SOL     OW28903   2.860   4.180   2.723 -0.2169  0.3612 -0.0578
 5815SOL    HW128904   2.807   4.233   2.782  0.0441 -0.7088  1.1503
 5815SOL    HW228905   2.931   4.244   2.723  2.2042 -2.2776  1.5953
 5816SOL     OW28906   0.769   2.819  15.049  0.1226  0.1000 -0.4160
 5816SOL    HW128907   0.751   2.756  14.979 -3.1121 -0.1371  0.6303
 5816SOL    HW228908   0.680   2.854  15.061  0.5850  1.6630 -1.5489
 5817SOL     OW28909   3.348   1.495   8.111 -0.6305  0.4705  0.2877
 5817SOL    HW128910   3.304   1.528   8.190  2.5915  1.0430  1.8460
 5817SOL    HW228911   3.435   1.480   8.148  0.1392 -0.3305 -1.8673
 5818SOL     OW28912   0.112   2.008   7.523 -0.1456 -0.2081  0.3105
 5818SOL    HW128913   0.107   2.098   7.555 -1.3803  0.6207 -2.1843
 5818SOL    HW228914   0.192   1.979   7.567 -0.0692  2.3012  1.8598
 5819SOL     OW28915   4.635   2.732  14.750 -0.5576 -0.1445  0.3134
 5819SOL    HW128916   4.585   2.806  14.715  0.7967  1.1933  1.1668
 5819SOL    HW228917   4.577   2.657  14.760 -0.6100  0.2003  2.6443
 5820SOL     OW28918   0.551   0.060   2.327 -0.0602  0.3672 -0.0710
 5820SOL    HW128919   0.481   0.003   2.296 -0.0436 -0.1889  0.9064
 5820SOL    HW228920   0.622   0.056   2.264 -2.2256  0.8438 -2.5351
 5821SOL     OW28921   2.808   1.504   4.631  0.1981  0.1453 -0.0058
 5821SOL    HW128922   2.871   1.573   4.610  0.7963 -0.3476  0.1405
 5821SOL    HW228923   2.848   1.453   4.702  3.0094 -0.7536 -2.2173
 5822SOL     OW28924   1.862   3.962   8.213  0.1009  0.6184  0.0484
 5822SOL    HW128925   1.875   3.886   8.157 -2.1461 -0.4013  0.8897
 5822SOL    HW228926   1.780   3.950   8.260  1.2486 -0.5757  1.7537
 5823SOL     OW28927   2.454   3.837   3.529  0.8041 -0.3222 -0.2955
 5823SOL    HW128928   2.434   3.928   3.549  1.3741  0.0620 -1.4530
 5823SOL    HW228929   2.526   3.812   3.587  0.1087 -0.7699  0.3785
 5824SOL     OW28930   2.353   0.159   9.301  0.1946  0.0434 -0.2826
 5824SOL    HW128931   2.442   0.134   9.277  0.4239 -0.5534  1.1449
 5824SOL    HW228932   2.330   0.236   9.249 -2.0038 -0.9689 -0.8393
 5825SOL     OW28933   0.725   0.234   3.591  0.4384  0.0351 -0.3644
 5825SOL    HW128934   0.713   0.140   3.603 -1.4044  0.4033  0.7166
 5825SOL    HW228935   0.639   0.275   3.596 -1.1918 -3.1427 -2.0957
 5826SOL     OW28936   3.279   2.180  13.601 -0.5276 -0.5322 -0.2737
 5826SOL    HW128937   3.244   2.117  13.539 -1.8427  0.7469 -0.8234
 5826SOL    HW228938   3.242   2.155  13.686 -0.4974  0.3050 -0.0097
 5827SOL     OW28939   2.515   1.229  15.864  0.5839 -0.9526  0.0019
 5827SOL    HW128940   2.440   1.205  15.917  0.8682  3.0096  2.1714
 5827SOL    HW228941   2.479   1.288  15.797 -0.6036  0.5653  1.9690
 5828SOL     OW28942   0.882   0.146   7.892 -0.3968  0.1815 -0.3255
 5828SOL    HW128943   0.820   0.144   7.965 -0.5962  1.6479 -0.4568
 5828SOL    HW228944   0.824   0.171   7.820 -0.6185  0.7759  0.0566
 5829SOL     OW28945   0.900   4.687   2.081 -0.1127  0.4574  0.4721
 5829SOL    HW128946   0.905   4.717   1.990  0.7632 -0.1877  0.3032
 5829SOL    HW228947   0.805   4.683   2.093 -0.4382 -0.5002 -2.4648
 5830SOL     OW28948   0.258   3.395   7.064  0.1897 -0.0481  0.3064
 5830SOL    HW128949   0.188   3.455   7.040  2.7377  2.5532 -0.6748
 5830SOL    HW228950   0.238   3.391   7.157 -0.1352 -2.2643  0.1311
 5831SOL     OW28951   4.647   3.334   0.275  0.3620  0.4761  0.6617
 5831SOL    HW128952   4.675   3.243   0.285  1.9035  0.7209 -1.3224
 5831SOL    HW228953   4.592   3.356   0.350  0.2471 -2.8109  1.5243
 5832SOL     OW28954   4.374   1.495  16.594 -0.3456 -0.5892 -0.4146
 5832SOL    HW128955   4.353   1.543  16.674  1.8840 -1.1288  0.4707
 5832SOL    HW228956   4.467   1.478  16.610 -0.4676 -0.4154  0.5107
 5833SOL     OW28957   2.644   2.932   9.087 -0.0850  0.2153 -0.5894
 5833SOL    HW128958   2.646   2.943   9.182  0.4534  0.0006 -0.5738
 5833SOL    HW228959   2.557   2.968   9.073  0.8743  3.0064  0.5079
 5834SOL     OW28960   3.541   0.771   7.045  0.6481  0.1451 -0.2045
 5834SOL    HW128961   3.511   0.861   7.030  0.5695  0.0551 -0.5779
 5834SOL    HW228962   3.486   0.720   6.986  2.5694 -5.4742  2.9048
 5835SOL     OW28963   4.189   4.690  17.323 -0.2965 -0.3701  0.2485
 5835SOL    HW128964   4.122   4.628  17.293 -2.4906  0.6698  2.9225
 5835SOL    HW228965   4.251   4.674  17.252  0.6416  2.0538  0.5233
 5836SOL     OW28966   4.285   3.602   3.553 -0.7199  0.0604 -0.2970
 5836SOL    HW128967   4.272   3.691   3.520  2.0045  0.5492 -0.0947
 5836SOL    HW228968   4.271   3.545   3.477 -0.1715  0.3444 -0.6165
 5837SOL     OW28969   1.760   1.003   0.585 -0.1315 -0.3528 -0.5705
 5837SOL    HW128970   1.787   1.071   0.647  0.3741 -1.1483  0.0844
 5837SOL    HW228971   1.710   0.934   0.631  1.3795 -1.6655 -0.8971
 5838SOL     OW28972   1.706   2.426   4.948 -0.2684 -0.4753  0.0951
 5838SOL    HW128973   1.662   2.456   5.027  0.0764  2.0147 -0.6662
 5838SOL    HW228974   1.646   2.450   4.877  0.5439  0.2803 -0.3354
 5839SOL     OW28975   1.363   3.957   6.226  0.5901  0.0766 -0.0964
 5839SOL    HW128976   1.425   3.983   6.294  0.2419 -0.0274  0.2671
 5839SOL    HW228977   1.337   4.034   6.175  0.0353  1.0897  1.6949
 5840SOL     OW28978   3.124   3.091   3.776 -0.1243  0.0449 -0.3807
 5840SOL    HW128979   3.197   3.135   3.732  2.7491 -1.8792  2.4634
 5840SOL    HW228980   3.086   3.165   3.824 -0.5705  0.2587 -1.0567
 5841SOL     OW28981   0.881   4.025   8.367  0.7077  0.0290  0.1057
 5841SOL    HW128982   0.889   3.977   8.285 -2.0299 -0.0033 -0.1504
 5841SOL    HW228983   0.963   4.073   8.374 -0.1567  1.4729  0.3064
 5842SOL     OW28984   3.820   2.009   3.047 -0.0825 -0.0668 -0.0791
 5842SOL    HW128985   3.860   2.038   3.129  0.1720 -3.1823  0.9106
 5842SOL    HW228986   3.731   2.042   3.055 -0.0805 -0.1620  0.3154
 5843SOL     OW28987   4.017   4.451  10.222  0.1598 -0.1511 -0.3203
 5843SOL    HW128988   3.961   4.450  10.144  1.0685 -1.6066 -0.9529
 5843SOL    HW228989   4.107   4.457  10.189  0.3979 -0.6317  0.2258
 5844SOL     OW28990   4.512   3.527  10.817 -0.1180  0.8233  0.1071
 5844SOL    HW128991   4.506   3.622  10.820 -0.4491  0.8004  0.2379
 5844SOL    HW228992   4.569   3.509  10.743  0.8229 -2.6815  1.6718
 5845SOL     OW28993   2.847   0.209   5.563  0.1542  0.7098  0.4264
 5845SOL    HW128994   2.901   0.237   5.488 -2.1566 -0.8147 -1.8047
 5845SOL    HW228995   2.770   0.177   5.516  0.9781  0.6370 -0.8879
 5846SOL     OW28996   2.557   3.375   7.107 -0.1037  0.3897 -0.1488
 5846SOL    HW128997   2.636   3.331   7.138  0.1321  0.1050 -1.1555
 5846SOL    HW228998   2.540   3.438   7.177 -0.3922  0.3154 -0.1525
 5847SOL     OW28999   2.385   2.635   2.833  0.4493 -0.3599 -0.0567
 5847SOL    HW129000   2.467   2.587   2.819  0.5949  0.1438 -0.9558
 5847SOL    HW229001   2.410   2.727   2.824  1.9866 -0.6387  1.2846
 5848SOL     OW29002   3.504   2.725   1.700 -0.2505  0.1089  0.1891
 5848SOL    HW129003   3.555   2.672   1.638  0.1669 -1.9477  2.2930
 5848SOL    HW229004   3.427   2.674   1.726 -0.3658 -0.2246 -0.8175
 5849SOL     OW29005   3.971   1.906   0.178  0.0850  0.1609  0.5532
 5849SOL    HW129006   4.024   1.981   0.205 -0.2283  0.5494  0.0800
 5849SOL    HW229007   4.032   1.837   0.205 -0.5349 -0.7551 -0.4014
 5850SOL     OW29008   1.872   0.604   5.001 -0.1620  0.0242 -0.1476
 5850SOL    HW129009   1.784   0.568   5.017 -0.3359  1.3904  2.0278
 5850SOL    HW229010   1.851   0.663   4.930  1.0862  0.9502  0.2528
 5851SOL     OW29011   1.350   1.168  10.548  0.1019 -0.0438  0.7553
 5851SOL    HW129012   1.380   1.257  10.530  0.9063 -0.6617 -0.8882
 5851SOL    HW229013   1.413   1.135  10.612 -0.2150  1.1376  1.6715
 5852SOL     OW29014   2.317   1.866   8.328  0.8377  0.1984 -0.1048
 5852SOL    HW129015   2.277   1.780   8.316  0.7748  0.1650  0.3488
 5852SOL    HW229016   2.394   1.862   8.271 -0.0439 -1.0601 -1.2084
 5853SOL     OW29017   2.250   4.369  16.742  0.0373 -0.0005  0.0974
 5853SOL    HW129018   2.294   4.391  16.661  1.4658 -2.7487  0.1221
 5853SOL    HW229019   2.267   4.455  16.781 -2.9061  0.3272  0.6673
 5854SOL     OW29020   0.003   2.667   0.683  0.5909 -0.1358 -0.2676
 5854SOL    HW129021   4.632   2.657   0.686  0.8284 -2.6115 -0.9575
 5854SOL    HW229022   0.029   2.614   0.758 -0.7328  0.0956  0.3605
 5855SOL     OW29023   0.091   0.125   6.880 -0.6186 -0.1342  0.2686
 5855SOL    HW129024   0.177   0.084   6.880 -0.7536 -0.4153  0.8932
 5855SOL    HW229025   0.099   0.186   6.953 -4.6075  0.2101  0.4410
 5856SOL     OW29026   0.166   2.315   7.345  0.2811 -0.3833  0.2313
 5856SOL    HW129027   0.153   2.241   7.286  0.8514 -0.8783  0.7224
 5856SOL    HW229028   0.259   2.333   7.336  0.3664 -1.6633 -1.3953
 5857SOL     OW29029   2.505   4.703   8.344 -0.1074 -0.6135  0.2555
 5857SOL    HW129030   2.589   4.673   8.380  0.7216 -0.5905 -1.6636
 5857SOL    HW229031   2.489   4.655   8.263 -1.3136 -2.0481  1.3341
 5858SOL     OW29032   4.132   1.208   7.213 -0.2572 -0.8042 -0.6366
 5858SOL    HW129033   4.224   1.187   7.193  0.5070  1.2551  0.7238
 5858SOL    HW229034   4.099   1.124   7.244 -1.7481  0.0595  0.0976
 5859SOL     OW29035   2.699   4.378   0.179  0.0133  0.1279  0.1462
 5859SOL    HW129036   2.614   4.373   0.134  0.5545  2.9191 -1.1819
 5859SOL    HW229037   2.729   4.287   0.175  0.4064  0.2958 -0.6950
 5860SOL     OW29038   4.440   1.671   6.170  0.4368 -0.0721  0.2727
 5860SOL    HW129039   4.510   1.660   6.234 -0.0262 -2.4011  0.3543
 5860SOL    HW229040   4.354   1.666   6.211  1.5380  2.1894  2.8302
 5861SOL     OW29041   4.294   2.588   8.188  0.4806  0.0163  0.6290
 5861SOL    HW129042   4.334   2.630   8.264  0.8899  2.6223 -1.0299
 5861SOL    HW229043   4.289   2.495   8.209 -1.7430 -0.1729 -0.7309
 5862SOL     OW29044   3.584   1.170   1.854  0.2476  0.0103  0.2637
 5862SOL    HW129045   3.589   1.258   1.892  3.2216  0.2271 -0.6442
 5862SOL    HW229046   3.541   1.122   1.924 -0.9370  0.0686 -0.4317
 5863SOL     OW29047   2.091   1.912   2.278  0.1914 -0.7019 -0.4902
 5863SOL    HW129048   2.059   1.879   2.362  0.7181 -0.5864 -0.2469
 5863SOL    HW229049   2.011   1.953   2.244 -0.7465 -2.6794 -0.7382
 5864SOL     OW29050   0.630   2.690   3.622 -0.2776 -0.1163  0.2121
 5864SOL    HW129051   0.594   2.753   3.559 -0.7700  0.1440  0.7540
 5864SOL    HW229052   0.715   2.673   3.580 -0.9922 -1.1122 -0.7966
 5865SOL     OW29053   3.854   0.009   8.544 -0.4225  0.1040 -0.0224
 5865SOL    HW129054   3.917   4.676   8.500  0.2551  0.6929  0.1620
 5865SOL    HW229055   3.843   0.071   8.472  2.0870  0.8879  0.2603
 5866SOL     OW29056   0.446   2.985   7.071 -0.1037 -0.1861  0.5804
 5866SOL    HW129057   0.353   2.996   7.093 -0.1460 -0.9050  0.7437
 5866SOL    HW229058   0.446   2.936   6.989  2.1489 -0.8304  0.9493
 5867SOL     OW29059   1.585   2.343   7.156  0.3588  0.0050  0.3002
 5867SOL    HW129060   1.544   2.288   7.223  1.3692  2.1098  2.6597
 5867SOL    HW229061   1.596   2.427   7.200 -2.3005 -1.0876  3.0658
 5868SOL     OW29062   3.644   0.365   5.020  0.2632 -0.2650 -0.0615
 5868SOL    HW129063   3.648   0.391   4.928  1.6207  0.4488  0.2017
 5868SOL    HW229064   3.689   0.435   5.067  0.9000 -0.7279  0.0221
 5869SOL     OW29065   2.592   2.260   5.046  0.7380 -0.2111  0.1687
 5869SOL    HW129066   2.530   2.274   4.973 -0.5584 -1.5333  1.0170
 5869SOL    HW229067   2.602   2.165   5.053  0.1606 -0.1917  1.3245
 5870SOL     OW29068   2.462   2.612  14.935  0.3576  0.5887  0.6008
 5870SOL    HW129069   2.537   2.559  14.962  1.6567  3.1658  2.0396
 5870SOL    HW229070   2.407   2.542  14.899  0.5465  1.9785 -2.3273
 5871SOL     OW29071   0.681   1.757  16.934 -0.0109 -0.2817  0.1051
 5871SOL    HW129072   0.654   1.693  16.868 -0.2849 -0.8990  0.8104
 5871SOL    HW229073   0.759   1.712  16.967  0.4877  0.2748 -0.3239
 5872SOL     OW29074   3.421   0.472   4.517  0.1146 -0.1144 -0.2723
 5872SOL    HW129075   3.485   0.542   4.528 -2.0641  1.7179  0.5502
 5872SOL    HW229076   3.406   0.476   4.422 -1.2354 -1.3112 -0.0985
 5873SOL     OW29077   2.906   0.882   8.145  0.4391 -0.2149  0.1295
 5873SOL    HW129078   2.918   0.932   8.064  1.5850 -2.2528 -0.9620
 5873SOL    HW229079   2.811   0.876   8.150  0.3823 -0.1671 -0.9286
 5874SOL     OW29080   4.117   3.424  17.481 -0.4186  0.2969 -0.1605
 5874SOL    HW129081   4.211   3.434  17.467 -0.0268 -1.0457  1.5250
 5874SOL    HW229082   4.097   3.517  17.491  0.0962  0.0654  2.9701
 5875SOL     OW29083   2.450   0.919  13.617  0.0339 -0.0818 -0.0555
 5875SOL    HW129084   2.356   0.936  13.625 -0.1212 -0.3602 -1.2507
 5875SOL    HW229085   2.446   0.829  13.585 -0.6734  0.1874 -0.7281
 5876SOL     OW29086   4.319   0.012  13.998 -0.2835 -0.2276  0.2890
 5876SOL    HW129087   4.363   0.086  14.039  0.1661 -0.2769 -0.1066
 5876SOL    HW229088   4.400   4.688  13.985 -0.1362  0.1378 -0.1241
 5877SOL     OW29089   3.490   1.867   8.706  0.1954 -0.8211  0.3120
 5877SOL    HW129090   3.555   1.935   8.725 -0.2189 -0.3323 -0.0087
 5877SOL    HW229091   3.423   1.914   8.656  0.0128 -1.6108 -0.2028
 5878SOL     OW29092   3.970   4.006   3.692 -0.1646 -0.1015 -0.3062
 5878SOL    HW129093   3.955   3.929   3.639  0.1768 -1.1141  1.0725
 5878SOL    HW229094   3.990   4.075   3.628  2.1927 -1.7134 -1.3039
 5879SOL     OW29095   0.529   4.320   6.705  0.1747  0.2274 -0.0581
 5879SOL    HW129096   0.575   4.243   6.672 -1.0103 -0.3528 -0.3350
 5879SOL    HW229097   0.512   4.367   6.623 -1.6894 -2.6901 -1.3342
 5880SOL     OW29098   3.923   3.150  13.528 -0.0715 -0.2139 -0.5460
 5880SOL    HW129099   3.985   3.102  13.473  1.6769 -1.6733  2.7241
 5880SOL    HW229100   3.957   3.240  13.522 -3.0842  0.8960 -0.9383
 5881SOL     OW29101   1.472   1.393   8.737 -0.2330  0.2833  0.3353
 5881SOL    HW129102   1.423   1.324   8.782 -1.4296 -0.8940 -2.7069
 5881SOL    HW229103   1.419   1.473   8.742 -0.0692  0.3641  0.7027
 5882SOL     OW29104   2.889   1.699   7.994  0.1010  0.3909  0.3085
 5882SOL    HW129105   2.964   1.759   7.989 -0.9168  1.7134  1.2179
 5882SOL    HW229106   2.864   1.696   7.901 -0.5182  0.6814  0.4716
 5883SOL     OW29107   2.821   4.433   6.035 -0.4326 -0.1951  0.1769
 5883SOL    HW129108   2.843   4.363   5.973  0.4974  0.1289  0.1422
 5883SOL    HW229109   2.800   4.509   5.981  1.1360  0.0464 -0.1151
 5884SOL     OW29110   3.977   3.067  12.350  0.1769  0.1630 -0.2109
 5884SOL    HW129111   4.037   3.057  12.423 -1.1527 -0.6606  0.7739
 5884SOL    HW229112   3.899   3.041  12.399 -0.3783 -0.3090 -1.3319
 5885SOL     OW29113   2.259   3.405   3.580 -0.6112 -0.0874 -0.7722
 5885SOL    HW129114   2.172   3.366   3.590  0.2042 -1.9466 -0.9988
 5885SOL    HW229115   2.260   3.447   3.666  2.0185  0.2404 -0.9693
 5886SOL     OW29116   0.154   2.442   3.216 -0.3754 -0.5340 -0.5836
 5886SOL    HW129117   0.214   2.448   3.291 -4.0423 -2.3869  2.4903
 5886SOL    HW229118   0.211   2.402   3.151  0.8356 -1.6827  1.1680
 5887SOL     OW29119   4.375   2.745   1.776  0.5013  0.0077  0.3691
 5887SOL    HW129120   4.422   2.817   1.819 -1.0034  2.0555 -1.4279
 5887SOL    HW229121   4.313   2.736   1.849  2.6053 -2.0274  1.9139
 5888SOL     OW29122   0.606   0.415   7.476  0.2092 -0.0711  0.5250
 5888SOL    HW129123   0.521   0.457   7.484 -0.0599 -1.0323  2.5029
 5888SOL    HW229124   0.599   0.346   7.411  0.9687  1.4067 -1.1419
 5889SOL     OW29125   1.101   2.887  12.740  0.6759 -0.3497  0.3468
 5889SOL    HW129126   1.173   2.876  12.678 -0.2823  2.5766 -1.3026
 5889SOL    HW229127   1.147   2.901  12.823 -2.7339  1.6353  1.9219
 5890SOL     OW29128   3.365   0.774   4.702 -0.5622 -0.2060  0.5748
 5890SOL    HW129129   3.333   0.687   4.726 -1.3742 -0.4824 -1.5345
 5890SOL    HW229130   3.433   0.778   4.770  1.4428 -0.0749 -1.4464
 5891SOL     OW29131   0.921   3.350   5.312  0.4893 -0.7148  0.2697
 5891SOL    HW129132   1.014   3.372   5.315  0.8511 -2.0308 -0.7482
 5891SOL    HW229133   0.907   3.341   5.217 -2.4683  1.0544  0.5515
 5892SOL     OW29134   4.500   0.537   9.769 -0.1268 -0.2869  0.1148
 5892SOL    HW129135   4.430   0.495   9.718 -1.9336  0.4918  1.9668
 5892SOL    HW229136   4.533   0.466   9.825  1.0087  0.4002  0.3127
 5893SOL     OW29137   2.480   2.074   8.344  0.3889 -0.3084 -0.4902
 5893SOL    HW129138   2.412   2.020   8.385 -0.7525  1.4228 -0.0830
 5893SOL    HW229139   2.459   2.050   8.254 -0.4610  2.4337 -1.0126
 5894SOL     OW29140   4.460   1.820   6.520 -0.2920 -0.2493 -0.1214
 5894SOL    HW129141   4.493   1.730   6.522 -2.2028 -0.9530 -0.5140
 5894SOL    HW229142   4.403   1.817   6.597  0.3543  1.1046  0.3934
 5895SOL     OW29143   4.434   1.898   5.995 -0.0050 -0.5182 -0.0606
 5895SOL    HW129144   4.459   1.834   6.063  1.7152  1.9736  1.6558
 5895SOL    HW229145   4.498   1.961   6.028 -0.7166 -1.3704  2.9442
 5896SOL     OW29146   0.858   2.789   6.959 -0.3315  0.5291  0.8292
 5896SOL    HW129147   0.947   2.821   6.976  1.6812 -3.6485 -1.5926
 5896SOL    HW229148   0.813   2.816   7.038 -0.0266  0.0162  1.1772
 5897SOL     OW29149   3.828   0.673   8.254  0.3545 -0.1738  0.4100
 5897SOL    HW129150   3.904   0.675   8.312 -0.6940  0.8454  1.7431
 5897SOL    HW229151   3.757   0.660   8.318 -1.6586 -0.0104 -1.8140
 5898SOL     OW29152   2.750   4.677   8.071 -0.1397 -0.0846 -0.0349
 5898SOL    HW129153   2.793   0.017   8.129 -1.5413  0.2372  0.6473
 5898SOL    HW229154   2.827   4.635   8.033  0.2829 -0.1164  0.8453
 5899SOL     OW29155   3.018   3.275   1.611  0.2187  0.1555 -0.0405
 5899SOL    HW129156   2.992   3.272   1.519 -0.1670 -1.6337  0.1242
 5899SOL    HW229157   2.936   3.307   1.648 -0.1119 -0.8240  0.0726
 5900SOL     OW29158   1.067   1.784   2.311 -0.4196 -0.4408  0.5997
 5900SOL    HW129159   1.005   1.847   2.275  1.6487  2.4988  2.0869
 5900SOL    HW229160   0.999   1.718   2.321 -0.3802 -0.6565 -0.6235
 5901SOL     OW29161   3.263   3.615   1.418 -0.0016 -0.0134 -0.3506
 5901SOL    HW129162   3.291   3.674   1.488  0.8566 -0.1565 -0.5768
 5901SOL    HW229163   3.184   3.654   1.380  0.7694  2.5286  0.6535
 5902SOL     OW29164   1.318   1.452   9.935  0.1488  0.2158  0.1305
 5902SOL    HW129165   1.309   1.431   9.842  0.7115 -1.4424  0.4564
 5902SOL    HW229166   1.343   1.363   9.960 -2.9603 -0.0629  2.2646
 5903SOL     OW29167   1.564   3.006   6.248  0.3683 -0.4593 -0.3611
 5903SOL    HW129168   1.638   2.959   6.209 -0.8974 -1.6447 -1.3093
 5903SOL    HW229169   1.528   2.950   6.316 -2.4462  0.8999 -0.7409
 5904SOL     OW29170   1.279   3.655   0.618 -1.0041 -0.4224  0.2398
 5904SOL    HW129171   1.349   3.591   0.615  0.1832  1.0555 -3.6096
 5904SOL    HW229172   1.230   3.626   0.696  1.1597 -1.4498  1.2149
 5905SOL     OW29173   2.399   3.349   1.280 -0.1321 -0.4382  0.4436
 5905SOL    HW129174   2.353   3.333   1.362 -0.7671  0.5679  0.2786
 5905SOL    HW229175   2.392   3.445   1.279  0.9459 -0.3414  1.4291
 5906SOL     OW29176   2.846   4.358  16.334  0.1281  0.4112 -0.2935
 5906SOL    HW129177   2.882   4.270  16.328  1.3763  0.8208  1.3698
 5906SOL    HW229178   2.900   4.404  16.398 -0.3038  0.9636 -0.3230
 5907SOL     OW29179   1.748   0.447   7.142  0.2003  0.5412  0.6651
 5907SOL    HW129180   1.795   0.372   7.105 -1.6113  1.1430 -2.8267
 5907SOL    HW229181   1.688   0.406   7.205  0.6315 -0.3436  0.5067
 5908SOL     OW29182   2.205   3.152   3.203 -0.5152 -0.2239  0.1432
 5908SOL    HW129183   2.225   3.059   3.207  0.2848 -0.0211  0.7841
 5908SOL    HW229184   2.285   3.179   3.248 -0.0161  1.5707 -1.8558
 5909SOL     OW29185   0.525   2.140   2.408 -0.1133  0.0087 -0.1091
 5909SOL    HW129186   0.448   2.185   2.371  0.7260 -0.7875 -2.7954
 5909SOL    HW229187   0.543   2.081   2.335 -1.3289  0.0813 -0.4773
 5910SOL     OW29188   0.585   4.472   4.713 -0.2040 -0.2363  0.0184
 5910SOL    HW129189   0.627   4.482   4.628  1.0695 -2.0511  0.4423
 5910SOL    HW229190   0.492   4.487   4.692 -0.4259 -0.5290  0.7847
 5911SOL     OW29191   1.837   1.312  11.499 -0.3710  0.1508 -0.2036
 5911SOL    HW129192   1.804   1.318  11.589 -0.0501 -0.6409 -0.0340
 5911SOL    HW229193   1.773   1.364  11.451  1.4513  0.8315 -1.8784
 5912SOL     OW29194   2.478   2.392   4.472  0.0403  0.1415  0.2084
 5912SOL    HW129195   2.544   2.443   4.520 -1.2343  0.6598  1.4123
 5912SOL    HW229196   2.444   2.455   4.408  0.8286 -0.5866 -0.9344
 5913SOL     OW29197   4.483   0.936   5.164 -0.5561  0.4959  0.0678
 5913SOL    HW129198   4.495   0.870   5.096 -0.8295 -1.1661  1.6057
 5913SOL    HW229199   4.564   0.934   5.214 -1.1571  0.8151  1.0701
 5914SOL     OW29200   4.312   4.411   3.855  0.0226 -0.0882 -0.1199
 5914SOL    HW129201   4.402   4.398   3.824  0.8113  1.9244  1.2736
 5914SOL    HW229202   4.283   4.320   3.859  0.9850 -0.4855 -2.3071
 5915SOL     OW29203   2.325   3.623   1.285  0.1323  0.1546  0.1778
 5915SOL    HW129204   2.262   3.695   1.278  1.4502  1.0440 -2.4544
 5915SOL    HW229205   2.273   3.588   1.357  1.1319 -0.0588  0.7856
 5916SOL     OW29206   3.913   0.200   5.639  0.3803  0.2122 -0.2891
 5916SOL    HW129207   3.976   0.269   5.656 -2.6494  2.3894  2.1106
 5916SOL    HW229208   3.847   0.240   5.582 -0.4671 -0.3189  0.3135
 5917SOL     OW29209   4.319   4.541   4.278  0.1444  0.0378  0.3651
 5917SOL    HW129210   4.284   4.484   4.347 -0.9837 -0.5848 -0.7295
 5917SOL    HW229211   4.241   4.554   4.223  1.9834  1.2875 -1.9201
 5918SOL     OW29212   1.580   1.040  14.939  0.1694 -0.3103 -0.2818
 5918SOL    HW129213   1.658   1.076  14.898 -0.7056 -0.0856 -1.7480
 5918SOL    HW229214   1.621   1.011  15.021  0.3851  1.6120  0.2837
 5919SOL     OW29215   4.434   1.317  12.102 -0.1552 -0.2738  0.1295
 5919SOL    HW129216   4.481   1.348  12.179 -1.0303 -0.7967  0.8901
 5919SOL    HW229217   4.401   1.400  12.067  1.0329  0.5658  1.0066
 5920SOL     OW29218   0.415   0.754   5.998 -0.0271 -0.3230  0.3754
 5920SOL    HW129219   0.350   0.692   6.029  0.5727 -0.9359  0.4136
 5920SOL    HW229220   0.492   0.715   6.039  1.6155  1.6238 -0.8451
 5921SOL     OW29221   2.865   4.236  10.492  0.1211  0.2314  0.1715
 5921SOL    HW129222   2.956   4.208  10.500  0.5268  1.1491 -1.3753
 5921SOL    HW229223   2.867   4.302  10.562 -0.7079 -2.4677  2.7683
 5922SOL     OW29224   0.888   2.610  11.868  0.0658 -0.2215  0.4255
 5922SOL    HW129225   0.802   2.571  11.853 -0.9510  1.7526  1.2687
 5922SOL    HW229226   0.902   2.663  11.789  0.2992  0.5002  0.9596
 5923SOL     OW29227   1.254   4.488   7.488 -0.4804  0.4098 -0.4643
 5923SOL    HW129228   1.175   4.534   7.514 -1.3503 -2.0408  1.1716
 5923SOL    HW229229   1.298   4.491   7.573  0.4916  2.2666 -1.0352
 5924SOL     OW29230   0.417   0.071   8.064  0.2785  0.5566  0.1251
 5924SOL    HW129231   0.481   0.043   7.999 -0.2956 -1.1013  0.2897
 5924SOL    HW229232   0.336   0.065   8.014 -0.0784  0.9902  0.6414
 5925SOL     OW29233   1.304   0.351   1.598 -0.2674 -0.4936  0.5555
 5925SOL    HW129234   1.370   0.360   1.667  1.3389 -0.6157 -0.9630
 5925SOL    HW229235   1.348   0.275   1.561  3.0769  1.2101  0.9927
 5926SOL     OW29236   1.528   4.114   2.468  0.0136 -0.1523 -0.0987
 5926SOL    HW129237   1.483   4.176   2.410  1.7120  1.2935  0.1299
 5926SOL    HW229238   1.613   4.157   2.477  0.0171 -0.9345  3.5698
 5927SOL     OW29239   0.179   1.737   7.849  0.8721 -0.3803  0.2279
 5927SOL    HW129240   0.112   1.705   7.788 -1.3183  3.1458  0.8232
 5927SOL    HW229241   0.197   1.649   7.884 -1.4792 -0.3774  1.4979
 5928SOL     OW29242   0.888   1.892   7.819  0.2580  0.4248  0.3265
 5928SOL    HW129243   0.976   1.926   7.803  0.0936  0.7909  0.1830
 5928SOL    HW229244   0.916   1.802   7.835 -2.0494  0.0776  2.4407
 5929SOL     OW29245   1.685   2.126   4.787 -0.6128 -0.1281 -0.1976
 5929SOL    HW129246   1.628   2.175   4.847 -1.2137 -2.4478  1.1109
 5929SOL    HW229247   1.646   2.140   4.700 -0.6310 -0.2589 -0.2101
 5930SOL     OW29248   1.064   4.511   0.451  0.0939  0.2929 -0.3885
 5930SOL    HW129249   1.090   4.503   0.542 -1.0928 -1.8766 -0.2377
 5930SOL    HW229250   0.984   4.561   0.467  0.6660  0.8796  0.6382
 5931SOL     OW29251   2.951   3.333   0.529  0.5743  0.0281 -0.0406
 5931SOL    HW129252   2.868   3.312   0.486  0.6640  0.2348 -0.3143
 5931SOL    HW229253   3.016   3.326   0.459 -1.9746 -0.7516 -2.3022
 5932SOL     OW29254   2.830   1.554   9.494  0.4704 -0.5588  0.1842
 5932SOL    HW129255   2.909   1.606   9.478  1.1272 -1.6873 -0.2874
 5932SOL    HW229256   2.761   1.618   9.480  1.6770  0.3956 -1.4516
 5933SOL     OW29257   0.021   2.493   9.791  0.1377  0.0750  0.0643
 5933SOL    HW129258   4.659   2.469   9.756  0.1446 -0.9523  0.7595
 5933SOL    HW229259   0.053   2.412   9.831  0.8664  0.6707  0.6806
 5934SOL     OW29260   3.344   1.810  11.819 -0.1767  0.5754 -0.0557
 5934SOL    HW129261   3.390   1.802  11.902 -0.0467 -0.9539 -0.2684
 5934SOL    HW229262   3.405   1.859  11.764  0.3599  0.3242  0.3175
 5935SOL     OW29263   2.113   4.344   3.840  0.3392  0.2649 -1.0770
 5935SOL    HW129264   2.090   4.377   3.927  2.2510 -0.7116 -0.1805
 5935SOL    HW229265   2.202   4.379   3.832 -0.0118  1.4559  0.1140
 5936SOL     OW29266   1.474   1.783   4.081  0.1744 -0.2853 -0.7635
 5936SOL    HW129267   1.405   1.719   4.061 -0.0096 -0.2734 -0.1729
 5936SOL    HW229268   1.519   1.729   4.147 -3.5388 -0.3728  1.7525
 5937SOL     OW29269   1.394   3.255   6.522  0.4247  0.0630 -0.3543
 5937SOL    HW129270   1.355   3.182   6.474  2.1293 -1.8310  1.1466
 5937SOL    HW229271   1.436   3.213   6.597  0.4081  1.6427  0.5417
 5938SOL     OW29272   3.130   2.271   4.414 -0.4264  0.1839 -0.0452
 5938SOL    HW129273   3.147   2.181   4.441  0.1116  0.9312  2.0448
 5938SOL    HW229274   3.200   2.299   4.473  0.7846  0.0068 -1.3888
 5939SOL     OW29275   2.834   1.756   9.827 -0.3791  0.5748  0.0848
 5939SOL    HW129276   2.769   1.690   9.802  0.1681 -0.1488  0.5719
 5939SOL    HW229277   2.809   1.767   9.919 -0.0607 -0.5667  0.3142
 5940SOL     OW29278   3.500   4.277  15.274  0.6138 -0.3628 -0.2845
 5940SOL    HW129279   3.571   4.213  15.260  0.6482  0.2110 -2.8431
 5940SOL    HW229280   3.493   4.326  15.192  0.0833 -0.0766 -0.0629
 5941SOL     OW29281   2.659   1.763   5.340  0.2797 -0.1522  0.0005
 5941SOL    HW129282   2.687   1.677   5.371 -0.6922 -0.0175  1.2535
 5941SOL    HW229283   2.676   1.761   5.246  0.4976  0.4798  0.0294
 5942SOL     OW29284   1.079   2.243   6.256 -0.2912  0.7188  0.5255
 5942SOL    HW129285   1.128   2.229   6.336  0.1307  2.2118  0.5257
 5942SOL    HW229286   1.035   2.326   6.275  2.5530  2.0429  1.3523
 5943SOL     OW29287   2.641   2.024   7.119 -0.0404  0.1722  0.1879
 5943SOL    HW129288   2.720   1.980   7.089 -0.7054 -0.4283 -0.7028
 5943SOL    HW229289   2.582   1.949   7.111  0.2373 -0.3355  3.1311
 5944SOL     OW29290   3.771   1.064   8.006  0.5713 -0.3674  0.7311
 5944SOL    HW129291   3.681   1.097   8.014  0.4573 -0.4433 -0.1403
 5944SOL    HW229292   3.790   1.110   7.924 -1.0542 -0.4709  0.2926
 5945SOL     OW29293   4.720   3.093   8.309 -0.6315  0.4585  0.0397
 5945SOL    HW129294   0.058   3.028   8.343 -2.1641 -0.9870  0.0183
 5945SOL    HW229295   4.723   3.067   8.217  0.1056  0.2875  0.1128
 5946SOL     OW29296   1.737   2.898   7.150 -0.2597  0.2574 -0.0428
 5946SOL    HW129297   1.832   2.900   7.156 -0.2625  1.6014 -0.4944
 5946SOL    HW229298   1.723   2.890   7.244  0.7401 -1.0503 -0.0065
 5947SOL     OW29299   3.843   2.303  14.814  0.6867 -0.1665  0.0588
 5947SOL    HW129300   3.786   2.348  14.751  1.1809  0.2504 -0.0947
 5947SOL    HW229301   3.883   2.379  14.857 -2.5224  0.9524  1.1308
 5948SOL     OW29302   3.778   3.252   4.758 -0.4346  0.2919 -0.0410
 5948SOL    HW129303   3.863   3.220   4.726 -0.2194  1.6978 -0.8339
 5948SOL    HW229304   3.799   3.344   4.772 -1.4438  0.1943  2.1639
 5949SOL     OW29305   1.671   3.872   3.688  0.4289  0.8313  0.0717
 5949SOL    HW129306   1.687   3.966   3.689 -0.0402  0.9341 -2.0036
 5949SOL    HW229307   1.576   3.869   3.697  0.4176 -0.0827 -0.3450
 5950SOL     OW29308   3.128   3.205   4.199  0.3770  0.0856 -0.9510
 5950SOL    HW129309   3.075   3.152   4.139 -2.2465  0.4319  1.0801
 5950SOL    HW229310   3.069   3.244   4.263  0.7993  0.1422 -0.5965
 5951SOL     OW29311   3.242   2.902   5.762  0.3473 -0.1224  0.2902
 5951SOL    HW129312   3.215   2.818   5.724  0.7096  0.6226 -1.5991
 5951SOL    HW229313   3.257   2.956   5.684 -0.9780  0.9858  0.8110
 5952SOL     OW29314   3.801   3.766   4.046 -0.1802  0.5033  0.1539
 5952SOL    HW129315   3.732   3.707   4.076  0.7575  0.2639  1.8006
 5952SOL    HW229316   3.868   3.747   4.112 -0.6513 -0.8761  0.2300
 5953SOL     OW29317   0.969   3.778   9.899 -0.5679 -0.6118 -0.0449
 5953SOL    HW129318   0.878   3.753   9.882 -0.8532  1.6307 -1.7433
 5953SOL    HW229319   1.014   3.699   9.871  0.5604 -0.8571  2.4218
 5954SOL     OW29320   4.345   1.539   4.527  0.5049  0.1018 -0.8862
 5954SOL    HW129321   4.417   1.478   4.544 -0.5494 -0.9493 -0.2405
 5954SOL    HW229322   4.392   1.616   4.494  1.8855  0.3613  1.7624
 5955SOL     OW29323   1.036   3.907   2.861  0.2360  0.0916 -0.2979
 5955SOL    HW129324   1.131   3.904   2.867  0.0690  0.7307  2.5609
 5955SOL    HW229325   1.031   3.964   2.784  0.1320 -1.7970 -1.6788
 5956SOL     OW29326   4.709   3.402  15.372  0.3952 -0.0736  0.3711
 5956SOL    HW129327   0.065   3.401  15.424 -0.0230  1.2792  1.0312
 5956SOL    HW229328   0.021   3.402  15.283 -2.5568 -0.9236 -0.8186
 5957SOL     OW29329   1.124   0.631   0.768 -0.6271 -0.1407 -0.1165
 5957SOL    HW129330   1.216   0.656   0.778 -0.5530 -1.6350  2.8644
 5957SOL    HW229331   1.115   0.562   0.833 -1.9865  0.5770  0.4496
 5958SOL     OW29332   3.332   1.260   6.640 -0.0169  0.1069 -0.0841
 5958SOL    HW129333   3.406   1.209   6.607  0.2694 -0.5425  1.5571
 5958SOL    HW229334   3.344   1.335   6.582  0.0985 -0.8693 -1.3410
 5959SOL     OW29335   0.610   2.484  14.437  0.2906 -0.1563  0.4856
 5959SOL    HW129336   0.604   2.568  14.390  1.5588 -0.3455 -0.0134
 5959SOL    HW229337   0.626   2.426  14.362 -2.7998  0.5547 -0.7441
 5960SOL     OW29338   0.125   1.139   3.604  0.5920 -0.2845  0.0733
 5960SOL    HW129339   0.084   1.208   3.552 -2.6162 -1.7079  0.7026
 5960SOL    HW229340   0.184   1.098   3.541  1.4853  0.5131  0.3974
 5961SOL     OW29341   3.306   4.638   5.032 -0.0863 -0.0596  0.2487
 5961SOL    HW129342   3.362   4.714   5.049 -0.7625  0.1004  1.7466
 5961SOL    HW229343   3.361   4.560   5.018  0.7427  0.3876  1.0531
 5962SOL     OW29344   0.831   2.445   0.058  0.0233  0.1692 -0.2116
 5962SOL    HW129345   0.906   2.486   0.017  0.6975 -1.8819 -1.0479
 5962SOL    HW229346   0.846   2.475   0.148  2.8039  0.0965 -0.6694
 5963SOL     OW29347   0.324   1.268   4.055 -0.6105  0.0321 -0.1378
 5963SOL    HW129348   0.253   1.235   4.001  0.1733 -2.7596  0.5499
 5963SOL    HW229349   0.366   1.187   4.083 -0.1332  0.2792 -0.1339
 5964SOL     OW29350   0.058   4.094   4.225 -0.2108  0.1014  0.3204
 5964SOL    HW129351   0.019   4.149   4.158 -1.7093 -1.4119 -0.0469
 5964SOL    HW229352   0.002   4.017   4.231  1.0812 -0.8154  0.5798
 5965SOL     OW29353   1.103   0.372   7.771 -0.5357  0.3201 -0.0575
 5965SOL    HW129354   1.124   0.278   7.765  0.8227  0.6183  0.0521
 5965SOL    HW229355   1.084   0.381   7.864  0.9683 -1.1147  0.3998
 5966SOL     OW29356   4.376   1.381   4.009  0.1036  0.0210  0.0946
 5966SOL    HW129357   4.471   1.369   4.005  0.1405  0.2088  0.4124
 5966SOL    HW229358   4.343   1.291   4.010 -0.8061  0.3539 -0.4748
 5967SOL     OW29359   2.730   4.264   7.675  0.6464 -0.2276 -0.3021
 5967SOL    HW129360   2.798   4.326   7.650  1.5791 -0.9832  0.4065
 5967SOL    HW229361   2.763   4.231   7.759  0.4231  1.7009  0.5460
 5968SOL     OW29362   3.706   3.784   2.077 -0.0181  0.0603  0.0013
 5968SOL    HW129363   3.695   3.689   2.085  1.5777 -0.1321 -0.0796
 5968SOL    HW229364   3.703   3.811   2.168 -0.3775 -0.0414  0.0194
 5969SOL     OW29365   1.909   2.124  17.240 -0.1555  0.6803  0.1397
 5969SOL    HW129366   1.992   2.091  17.274 -0.7259 -1.2799 -0.3668
 5969SOL    HW229367   1.860   2.044  17.219 -0.1209  0.2832  1.5901
 5970SOL     OW29368   3.412   2.621  15.365  0.7272 -0.0230  0.1388
 5970SOL    HW129369   3.411   2.658  15.453  0.3637 -2.1842  1.0445
 5970SOL    HW229370   3.431   2.527  15.370  0.1094 -0.1403  0.2722
 5971SOL     OW29371   0.125   3.889   7.990 -0.2379  0.2108  0.1641
 5971SOL    HW129372   0.095   3.881   8.080  0.1483  0.0832  0.2794
 5971SOL    HW229373   0.185   3.963   7.995  0.1232 -0.3012  2.9635
 5972SOL     OW29374   1.999   0.024   1.619 -0.4091 -0.3419  0.1090
 5972SOL    HW129375   2.004   4.662   1.578 -1.4160 -0.8523  1.0562
 5972SOL    HW229376   1.914   0.063   1.596  0.1840  0.3790 -0.8976
 5973SOL     OW29377   2.096   2.804   6.125 -0.3553  0.2780 -0.1341
 5973SOL    HW129378   2.171   2.745   6.121 -0.8870 -0.4673  0.9563
 5973SOL    HW229379   2.140   2.884   6.095  0.7575 -0.2354  0.1381
 5974SOL     OW29380   3.825   0.636   4.024 -0.2416 -0.0283  0.1831
 5974SOL    HW129381   3.746   0.599   3.984  0.0820 -1.7488  1.1584
 5974SOL    HW229382   3.823   0.723   3.982 -0.4136  1.0623  2.4339
 5975SOL     OW29383   0.603   2.008   2.655 -0.6000 -0.2635 -0.0378
 5975SOL    HW129384   0.687   1.989   2.614  1.0806  1.5549  2.5579
 5975SOL    HW229385   0.555   2.049   2.584  0.9877  1.3436 -0.1746
 5976SOL     OW29386   0.482   2.816   5.198  0.2604 -0.0026  0.1771
 5976SOL    HW129387   0.507   2.908   5.195  0.6322 -0.0536  1.7013
 5976SOL    HW229388   0.421   2.817   5.125 -0.4824 -0.2356  0.7972
 5977SOL     OW29389   1.844   1.612   8.443  0.5601 -0.1190 -0.2312
 5977SOL    HW129390   1.936   1.622   8.469  0.9048 -0.3243 -1.3853
 5977SOL    HW229391   1.814   1.556   8.514  2.0233  0.8974  1.2210
 5978SOL     OW29392   4.518   2.783   8.778  0.5144  0.5443 -0.0150
 5978SOL    HW129393   4.519   2.693   8.811 -0.0861  0.5222 -0.0573
 5978SOL    HW229394   4.439   2.775   8.725  2.2802  0.1899 -2.6082
 5979SOL     OW29395   0.368   4.088   6.109 -0.5886  0.1182 -0.0044
 5979SOL    HW129396   0.335   3.998   6.108 -0.4440  0.0992 -2.9675
 5979SOL    HW229397   0.357   4.118   6.018 -0.7922  0.2674  0.0697
 5980SOL     OW29398   3.095   0.117   4.727 -0.2314  0.1298 -0.1695
 5980SOL    HW129399   3.044   0.173   4.786 -0.3959 -1.4572  1.1799
 5980SOL    HW229400   3.048   0.111   4.645 -3.9952 -0.1083  2.0211
 5981SOL     OW29401   0.707   2.492   0.576 -1.0428  0.4376  0.2718
 5981SOL    HW129402   0.684   2.486   0.483 -0.5461 -1.9773  0.3037
 5981SOL    HW229403   0.630   2.452   0.617 -0.1124 -1.9857 -0.3908
 5982SOL     OW29404   1.604   1.633   3.728  0.5745 -0.0736  0.1938
 5982SOL    HW129405   1.529   1.667   3.679  1.1358  0.8904 -0.0005
 5982SOL    HW229406   1.658   1.712   3.726  1.0811 -0.4530 -0.9427
 5983SOL     OW29407   4.539   2.225   7.467 -0.1848 -0.1130 -0.4885
 5983SOL    HW129408   4.549   2.162   7.395 -0.5689 -0.1438 -0.5113
 5983SOL    HW229409   4.506   2.173   7.541  0.3564  0.3445  0.0740
 5984SOL     OW29410   1.903   0.309   2.506 -0.9659  0.3225 -0.0083
 5984SOL    HW129411   1.878   0.244   2.440 -0.1966 -0.0842  0.1055
 5984SOL    HW229412   1.839   0.302   2.577 -0.7072  2.2122  0.3950
 5985SOL     OW29413   4.020   1.138   2.019  0.0269 -0.1477  0.2067
 5985SOL    HW129414   4.074   1.131   1.939 -0.8217 -1.5155 -0.2435
 5985SOL    HW229415   3.954   1.197   1.983 -0.8878 -1.6718 -0.5633
 5986SOL     OW29416   1.722   3.587  12.090  0.0508 -0.3916 -0.0537
 5986SOL    HW129417   1.693   3.674  12.119 -0.1212 -0.1518 -0.9447
 5986SOL    HW229418   1.647   3.532  12.070 -0.9761  1.3756 -1.1081
 5987SOL     OW29419   4.604   4.432   7.858 -0.0378 -0.3087  0.0564
 5987SOL    HW129420   4.631   4.501   7.919 -3.5803  0.3276  0.8770
 5987SOL    HW229421   4.634   4.349   7.895 -0.9538 -0.6565  0.0110
 5988SOL     OW29422   2.597   1.166   5.046  0.3866  0.9862  0.2590
 5988SOL    HW129423   2.594   1.084   5.096  1.1816  0.0410 -1.2311
 5988SOL    HW229424   2.647   1.140   4.968 -1.0347  0.6078 -0.5283
 5989SOL     OW29425   2.482   1.687   4.169 -0.3558  0.2022 -0.3819
 5989SOL    HW129426   2.454   1.703   4.260  0.0511  1.5763 -0.4920
 5989SOL    HW229427   2.564   1.736   4.181 -0.5914  0.7405 -0.9977
 5990SOL     OW29428   0.083   2.929   9.253  0.2825 -0.3419  0.2465
 5990SOL    HW129429   0.169   2.887   9.260  0.4003  0.2013  2.1536
 5990SOL    HW229430   0.077   2.950   9.347  0.0387  2.2027 -0.3403
 5991SOL     OW29431   2.316   0.098  15.421  0.2426  0.5653 -0.2273
 5991SOL    HW129432   2.400   0.090  15.374 -0.5434  1.2688 -1.7507
 5991SOL    HW229433   2.264   0.044  15.362  0.4196 -0.1294  0.2542
 5992SOL     OW29434   1.320   0.366   5.189  0.6352 -0.2247  0.4184
 5992SOL    HW129435   1.388   0.313   5.147 -0.9963 -0.0339 -2.4422
 5992SOL    HW229436   1.322   0.449   5.142  0.7532 -0.5149 -0.0978
 5993SOL     OW29437   1.825   1.075   0.843 -0.5501  0.1065 -0.1903
 5993SOL    HW129438   1.850   1.068   0.935  0.4761  1.6344 -0.3465
 5993SOL    HW229439   1.910   1.047   0.809 -0.8927 -0.3989 -0.6365
 5994SOL     OW29440   1.381   2.819   5.909  0.8013  0.6539 -0.1890
 5994SOL    HW129441   1.316   2.781   5.968 -0.6281 -2.0704 -3.5732
 5994SOL    HW229442   1.360   2.909   5.934  2.2802  0.4200  1.9400
 5995SOL     OW29443   3.191   4.177   4.604  0.3476 -0.1413  0.4704
 5995SOL    HW129444   3.213   4.266   4.633 -1.2044  0.1286  0.7784
 5995SOL    HW229445   3.102   4.192   4.573  0.6988 -2.1553 -1.4344
 5996SOL     OW29446   3.323   0.391  12.091 -0.4095 -0.1381  0.3839
 5996SOL    HW129447   3.287   0.461  12.036 -1.5828 -1.2342 -0.2451
 5996SOL    HW229448   3.329   0.322  12.025 -0.3931 -0.6213  0.8884
 5997SOL     OW29449   0.103   4.566  12.536 -0.2781 -0.0388 -0.4263
 5997SOL    HW129450   0.152   4.648  12.530  0.3078 -0.2713  1.0909
 5997SOL    HW229451   0.110   4.539  12.628  1.6235 -0.4972 -0.6921
 5998SOL     OW29452   3.746   1.206   3.537 -0.3800 -0.0330  0.0950
 5998SOL    HW129453   3.701   1.208   3.621  0.6924 -1.3653  0.7052
 5998SOL    HW229454   3.836   1.234   3.555 -0.6446  1.3677 -0.8082
 5999SOL     OW29455   1.444   1.661   4.323 -0.0366  0.0733 -0.3774
 5999SOL    HW129456   1.388   1.591   4.358 -0.3118  0.9533  0.9533
 5999SOL    HW229457   1.480   1.703   4.401  0.1286 -1.8491  0.5761
 6000SOL     OW29458   4.662   0.671   6.909  0.5754 -0.1087 -0.4801
 6000SOL    HW129459   4.583   0.638   6.953  1.6368  0.1835  1.6358
 6000SOL    HW229460   0.012   0.660   6.969  1.2177  0.4977 -1.1627
 6001SOL     OW29461   1.721   2.646  17.401 -0.1490 -0.5927  0.4162
 6001SOL    HW129462   1.641   2.698  17.397  0.0950 -0.0039  3.6988
 6001SOL    HW229463   1.705   2.587  17.327  0.8540 -2.0492  1.3701
 6002SOL     OW29464   1.888   0.249   9.010  0.5356 -0.2936  0.2180
 6002SOL    HW129465   1.954   0.308   8.974 -0.7225  0.9050 -0.1247
 6002SOL    HW229466   1.811   0.305   9.000  0.7376  0.0361  0.5063
 6003SOL     OW29467   0.493   4.428  14.092 -0.0980  0.0001  0.2620
 6003SOL    HW129468   0.423   4.365  14.108  1.2842 -1.8113 -0.7664
 6003SOL    HW229469   0.436   4.504  14.078  0.4212  0.4706  0.6837
 6004SOL     OW29470   3.429   1.234   9.273  0.6606  0.5379  0.2572
 6004SOL    HW129471   3.456   1.274   9.191  0.0987 -2.5503 -1.4141
 6004SOL    HW229472   3.344   1.191   9.258 -0.1415  1.4571  2.1268
 6005SOL     OW29473   3.384   0.249   7.790  0.4508  0.5638  0.0218
 6005SOL    HW129474   3.331   0.264   7.868 -2.6064 -1.5968 -1.6833
 6005SOL    HW229475   3.341   0.169   7.761  1.9743 -0.6786  1.2069
 6006SOL     OW29476   4.430   3.983   7.527 -0.0888  0.0700  0.2833
 6006SOL    HW129477   4.429   3.992   7.432  2.1253 -1.8498  0.0912
 6006SOL    HW229478   4.336   3.978   7.545 -0.6262 -0.8511 -2.9040
 6007SOL     OW29479   4.438   3.673   2.724  0.1753  0.6425 -0.0460
 6007SOL    HW129480   4.362   3.726   2.750  0.1033  1.1851 -1.3721
 6007SOL    HW229481   4.434   3.673   2.628  0.3353 -0.5051 -0.0406
 6008SOL     OW29482   3.005   1.177   9.993 -0.8614 -0.7306 -0.2797
 6008SOL    HW129483   3.089   1.131  10.000  1.0635  2.6411 -1.0343
 6008SOL    HW229484   3.026   1.257   9.945  1.4342 -1.4764 -0.5586
 6009SOL     OW29485   1.635   4.471   3.715 -0.4340  0.0179 -0.3839
 6009SOL    HW129486   1.604   4.517   3.636 -0.8043  1.0397  0.3558
 6009SOL    HW229487   1.566   4.506   3.771  1.3645  0.4433  1.5720
 6010SOL     OW29488   2.892   3.505   5.928  0.2357 -0.0478  0.1925
 6010SOL    HW129489   2.895   3.580   5.987 -2.6620  1.2277 -1.3232
 6010SOL    HW229490   2.906   3.542   5.841  0.0566  1.4167  0.7810
 6011SOL     OW29491   1.202   2.105  15.152 -0.3178  0.1911  0.1267
 6011SOL    HW129492   1.257   2.165  15.201 -1.4748  1.6079 -0.3034
 6011SOL    HW229493   1.169   2.050  15.223  0.6937  1.4751  1.5768
 6012SOL     OW29494   1.366   3.060   3.947  0.1315 -0.2018  0.2268
 6012SOL    HW129495   1.283   3.086   3.908 -0.2019 -2.6781 -0.7531
 6012SOL    HW229496   1.418   3.034   3.870  2.4198 -0.7587  1.9502
 6013SOL     OW29497   3.316   3.097  16.131  1.0857  0.6861 -0.4159
 6013SOL    HW129498   3.299   3.003  16.133 -2.5882  1.3182 -2.3179
 6013SOL    HW229499   3.292   3.113  16.039 -3.2403 -0.0032  0.5986
 6014SOL     OW29500   4.020   2.527   2.366 -0.2206  0.3020  0.4222
 6014SOL    HW129501   3.941   2.557   2.412 -1.9416 -0.5917 -1.9803
 6014SOL    HW229502   4.073   2.481   2.431 -0.6879  2.0312  2.0305
 6015SOL     OW29503   3.221   4.485   0.083 -0.1881  0.0753 -0.7227
 6015SOL    HW129504   3.216   4.579   0.101  0.3638  0.0971 -0.7005
 6015SOL    HW229505   3.135   4.457   0.115  1.2179 -4.2621 -0.7780
 6016SOL     OW29506   4.222   2.077   2.603 -0.7862 -0.1594  0.0770
 6016SOL    HW129507   4.165   2.008   2.637 -1.6747  0.9547  0.8450
 6016SOL    HW229508   4.298   2.023   2.621  1.9239  4.0782  1.2036
 6017SOL     OW29509   0.156   1.805  16.646  0.4022 -0.3553  0.5774
 6017SOL    HW129510   0.064   1.783  16.655 -0.0960  0.8948 -1.4077
 6017SOL    HW229511   0.162   1.862  16.569  0.5616  1.9858  2.3125
 6018SOL     OW29512   1.567   2.641   4.294 -0.5583  0.3904 -0.1398
 6018SOL    HW129513   1.582   2.621   4.387 -0.8461 -0.9699 -0.3902
 6018SOL    HW229514   1.471   2.642   4.301 -0.5116  1.8405  0.3948
 6019SOL     OW29515   3.121   0.766   8.244 -0.3941 -0.0362 -0.5586
 6019SOL    HW129516   3.053   0.820   8.204  1.0205  1.2195 -1.2952
 6019SOL    HW229517   3.090   0.677   8.234  1.9139 -0.7387 -1.4369
 6020SOL     OW29518   0.939   1.128   0.994 -0.0879  0.3126  0.1330
 6020SOL    HW129519   0.880   1.197   0.963 -1.1251  0.0441  1.5162
 6020SOL    HW229520   0.901   1.050   0.953  1.2074 -0.5400  0.5483
 6021SOL     OW29521   2.607   3.277  14.849 -0.0581  0.3104  0.1448
 6021SOL    HW129522   2.550   3.340  14.803  0.7622  0.7845 -0.2302
 6021SOL    HW229523   2.542   3.208  14.861 -0.3221  0.4468 -0.4670
 6022SOL     OW29524   3.593   3.083  15.786 -0.1925  0.3722  0.3015
 6022SOL    HW129525   3.638   3.003  15.813  0.1433  0.9964  1.6280
 6022SOL    HW229526   3.669   3.138  15.800  1.4935 -1.4911 -1.5512
 6023SOL     OW29527   3.531   2.199   9.098 -0.1069 -0.5566  0.0971
 6023SOL    HW129528   3.494   2.166   9.180 -1.1954  2.1265  0.6790
 6023SOL    HW229529   3.460   2.176   9.039 -0.2548 -0.9928  0.4387
 6024SOL     OW29530   3.704   2.387   1.795  0.3194 -0.0258  0.7021
 6024SOL    HW129531   3.746   2.316   1.843  0.5007 -1.2214 -1.2086
 6024SOL    HW229532   3.783   2.422   1.755  1.7890 -1.7859  2.0825
 6025SOL     OW29533   1.189   0.144   4.908 -0.4458  0.1603 -0.6057
 6025SOL    HW129534   1.253   0.213   4.890 -0.4595  0.2249 -0.4001
 6025SOL    HW229535   1.121   0.195   4.863  0.5729  1.5782 -0.5400
 6026SOL     OW29536   1.942   3.760  14.839  0.2605 -0.1092  0.7562
 6026SOL    HW129537   1.928   3.799  14.752 -0.7344 -0.5779  0.7102
 6026SOL    HW229538   1.863   3.787  14.885 -0.7291  1.7095 -1.9947
 6027SOL     OW29539   3.958   2.652  14.405  0.3589  0.5355  0.2471
 6027SOL    HW129540   3.871   2.672  14.370  0.7613  0.7425 -0.6210
 6027SOL    HW229541   3.998   2.613  14.328  0.9541  0.9224  0.3569
 6028SOL     OW29542   0.000   0.819  14.690  0.1960  0.4927 -0.3515
 6028SOL    HW129543   0.072   0.801  14.630  0.6976  0.8549  0.1347
 6028SOL    HW229544   4.658   0.839  14.624  0.6076  3.2262  0.0589
 6029SOL     OW29545   3.106   0.769   6.186 -0.3395  0.6812  0.0938
 6029SOL    HW129546   3.093   0.811   6.271  1.1378 -0.1113  0.7091
 6029SOL    HW229547   3.178   0.709   6.206 -0.8458  0.5541  1.4934
 6030SOL     OW29548   3.718   4.045  17.525 -0.3455  0.6155  0.3572
 6030SOL    HW129549   3.787   3.980  17.534 -0.0999  0.6050 -1.6328
 6030SOL    HW229550   3.770   4.123  17.548  0.9018 -0.0807 -0.0636
 6031SOL     OW29551   2.645   1.430   3.507 -1.0070  0.1654  0.0417
 6031SOL    HW129552   2.553   1.409   3.527 -1.0058 -0.4374 -0.6107
 6031SOL    HW229553   2.664   1.505   3.563  0.6895 -0.7936  0.7320
 6032SOL     OW29554   0.519   2.166   8.021  0.3989  0.4824  0.1778
 6032SOL    HW129555   0.520   2.241   8.080 -0.6403  2.0656 -1.8459
 6032SOL    HW229556   0.597   2.113   8.039 -0.3412 -0.7398 -0.1926
 6033SOL     OW29557   4.261   1.608   4.174  0.4707 -0.3619 -0.0136
 6033SOL    HW129558   4.226   1.577   4.258  0.2279 -1.1367 -0.4064
 6033SOL    HW229559   4.267   1.529   4.120  0.3005  0.7387 -1.6566
 6034SOL     OW29560   1.772   1.069   2.963  0.2915  0.2094 -0.0528
 6034SOL    HW129561   1.742   1.022   2.885 -1.6097  0.5013  0.5103
 6034SOL    HW229562   1.775   1.162   2.941  0.9200  0.2274  0.1161
 6035SOL     OW29563   2.706   1.818   4.207 -0.1356 -0.4627  0.3876
 6035SOL    HW129564   2.753   1.902   4.208  0.0099 -0.4883 -3.7515
 6035SOL    HW229565   2.704   1.799   4.113 -0.7831 -2.5939  0.8253
 6036SOL     OW29566   0.705   0.413   8.939 -0.8463 -0.3359 -0.3655
 6036SOL    HW129567   0.673   0.327   8.911  2.8407 -1.9848  0.5299
 6036SOL    HW229568   0.781   0.386   8.990 -0.4714 -2.6608 -2.1613
 6037SOL     OW29569   4.372   4.083   6.540 -0.4462  0.4190  0.2259
 6037SOL    HW129570   4.392   4.036   6.459  0.9729  0.3366  0.6381
 6037SOL    HW229571   4.372   4.010   6.602  0.2673  0.8391  0.7248
 6038SOL     OW29572   2.880   1.297  15.379 -0.2464  0.5626  0.4541
 6038SOL    HW129573   2.965   1.288  15.335 -0.7379 -4.6309  0.6168
 6038SOL    HW229574   2.910   1.257  15.461  0.1570 -2.2567 -1.0525
 6039SOL     OW29575   0.197   3.139   3.454 -0.5380  0.0774  0.1777
 6039SOL    HW129576   0.234   3.079   3.518 -0.6433 -0.9185 -0.6995
 6039SOL    HW229577   0.117   3.163   3.501  0.0227  1.7189  0.2953
 6040SOL     OW29578   1.944   0.190   3.775  0.0235 -0.5258 -0.3282
 6040SOL    HW129579   1.926   0.149   3.691 -2.5376 -0.4060  0.1677
 6040SOL    HW229580   1.892   0.127   3.825  0.6670 -2.4978 -2.1973
 6041SOL     OW29581   0.422   0.917   4.681 -0.1481 -0.1431  0.5089
 6041SOL    HW129582   0.358   0.846   4.691  0.2778 -0.7281 -0.9508
 6041SOL    HW229583   0.394   0.953   4.596 -2.5841 -0.0109  1.3523
 6042SOL     OW29584   2.296   3.133   5.462  0.0276 -0.2927  0.0066
 6042SOL    HW129585   2.268   3.199   5.526  1.7445 -2.2464  2.7335
 6042SOL    HW229586   2.281   3.172   5.376  0.2312 -0.1507  0.0355
 6043SOL     OW29587   1.773   2.163   3.974  0.0641 -0.0596 -0.4658
 6043SOL    HW129588   1.706   2.102   3.944  1.9427 -1.0984 -2.4808
 6043SOL    HW229589   1.751   2.248   3.936 -0.4831  1.0169  2.2567
 6044SOL     OW29590   3.621   0.667   1.588  0.1211 -0.1142 -0.0150
 6044SOL    HW129591   3.692   0.729   1.573  0.3652 -0.0870  1.2669
 6044SOL    HW229592   3.576   0.666   1.504 -2.4049  0.0091  1.3497
 6045SOL     OW29593   0.307   4.459   6.811  0.5857  0.5898  0.5690
 6045SOL    HW129594   0.267   4.475   6.725  1.3466 -2.6094 -0.4041
 6045SOL    HW229595   0.385   4.410   6.784 -0.7376 -0.7474 -0.8414
 6046SOL     OW29596   2.582   1.226   6.195  0.2642  0.6310 -0.2504
 6046SOL    HW129597   2.536   1.293   6.246  0.9961  2.1865 -1.6390
 6046SOL    HW229598   2.581   1.161   6.265  0.1127 -0.6829 -1.4729
 6047SOL     OW29599   2.429   0.573  10.535 -0.2405  0.5717 -0.5758
 6047SOL    HW129600   2.380   0.639  10.487 -2.0625 -1.2439 -1.2083
 6047SOL    HW229601   2.362   0.551  10.601  1.9733  0.6824  1.7235
 6048SOL     OW29602   4.089   0.292  15.956  0.2223  0.1688 -0.1022
 6048SOL    HW129603   4.102   0.309  15.862 -1.9626  1.2042 -0.2048
 6048SOL    HW229604   4.040   0.370  15.979  1.6552  1.9283 -2.8888
 6049SOL     OW29605   3.217   2.106   8.292  0.1657 -0.3483 -0.3619
 6049SOL    HW129606   3.209   2.011   8.301 -0.2811 -0.2298  0.4865
 6049SOL    HW229607   3.282   2.121   8.223 -0.6365  2.9270 -0.4037
 6050SOL     OW29608   1.373   1.951   4.941  0.1726 -0.2499 -0.0048
 6050SOL    HW129609   1.464   1.980   4.944 -0.2385  1.0991 -0.7743
 6050SOL    HW229610   1.369   1.944   4.845 -2.6604  0.7876  0.0248
 6051SOL     OW29611   0.357   2.995   9.007 -0.5715 -0.6114 -0.6328
 6051SOL    HW129612   0.296   3.045   9.061 -0.7661  1.1051 -2.4457
 6051SOL    HW229613   0.357   2.912   9.055 -1.6283  0.1481  0.6889
 6052SOL     OW29614   3.354   2.696  11.864  0.1127  0.4196 -0.6052
 6052SOL    HW129615   3.410   2.651  11.927  0.9056 -1.1502 -2.4337
 6052SOL    HW229616   3.395   2.668  11.782 -2.0448  0.3818 -1.6929
 6053SOL     OW29617   2.380   1.342   5.471 -0.0399 -0.2350  0.6615
 6053SOL    HW129618   2.317   1.289   5.423 -0.6366  1.1443 -0.0643
 6053SOL    HW229619   2.437   1.363   5.397  1.0904  0.5469  1.7289
 6054SOL     OW29620   3.326   1.707  10.174 -0.0497 -0.5375  0.8620
 6054SOL    HW129621   3.389   1.695  10.103  0.5017 -0.2203  1.2989
 6054SOL    HW229622   3.288   1.619  10.172 -1.4393  0.1202 -2.0109
 6055SOL     OW29623   4.715   0.003   4.804 -0.1702  0.2075  0.4680
 6055SOL    HW129624   0.047   0.076   4.830  1.6945 -0.5642 -1.3956
 6055SOL    HW229625   4.648   0.001   4.872  1.1956 -0.1668  1.7995
 6056SOL     OW29626   2.515   2.668  11.363 -0.1441  0.1931 -0.0186
 6056SOL    HW129627   2.561   2.749  11.385 -0.1744  0.3476 -0.5032
 6056SOL    HW229628   2.539   2.610  11.435 -0.6910  0.9910  0.7958
 6057SOL     OW29629   0.393   0.030  12.540 -0.4709  0.4268  0.2865
 6057SOL    HW129630   0.305   0.067  12.547 -0.4152  0.8196 -1.1687
 6057SOL    HW229631   0.451   0.104  12.557 -0.3819  0.2012  0.9564
 6058SOL     OW29632   1.729   3.837  16.179 -0.3440  0.3271  0.5211
 6058SOL    HW129633   1.755   3.866  16.091  0.3309  0.7229  0.8492
 6058SOL    HW229634   1.651   3.785  16.157 -0.4574  0.7859 -0.1804
 6059SOL     OW29635   0.366   2.757   3.862  0.1434  0.0902 -0.0898
 6059SOL    HW129636   0.316   2.692   3.813  0.2409 -0.6033  0.7099
 6059SOL    HW229637   0.301   2.766   3.932  0.8977  1.3727  0.4358
 6060SOL     OW29638   0.796   0.680   5.098 -0.1132 -0.1315  0.1377
 6060SOL    HW129639   0.859   0.608   5.088 -0.7243 -0.6681  0.1469
 6060SOL    HW229640   0.761   0.680   5.009  1.3120  1.0050 -0.4175
 6061SOL     OW29641   0.875   2.486  10.533 -0.3976 -0.2229  0.2186
 6061SOL    HW129642   0.875   2.393  10.558  0.4986 -0.2559  0.0863
 6061SOL    HW229643   0.800   2.504  10.476 -0.1788 -0.5672 -0.1834
 6062SOL     OW29644   0.010   0.895   5.261  0.3066 -0.5959 -0.4800
 6062SOL    HW129645   0.011   0.832   5.333 -2.8413 -1.2603 -1.0460
 6062SOL    HW229646   0.102   0.918   5.245 -0.5514  2.1768 -1.3716
 6063SOL     OW29647   4.691   2.937  17.489  0.1578  0.5287 -0.0580
 6063SOL    HW129648   0.049   2.975  17.519  0.6726 -0.0611 -0.7401
 6063SOL    HW229649   4.633   3.014  17.484  1.6660  1.7274  0.9669
 6064SOL     OW29650   2.856   4.583   4.494  0.0225  0.1762 -0.1222
 6064SOL    HW129651   2.795   4.535   4.551 -0.8086  0.9022 -0.3942
 6064SOL    HW229652   2.848   4.674   4.524 -0.8492  0.8260 -2.2527
 6065SOL     OW29653   4.447   0.795   5.539 -0.0335 -0.0726  0.4461
 6065SOL    HW129654   4.494   0.722   5.577 -0.0785 -0.3840 -0.0953
 6065SOL    HW229655   4.517   0.847   5.500  0.2724  0.3502  1.5453
 6066SOL     OW29656   2.859   3.880   2.894 -0.2263 -0.5002 -0.0567
 6066SOL    HW129657   2.926   3.890   2.961 -2.1831 -0.6539  1.9184
 6066SOL    HW229658   2.919   3.893   2.821 -2.3626 -0.1374 -1.7627
 6067SOL     OW29659   0.025   3.625   1.014  0.3629 -0.1921 -0.6451
 6067SOL    HW129660   0.004   3.715   1.037  0.7538  0.5087 -2.9773
 6067SOL    HW229661   4.662   3.610   0.977 -0.4470  2.0960  0.3600
 6068SOL     OW29662   0.809   2.125   2.448 -0.8258 -0.0075 -0.7212
 6068SOL    HW129663   0.828   2.218   2.452 -0.7231 -0.0749  0.4116
 6068SOL    HW229664   0.717   2.139   2.423 -1.4232 -1.1786  0.7294
 6069SOL     OW29665   4.024   3.456   3.164  0.0671 -0.3156 -0.4900
 6069SOL    HW129666   3.965   3.524   3.198  0.3256  0.3446 -1.3615
 6069SOL    HW229667   3.973   3.435   3.086 -0.7126  0.1657 -0.1132
 6070SOL     OW29668   2.687   1.836   5.840  0.3295  0.3335 -0.3239
 6070SOL    HW129669   2.613   1.841   5.900  1.4088  3.0013  0.7438
 6070SOL    HW229670   2.654   1.820   5.751  0.4892  0.2164 -0.3628
 6071SOL     OW29671   0.352   3.082   5.189  0.1473 -0.0628  0.1780
 6071SOL    HW129672   0.351   3.169   5.228 -1.0939 -0.8687  1.9377
 6071SOL    HW229673   0.261   3.075   5.159  0.3828 -0.7239 -0.3805
 6072SOL     OW29674   2.747   0.314   9.023  0.3592  0.1522 -0.0897
 6072SOL    HW129675   2.695   0.238   8.995 -2.2994  2.0720 -0.2985
 6072SOL    HW229676   2.742   0.358   8.938 -3.4701  0.3674  0.2546
 6073SOL     OW29677   3.669   1.340   8.854  0.4906  0.4703 -0.0781
 6073SOL    HW129678   3.621   1.423   8.846 -0.5384 -0.3083 -1.7954
 6073SOL    HW229679   3.758   1.373   8.868  0.6807 -0.2121  0.3396
 6074SOL     OW29680   4.716   2.514  17.656 -0.2251  0.1320  0.0850
 6074SOL    HW129681   0.064   2.526   0.019 -0.6795 -2.4366  1.1274
 6074SOL    HW229682   4.724   2.421  17.632 -1.1273 -0.1645  0.9460
 6075SOL     OW29683   2.331   3.617   5.705  0.3619 -0.0587  0.0310
 6075SOL    HW129684   2.300   3.569   5.781  0.6799  1.4932  1.1333
 6075SOL    HW229685   2.309   3.561   5.630  3.6116  0.9345 -1.6538
 6076SOL     OW29686   3.966   2.480   5.708 -0.6239 -0.6516 -0.1253
 6076SOL    HW129687   3.877   2.508   5.689 -0.2164 -0.3871 -1.6386
 6076SOL    HW229688   3.960   2.452   5.800 -1.0940 -2.6054 -0.7459
 6077SOL     OW29689   3.093   1.074  17.224  0.2095  0.0307  0.0759
 6077SOL    HW129690   3.005   1.084  17.187 -0.3814 -2.2194  0.8758
 6077SOL    HW229691   3.138   1.145  17.178 -0.4687 -0.3330 -1.1499
 6078SOL     OW29692   2.417   1.450   1.841  0.1486 -0.3445  0.5360
 6078SOL    HW129693   2.424   1.538   1.804 -3.1578 -0.6416 -0.7898
 6078SOL    HW229694   2.473   1.401   1.780 -0.8118 -3.8462  2.4722
 6079SOL     OW29695   1.889   1.883   4.125  0.0071  0.3632  0.3046
 6079SOL    HW129696   1.842   1.949   4.175 -1.4907  0.3235 -1.0657
 6079SOL    HW229697   1.950   1.942   4.080 -0.3438  0.4495 -0.0647
 6080SOL     OW29698   4.513   0.793   8.602  0.1329 -0.7057 -0.0327
 6080SOL    HW129699   4.442   0.729   8.597  0.2199 -0.8243  0.2247
 6080SOL    HW229700   4.501   0.851   8.527  2.5647 -1.6566 -1.1523
 6081SOL     OW29701   4.365   0.627  16.541 -0.1104  0.3611 -0.0812
 6081SOL    HW129702   4.448   0.579  16.533 -0.3707  0.0580 -0.9124
 6081SOL    HW229703   4.326   0.597  16.459 -0.4628 -0.9789  0.5682
 6082SOL     OW29704   1.422   3.960   3.778 -0.3544 -0.3863 -0.0064
 6082SOL    HW129705   1.462   3.965   3.865  0.1395 -0.0430 -0.2535
 6082SOL    HW229706   1.342   3.913   3.803 -0.8372 -1.5980 -3.8168
 6083SOL     OW29707   3.836   2.201   3.630 -0.3820 -0.5385 -0.2802
 6083SOL    HW129708   3.761   2.204   3.690  0.6448  1.8126  0.8516
 6083SOL    HW229709   3.856   2.294   3.623  2.1697 -1.1971 -1.6568
 6084SOL     OW29710   2.968   0.449   0.594  0.7655 -0.2496  0.4502
 6084SOL    HW129711   3.023   0.448   0.672  1.9018  0.9020 -0.3433
 6084SOL    HW229712   2.931   0.361   0.608  0.5599 -0.2445 -0.0534
 6085SOL     OW29713   3.996   1.163   4.068 -0.1300 -0.0250  0.1599
 6085SOL    HW129714   4.016   1.205   4.151  1.4306 -2.4254  0.9695
 6085SOL    HW229715   3.968   1.237   4.013  0.9568 -1.6740 -2.6110
 6086SOL     OW29716   2.623   1.251   5.572  0.0470 -0.6517  0.0779
 6086SOL    HW129717   2.607   1.266   5.479  1.6404 -2.1091 -0.4227
 6086SOL    HW229718   2.586   1.163   5.583  1.3805 -1.0862  1.0593
 6087SOL     OW29719   3.227   0.380   6.160  0.2629  0.5360 -0.1486
 6087SOL    HW129720   3.237   0.308   6.222  1.6741  0.6811 -0.1973
 6087SOL    HW229721   3.143   0.360   6.120 -0.0290 -0.0306  0.7474
 6088SOL     OW29722   2.109   4.525  17.673  0.2915  0.1545 -0.5433
 6088SOL    HW129723   2.016   4.549  17.681  0.3498  0.0617  0.5372
 6088SOL    HW229724   2.112   4.460   0.046 -1.0555  1.6427  0.8741
 6089SOL     OW29725   2.212   1.185  14.552 -0.2269  0.4840 -0.5018
 6089SOL    HW129726   2.270   1.142  14.614  1.2143  1.4609 -1.1560
 6089SOL    HW229727   2.210   1.121  14.482  0.7830  0.0696 -0.1579
 6090SOL     OW29728   0.530   3.508   0.434 -0.0252  0.1028 -0.3203
 6090SOL    HW129729   0.439   3.485   0.416  0.1580 -0.9571  0.0855
 6090SOL    HW229730   0.575   3.457   0.366  1.3833  1.8633 -0.7045
 6091SOL     OW29731   3.360   4.364  17.122 -0.4558  0.2539  0.2723
 6091SOL    HW129732   3.452   4.381  17.144  0.3913 -1.6017 -1.8101
 6091SOL    HW229733   3.377   4.285  17.069  2.5818  0.8578  0.3057
 6092SOL     OW29734   0.679   3.156  16.977 -0.6906  0.1541 -0.0257
 6092SOL    HW129735   0.738   3.224  16.944  0.5086 -0.8179  0.1226
 6092SOL    HW229736   0.675   3.107  16.894  1.1798 -0.2368  0.1162
 6093SOL     OW29737   2.370   2.580   9.564 -0.3673 -0.2604 -0.1024
 6093SOL    HW129738   2.372   2.651   9.627  0.1597 -0.8597  0.5534
 6093SOL    HW229739   2.398   2.504   9.615 -0.1960  0.3464  0.7069
 6094SOL     OW29740   2.172   0.561  10.630 -0.2514 -0.0047  0.0008
 6094SOL    HW129741   2.120   0.499  10.578  1.1648 -1.4913  0.3479
 6094SOL    HW229742   2.162   0.530  10.720 -2.5043  0.9958  0.0980
 6095SOL     OW29743   0.240   0.160   0.905 -0.3997  0.1777  0.1942
 6095SOL    HW129744   0.240   0.064   0.911  1.4425  0.1235 -0.5240
 6095SOL    HW229745   0.323   0.186   0.946 -0.4293  0.2756  0.1911
 6096SOL     OW29746   2.030   1.213   2.350 -0.5545  0.0472 -0.1970
 6096SOL    HW129747   2.116   1.191   2.387 -0.3901 -0.0944 -0.6712
 6096SOL    HW229748   2.045   1.194   2.258 -1.0655 -1.9247  0.1255
 6097SOL     OW29749   2.108   0.439   3.362  0.1687 -0.5849 -0.4474
 6097SOL    HW129750   2.119   0.393   3.445  0.6830  0.9601  0.3286
 6097SOL    HW229751   2.143   0.524   3.386  0.6332 -0.4618 -1.5733
 6098SOL     OW29752   4.155   3.325   1.114  0.2022 -0.0103 -0.2000
 6098SOL    HW129753   4.163   3.241   1.158 -2.2353  1.1697  2.4482
 6098SOL    HW229754   4.214   3.380   1.166 -1.1697  0.3751  0.9541
 6099SOL     OW29755   0.440   1.590   8.803 -0.0480  0.0651  0.1830
 6099SOL    HW129756   0.412   1.506   8.765  1.0633  0.1631 -0.8535
 6099SOL    HW229757   0.391   1.655   8.753  1.7382  0.8509 -0.5652
 6100SOL     OW29758   0.497   0.727   0.335 -0.3145 -0.2571  0.2261
 6100SOL    HW129759   0.567   0.687   0.386  0.2947 -0.9192 -1.1345
 6100SOL    HW229760   0.557   0.778   0.282 -0.0092 -0.4645  0.3706
 6101SOL     OW29761   4.251   3.620   5.069 -0.2152 -0.7425 -0.4823
 6101SOL    HW129762   4.258   3.712   5.094  0.7247 -1.0327  0.3222
 6101SOL    HW229763   4.289   3.571   5.142 -0.2011 -2.2052 -1.4859
 6102SOL     OW29764   4.301   1.957   2.014  0.0230  0.2229  0.1772
 6102SOL    HW129765   4.317   2.045   2.049  0.4877  0.5469 -0.8334
 6102SOL    HW229766   4.301   1.966   1.918  0.4853 -0.4568  0.1112
 6103SOL     OW29767   2.652   4.312  15.275  0.4032 -0.6336  0.1856
 6103SOL    HW129768   2.746   4.311  15.259  0.4089  1.4563  0.1403
 6103SOL    HW229769   2.618   4.362  15.200  0.4426  0.6749  1.0397
 6104SOL     OW29770   4.351   0.138  14.729  0.3857 -0.2036  0.0947
 6104SOL    HW129771   4.324   0.056  14.688  1.1237 -0.1782 -0.4308
 6104SOL    HW229772   4.368   0.187  14.648  0.3015  1.7957  1.2944
 6105SOL     OW29773   2.528   2.868   8.771  0.0855  0.4452  0.0201
 6105SOL    HW129774   2.598   2.860   8.837 -1.6416 -0.2070  1.7626
 6105SOL    HW229775   2.576   2.843   8.692 -1.2149 -0.4422 -0.4831
 6106SOL     OW29776   4.585   3.113   7.809 -0.0232 -0.3010 -0.0689
 6106SOL    HW129777   4.601   3.081   7.721  1.2933  0.5996 -0.1555
 6106SOL    HW229778   4.570   3.205   7.788 -1.1065 -0.5075 -0.1951
 6107SOL     OW29779   1.231   3.036   5.079 -0.0311  0.2760  0.4514
 6107SOL    HW129780   1.321   3.005   5.065 -1.1139 -2.9474  0.6893
 6107SOL    HW229781   1.235   3.127   5.048 -0.3768 -0.0942 -0.6653
 6108SOL     OW29782   0.594   3.660   5.828 -0.2348 -0.1367  0.1434
 6108SOL    HW129783   0.676   3.662   5.778  0.4564  1.4934  1.3122
 6108SOL    HW229784   0.552   3.580   5.799 -0.0138 -0.2932  0.2536
 6109SOL     OW29785   2.811   2.830   4.164  1.2269 -0.2211 -0.1545
 6109SOL    HW129786   2.761   2.759   4.204  1.3695 -0.0413  0.3379
 6109SOL    HW229787   2.897   2.809   4.200  0.6258 -0.9330  0.8641
 6110SOL     OW29788   1.994   4.074  15.059 -0.5161  0.0455  0.8795
 6110SOL    HW129789   2.000   4.043  14.969 -2.2074  2.3844 -0.0471
 6110SOL    HW229790   2.063   4.140  15.050 -0.4203 -0.0623  0.8184
 6111SOL     OW29791   0.902   0.657   3.427 -0.1999  0.4724 -0.6193
 6111SOL    HW129792   0.943   0.723   3.483  0.3900 -0.3902 -0.0384
 6111SOL    HW229793   0.972   0.591   3.425 -1.3916 -0.7366 -2.3629
 6112SOL     OW29794   3.682   1.341   2.384  0.3937 -0.6261  0.3691
 6112SOL    HW129795   3.775   1.365   2.380  0.1752 -0.3434 -2.6216
 6112SOL    HW229796   3.637   1.409   2.335  1.0311 -0.0233  0.6086
 6113SOL     OW29797   1.472   0.630   7.243  0.7602  0.3886  0.8293
 6113SOL    HW129798   1.480   0.717   7.204 -0.7069  0.0598 -0.1841
 6113SOL    HW229799   1.457   0.644   7.337  1.2616  1.5170  0.7508
 6114SOL     OW29800   0.149   0.534   7.767  0.2567  0.1747  0.2561
 6114SOL    HW129801   0.213   0.605   7.758  1.0674 -0.7158 -1.0384
 6114SOL    HW229802   0.094   0.563   7.840  0.8928 -2.9593  1.9411
 6115SOL     OW29803   0.240   0.222   1.584  0.2940 -0.0921  0.6186
 6115SOL    HW129804   0.220   0.311   1.613  1.0291  0.1569  0.3561
 6115SOL    HW229805   0.232   0.177   1.668 -1.6391  1.0417  1.0383
 6116SOL     OW29806   4.631   2.733   3.152 -0.2098 -0.1396  0.5620
 6116SOL    HW129807   4.707   2.759   3.204 -0.2573 -1.6295  1.3929
 6116SOL    HW229808   4.568   2.799   3.180 -0.3357 -1.1050  2.5701
 6117SOL     OW29809   3.370   1.903   2.769 -0.2972 -0.1446 -0.3443
 6117SOL    HW129810   3.319   1.855   2.704 -1.2251  0.4839 -0.0787
 6117SOL    HW229811   3.458   1.864   2.768  0.3250  1.2575 -0.2850
 6118SOL     OW29812   3.448   4.415  15.032 -0.4258 -0.3998 -0.2265
 6118SOL    HW129813   3.494   4.449  14.956  2.8202 -3.1110  0.5139
 6118SOL    HW229814   3.372   4.381  14.985  0.0726  1.5786 -2.4202
 6119SOL     OW29815   0.667   4.594  14.564 -0.4229  0.1255  0.4337
 6119SOL    HW129816   0.734   4.633  14.620 -0.1349 -0.6322  0.6252
 6119SOL    HW229817   0.633   4.531  14.627 -0.3743 -0.3187  0.0130
 6120SOL     OW29818   4.521   4.495   0.066  0.3740 -0.1928 -0.1085
 6120SOL    HW129819   4.483   4.429   0.124  0.0052 -0.1785 -0.3408
 6120SOL    HW229820   4.583   4.539   0.125  1.5280 -3.0919  0.8426
 6121SOL     OW29821   0.649   4.472   7.829 -0.1375 -0.4477  0.5767
 6121SOL    HW129822   0.590   4.435   7.764 -0.1164 -1.4377  1.1234
 6121SOL    HW229823   0.643   4.396   7.887  2.2431 -0.1617  1.1877
 6122SOL     OW29824   3.902   4.508  14.889  0.2756 -0.0897  0.3795
 6122SOL    HW129825   3.877   4.418  14.867  0.1746 -0.3801  1.7207
 6122SOL    HW229826   3.845   4.553  14.827  0.7905  0.9847  0.6880
 6123SOL     OW29827   3.161   3.905   4.636 -0.1176  0.0328 -0.4347
 6123SOL    HW129828   3.151   4.000   4.630  2.1596  0.2512 -0.5074
 6123SOL    HW229829   3.225   3.892   4.567  1.4023 -1.2344  1.2137
 6124SOL     OW29830   0.106   4.502  12.801 -0.8898 -0.1671  0.3285
 6124SOL    HW129831   0.161   4.450  12.860  1.9513 -0.0488 -2.1355
 6124SOL    HW229832   0.021   4.467  12.828  0.9559 -3.2924  2.1395
 6125SOL     OW29833   0.047   0.377  15.296  0.0599  0.2802  0.0891
 6125SOL    HW129834   0.045   0.355  15.203  1.9352 -0.2179  0.1673
 6125SOL    HW229835   4.717   0.455  15.291  0.2699  0.3272 -1.6209
 6126SOL     OW29836   2.727   1.833   3.504 -0.1877 -0.8260  0.0424
 6126SOL    HW129837   2.806   1.824   3.451 -0.6246  0.1810 -0.7919
 6126SOL    HW229838   2.660   1.821   3.437 -1.2230  2.4946  0.4408
 6127SOL     OW29839   4.225   1.763   5.656 -0.3324 -0.0039 -0.8821
 6127SOL    HW129840   4.284   1.708   5.707 -0.4129  1.4507  0.7759
 6127SOL    HW229841   4.290   1.833   5.647  0.7825 -0.4898  3.3493
 6128SOL     OW29842   0.041   1.312   2.307 -0.2050 -0.7136 -0.3077
 6128SOL    HW129843   0.010   1.390   2.354  0.1168  1.0190 -2.9577
 6128SOL    HW229844   0.053   1.353   2.222  0.4946 -0.3983 -0.0522
 6129SOL     OW29845   3.650   3.310  10.923  0.0986 -0.1512  0.1771
 6129SOL    HW129846   3.700   3.233  10.950 -0.9368 -0.6140  0.7725
 6129SOL    HW229847   3.662   3.367  11.000 -1.2406 -0.3229  0.5104
 6130SOL     OW29848   4.102   0.229   6.252 -0.3348 -0.0826  0.2118
 6130SOL    HW129849   4.115   0.323   6.265 -2.3212  0.6617 -3.3855
 6130SOL    HW229850   4.016   0.210   6.290 -0.3326  0.5097  0.5260
 6131SOL     OW29851   1.553   4.719   9.319  0.0392  0.1983  0.0079
 6131SOL    HW129852   1.557   4.666   9.398 -1.5611  1.4291  0.9299
 6131SOL    HW229853   1.592   4.668   9.249  0.9264  2.9889 -1.5142
 6132SOL     OW29854   3.824   1.209  15.763  0.4771 -0.1806  0.0212
 6132SOL    HW129855   3.874   1.288  15.746  1.3522 -0.5057  1.0884
 6132SOL    HW229856   3.769   1.236  15.837 -1.9128 -0.0778 -1.7918
 6133SOL     OW29857   4.382   3.889   6.735 -0.1923  0.1253 -0.0890
 6133SOL    HW129858   4.462   3.847   6.768  0.3908  1.1146 -0.2533
 6133SOL    HW229859   4.320   3.816   6.732  0.3578 -0.3648  0.6062
 6134SOL     OW29860   1.769   2.444   9.336  0.3570 -0.2143 -0.2537
 6134SOL    HW129861   1.739   2.534   9.324 -1.8509 -0.9690 -0.3619
 6134SOL    HW229862   1.736   2.398   9.259 -1.9645 -2.0750  1.8403
 6135SOL     OW29863   4.063   4.487  14.191  0.1910 -0.3211  0.3631
 6135SOL    HW129864   3.978   4.521  14.160  0.9412 -0.1693 -1.5182
 6135SOL    HW229865   4.110   4.506  14.111  1.1827 -0.4795  0.9099
 6136SOL     OW29866   2.593   1.458  14.748  0.6544 -0.3878  0.1272
 6136SOL    HW129867   2.527   1.468  14.680  1.5401 -0.6846 -0.7743
 6136SOL    HW229868   2.625   1.547  14.762 -2.4812  0.9555 -1.2957
 6137SOL     OW29869   0.775   1.305   8.675  0.3793  0.3738  0.1968
 6137SOL    HW129870   0.721   1.280   8.750 -0.7604 -2.5093 -1.5811
 6137SOL    HW229871   0.854   1.333   8.721  1.0024  2.1882 -1.9315
 6138SOL     OW29872   1.100   2.277  15.629 -0.2946  0.4603  0.3846
 6138SOL    HW129873   1.134   2.191  15.653  0.5034  0.2237 -1.6027
 6138SOL    HW229874   1.009   2.274  15.658 -1.4147  2.4737 -2.9356
 6139SOL     OW29875   0.463   1.145   1.496 -0.3540 -0.0562 -0.2826
 6139SOL    HW129876   0.425   1.083   1.559  0.6322 -0.3357  0.0389
 6139SOL    HW229877   0.454   1.230   1.539  2.1537  0.3615 -0.5820
 6140SOL     OW29878   4.049   4.561   7.170  0.2428 -0.3814  0.4041
 6140SOL    HW129879   3.965   4.519   7.150 -0.7965  0.1291  3.7535
 6140SOL    HW229880   4.103   4.484   7.187 -1.4117 -1.8174 -0.8506
 6141SOL     OW29881   3.441   3.571   6.102 -0.2002 -0.4494 -0.3843
 6141SOL    HW129882   3.511   3.537   6.047  0.7048 -1.5737  1.4969
 6141SOL    HW229883   3.390   3.490   6.104 -0.1301 -0.4953 -0.4599
 6142SOL     OW29884   1.510   3.364   3.247  0.0879 -0.4216 -0.0277
 6142SOL    HW129885   1.586   3.382   3.302  1.3045  3.2104 -2.8859
 6142SOL    HW229886   1.541   3.387   3.159  1.2117  2.1165  1.0363
 6143SOL     OW29887   2.929   0.720  13.209 -0.3950  0.0565 -0.3490
 6143SOL    HW129888   2.835   0.703  13.217 -0.2630  0.0348  1.2288
 6143SOL    HW229889   2.950   0.711  13.116 -0.0706  0.7328 -0.3411
 6144SOL     OW29890   3.180   0.916  11.234 -0.3240  0.4210  0.4983
 6144SOL    HW129891   3.189   0.955  11.147 -1.7425  0.1713  0.2400
 6144SOL    HW229892   3.273   0.895  11.244 -0.3913  0.7773  1.8130
 6145SOL     OW29893   1.938   2.546   7.494 -0.4127 -0.6245  0.6874
 6145SOL    HW129894   1.957   2.574   7.405  0.9776 -1.8855  0.5834
 6145SOL    HW229895   1.855   2.499   7.485 -2.1789  2.3936  1.0315
 6146SOL     OW29896   0.111   3.538   0.284  0.1246  0.4165 -0.0064
 6146SOL    HW129897   0.028   3.494   0.269  0.5076 -0.1926 -0.3336
 6146SOL    HW229898   0.136   3.516   0.374 -0.3575 -0.1241 -0.0018
 6147SOL     OW29899   2.463   1.408  14.510 -0.2741  0.1399  0.1838
 6147SOL    HW129900   2.373   1.390  14.485  0.4953  2.3421 -4.2669
 6147SOL    HW229901   2.522   1.349  14.462 -1.6383 -0.1015 -1.1658
 6148SOL     OW29902   1.534   2.796  12.768 -0.1054 -0.3332  0.0030
 6148SOL    HW129903   1.459   2.810  12.711  0.0624 -0.9453 -0.3652
 6148SOL    HW229904   1.494   2.801  12.855 -0.5600 -0.2385 -0.2156
 6149SOL     OW29905   4.480   2.423   9.741 -0.3191 -0.2286 -0.1937
 6149SOL    HW129906   4.387   2.404   9.725 -0.4136 -0.1910  0.3007
 6149SOL    HW229907   4.520   2.336   9.733  0.5570  0.0171  1.4683
 6150SOL     OW29908   0.998   1.838   5.060  0.0592 -0.2313  1.0830
 6150SOL    HW129909   0.983   1.840   4.965  0.2873  0.0157  1.0510
 6150SOL    HW229910   1.090   1.813   5.061  0.2450  0.4088  0.2282
 6151SOL     OW29911   2.556   1.262   3.199  0.5267 -0.5303 -0.2823
 6151SOL    HW129912   2.617   1.250   3.272 -2.0342 -1.3849  1.7231
 6151SOL    HW229913   2.551   1.169   3.178  0.4912 -0.6949  0.4718
 6152SOL     OW29914   3.136   3.370   9.368 -0.3570  0.4417 -0.8812
 6152SOL    HW129915   3.172   3.317   9.440 -1.7750  1.7144  0.7798
 6152SOL    HW229916   3.135   3.463   9.390  0.2204  0.5751 -1.4332
 6153SOL     OW29917   3.567   2.514   6.702  0.4925 -0.1675  0.4432
 6153SOL    HW129918   3.479   2.477   6.693  0.0139  1.4546 -1.4289
 6153SOL    HW229919   3.573   2.534   6.796 -4.2259  1.3872  0.4007
 6154SOL     OW29920   3.627   3.785   9.478  0.5144 -0.3130  0.4220
 6154SOL    HW129921   3.592   3.785   9.567 -1.8289  1.2783 -0.5076
 6154SOL    HW229922   3.641   3.879   9.472 -0.1167 -0.2532 -0.0009
 6155SOL     OW29923   0.431   1.878  12.860  0.0497  0.1364 -0.0297
 6155SOL    HW129924   0.484   1.840  12.930  0.1754 -1.8630 -1.2016
 6155SOL    HW229925   0.473   1.840  12.783  0.9195  1.0977 -0.0126
 6156SOL     OW29926   2.542   2.968  15.238  0.3049 -0.2874  0.0777
 6156SOL    HW129927   2.544   2.932  15.327 -0.0990  0.3632  0.3508
 6156SOL    HW229928   2.478   2.903  15.209 -0.8971  0.1786  1.7246
 6157SOL     OW29929   4.265   3.683   6.227 -0.2528 -0.1419 -0.3964
 6157SOL    HW129930   4.285   3.663   6.136 -0.2479  1.3789 -0.7288
 6157SOL    HW229931   4.196   3.749   6.215 -1.0149 -1.1098 -1.3215
 6158SOL     OW29932   4.414   1.958   8.255 -0.1890 -0.2664  0.0656
 6158SOL    HW129933   4.384   1.898   8.323  1.0271  0.0455  0.8803
 6158SOL    HW229934   4.478   2.009   8.305 -2.2440  1.5864  0.8216
 6159SOL     OW29935   0.492   4.718   4.230  0.3188 -0.0960  0.1477
 6159SOL    HW129936   0.400   4.701   4.251 -0.0704  0.7886 -0.9019
 6159SOL    HW229937   0.531   4.633   4.250  1.3977  0.5349  0.7215
 6160SOL     OW29938   3.210   0.947   7.406  0.1081 -0.5521  0.1125
 6160SOL    HW129939   3.224   0.937   7.500  1.3989  0.4250  0.0259
 6160SOL    HW229940   3.300   0.936   7.377  0.5454  0.5719  1.0699
 6161SOL     OW29941   4.634   1.780   4.767  0.0483 -0.2755  0.6951
 6161SOL    HW129942   4.623   1.864   4.812  0.7988  0.2548 -0.1164
 6161SOL    HW229943   4.676   1.817   4.689 -0.4603  0.4546  0.7695
 6162SOL     OW29944   1.692   2.852   1.573  0.6171 -0.4090 -0.2969
 6162SOL    HW129945   1.774   2.884   1.610  1.2029 -1.8283 -0.3637
 6162SOL    HW229946   1.660   2.809   1.652 -0.3347 -0.6786 -0.8269
 6163SOL     OW29947   0.393   2.420   2.859  0.4013 -1.0338  0.0166
 6163SOL    HW129948   0.346   2.363   2.798 -0.3719  0.8937 -1.1751
 6163SOL    HW229949   0.478   2.412   2.816  0.6623  0.6982  0.2131
 6164SOL     OW29950   3.678   1.270  15.322  0.5136  0.0084  0.2141
 6164SOL    HW129951   3.598   1.260  15.270  0.3567  0.3588  0.3841
 6164SOL    HW229952   3.737   1.247  15.251  1.2723  0.9636  0.5357
 6165SOL     OW29953   4.196   2.139   9.139 -0.1939  0.2806 -0.2279
 6165SOL    HW129954   4.157   2.110   9.221 -1.8539 -1.6540 -1.7149
 6165SOL    HW229955   4.272   2.196   9.155 -0.4907  0.9665 -1.2821
 6166SOL     OW29956   3.693   1.431  16.150 -0.0596  0.1818 -0.2779
 6166SOL    HW129957   3.610   1.480  16.148 -0.5738 -0.6126  1.4778
 6166SOL    HW229958   3.698   1.421  16.055  0.3490  0.6890 -0.3107
 6167SOL     OW29959   4.224   0.487   7.564 -0.2402 -0.2393 -0.1434
 6167SOL    HW129960   4.130   0.498   7.574 -0.0472 -0.8229  2.3071
 6167SOL    HW229961   4.255   0.459   7.650 -1.9313  0.0255  0.5581
 6168SOL     OW29962   0.779   3.057   3.838  0.0805  0.1775 -0.6374
 6168SOL    HW129963   0.761   2.968   3.866 -0.2830  0.7392  0.8849
 6168SOL    HW229964   0.788   3.044   3.743  0.2164 -1.6243 -0.3683
 6169SOL     OW29965   1.596   2.900   4.611 -0.0079  0.5136 -0.0590
 6169SOL    HW129966   1.657   2.864   4.547 -2.3855  1.5456 -2.9498
 6169SOL    HW229967   1.516   2.866   4.571  0.4132 -0.2697 -0.2324
 6170SOL     OW29968   3.275   1.552   3.401  0.4968  0.1691  0.4174
 6170SOL    HW129969   3.225   1.597   3.469  2.5983  3.3419 -0.1706
 6170SOL    HW229970   3.301   1.466   3.433 -2.5542 -0.7049  0.5362
 6171SOL     OW29971   2.873   3.139  14.804 -0.0841 -0.1802 -0.3494
 6171SOL    HW129972   2.802   3.092  14.847 -0.8521  1.6467  0.3825
 6171SOL    HW229973   2.878   3.222  14.852  4.0333  0.3711 -1.6823
 6172SOL     OW29974   3.693   4.318   0.092  0.6855  0.2680 -0.0380
 6172SOL    HW129975   3.773   4.294   0.044  0.1998  0.2755 -0.8586
 6172SOL    HW229976   3.625   4.338   0.027  1.9788  1.6615 -0.9662
 6173SOL     OW29977   1.949   0.836   5.134 -0.3120 -0.1496 -0.2618
 6173SOL    HW129978   1.880   0.823   5.200  1.0575 -0.5607  1.0755
 6173SOL    HW229979   1.949   0.753   5.087  2.4563 -1.0599  1.3601
 6174SOL     OW29980   0.395   0.070  16.741  0.5815 -0.2693  0.6462
 6174SOL    HW129981   0.346   0.130  16.798 -0.2572  0.5572 -0.9500
 6174SOL    HW229982   0.416   4.719  16.796 -0.1095 -0.7100  0.3021
 6175SOL     OW29983   0.764   2.892   3.290  0.8756  0.0732  0.0670
 6175SOL    HW129984   0.719   2.948   3.227 -0.3339 -1.0304 -0.0492
 6175SOL    HW229985   0.825   2.833   3.247 -0.3068 -0.4778 -0.8487
 6176SOL     OW29986   4.656   1.850   3.166  0.4308 -0.0479 -1.2778
 6176SOL    HW129987   4.696   1.848   3.253  1.5262  1.8000 -1.7266
 6176SOL    HW229988   0.013   1.858   3.115  1.6912 -3.2846  0.2211
 6177SOL     OW29989   0.370   0.605   1.891 -0.5524 -0.0909 -0.2610
 6177SOL    HW129990   0.349   0.698   1.884  1.1524  0.4874  2.2464
 6177SOL    HW229991   0.462   0.611   1.864 -0.0894  0.3945  1.4520
 6178SOL     OW29992   1.827   2.062   1.642 -0.4323  0.1563  0.0921
 6178SOL    HW129993   1.754   2.100   1.690  0.5451  1.1783  0.7753
 6178SOL    HW229994   1.867   2.144   1.613 -0.4518 -0.8380 -2.7810
 6179SOL     OW29995   3.186   4.154  16.807  0.0579  0.3458 -0.0589
 6179SOL    HW129996   3.105   4.103  16.814 -0.0320  0.7447  1.7300
 6179SOL    HW229997   3.184   4.165  16.712  3.8496 -0.4482 -0.2364
 6180SOL     OW29998   1.607   0.235  13.779  0.1235 -0.0020 -0.3064
 6180SOL    HW129999   1.627   0.321  13.815 -0.5101  1.0463 -2.4642
 6180SOL    HW230000   1.516   0.251  13.754 -0.3786 -0.8938  0.9660
 6181SOL     OW30001   2.859   4.567   0.866 -0.5689  0.4078  0.4519
 6181SOL    HW130002   2.829   4.476   0.873 -0.9972  0.5723  0.7532
 6181SOL    HW230003   2.870   4.578   0.772  1.4025 -0.2891  0.5996
 6182SOL     OW30004   2.815   2.746  11.341  0.1169 -0.0195 -0.0372
 6182SOL    HW130005   2.808   2.653  11.360  0.5968  0.0809  0.6202
 6182SOL    HW230006   2.734   2.783  11.376 -1.4374 -1.2395 -2.3069
 6183SOL     OW30007   2.134   1.571  13.486  0.1310 -0.1570  0.0375
 6183SOL    HW130008   2.122   1.554  13.580  2.2343 -4.3093 -0.4891
 6183SOL    HW230009   2.153   1.484  13.451 -2.8027 -0.7782  0.0188
 6184SOL     OW30010   4.467   3.792  17.308  0.6596  0.4103 -0.2485
 6184SOL    HW130011   4.414   3.762  17.235 -1.4767  2.7991  0.3092
 6184SOL    HW230012   4.409   3.858  17.348 -0.7667 -1.7844  1.3145
 6185SOL     OW30013   0.086   4.167   3.851 -0.4280 -0.3581  0.0792
 6185SOL    HW130014   0.156   4.172   3.917  1.1306  0.2546 -1.5918
 6185SOL    HW230015   0.040   4.249   3.866 -0.5087 -0.5168  0.7006
 6186SOL     OW30016   2.685   0.939   9.731  0.2369 -0.0347  0.9288
 6186SOL    HW130017   2.666   1.009   9.670  0.1368 -1.3113 -0.4997
 6186SOL    HW230018   2.780   0.943   9.742  0.2207  1.0187  0.6932
 6187SOL     OW30019   2.860   2.464   7.592 -0.1142 -0.1257 -0.0777
 6187SOL    HW130020   2.912   2.483   7.514 -0.9638 -0.6049 -0.7659
 6187SOL    HW230021   2.927   2.466   7.661  0.4829  0.9554 -0.6861
 6188SOL     OW30022   2.223   3.807   2.902 -0.3945 -0.0438  0.4865
 6188SOL    HW130023   2.250   3.753   2.977 -2.2828 -0.3692  0.9338
 6188SOL    HW230024   2.205   3.891   2.946  1.6433  0.7797 -0.2548
 6189SOL     OW30025   4.515   2.931   1.922 -0.2037  0.1585 -0.1630
 6189SOL    HW130026   4.488   3.014   1.961 -0.8083  0.3372 -0.9581
 6189SOL    HW230027   4.591   2.965   1.874  1.1866 -0.0931  1.8817
 6190SOL     OW30028   3.542   1.628   2.529 -0.5270  0.3740 -0.3262
 6190SOL    HW130029   3.458   1.584   2.537 -0.6566  0.6777 -0.0193
 6190SOL    HW230030   3.562   1.672   2.611 -2.0122  0.3457  0.0369
 6191SOL     OW30031   3.363   3.887  13.802 -0.1577 -0.0173 -0.4880
 6191SOL    HW130032   3.403   3.961  13.756  2.2259 -0.1563  1.4133
 6191SOL    HW230033   3.435   3.824  13.813  0.4830  1.0165  1.1691
 6192SOL     OW30034   3.418   3.347   2.057 -0.4423 -0.1971  0.1185
 6192SOL    HW130035   3.415   3.424   2.001  0.4162 -0.6875 -0.6011
 6192SOL    HW230036   3.381   3.373   2.141  2.0380 -0.9319  1.4349
 6193SOL     OW30037   3.457   3.742  10.006 -0.0824  0.2069 -0.9031
 6193SOL    HW130038   3.394   3.678   9.972  0.4000 -1.1576  0.7763
 6193SOL    HW230039   3.435   3.763  10.097  0.9247 -0.5167 -0.4949
 6194SOL     OW30040   2.352   0.435   4.284  0.0275  0.0371  0.2345
 6194SOL    HW130041   2.347   0.467   4.194 -1.0027 -1.5135 -0.2494
 6194SOL    HW230042   2.333   0.342   4.280  0.1608  0.1578 -3.6930
 6195SOL     OW30043   3.646   2.403   2.221 -0.7201 -0.4081  0.1077
 6195SOL    HW130044   3.678   2.452   2.297 -2.6096 -0.1198  0.7025
 6195SOL    HW230045   3.729   2.364   2.192 -0.4119 -0.5916  1.2215
 6196SOL     OW30046   0.620   0.612   1.808 -0.2490 -0.3509  0.0519
 6196SOL    HW130047   0.640   0.693   1.762  0.0239 -0.3193  0.2276
 6196SOL    HW230048   0.707   0.592   1.842 -1.4762 -1.8260  2.3824
 6197SOL     OW30049   3.298   0.977  10.948 -0.2348 -0.1579 -0.0365
 6197SOL    HW130050   3.372   0.934  10.990 -1.1337 -0.6015  1.0760
 6197SOL    HW230051   3.275   0.922  10.874  0.1763  0.5580 -0.7016
 6198SOL     OW30052   1.108   1.197   9.357  0.3331 -0.3880  0.0212
 6198SOL    HW130053   1.020   1.162   9.348  0.7292 -2.4907  4.2101
 6198SOL    HW230054   1.117   1.204   9.452  0.9430 -1.7925  0.0718
 6199SOL     OW30055   0.516   1.470   1.928 -0.3970  0.7220 -0.4593
 6199SOL    HW130056   0.519   1.565   1.914  0.4545  0.5071 -1.6897
 6199SOL    HW230057   0.603   1.468   1.967 -1.7648 -0.2531  2.5620
 6200SOL     OW30058   1.457   0.788   3.767  0.0205  0.0943 -0.2058
 6200SOL    HW130059   1.515   0.862   3.753  0.6161 -0.5347 -1.0665
 6200SOL    HW230060   1.420   0.820   3.849 -0.6766 -0.1030 -0.4427
 6201SOL     OW30061   4.023   3.732  16.762  0.3366  0.3109 -0.1698
 6201SOL    HW130062   4.018   3.814  16.810 -1.2912  0.3700 -0.4509
 6201SOL    HW230063   3.952   3.730  16.698 -1.3584 -0.4995  1.7581
 6202SOL     OW30064   0.733   3.437   7.888  0.1249 -0.4335  0.3863
 6202SOL    HW130065   0.792   3.396   7.824  1.5467  0.5927  1.0509
 6202SOL    HW230066   0.704   3.358   7.932 -0.6122  0.9291  2.3369
 6203SOL     OW30067   3.556   2.767   0.148  0.0040 -0.0263 -0.0359
 6203SOL    HW130068   3.590   2.823   0.218 -1.6716 -0.2419  0.9692
 6203SOL    HW230069   3.594   2.683   0.174 -1.1777 -0.3024  0.8537
 6204SOL     OW30070   3.138   0.138   3.180  0.7289  0.0307  0.1389
 6204SOL    HW130071   3.064   0.106   3.127  0.5961 -2.6994  1.9807
 6204SOL    HW230072   3.112   0.121   3.270 -2.6353  0.9048 -0.6600
 6205SOL     OW30073   4.349   3.297   6.252  0.6077 -0.1063 -0.0249
 6205SOL    HW130074   4.328   3.205   6.272 -0.8423 -0.0273 -1.1612
 6205SOL    HW230075   4.282   3.328   6.192  1.8046  3.1839  0.3737
 6206SOL     OW30076   0.039   3.917   5.894 -0.0726 -0.1879  0.2177
 6206SOL    HW130077   0.097   3.945   5.823 -2.4897  1.4387 -1.1233
 6206SOL    HW230078   0.035   3.822   5.881  1.5500 -0.3044  0.5578
 6207SOL     OW30079   2.280   3.893   8.493 -0.0401  0.0685 -0.0495
 6207SOL    HW130080   2.231   3.952   8.551  0.2275 -1.1745  1.4285
 6207SOL    HW230081   2.364   3.938   8.486 -0.7479  1.5730  1.2788
 6208SOL     OW30082   3.269   2.337   4.889 -0.1306 -0.0485  0.0677
 6208SOL    HW130083   3.337   2.288   4.935 -0.2204 -0.9446 -0.7682
 6208SOL    HW230084   3.194   2.337   4.949  0.0687 -1.0222  0.3122
 6209SOL     OW30085   2.042   1.095   6.140 -0.2415 -0.1068 -0.1571
 6209SOL    HW130086   2.045   1.012   6.093  0.3815 -0.2906  0.2107
 6209SOL    HW230087   2.070   1.162   6.079  2.1301 -1.3948 -0.4671
 6210SOL     OW30088   0.065   3.565   4.006  0.0927  0.2351  0.8546
 6210SOL    HW130089   0.015   3.630   3.956 -0.4460 -1.3260 -0.6624
 6210SOL    HW230090   0.097   3.517   3.929 -1.1429  0.9468 -0.1185
 6211SOL     OW30091   1.505   1.492   9.422  0.4738 -0.4523 -0.3594
 6211SOL    HW130092   1.517   1.398   9.408 -1.4204 -0.4759 -1.8046
 6211SOL    HW230093   1.595   1.523   9.421  0.1746  0.4937  1.1208
 6212SOL     OW30094   3.262   3.641   9.621  0.7963 -0.1449  0.5801
 6212SOL    HW130095   3.197   3.692   9.670  1.2843  0.3449  0.7209
 6212SOL    HW230096   3.298   3.583   9.688  0.4086 -1.1639 -0.1114
 6213SOL     OW30097   3.824   2.748  13.763  0.1332  0.1292 -0.7137
 6213SOL    HW130098   3.768   2.771  13.837  0.6754 -1.0263  0.0597
 6213SOL    HW230099   3.838   2.655  13.783  1.5918  0.5826  0.3728
 6214SOL     OW30100   0.345   0.565   5.394 -0.2968 -0.2845 -0.3321
 6214SOL    HW130101   0.323   0.616   5.316 -0.0186 -1.1562 -0.9721
 6214SOL    HW230102   0.386   0.637   5.443 -1.4314  0.1951 -0.1011
 6215SOL     OW30103   4.701   2.965  10.195  0.2781 -0.5139 -0.2538
 6215SOL    HW130104   4.724   3.055  10.218 -0.1652 -0.1532 -1.2221
 6215SOL    HW230105   0.033   2.955  10.118 -1.0456  0.4050 -1.3461
 6216SOL     OW30106   3.026   3.373   4.996  0.1519 -0.2882 -0.2786
 6216SOL    HW130107   3.044   3.325   5.076 -0.9077 -1.6803 -0.8696
 6216SOL    HW230108   2.972   3.443   5.033  0.9010 -0.0414  0.3253
 6217SOL     OW30109   3.948   4.240   7.455  0.2224 -0.5613  0.2629
 6217SOL    HW130110   3.957   4.236   7.550 -2.0341 -3.4688  0.3464
 6217SOL    HW230111   3.860   4.278   7.453  0.6486  0.4039 -0.6120
 6218SOL     OW30112   2.668   4.041   1.839 -0.2843 -0.4202 -0.3456
 6218SOL    HW130113   2.672   3.950   1.866  0.2874  0.3666  2.2072
 6218SOL    HW230114   2.661   4.088   1.922  2.0895 -2.2857  0.8974
 6219SOL     OW30115   1.345   1.361   4.057  0.0230  0.8217  0.2171
 6219SOL    HW130116   1.304   1.444   4.032  0.6903  0.8742 -0.7063
 6219SOL    HW230117   1.434   1.395   4.066  0.2268  0.4947 -0.5998
 6220SOL     OW30118   0.423   1.380   1.697  0.6237 -0.0441 -0.0291
 6220SOL    HW130119   0.338   1.425   1.696  0.0938 -1.0510 -0.2671
 6220SOL    HW230120   0.472   1.425   1.766 -0.2229  0.7297  0.0731
 6221SOL     OW30121   3.938   4.536   0.677 -0.0349 -0.2743 -0.1760
 6221SOL    HW130122   3.975   4.448   0.679 -0.1202 -0.2146  3.2951
 6221SOL    HW230123   3.864   4.517   0.619  0.5122 -0.6302 -0.7547
 6222SOL     OW30124   0.823   4.709   4.248  0.1104 -0.5781 -0.7930
 6222SOL    HW130125   0.730   0.004   4.260  0.2297 -0.8170  0.5890
 6222SOL    HW230126   0.862   0.012   4.331 -0.3256 -1.7805 -0.1920
 6223SOL     OW30127   0.834   0.858   6.430 -0.2547  0.9937  0.0087
 6223SOL    HW130128   0.799   0.770   6.444 -1.7105  1.2674 -2.0079
 6223SOL    HW230129   0.899   0.841   6.361 -2.0180 -0.3731 -1.2996
 6224SOL     OW30130   1.043   0.897   5.039 -0.1652  0.0717 -0.1130
 6224SOL    HW130131   1.096   0.946   4.976 -0.6224  1.6882  0.7753
 6224SOL    HW230132   0.960   0.909   4.993 -0.1863 -0.3352 -0.1792
 6225SOL     OW30133   3.242   3.110  14.890  0.0548 -0.0694  0.6106
 6225SOL    HW130134   3.257   3.097  14.984  1.3111 -1.1986  0.2586
 6225SOL    HW230135   3.329   3.096  14.853  0.4298  0.6437  1.2200
 6226SOL     OW30136   3.160   4.476   3.395  0.3424  0.8160  0.3301
 6226SOL    HW130137   3.175   4.498   3.303 -1.5944 -1.0715 -0.4302
 6226SOL    HW230138   3.186   4.384   3.397 -0.5238  0.5845  1.1919
 6227SOL     OW30139   1.235   4.600   8.603 -0.0416 -0.3310 -0.6574
 6227SOL    HW130140   1.255   4.691   8.622 -0.2255 -0.4298  0.0090
 6227SOL    HW230141   1.305   4.559   8.654  0.6937  2.1559  0.3151
 6228SOL     OW30142   2.470   0.470   5.890  0.7484 -0.1678  0.2748
 6228SOL    HW130143   2.502   0.482   5.800 -2.7581 -1.8140 -1.1942
 6228SOL    HW230144   2.469   0.560   5.921  0.7669 -0.6371  1.6463
 6229SOL     OW30145   1.085   3.237   8.912 -0.0875 -0.1621 -0.5135
 6229SOL    HW130146   1.033   3.218   8.834  0.7755 -1.4861 -0.7756
 6229SOL    HW230147   1.019   3.208   8.975  1.1353 -1.6291  0.1033
 6230SOL     OW30148   1.035   4.115  13.766 -0.2778 -0.1428 -0.5538
 6230SOL    HW130149   1.120   4.110  13.811  0.3781  1.0760 -1.6439
 6230SOL    HW230150   1.063   4.142  13.678 -1.0771  0.0900 -0.7354
 6231SOL     OW30151   2.571   3.192   5.507  0.4413 -0.6139  0.0679
 6231SOL    HW130152   2.641   3.168   5.446  0.2850 -0.4609 -0.1700
 6231SOL    HW230153   2.499   3.132   5.487  0.2023 -0.7069  1.2421
 6232SOL     OW30154   0.243   2.107  12.726  0.2912 -0.3779 -0.1383
 6232SOL    HW130155   0.286   2.029  12.760 -1.4530 -1.1104  0.3756
 6232SOL    HW230156   0.273   2.110  12.635  0.1893  0.9182 -0.1359
 6233SOL     OW30157   0.655   1.858   3.162  0.1045 -0.3102  0.1763
 6233SOL    HW130158   0.679   1.766   3.173 -0.9111 -0.5785  0.2037
 6233SOL    HW230159   0.638   1.863   3.068  1.2833 -0.7775 -0.0646
 6234SOL     OW30160   1.751   2.628   7.907  0.7967  0.3924 -0.4660
 6234SOL    HW130161   1.748   2.533   7.907  2.2876  0.3333 -0.1382
 6234SOL    HW230162   1.696   2.647   7.831  0.9165  2.9665  0.0641
 6235SOL     OW30163   2.653   0.679   9.672 -0.2846 -0.1968  0.3870
 6235SOL    HW130164   2.678   0.683   9.579 -2.9196  1.8980 -0.2366
 6235SOL    HW230165   2.671   0.768   9.703 -1.6653 -0.0918  0.9192
 6236SOL     OW30166   2.431   0.107   2.840  0.3017  0.0123 -0.7927
 6236SOL    HW130167   2.498   0.174   2.853 -0.2379  0.6482 -1.3244
 6236SOL    HW230168   2.428   0.101   2.744 -0.9392 -0.2003 -0.7426
 6237SOL     OW30169   3.450   1.766  13.794 -0.2945  0.0020 -0.2526
 6237SOL    HW130170   3.449   1.769  13.698  0.7249  1.4215 -0.2104
 6237SOL    HW230171   3.531   1.810  13.819  1.0250 -2.2838 -0.4442
 6238SOL     OW30172   3.072   2.187   3.507 -0.0729  0.5769 -0.4744
 6238SOL    HW130173   2.977   2.177   3.511  0.3701 -3.5077 -0.2450
 6238SOL    HW230174   3.085   2.274   3.470  0.6430  1.0276  0.8270
 6239SOL     OW30175   2.385   1.381   3.868  0.2569 -0.0330 -0.1902
 6239SOL    HW130176   2.357   1.418   3.951 -0.0968  1.7419 -1.0996
 6239SOL    HW230177   2.329   1.305   3.848  1.3158 -1.0327  0.6556
 6240SOL     OW30178   0.498   3.522  10.191  0.3632  0.4108  0.1624
 6240SOL    HW130179   0.451   3.596  10.153  0.7954 -0.2925 -1.7037
 6240SOL    HW230180   0.469   3.532  10.282  1.5119  2.7841  0.2635
 6241SOL     OW30181   0.054   4.383   4.613  0.0531  0.1931  0.0579
 6241SOL    HW130182   0.082   4.318   4.549 -2.4075  1.1048 -1.9429
 6241SOL    HW230183   0.071   4.337   4.696  0.3845 -1.9621 -1.2158
 6242SOL     OW30184   2.249   1.475  16.881 -0.0324  0.6297 -0.1543
 6242SOL    HW130185   2.161   1.506  16.902 -0.1111 -0.2980  0.8673
 6242SOL    HW230186   2.239   1.467  16.786  1.4092 -0.6901 -0.1936
 6243SOL     OW30187   4.302   2.760   7.972 -0.0990 -0.1623 -0.7101
 6243SOL    HW130188   4.302   2.692   8.039  0.3106 -0.2651 -0.8108
 6243SOL    HW230189   4.326   2.709   7.895  1.0107 -2.6387  1.2912
 6244SOL     OW30190   3.876   4.024   7.231  0.0444  0.1245  0.0341
 6244SOL    HW130191   3.970   4.041   7.231 -0.2151  1.5189 -0.8540
 6244SOL    HW230192   3.845   4.105   7.190  3.6704  0.9358 -1.1143
 6245SOL     OW30193   0.628   0.250   6.804  0.5520  0.6559  0.4032
 6245SOL    HW130194   0.709   0.294   6.779 -0.5760  1.5269 -1.7381
 6245SOL    HW230195   0.611   0.188   6.734 -2.0723  0.1935  1.4442
 6246SOL     OW30196   1.416   0.648   7.516 -0.1123  0.1633 -0.0315
 6246SOL    HW130197   1.461   0.722   7.556  1.7811 -0.5248 -0.8937
 6246SOL    HW230198   1.406   0.575   7.576  0.9432  1.2021  1.3998
 6247SOL     OW30199   1.285   1.528   2.068 -0.3634 -0.7497 -0.3189
 6247SOL    HW130200   1.229   1.461   2.108 -0.1024  0.3248  1.8206
 6247SOL    HW230201   1.216   1.585   2.036  0.0897 -1.2396 -2.1667
 6248SOL     OW30202   4.249   3.292  11.450 -0.0908 -0.1920  0.1028
 6248SOL    HW130203   4.336   3.299  11.488  0.1285 -0.4204 -0.3534
 6248SOL    HW230204   4.255   3.340  11.367 -4.4553  0.1956  0.0050
 6249SOL     OW30205   0.045   3.413   5.374  0.0916 -0.2496 -0.4323
 6249SOL    HW130206   0.061   3.507   5.366  2.8606 -0.6865 -0.1132
 6249SOL    HW230207   0.023   3.414   5.467  1.0577  0.6512 -0.2127
 6250SOL     OW30208   3.621   0.465  14.180  0.0438 -0.4825 -0.2474
 6250SOL    HW130209   3.630   0.560  14.183  0.6627 -0.4998 -1.8833
 6250SOL    HW230210   3.529   0.459  14.153  0.5343 -1.5602 -1.6802
 6251SOL     OW30211   4.160   2.442   6.753 -0.2832  0.7658  0.0890
 6251SOL    HW130212   4.080   2.392   6.736 -0.2142  1.1742 -1.4112
 6251SOL    HW230213   4.187   2.407   6.838 -0.0051  0.9024  0.0566
 6252SOL     OW30214   3.354   2.458  12.968 -0.2740 -0.5631 -0.5120
 6252SOL    HW130215   3.320   2.380  13.013 -0.7899  0.4135  0.7878
 6252SOL    HW230216   3.309   2.522  13.024 -1.6293 -2.7613  0.9095
 6253SOL     OW30217   0.340   4.020   5.285 -0.3625 -0.4441 -0.0244
 6253SOL    HW130218   0.411   4.082   5.305  0.2743 -0.0640 -3.4064
 6253SOL    HW230219   0.265   4.079   5.292 -0.4470 -0.5761  0.2028
 6254SOL     OW30220   0.584   2.821   0.260 -0.2374 -0.6750  0.1210
 6254SOL    HW130221   0.565   2.909   0.293  2.0336 -1.3506  3.1832
 6254SOL    HW230222   0.660   2.841   0.205 -0.8771 -1.0463 -0.9054
 6255SOL     OW30223   1.439   2.602   1.376 -0.0679  0.2789 -0.1848
 6255SOL    HW130224   1.505   2.672   1.369  0.8749 -0.8866 -2.9156
 6255SOL    HW230225   1.499   2.533   1.349 -2.4307 -0.7934 -2.6873
 6256SOL     OW30226   0.867   3.417   0.532 -0.1619  0.9691 -0.1047
 6256SOL    HW130227   0.830   3.340   0.576  0.1586 -0.5405 -2.4863
 6256SOL    HW230228   0.827   3.410   0.445 -1.8609 -1.2464  0.8495
 6257SOL     OW30229   0.447   0.042   3.612 -0.4475  0.0444 -0.1911
 6257SOL    HW130230   0.472   0.098   3.538  0.4459  0.7586  0.6654
 6257SOL    HW230231   0.368   0.088   3.639  0.3840 -0.7516  3.5163
 6258SOL     OW30232   3.264   0.516   9.080 -0.3009  0.0810  0.7860
 6258SOL    HW130233   3.245   0.607   9.104  0.2973  0.1588  0.9635
 6258SOL    HW230234   3.357   0.513   9.102 -0.0484 -1.5923 -0.5354
 6259SOL     OW30235   4.109   0.452  11.455  0.1671 -0.1305 -0.3696
 6259SOL    HW130236   4.096   0.390  11.383 -0.9704 -0.2074 -0.0822
 6259SOL    HW230237   4.183   0.509  11.432  0.4759 -0.2551  0.3161
 6260SOL     OW30238   1.090   1.248   0.465 -0.2160  0.2486 -0.1222
 6260SOL    HW130239   1.158   1.208   0.521  1.3838 -1.1066 -3.0419
 6260SOL    HW230240   1.032   1.293   0.526 -0.3549 -0.0800 -0.0065
 6261SOL     OW30241   0.770   2.455   7.315  0.2464 -0.1215 -0.0752
 6261SOL    HW130242   0.754   2.544   7.282 -0.4375 -0.3150 -0.2592
 6261SOL    HW230243   0.713   2.459   7.392  2.7819  1.9339  1.7107
 6262SOL     OW30244   4.481   1.856   3.557 -0.2704  1.0951  0.3304
 6262SOL    HW130245   4.420   1.853   3.631  0.2448  1.2028  0.7578
 6262SOL    HW230246   4.457   1.939   3.515 -1.5923  0.0913 -0.9161
 6263SOL     OW30247   1.376   0.237   3.916  0.3146 -0.3177 -0.6939
 6263SOL    HW130248   1.308   0.255   3.852 -0.1121 -3.1425 -1.0628
 6263SOL    HW230249   1.323   0.214   3.992 -1.7326  0.9981 -1.7281
 6264SOL     OW30250   4.184   4.011  15.245  0.4278  0.2515  0.3913
 6264SOL    HW130251   4.239   3.951  15.296 -1.3878  0.2362  2.3123
 6264SOL    HW230252   4.119   3.957  15.201 -1.0109  1.4225  1.0910
 6265SOL     OW30253   1.053   2.938   5.691 -0.0573 -0.3046  0.3319
 6265SOL    HW130254   1.008   2.860   5.658  0.1222  0.4097 -1.5723
 6265SOL    HW230255   1.127   2.903   5.741 -1.1567 -1.9911  0.7962
 6266SOL     OW30256   3.950   2.296   5.117  0.4061  0.6308  0.3196
 6266SOL    HW130257   3.856   2.274   5.115  0.0082  2.3587 -0.0420
 6266SOL    HW230258   3.995   2.212   5.123  1.1960  1.0377  0.0233
 6267SOL     OW30259   0.674   3.577   7.427  0.3055 -0.1475 -0.3759
 6267SOL    HW130260   0.638   3.555   7.513  0.1743 -0.4667 -0.5154
 6267SOL    HW230261   0.606   3.548   7.366 -1.7187 -0.6156  2.0744
 6268SOL     OW30262   2.943   3.782  12.191  0.3021  0.2141 -0.8536
 6268SOL    HW130263   2.895   3.768  12.272  0.5967  0.2778 -0.6689
 6268SOL    HW230264   2.891   3.729  12.130 -0.2657  0.1734 -0.3393
 6269SOL     OW30265   1.747   1.211   3.452  0.2554 -0.9936 -0.2671
 6269SOL    HW130266   1.753   1.154   3.376  0.7084  0.5379 -1.3634
 6269SOL    HW230267   1.752   1.299   3.414  2.7948 -0.6988  0.7850
 6270SOL     OW30268   1.144   1.637   4.590 -0.2262  0.1240  0.0449
 6270SOL    HW130269   1.102   1.691   4.523  0.4655  0.8839  0.2358
 6270SOL    HW230270   1.196   1.580   4.534 -0.8369 -0.8203  0.4243
 6271SOL     OW30271   0.212   4.463   2.473  0.0959  0.5343 -0.2549
 6271SOL    HW130272   0.294   4.480   2.427  1.2550  0.0845  1.6730
 6271SOL    HW230273   0.189   4.371   2.467 -3.1858  1.3608 -0.4226
 6272SOL     OW30274   0.737   1.645   6.499  0.2925 -0.1127 -0.4512
 6272SOL    HW130275   0.653   1.643   6.545  1.5024  0.1755  1.7798
 6272SOL    HW230276   0.800   1.621   6.567  1.9799  1.6822 -1.3859
 6273SOL     OW30277   1.976   4.241   7.511  0.1896  0.3905  0.3707
 6273SOL    HW130278   1.983   4.222   7.417  2.2815 -2.3764  1.1262
 6273SOL    HW230279   1.909   4.184   7.549 -0.9231  1.0572 -0.5992
 6274SOL     OW30280   2.984   3.117   6.141  0.1505  0.0700  0.4434
 6274SOL    HW130281   3.038   3.183   6.097  0.2322  2.8149  4.6553
 6274SOL    HW230282   2.986   3.046   6.077 -0.0525  0.7108 -0.2752
 6275SOL     OW30283   3.180   4.409  16.874 -0.4640  0.2672 -0.1535
 6275SOL    HW130284   3.167   4.323  16.835  1.1438 -0.3715  0.7441
 6275SOL    HW230285   3.240   4.400  16.948  0.9201 -2.0432 -1.5770
 6276SOL     OW30286   2.363   1.714  17.065  0.2675  0.3101  0.1530
 6276SOL    HW130287   2.318   1.637  17.031 -0.4494  0.6823  0.2648
 6276SOL    HW230288   2.409   1.740  16.985 -0.1550 -1.5288 -0.6787
 6277SOL     OW30289   4.166   0.861   5.739 -0.7240  0.4962 -0.8173
 6277SOL    HW130290   4.213   0.944   5.731  1.0087 -0.2254  1.8753
 6277SOL    HW230291   4.231   0.809   5.787 -0.0236  1.1765 -1.0186
 6278SOL     OW30292   2.653   2.072   8.870 -0.2889  0.1662  0.0340
 6278SOL    HW130293   2.655   1.996   8.812 -1.4025  0.6887 -0.6823
 6278SOL    HW230294   2.712   2.041   8.939 -0.8077 -1.0901 -0.0899
 6279SOL     OW30295   4.534   2.603  12.066  0.2470 -0.5290  0.8309
 6279SOL    HW130296   4.627   2.612  12.087  0.7407  0.0798 -1.5784
 6279SOL    HW230297   4.504   2.547  12.138 -2.5889 -0.4019 -0.2595
 6280SOL     OW30298   0.048   1.545   4.551 -0.3450  0.0406  0.0002
 6280SOL    HW130299   0.085   1.633   4.556  0.5428 -0.4698  2.1672
 6280SOL    HW230300   0.121   1.499   4.592 -0.3232 -0.1831 -0.2927
 6281SOL     OW30301   0.684   4.570   5.445  0.2514 -0.2853 -0.2445
 6281SOL    HW130302   0.648   4.534   5.364 -1.8819  1.6418 -0.1253
 6281SOL    HW230303   0.775   4.595   5.428  0.3017 -0.9060 -0.8906
 6282SOL     OW30304   1.881   3.849   2.086  0.3006 -0.0698 -0.2451
 6282SOL    HW130305   1.828   3.820   2.160 -1.3463  0.6302 -1.1432
 6282SOL    HW230306   1.921   3.925   2.129 -1.8761  1.1735 -0.4077
 6283SOL     OW30307   3.235   1.845   8.366  0.5939  0.2567 -0.4172
 6283SOL    HW130308   3.246   1.762   8.321  2.1120  1.8312 -2.9420
 6283SOL    HW230309   3.139   1.843   8.368  0.5512  0.6653 -1.6523
 6284SOL     OW30310   1.198   4.469   1.881 -0.1432 -0.0445 -0.1357
 6284SOL    HW130311   1.173   4.503   1.796  1.2840  0.7321 -0.2531
 6284SOL    HW230312   1.207   4.555   1.921 -1.8580 -0.8970  2.0920
 6285SOL     OW30313   4.534   1.049  15.003 -0.0947 -0.3898  0.6983
 6285SOL    HW130314   4.569   1.040  15.091  0.8482 -1.5190  0.2157
 6285SOL    HW230315   4.442   1.030  15.019 -1.2448 -0.5399 -5.8850
 6286SOL     OW30316   3.394   4.228   2.898 -0.1002 -0.6890  0.3127
 6286SOL    HW130317   3.459   4.248   2.965 -0.1533  0.0764  0.1274
 6286SOL    HW230318   3.417   4.138   2.876  0.1447 -0.0084 -2.1433
 6287SOL     OW30319   1.359   2.284   8.605 -0.6047 -0.6571 -0.2924
 6287SOL    HW130320   1.266   2.302   8.618 -0.9836 -2.3304 -0.7287
 6287SOL    HW230321   1.366   2.204   8.658  0.6664  0.6747  1.5293
 6288SOL     OW30322   3.146   3.474   0.140 -0.8178  0.2149  0.0350
 6288SOL    HW130323   3.065   3.499   0.096  0.0017  1.2452 -0.9100
 6288SOL    HW230324   3.205   3.453   0.068 -2.0457  0.5299 -1.0616
 6289SOL     OW30325   3.275   2.264   0.355 -0.1957 -0.4351 -0.0401
 6289SOL    HW130326   3.305   2.176   0.330 -0.6330 -1.0412  1.5813
 6289SOL    HW230327   3.348   2.301   0.404 -0.2529 -0.9499  0.4360
 6290SOL     OW30328   1.650   3.901   5.980  0.0507  0.5937  0.2043
 6290SOL    HW130329   1.742   3.897   6.004  0.8165  1.4295 -2.5991
 6290SOL    HW230330   1.607   3.888   6.065  0.2798 -1.8590 -0.0583
 6291SOL     OW30331   0.382   1.015   4.115  0.0173 -0.4093  0.1749
 6291SOL    HW130332   0.352   0.925   4.119  0.3338 -0.5577 -0.7154
 6291SOL    HW230333   0.472   0.994   4.093  1.0573  1.8477  2.2700
 6292SOL     OW30334   2.103   2.679   2.668 -0.2415  0.0275  0.1903
 6292SOL    HW130335   2.018   2.686   2.624 -0.0828 -1.5989 -0.3976
 6292SOL    HW230336   2.161   2.697   2.594 -0.2865 -4.0031 -0.8656
 6293SOL     OW30337   1.706   3.309  16.070  0.0142 -0.0827 -0.4772
 6293SOL    HW130338   1.726   3.223  16.033  1.5507 -0.3201  0.8979
 6293SOL    HW230339   1.772   3.367  16.032 -0.1316 -0.2993 -1.0535
 6294SOL     OW30340   0.065   2.387  13.276  0.5977 -0.2729  0.6689
 6294SOL    HW130341   0.018   2.361  13.355 -0.2154 -0.0428  0.2615
 6294SOL    HW230342   0.153   2.403  13.308  1.1977  1.4110 -1.8423
 6295SOL     OW30343   2.412   3.119  14.918  0.3858  0.1680  0.6767
 6295SOL    HW130344   2.369   3.145  14.999 -4.1224  1.1095 -1.9818
 6295SOL    HW230345   2.407   3.024  14.921  0.6489  0.0333 -2.7821
 6296SOL     OW30346   2.283   4.127   7.603 -0.6294  0.0216  0.1253
 6296SOL    HW130347   2.278   4.129   7.508 -0.0672  0.7739  0.1148
 6296SOL    HW230348   2.294   4.033   7.620  0.8164  0.3262  0.8152
 6297SOL     OW30349   0.985   4.383   8.290 -0.7797  0.5454 -0.0055
 6297SOL    HW130350   1.035   4.456   8.327 -0.0666  0.5576 -1.0165
 6297SOL    HW230351   1.026   4.307   8.333 -0.6533 -0.6881 -2.3307
 6298SOL     OW30352   0.419   3.168   9.740  0.8567 -0.1340  0.8682
 6298SOL    HW130353   0.338   3.152   9.789 -0.8125  2.5277 -1.0530
 6298SOL    HW230354   0.393   3.252   9.705  0.0651 -0.0835  1.5742
 6299SOL     OW30355   1.883   1.244   8.355 -0.4560 -0.2621  0.0295
 6299SOL    HW130356   1.954   1.288   8.308  0.2204 -2.1888 -0.7934
 6299SOL    HW230357   1.811   1.306   8.358 -0.9191 -0.8484  0.9698
 6300SOL     OW30358   1.764   1.335   6.133 -0.2099 -0.1959  0.1137
 6300SOL    HW130359   1.826   1.329   6.206  1.5363 -1.0739 -1.4510
 6300SOL    HW230360   1.708   1.260   6.156  0.0355  0.3257  2.3905
 6301SOL     OW30361   3.031   3.668   9.372  0.4442  0.4682 -0.1677
 6301SOL    HW130362   2.958   3.696   9.317 -1.5270 -0.4354  2.0271
 6301SOL    HW230363   3.065   3.757   9.382  4.3209 -0.7775 -2.1583
 6302SOL     OW30364   3.597   0.253   3.472 -0.2371 -0.0698 -0.2895
 6302SOL    HW130365   3.513   0.298   3.461  0.7505  1.5013 -1.4201
 6302SOL    HW230366   3.650   0.319   3.518 -1.3877  1.4680 -1.1693
 6303SOL     OW30367   2.849   1.949   5.397 -0.0352 -0.1057  0.0690
 6303SOL    HW130368   2.824   2.041   5.394  1.3478  0.3062  1.2512
 6303SOL    HW230369   2.765   1.904   5.406  2.2024 -4.4397 -0.3021
 6304SOL     OW30370   4.280   1.264   7.774 -0.1109 -0.0802 -0.2325
 6304SOL    HW130371   4.316   1.199   7.834  1.8312 -0.6716 -2.0356
 6304SOL    HW230372   4.212   1.301   7.830  0.7980  1.9285 -0.4893
 6305SOL     OW30373   1.897   4.305   4.204  0.4912  0.5857  0.1372
 6305SOL    HW130374   1.960   4.368   4.168  0.7517 -0.1230 -0.6399
 6305SOL    HW230375   1.947   4.266   4.275 -1.9987  0.7023  1.9417
 6306SOL     OW30376   1.638   1.752   7.093  0.3472  0.4346 -0.3690
 6306SOL    HW130377   1.683   1.835   7.074  0.4001 -0.3203 -3.5027
 6306SOL    HW230378   1.637   1.706   7.010 -0.3576 -1.9946  0.9986
 6307SOL     OW30379   3.584   4.483   6.832  0.9201  0.5613  0.6468
 6307SOL    HW130380   3.569   4.470   6.738  1.3830  0.3217  0.6106
 6307SOL    HW230381   3.493   4.498   6.858  0.8931 -0.9964  1.4286
 6308SOL     OW30382   0.043   2.947   6.449 -0.0700  0.1275 -0.4034
 6308SOL    HW130383   0.110   2.957   6.381 -1.1161  4.0280 -0.8749
 6308SOL    HW230384   0.086   2.904   6.522 -0.2320  1.0758  0.2486
 6309SOL     OW30385   1.754   1.575   7.447 -0.2850  0.1791 -0.2656
 6309SOL    HW130386   1.675   1.525   7.467  0.5328 -1.5480 -1.3133
 6309SOL    HW230387   1.737   1.600   7.356 -1.7419 -0.7319 -0.2407
 6310SOL     OW30388   3.297   0.097   1.664  0.2477  0.3734 -0.8491
 6310SOL    HW130389   3.264   0.137   1.745 -0.4963  0.9779 -1.4554
 6310SOL    HW230390   3.218   0.067   1.620  0.2991 -1.7429  0.5086
 6311SOL     OW30391   0.019   4.375   9.635  0.1406  0.0118 -0.1570
 6311SOL    HW130392   4.655   4.371   9.597 -0.1226  1.7688  0.2356
 6311SOL    HW230393   0.040   4.284   9.655  3.7615  0.7867 -0.3284
 6312SOL     OW30394   2.102   2.786  12.113  0.0922  0.4047 -0.0356
 6312SOL    HW130395   2.130   2.876  12.129  1.8202 -0.5410  2.3034
 6312SOL    HW230396   2.007   2.794  12.115 -0.1698 -2.6796  0.3004
 6313SOL     OW30397   0.524   3.975  10.945 -0.1824  0.1944  0.4873
 6313SOL    HW130398   0.461   4.041  10.917  1.5161  1.9447  0.7635
 6313SOL    HW230399   0.469   3.908  10.986  0.8869 -1.3901 -0.6479
 6314SOL     OW30400   3.591   4.501   9.909  0.1069  0.2806 -0.2989
 6314SOL    HW130401   3.678   4.536   9.926  0.6471 -2.4455  2.5418
 6314SOL    HW230402   3.562   4.570   9.850  0.7586  1.0003  0.2284
 6315SOL     OW30403   2.472   4.369  11.215 -0.0542 -0.1637 -0.5683
 6315SOL    HW130404   2.433   4.310  11.151  1.9961 -0.8139 -1.2182
 6315SOL    HW230405   2.548   4.402  11.166  2.6238 -0.0396  3.7333
 6316SOL     OW30406   3.347   4.531   1.843 -0.2493  0.0922 -0.1329
 6316SOL    HW130407   3.319   4.463   1.782  0.6282 -0.0565 -0.3786
 6316SOL    HW230408   3.278   4.596   1.836  1.2281  1.4356 -2.5562
 6317SOL     OW30409   3.861   4.546   1.267  0.0660 -1.1803 -0.9223
 6317SOL    HW130410   3.860   4.585   1.180  0.2913 -0.3207 -0.5351
 6317SOL    HW230411   3.766   4.547   1.280 -0.0613 -0.2037 -1.9485
 6318SOL     OW30412   1.715   4.137   7.943 -0.3554  0.4107  0.0272
 6318SOL    HW130413   1.666   4.055   7.936  1.4249 -0.5793 -0.8576
 6318SOL    HW230414   1.789   4.129   7.883  0.0157  0.2001  0.5121
 6319SOL     OW30415   3.346   0.747   3.185  0.0518 -0.1627  0.1708
 6319SOL    HW130416   3.394   0.665   3.169 -1.3452 -0.5482 -1.9525
 6319SOL    HW230417   3.418   0.804   3.212  0.1267 -0.8753  1.5227
 6320SOL     OW30418   3.480   1.347  16.665 -0.2143 -0.1844 -0.1023
 6320SOL    HW130419   3.481   1.253  16.683  1.5825  0.1520  1.4686
 6320SOL    HW230420   3.566   1.377  16.695  0.1587 -0.3641 -0.9809
 6321SOL     OW30421   1.335   0.739   2.027  0.7304 -0.0445 -0.3686
 6321SOL    HW130422   1.272   0.756   2.098  1.5634 -0.5341  0.4850
 6321SOL    HW230423   1.405   0.697   2.076 -0.9901 -1.0358  1.2334
 6322SOL     OW30424   1.473   4.372   6.622 -0.1386 -0.6775  0.4932
 6322SOL    HW130425   1.438   4.456   6.592  0.7799 -0.7932 -0.8998
 6322SOL    HW230426   1.405   4.311   6.593 -0.6490  0.5513 -0.9451
 6323SOL     OW30427   0.252   2.405   1.045  0.4745  0.4466  0.1966
 6323SOL    HW130428   0.236   2.311   1.050 -3.2236  1.0556 -0.3572
 6323SOL    HW230429   0.307   2.418   1.122 -0.3801 -2.4932  1.3145
 6324SOL     OW30430   1.357   4.392   8.161  0.2787 -0.0660  0.1875
 6324SOL    HW130431   1.444   4.355   8.173 -0.4292 -1.2879  1.6357
 6324SOL    HW230432   1.309   4.386   8.244  1.2692  0.6436  0.8121
 6325SOL     OW30433   0.818   3.337  17.268  0.1147 -0.1916  0.7202
 6325SOL    HW130434   0.805   3.356  17.175 -0.0590 -1.6459  0.4349
 6325SOL    HW230435   0.736   3.375  17.301  0.0493  0.2606  0.0423
 6326SOL     OW30436   4.684   3.130  11.615 -0.1988 -0.3274  0.6003
 6326SOL    HW130437   4.708   3.133  11.522 -0.3096 -0.8029  0.5549
 6326SOL    HW230438   4.641   3.215  11.617 -0.4671 -0.3836 -2.3722
 6327SOL     OW30439   0.620   0.822   6.936  0.0551 -0.5048  0.1829
 6327SOL    HW130440   0.557   0.827   7.008  2.1719 -0.9328  2.0442
 6327SOL    HW230441   0.584   0.742   6.898  2.0302 -1.1440 -0.3384
 6328SOL     OW30442   3.886   2.228   5.514  0.2006 -0.0051 -0.5033
 6328SOL    HW130443   3.823   2.189   5.574 -0.1698 -1.9147 -2.1421
 6328SOL    HW230444   3.831   2.289   5.465  1.1565  2.7637  1.8706
 6329SOL     OW30445   0.874   4.291   1.779  0.0016 -0.0443 -0.3441
 6329SOL    HW130446   0.850   4.258   1.693  0.4118 -1.9053  0.2520
 6329SOL    HW230447   0.824   4.236   1.839 -0.4907  2.0323  1.1739
 6330SOL     OW30448   0.856   3.077   6.938  0.1621 -0.2436 -0.2218
 6330SOL    HW130449   0.897   3.158   6.907  0.1960  0.4500  1.6124
 6330SOL    HW230450   0.814   3.122   7.012 -0.0097 -0.4650 -0.1869
 6331SOL     OW30451   1.044   2.123   3.108  0.0035 -0.1461 -0.4670
 6331SOL    HW130452   1.041   2.036   3.069  2.4775 -0.0784 -0.8095
 6331SOL    HW230453   1.020   2.180   3.035  2.0198  2.8674  1.1747
 6332SOL     OW30454   2.848   3.524   2.478 -0.2899 -0.2101 -0.2802
 6332SOL    HW130455   2.759   3.561   2.479  0.9673  2.8310 -0.8554
 6332SOL    HW230456   2.879   3.529   2.569  2.0472 -0.8254 -1.0538
 6333SOL     OW30457   1.650   0.291   4.759  0.1705  0.3071  0.3327
 6333SOL    HW130458   1.664   0.340   4.678  2.0009 -0.5366  0.1352
 6333SOL    HW230459   1.707   0.338   4.821  3.9203 -2.0791 -1.3090
 6334SOL     OW30460   1.013   1.147   9.951 -0.2569 -0.2537  0.6916
 6334SOL    HW130461   0.943   1.204   9.982  0.1330  0.4867  0.1889
 6334SOL    HW230462   1.094   1.187   9.984 -0.6810  0.0052  1.4046
 6335SOL     OW30463   1.883   2.129   7.526  0.0564  0.5779  0.1053
 6335SOL    HW130464   1.857   2.150   7.616  2.6315  1.9202  0.5373
 6335SOL    HW230465   1.917   2.040   7.536 -0.0047  0.6592  1.0689
 6336SOL     OW30466   0.744   0.841   8.773  0.5658 -0.2606  0.3625
 6336SOL    HW130467   0.716   0.750   8.782 -0.4229  0.1423  1.4474
 6336SOL    HW230468   0.759   0.846   8.679 -0.2200 -1.3069  0.1861
 6337SOL     OW30469   4.585   3.295   3.876  0.3661  0.1535  0.1698
 6337SOL    HW130470   4.647   3.321   3.944 -0.0193 -1.9967  1.3535
 6337SOL    HW230471   4.506   3.270   3.924 -1.0584  2.9846 -0.7052
 6338SOL     OW30472   2.162   3.322   7.234  0.4507  0.2725  0.0573
 6338SOL    HW130473   2.231   3.266   7.270 -1.2623 -2.6717 -1.2328
 6338SOL    HW230474   2.086   3.267   7.252  1.3208 -0.6931  0.7742
 6339SOL     OW30475   1.680   4.296   6.434 -0.2353  0.0205  0.2123
 6339SOL    HW130476   1.617   4.333   6.497  0.0167 -0.1006  0.5343
 6339SOL    HW230477   1.761   4.305   6.484  0.8981 -0.9996 -1.4880
 6340SOL     OW30478   4.642   2.347  14.441 -0.3283  0.0571 -0.0012
 6340SOL    HW130479   4.720   2.300  14.411 -2.2471 -2.1603 -1.6043
 6340SOL    HW230480   4.602   2.280  14.496 -1.1361  1.8330  1.5491
 6341SOL     OW30481   2.393   0.460   3.014 -0.0038  0.1650  0.5602
 6341SOL    HW130482   2.314   0.450   2.962  0.6237 -0.7955 -0.2047
 6341SOL    HW230483   2.409   0.554   2.999  1.1940  0.0878  1.3442
 6342SOL     OW30484   1.187   2.736  17.324 -0.0058  0.8985 -0.0180
 6342SOL    HW130485   1.174   2.782  17.241 -0.0891  0.5922 -0.1730
 6342SOL    HW230486   1.097   2.741  17.357  0.6351  1.8654  1.5979
 6343SOL     OW30487   2.417   1.831   9.278 -0.7546 -0.1959 -0.2320
 6343SOL    HW130488   2.354   1.877   9.222 -0.1284  3.4680  2.0711
 6343SOL    HW230489   2.362   1.832   9.356 -0.7851  1.9790 -0.2804
 6344SOL     OW30490   2.496   3.395  16.972  0.2233  0.1134 -0.3023
 6344SOL    HW130491   2.572   3.426  17.021 -0.3756  3.3341 -1.4085
 6344SOL    HW230492   2.491   3.464  16.906 -1.1137 -0.2743 -0.6003
 6345SOL     OW30493   2.362   0.082   6.797 -0.9313 -0.4151  0.0722
 6345SOL    HW130494   2.403   0.038   6.871 -0.6462 -0.7752 -0.3002
 6345SOL    HW230495   2.438   0.135   6.773 -1.0855 -0.6598 -0.9588
 6346SOL     OW30496   2.374   4.157  16.213 -1.0354 -1.0356 -0.0988
 6346SOL    HW130497   2.387   4.250  16.234  3.0024 -1.3376 -1.1225
 6346SOL    HW230498   2.415   4.108  16.284  0.9692  0.6775 -0.0597
 6347SOL     OW30499   3.067   2.373   5.050 -0.2957  0.1928 -0.4307
 6347SOL    HW130500   3.019   2.321   5.115  0.5531  1.3911  1.1400
 6347SOL    HW230501   3.034   2.456   5.085 -2.1293 -1.4934  1.8881
 6348SOL     OW30502   0.913   1.815   9.355 -0.1700 -0.1057  0.1276
 6348SOL    HW130503   0.872   1.735   9.324 -0.9195  0.3311 -0.0117
 6348SOL    HW230504   0.834   1.843   9.400 -1.1005 -1.3379 -0.7642
 6349SOL     OW30505   1.351   3.136  11.095 -0.3598  0.6694  0.1887
 6349SOL    HW130506   1.396   3.099  11.172 -2.3040  0.9389  1.4359
 6349SOL    HW230507   1.266   3.093  11.088 -0.5213  0.8156  1.3138
 6350SOL     OW30508   3.515   0.119   5.011 -0.4511 -0.2710  0.0740
 6350SOL    HW130509   3.576   0.188   4.986 -0.5560  0.3267  1.5080
 6350SOL    HW230510   3.530   0.047   4.949  1.4068  0.0957  0.1028
 6351SOL     OW30511   0.750   0.595   4.515  0.1195  0.2880 -0.1815
 6351SOL    HW130512   0.814   0.665   4.527 -0.1895  0.5041  0.2035
 6351SOL    HW230513   0.803   0.520   4.541  2.0399  2.4880  2.3433
 6352SOL     OW30514   1.017   3.659   5.058 -0.1163 -0.0202 -0.5118
 6352SOL    HW130515   1.011   3.591   4.991  1.6332 -0.0707 -0.6179
 6352SOL    HW230516   1.028   3.613   5.142 -1.9879 -0.3527 -0.4378
 6353SOL     OW30517   2.391   2.784   9.745 -0.2455  0.4763 -0.0790
 6353SOL    HW130518   2.401   2.733   9.826 -1.5174 -0.2814 -0.3994
 6353SOL    HW230519   2.456   2.854   9.746 -1.5402  1.6718  1.3400
 6354SOL     OW30520   4.085   0.872   3.234 -0.4803 -0.6442  0.2933
 6354SOL    HW130521   4.136   0.862   3.314 -0.6622  1.0831  0.6307
 6354SOL    HW230522   4.150   0.848   3.167 -0.1409 -0.3924  0.5318
 6355SOL     OW30523   1.040   0.839  11.245  0.1769  0.4418 -0.0543
 6355SOL    HW130524   0.975   0.795  11.190 -0.1881 -0.1209  0.8207
 6355SOL    HW230525   1.002   0.925  11.264 -0.3150  0.8553 -2.9910
 6356SOL     OW30526   3.262   3.060   5.256  0.2312 -0.6939 -0.2067
 6356SOL    HW130527   3.271   3.137   5.199 -2.5574 -0.6113 -0.5315
 6356SOL    HW230528   3.280   2.988   5.196  1.2230 -0.9179  0.3676
 6357SOL     OW30529   3.753   4.394   3.358  0.5733  0.6669  0.4118
 6357SOL    HW130530   3.754   4.462   3.426 -1.2814 -2.4514  3.5574
 6357SOL    HW230531   3.769   4.324   3.421 -0.2673 -0.4789 -0.6675
 6358SOL     OW30532   2.738   4.242   3.330  0.4526 -0.1005  0.1066
 6358SOL    HW130533   2.754   4.151   3.307  0.3996 -0.4867  1.6354
 6358SOL    HW230534   2.642   4.242   3.336  0.3214  0.9388 -1.7136
 6359SOL     OW30535   4.176   4.476   9.140  0.1951  0.3644  0.7301
 6359SOL    HW130536   4.225   4.447   9.063 -3.3045 -0.1714 -1.3291
 6359SOL    HW230537   4.084   4.470   9.113  0.1840  1.1308  0.5837
 6360SOL     OW30538   0.719   0.426   5.353  0.3747 -0.1286 -0.2694
 6360SOL    HW130539   0.738   0.344   5.399 -1.4602  0.6212  1.8372
 6360SOL    HW230540   0.770   0.483   5.412  0.5324  0.1485 -0.6764
 6361SOL     OW30541   0.408   1.968   7.336 -0.0809  0.8034  0.0893
 6361SOL    HW130542   0.436   2.046   7.289 -0.1606  0.8964  0.1959
 6361SOL    HW230543   0.353   2.007   7.404  0.1721  0.4155  0.5166
 6362SOL     OW30544   1.739   4.658  10.588 -0.7534 -0.1784  0.1124
 6362SOL    HW130545   1.669   4.709  10.548 -0.5482 -0.0083 -0.0274
 6362SOL    HW230546   1.815   4.671  10.531 -1.3264  0.7221 -0.4326
 6363SOL     OW30547   0.836   3.121   5.410 -0.3346  0.0112 -0.6445
 6363SOL    HW130548   0.872   3.194   5.360 -1.9632  0.4330 -1.1977
 6363SOL    HW230549   0.865   3.145   5.498  1.0265  0.1852 -1.1410
 6364SOL     OW30550   3.345   4.111   6.211  0.2091 -0.0885  0.4933
 6364SOL    HW130551   3.400   4.170   6.160  0.7641  0.3478  1.6090
 6364SOL    HW230552   3.379   4.132   6.298  1.1291 -0.2478  0.1756
 6365SOL     OW30553   1.491   3.103   1.804  0.1304 -0.2300  0.3198
 6365SOL    HW130554   1.417   3.051   1.772 -1.8907  2.3102  0.8138
 6365SOL    HW230555   1.512   3.154   1.725  0.6224 -1.2561 -0.2032
 6366SOL     OW30556   2.991   4.078   2.269  0.2524 -0.4949 -0.3390
 6366SOL    HW130557   3.034   4.077   2.354  1.5543  1.1554 -0.9855
 6366SOL    HW230558   3.065   4.043   2.218  0.4227 -1.6395  0.6851
 6367SOL     OW30559   2.910   2.209  12.771 -0.1570 -0.1580  0.3138
 6367SOL    HW130560   2.828   2.256  12.754 -0.5130 -0.5799  0.8825
 6367SOL    HW230561   2.871   2.125  12.795 -1.1969 -0.1711 -1.4056
 6368SOL     OW30562   1.169   0.613  10.035 -0.5965 -0.1160  0.2327
 6368SOL    HW130563   1.162   0.704  10.063 -0.9613 -0.9264  2.7679
 6368SOL    HW230564   1.156   0.631   9.942  0.9503 -0.5541 -0.0691
 6369SOL     OW30565   4.449   2.595   8.998  0.1619 -0.4625  0.0539
 6369SOL    HW130566   4.507   2.638   9.061 -1.2094  0.2737  0.8091
 6369SOL    HW230567   4.359   2.605   9.028  0.5878  1.5281  0.6957
 6370SOL     OW30568   2.199   2.450   8.825  0.4667  0.2652 -0.3373
 6370SOL    HW130569   2.137   2.462   8.897  0.8573  1.9065 -0.2770
 6370SOL    HW230570   2.153   2.501   8.759  1.3084  2.4695  0.7633
 6371SOL     OW30571   2.887   1.083   8.793 -0.3762  0.1680  0.0318
 6371SOL    HW130572   2.874   1.090   8.888 -0.1295  0.7581  0.0237
 6371SOL    HW230573   2.805   1.106   8.749 -0.3608  1.8212  0.8450
 6372SOL     OW30574   0.683   0.813  11.211 -0.3834 -0.2951 -0.4366
 6372SOL    HW130575   0.663   0.858  11.129 -1.3144  0.3903  0.1656
 6372SOL    HW230576   0.643   0.873  11.275  2.1836  0.2964  0.6015
 6373SOL     OW30577   0.419   0.415   1.359 -0.1475 -0.1816 -0.5251
 6373SOL    HW130578   0.492   0.354   1.357 -2.1831 -2.7655  2.2061
 6373SOL    HW230579   0.345   0.361   1.329 -1.0793 -1.1545  3.5043
 6374SOL     OW30580   0.726   2.347   4.697 -0.3640  0.2801 -0.2088
 6374SOL    HW130581   0.704   2.273   4.753 -0.5471  0.6262  0.1703
 6374SOL    HW230582   0.787   2.307   4.634 -1.1799 -2.3552  0.6897
 6375SOL     OW30583   1.300   2.963   1.692  0.1867 -0.0115  0.0680
 6375SOL    HW130584   1.233   2.983   1.627  0.7722 -1.9840 -1.1129
 6375SOL    HW230585   1.244   2.930   1.763  0.7079 -1.4804 -0.2218
 6376SOL     OW30586   0.655   0.108  16.925  0.1805 -0.4668  0.3717
 6376SOL    HW130587   0.729   0.135  16.871 -1.5268  0.9538 -1.2755
 6376SOL    HW230588   0.617   0.194  16.947 -2.3570 -1.1242 -1.4410
 6377SOL     OW30589   3.259   4.699  16.218 -0.4682  0.4402 -0.1622
 6377SOL    HW130590   3.191   4.648  16.174 -1.0864  1.3631 -0.2986
 6377SOL    HW230591   3.268   0.046  16.155 -1.3956  0.8760  0.1798
 6378SOL     OW30592   3.062   1.100   6.897  0.1196  0.4886  0.1654
 6378SOL    HW130593   3.128   1.037   6.868 -0.9264 -0.3930 -0.2697
 6378SOL    HW230594   3.095   1.134   6.981  0.1441 -1.3092  0.8660
 6379SOL     OW30595   3.546   0.738   4.915 -0.6748 -0.2049 -0.1259
 6379SOL    HW130596   3.586   0.652   4.903  0.4812  0.3303 -0.1458
 6379SOL    HW230597   3.528   0.739   5.009  1.1035  2.2446  0.1961
 6380SOL     OW30598   0.228   4.439  16.620 -0.2148 -0.1638 -0.3173
 6380SOL    HW130599   0.170   4.464  16.693 -2.4719 -0.1139 -2.1331
 6380SOL    HW230600   0.211   4.516  16.566  0.4409 -0.3104 -0.7201
 6381SOL     OW30601   0.859   1.907   2.579 -0.0155 -0.2938  0.6470
 6381SOL    HW130602   0.854   1.981   2.519 -1.6433  0.8524  2.1939
 6381SOL    HW230603   0.948   1.927   2.609  0.5207 -0.9564 -0.5062
 6382SOL     OW30604   0.918   1.029  11.479  0.2383  0.4460  0.1669
 6382SOL    HW130605   0.920   1.063  11.390 -1.4154  1.1677  0.4008
 6382SOL    HW230606   0.822   1.031  11.488  0.2454 -0.1657  0.3334
 6383SOL     OW30607   2.940   0.104   2.994  0.3034 -0.1620 -0.2534
 6383SOL    HW130608   2.892   0.025   3.019  1.5652 -0.6596  0.5854
 6383SOL    HW230609   2.879   0.160   2.946  0.6040  2.3430  2.2384
 6384SOL     OW30610   2.617   1.368   4.456 -0.1152  0.3058  0.1525
 6384SOL    HW130611   2.672   1.400   4.528 -1.0454 -2.0669  1.9238
 6384SOL    HW230612   2.668   1.384   4.377 -0.4563 -0.6246 -0.2460
 6385SOL     OW30613   3.751   2.587   6.527  0.5517  0.1814 -0.0943
 6385SOL    HW130614   3.689   2.555   6.592 -0.1429  1.5787 -0.0626
 6385SOL    HW230615   3.756   2.675   6.565  0.9178  0.0824  0.0851
 6386SOL     OW30616   2.342   2.040  11.332 -0.0910 -0.2539 -0.5708
 6386SOL    HW130617   2.416   2.084  11.290 -0.3495  1.2877  0.6189
 6386SOL    HW230618   2.335   2.080  11.418  2.1230 -0.1755 -0.4293
 6387SOL     OW30619   1.812   2.187   8.095  0.3008  0.0283  0.7923
 6387SOL    HW130620   1.812   2.093   8.076  0.2621  0.4545 -1.3703
 6387SOL    HW230621   1.905   2.189   8.117  0.7510  2.7015 -1.3399
 6388SOL     OW30622   3.711   3.481   1.683  0.2225  0.6947  0.6541
 6388SOL    HW130623   3.774   3.505   1.751  0.7313 -0.8922  0.7464
 6388SOL    HW230624   3.691   3.567   1.646  2.4331  2.2340  3.0825
 6389SOL     OW30625   2.646   3.049  17.516 -0.5120 -0.3054  0.3156
 6389SOL    HW130626   2.589   3.102  17.572  0.2983  1.0646 -0.1809
 6389SOL    HW230627   2.690   2.992  17.579  0.3890 -1.0218 -0.9416
 6390SOL     OW30628   1.435   1.905   5.708 -0.1131  0.0435 -1.2846
 6390SOL    HW130629   1.346   1.894   5.673 -1.1971  0.6326  1.3156
 6390SOL    HW230630   1.408   1.945   5.791  3.9617  1.9932 -0.8875
 6391SOL     OW30631   2.253   1.476   6.225  0.3281 -0.5382 -0.1688
 6391SOL    HW130632   2.274   1.474   6.131 -2.0740 -1.8691 -0.6736
 6391SOL    HW230633   2.340   1.470   6.264  0.1984 -0.9658  0.0457
 6392SOL     OW30634   2.648   1.986   5.057  0.1782  0.2735  0.5585
 6392SOL    HW130635   2.587   1.919   5.025 -0.4913  0.5073  1.3178
 6392SOL    HW230636   2.731   1.940   5.057  0.1636  0.2513 -0.4943
 6393SOL     OW30637   1.428   1.396   5.741  0.0527 -0.6793  0.2431
 6393SOL    HW130638   1.431   1.349   5.658  4.0516  0.5858 -0.3305
 6393SOL    HW230639   1.338   1.427   5.733  0.4084  1.0147  2.6323
 6394SOL     OW30640   1.757   2.093   5.892 -0.3531  0.1983  0.1403
 6394SOL    HW130641   1.735   2.043   5.971  1.1756  4.6282  3.3212
 6394SOL    HW230642   1.758   2.185   5.917 -2.4571  0.1816  0.2543
 6395SOL     OW30643   0.106   3.509  13.518 -0.4783 -0.9523 -0.2760
 6395SOL    HW130644   0.156   3.542  13.592  0.4536 -0.8030 -0.9786
 6395SOL    HW230645   0.040   3.463  13.570 -0.2263  1.5899  2.2837
 6396SOL     OW30646   0.632   1.108   6.614 -0.1544  0.4856 -0.0054
 6396SOL    HW130647   0.555   1.071   6.656 -0.6084 -0.2880 -1.5020
 6396SOL    HW230648   0.600   1.196   6.594 -0.4506  0.1357 -1.0688
 6397SOL     OW30649   1.370   0.869   4.916  0.5245 -0.5600  0.0976
 6397SOL    HW130650   1.423   0.874   4.836 -0.6862 -0.8269 -0.7300
 6397SOL    HW230651   1.293   0.909   4.876  0.9571 -1.1316 -1.3238
 6398SOL     OW30652   2.412   4.410   6.175  0.1730  0.9393  0.1816
 6398SOL    HW130653   2.418   4.461   6.256  0.9251  2.5870 -0.9003
 6398SOL    HW230654   2.445   4.330   6.214  1.2196  1.7479  0.9731
 6399SOL     OW30655   2.665   1.202   9.616 -0.3397 -0.2020  0.0790
 6399SOL    HW130656   2.716   1.247   9.549 -0.0817  1.7169  1.5577
 6399SOL    HW230657   2.697   1.223   9.704  1.6402  0.3499 -0.7844
 6400SOL     OW30658   3.446   0.960  12.971 -0.3059 -0.0792  0.1112
 6400SOL    HW130659   3.448   0.969  13.066 -0.6196 -0.2249  0.1303
 6400SOL    HW230660   3.404   0.875  12.962 -1.2792  0.4381 -0.3265
 6401SOL     OW30661   4.172   3.659   1.517 -0.7116 -0.0161 -0.0941
 6401SOL    HW130662   4.183   3.727   1.583 -1.0953  1.0640 -1.1478
 6401SOL    HW230663   4.170   3.576   1.564  0.1033  1.3000  2.2712
 6402SOL     OW30664   2.206   4.465   4.555  0.2825  0.3768 -0.2771
 6402SOL    HW130665   2.205   4.502   4.467  0.2326  1.1333  0.0407
 6402SOL    HW230666   2.125   4.493   4.597  1.3204 -0.3029  2.1379
 6403SOL     OW30667   3.057   4.503   7.141 -0.1416  0.1556 -0.8367
 6403SOL    HW130668   3.094   4.549   7.065 -3.8286 -0.1701 -2.8139
 6403SOL    HW230669   3.005   4.434   7.101  0.3879 -0.2210 -0.8732
 6404SOL     OW30670   0.185   1.870   3.072 -0.1119  0.3030  0.6180
 6404SOL    HW130671   0.239   1.935   3.027 -0.3422 -2.4687 -3.7301
 6404SOL    HW230672   0.252   1.807   3.096 -1.2270 -0.2022  2.3909
 6405SOL     OW30673   0.769   4.347   4.498  0.1350  0.1094 -0.4956
 6405SOL    HW130674   0.769   4.267   4.445  1.8525  1.9423 -3.2351
 6405SOL    HW230675   0.833   4.315   4.563 -1.9059 -1.1248  0.8968
 6406SOL     OW30676   0.292   0.107   2.514  0.6149 -0.1003 -0.4923
 6406SOL    HW130677   0.238   0.047   2.565  0.3033 -1.1595 -2.0611
 6406SOL    HW230678   0.257   0.090   2.426 -0.8941 -0.2314  0.1327
 6407SOL     OW30679   3.235   4.277   1.994 -0.1647  0.4148 -0.3521
 6407SOL    HW130680   3.166   4.225   1.955  1.9380 -2.0965 -0.7028
 6407SOL    HW230681   3.317   4.242   1.958  1.2005  1.5072  1.6184
 6408SOL     OW30682   3.209   4.683  12.205  1.1691  0.5361  0.2044
 6408SOL    HW130683   3.203   0.053  12.222  1.0526  0.4273  0.7811
 6408SOL    HW230684   3.276   4.658  12.268  2.9117  1.7683 -1.1716
 6409SOL     OW30685   2.803   1.300   9.403  0.3094 -0.1320  0.3792
 6409SOL    HW130686   2.812   1.389   9.437 -0.2908  0.5150 -1.1531
 6409SOL    HW230687   2.783   1.315   9.311  2.7792  2.1571  0.2034
 6410SOL     OW30688   0.995   1.613   6.969  0.4270  0.0584 -0.3612
 6410SOL    HW130689   1.051   1.590   6.896  1.3006  1.1525 -0.0373
 6410SOL    HW230690   0.947   1.532   6.988  0.8761 -0.1314 -0.0137
 6411SOL     OW30691   4.620   0.192   7.581 -0.6670  0.4036 -0.2531
 6411SOL    HW130692   4.710   0.191   7.614 -1.1494  0.5896  1.0622
 6411SOL    HW230693   4.609   0.109   7.534 -1.0030 -0.2703  1.0149
 6412SOL     OW30694   1.354   1.387   2.387 -0.5659 -0.5150 -0.2862
 6412SOL    HW130695   1.298   1.390   2.309  0.4299  2.7289 -0.8868
 6412SOL    HW230696   1.287   1.409   2.452 -0.5362 -1.3058  0.0054
 6413SOL     OW30697   3.071   2.783   4.276 -0.5336  0.2069  0.1274
 6413SOL    HW130698   3.124   2.762   4.199 -0.1843  0.5369  0.2744
 6413SOL    HW230699   3.090   2.703   4.325  0.2071  0.4123  0.1876
 6414SOL     OW30700   0.654   3.725   8.335  0.2348  0.0261 -0.3034
 6414SOL    HW130701   0.565   3.704   8.363  0.7132 -1.2977  0.2385
 6414SOL    HW230702   0.647   3.820   8.335  2.2712  0.1907 -0.4415
 6415SOL     OW30703   3.821   1.682   2.493 -0.2232 -0.3005  0.1962
 6415SOL    HW130704   3.865   1.597   2.499 -1.9334 -1.0126  2.6853
 6415SOL    HW230705   3.731   1.669   2.521 -0.6340  1.2557 -0.3976
 6416SOL     OW30706   4.300   2.003   0.126 -0.3718 -0.1854 -0.5867
 6416SOL    HW130707   4.353   1.953   0.189  0.5181  1.0032 -0.3818
 6416SOL    HW230708   4.227   2.034   0.179 -0.7071  0.1570 -1.2540
 6417SOL     OW30709   0.364   3.272   4.060 -0.3237  0.2652  0.6534
 6417SOL    HW130710   0.451   3.253   4.093 -0.5151  0.2909  1.1826
 6417SOL    HW230711   0.344   3.352   4.109 -2.2652  0.4180 -0.3665
 6418SOL     OW30712   3.379   0.514   7.227 -0.0820  0.2920  0.5902
 6418SOL    HW130713   3.368   0.464   7.308  1.3836  0.1023  0.6707
 6418SOL    HW230714   3.461   0.555   7.254 -1.3910  2.3144  1.5058
 6419SOL     OW30715   0.869   4.006   8.645  0.0078 -0.1876  0.2011
 6419SOL    HW130716   0.882   3.913   8.628 -1.3020 -0.2614 -0.3707
 6419SOL    HW230717   0.874   4.032   8.553 -1.8994  0.5059  0.2950
 6420SOL     OW30718   2.691   4.511   3.284  0.7799  0.9277 -0.0892
 6420SOL    HW130719   2.602   4.502   3.318  0.5176 -0.0106 -1.0306
 6420SOL    HW230720   2.725   4.430   3.320 -0.4270  1.0936  1.4140
 6421SOL     OW30721   0.187   1.571   5.570 -0.8634 -0.0172  0.3259
 6421SOL    HW130722   0.228   1.654   5.598  0.3519 -1.6634  3.4616
 6421SOL    HW230723   0.133   1.564   5.649 -1.9919 -1.5343 -0.6030
 6422SOL     OW30724   1.263   0.028   7.323  0.2087 -0.2696  0.5798
 6422SOL    HW130725   1.267   0.011   7.417 -0.3739  0.2435  0.6938
 6422SOL    HW230726   1.235   0.120   7.315 -0.5397 -0.7680 -2.6145
 6423SOL     OW30727   0.302   0.199   4.608  0.3343 -0.3268 -0.2663
 6423SOL    HW130728   0.252   0.260   4.661  3.1919  0.2874  1.7789
 6423SOL    HW230729   0.388   0.205   4.651 -1.0542  2.4341  2.1400
 6424SOL     OW30730   3.728   1.333   6.457  0.2075 -0.5381 -0.1206
 6424SOL    HW130731   3.824   1.330   6.456  0.2620  0.9658  1.2925
 6424SOL    HW230732   3.716   1.263   6.521 -0.1371  2.2606  2.8460
 6425SOL     OW30733   2.700   4.075   8.717  0.8839 -0.3671  0.5307
 6425SOL    HW130734   2.732   4.147   8.663 -0.9170 -0.0363 -0.0976
 6425SOL    HW230735   2.681   3.996   8.667 -0.6813  2.3468 -3.1283
 6426SOL     OW30736   1.771   0.474   8.688 -0.2109  0.0403  0.6581
 6426SOL    HW130737   1.848   0.525   8.715  0.5987 -0.7365 -0.1849
 6426SOL    HW230738   1.705   0.514   8.745 -0.8403  0.2883 -0.2532
 6427SOL     OW30739   1.233   4.679   1.359  0.2033  0.2693  0.5071
 6427SOL    HW130740   1.259   4.637   1.277  1.8448 -0.3377  1.3211
 6427SOL    HW230741   1.139   4.692   1.356  0.3392  0.7392 -1.2584
 6428SOL     OW30742   3.470   1.685  14.540  0.0321  0.1190  0.0543
 6428SOL    HW130743   3.526   1.609  14.525 -0.0712  0.3454 -1.5225
 6428SOL    HW230744   3.399   1.663  14.479 -0.3540  0.0125  0.5450
 6429SOL     OW30745   0.439   3.316   5.016  0.9021 -0.4858  0.1073
 6429SOL    HW130746   0.351   3.296   4.985 -0.2893  0.4846  2.9254
 6429SOL    HW230747   0.488   3.340   4.937  1.7060  0.9892  1.0463
 6430SOL     OW30748   1.161   4.670  16.368 -0.1948 -0.2381  0.5392
 6430SOL    HW130749   1.232   4.615  16.402  0.4078  0.4165  0.3352
 6430SOL    HW230750   1.188   4.669  16.276  0.4449  2.1448  0.7120
 6431SOL     OW30751   3.999   4.196   3.318  0.1418  0.1439  0.0930
 6431SOL    HW130752   4.008   4.247   3.237  1.1637 -0.1175  0.0437
 6431SOL    HW230753   4.027   4.109   3.289 -1.9931 -0.1577 -1.0629
 6432SOL     OW30754   3.490   2.147   2.771  0.0080 -0.1027 -0.1917
 6432SOL    HW130755   3.429   2.074   2.760 -0.1594  0.2081 -1.3546
 6432SOL    HW230756   3.438   2.212   2.820  1.3394  0.3347  0.6341
 6433SOL     OW30757   0.008   4.315   0.476  0.0872 -0.0432 -0.1331
 6433SOL    HW130758   4.640   4.340   0.478  0.2283  0.4043  0.6288
 6433SOL    HW230759   0.002   4.220   0.469 -0.1569 -0.0042 -0.4719
 6434SOL     OW30760   1.394   1.460  10.432  0.1276  0.2632  0.4531
 6434SOL    HW130761   1.392   1.544  10.385  2.0222 -0.9919 -1.9031
 6434SOL    HW230762   1.397   1.488  10.523  0.2228  1.0879  0.2019
 6435SOL     OW30763   1.456   4.186   8.815  0.1294 -0.2519  0.4043
 6435SOL    HW130764   1.380   4.129   8.821 -0.6260  0.4273 -2.5066
 6435SOL    HW230765   1.494   4.173   8.902  1.3815 -1.4811 -0.3182
 6436SOL     OW30766   0.089   1.929   5.095 -0.0271 -0.8803  0.4703
 6436SOL    HW130767   0.066   1.973   5.177 -1.3251  0.6657 -0.7233
 6436SOL    HW230768   0.034   1.967   5.027  2.2969  1.4696 -0.0897
 6437SOL     OW30769   3.865   0.417  14.514 -0.7415  0.1410  0.2599
 6437SOL    HW130770   3.880   0.510  14.495 -0.1089 -0.3297 -1.6246
 6437SOL    HW230771   3.884   0.386  14.425 -0.7797 -1.3740  0.7780
 6438SOL     OW30772   0.185   2.721   7.741  0.0802  0.2940  0.1508
 6438SOL    HW130773   0.139   2.726   7.657  0.0732  0.1117  0.1448
 6438SOL    HW230774   0.148   2.792   7.793  0.8001  0.7284  0.0765
 6439SOL     OW30775   3.018   3.027   0.477  0.7456 -0.2214 -0.5692
 6439SOL    HW130776   2.935   3.063   0.507  0.9243  1.3974 -2.0079
 6439SOL    HW230777   3.032   3.063   0.389 -2.3914  1.1525 -0.5017
 6440SOL     OW30778   1.947   2.675   9.086  0.0473  0.2276 -0.3168
 6440SOL    HW130779   1.887   2.679   9.161 -2.0180 -0.6464 -1.9241
 6440SOL    HW230780   2.010   2.741   9.113  3.7756 -2.7864 -1.6718
 6441SOL     OW30781   4.623   1.816  14.973 -0.2924  0.7366 -0.2197
 6441SOL    HW130782   4.682   1.849  15.040 -2.0745  2.1729  0.6478
 6441SOL    HW230783   4.606   1.900  14.929  3.0298  0.0388 -2.8343
 6442SOL     OW30784   3.546   4.102  17.202 -0.5163  0.0615  0.3116
 6442SOL    HW130785   3.559   4.009  17.189  2.2338  0.3251  1.1842
 6442SOL    HW230786   3.511   4.112  17.291 -0.2256 -2.6187  0.7091
 6443SOL     OW30787   4.161   1.518   5.081  0.6985  0.1910 -0.0973
 6443SOL    HW130788   4.143   1.585   5.148 -1.4161 -3.3499  2.8291
 6443SOL    HW230789   4.247   1.550   5.054  1.3268 -0.1765  1.4811
 6444SOL     OW30790   0.196   3.638   2.097  0.4618  0.5817  0.4648
 6444SOL    HW130791   0.230   3.563   2.145  1.6081  0.8641  0.1051
 6444SOL    HW230792   0.183   3.606   2.008 -1.0705  1.5886  0.3262
 6445SOL     OW30793   3.935   3.754   4.926  0.0203  0.6597  0.8046
 6445SOL    HW130794   3.896   3.786   5.007 -1.2578  1.8721 -0.2883
 6445SOL    HW230795   3.991   3.828   4.902 -1.6158  2.0347  1.2229
 6446SOL     OW30796   4.676   3.489   9.010 -0.5456  0.1857  0.4451
 6446SOL    HW130797   4.601   3.516   8.958 -0.9144 -3.1054 -0.7179
 6446SOL    HW230798   4.677   3.395   8.989  0.8732 -0.0956  1.7731
 6447SOL     OW30799   1.884   4.693   7.499  0.2155  0.2654  0.0283
 6447SOL    HW130800   1.815   4.681   7.434  1.5167 -2.3577 -0.8644
 6447SOL    HW230801   1.834   0.022   7.562 -0.9828 -0.4239 -0.3453
 6448SOL     OW30802   0.442   0.181   8.648 -0.3667 -0.2588 -0.0603
 6448SOL    HW130803   0.518   0.176   8.705 -0.1946  0.7570 -0.2013
 6448SOL    HW230804   0.479   0.232   8.576 -0.4633 -0.4131 -0.2202
 6449SOL     OW30805   1.511   3.631   3.749 -0.4320  0.1810  0.0346
 6449SOL    HW130806   1.586   3.637   3.808 -0.6213 -0.8887  0.3766
 6449SOL    HW230807   1.444   3.650   3.815 -0.9478 -0.6499 -0.2490
 6450SOL     OW30808   1.737   1.786   6.677  0.0726 -0.7155 -0.1988
 6450SOL    HW130809   1.769   1.739   6.599 -0.5698 -0.8592 -0.3766
 6450SOL    HW230810   1.700   1.861   6.631 -0.7790  0.8235  3.0611
 6451SOL     OW30811   2.184   1.008  13.344 -0.0776 -0.0138  0.0807
 6451SOL    HW130812   2.152   1.093  13.313  0.5661  0.4892  0.7972
 6451SOL    HW230813   2.275   1.007  13.316  0.2384  4.3011  1.0139
 6452SOL     OW30814   2.085   1.309   5.974  0.1544  0.2371 -0.3362
 6452SOL    HW130815   2.143   1.375   6.012 -0.5462  0.5616  0.1595
 6452SOL    HW230816   2.018   1.362   5.931 -0.2143 -0.1124 -0.2015
 6453SOL     OW30817   0.728   4.571  10.541  0.1439  0.4566  0.3003
 6453SOL    HW130818   0.766   4.659  10.540 -3.2666  1.8611 -3.1625
 6453SOL    HW230819   0.637   4.587  10.568  0.2860  0.9232  0.5010
 6454SOL     OW30820   4.275   3.448  13.993  0.1007  0.2137  0.7492
 6454SOL    HW130821   4.286   3.541  13.975  0.0910  0.1215  0.2701
 6454SOL    HW230822   4.358   3.407  13.969 -0.9741 -0.6557 -1.4613
 6455SOL     OW30823   1.500   0.233   5.059  0.3300 -0.1402  0.2229
 6455SOL    HW130824   1.588   0.264   5.081  0.2134 -0.4758  1.1685
 6455SOL    HW230825   1.505   0.137   5.062 -0.1372 -0.0419  3.4093
 6456SOL     OW30826   0.081   2.890   3.593  0.2443 -0.1815  0.4420
 6456SOL    HW130827   0.135   2.813   3.611  1.0870 -0.1440 -1.9137
 6456SOL    HW230828   0.058   2.922   3.680  1.2368  1.1896  0.2163
 6457SOL     OW30829   3.987   1.359  15.440  0.5904  0.0175 -0.1613
 6457SOL    HW130830   3.993   1.393  15.351 -0.3065  1.6305  0.3861
 6457SOL    HW230831   3.893   1.371  15.455  0.4650 -0.4022 -0.6250
 6458SOL     OW30832   3.582   3.600   1.475 -0.0368 -0.3000 -0.3313
 6458SOL    HW130833   3.634   3.553   1.410 -0.3290  1.5811 -1.9117
 6458SOL    HW230834   3.495   3.560   1.464 -0.3474  0.4091 -0.4214
 6459SOL     OW30835   4.688   2.498   5.245  0.2440 -0.4847  0.8568
 6459SOL    HW130836   4.613   2.533   5.292  1.1799 -0.8918  2.6696
 6459SOL    HW230837   0.004   2.442   5.311 -2.1395 -0.6783  2.1301
 6460SOL     OW30838   3.646   3.509   5.093 -0.2775  0.4483 -0.4087
 6460SOL    HW130839   3.725   3.458   5.075 -0.5933  0.0670 -0.7128
 6460SOL    HW230840   3.578   3.441   5.092  0.8389 -0.6717 -0.0046
 6461SOL     OW30841   2.195   4.640   9.829  0.4890 -0.2937  0.0274
 6461SOL    HW130842   2.207   4.646   9.734  0.8211  3.7056  0.3424
 6461SOL    HW230843   2.177   0.005   9.859  1.1670  0.1284 -0.8475
 6462SOL     OW30844   0.863   4.337   7.676 -0.2694  0.4213  0.2838
 6462SOL    HW130845   0.801   4.375   7.739 -1.7386 -1.1050 -0.2747
 6462SOL    HW230846   0.869   4.407   7.611 -0.5184  0.1228 -0.0529
 6463SOL     OW30847   3.946   3.870  17.572  0.2971 -0.2497 -0.0811
 6463SOL    HW130848   3.972   3.818  17.496  2.0757  1.2095 -0.4585
 6463SOL    HW230849   4.033   3.890  17.607  0.5541  0.0198 -0.8861
 6464SOL     OW30850   4.234   4.398   7.461 -0.1766  0.1799 -0.0049
 6464SOL    HW130851   4.326   4.385   7.485  0.2330 -1.9250 -2.7437
 6464SOL    HW230852   4.232   4.325   7.400 -0.7771 -0.0932  0.3477
 6465SOL     OW30853   2.147   4.375   6.753  0.1825  0.2881 -0.1105
 6465SOL    HW130854   2.215   4.337   6.698 -0.4062  1.0203 -1.3451
 6465SOL    HW230855   2.143   4.468   6.730 -1.5409  0.4732  0.9099
 6466SOL     OW30856   0.521   1.371   6.624 -0.1149  0.6326  0.0095
 6466SOL    HW130857   0.587   1.392   6.691  0.9141 -0.6973 -0.6087
 6466SOL    HW230858   0.490   1.458   6.599  1.1597  1.1292  0.1342
 6467SOL     OW30859   2.384   0.609   7.562  0.1813 -0.3007  0.0138
 6467SOL    HW130860   2.384   0.702   7.540  1.7789 -0.6126 -1.3375
 6467SOL    HW230861   2.379   0.566   7.477 -0.8302 -0.2452  0.0479
 6468SOL     OW30862   4.686   4.495  13.773  0.1392  0.0741 -0.3787
 6468SOL    HW130863   4.637   4.491  13.855 -1.9256  1.9027 -1.5376
 6468SOL    HW230864   4.645   4.429  13.716  1.9264 -1.7290  0.4143
 6469SOL     OW30865   3.572   2.128   0.365 -0.4184  0.0036 -0.0524
 6469SOL    HW130866   3.582   2.194   0.433 -0.7373 -0.0447  0.0422
 6469SOL    HW230867   3.632   2.064   0.403 -2.1503 -0.9997  0.9525
 6470SOL     OW30868   0.430   0.179   3.366 -0.3573 -0.0786  0.1287
 6470SOL    HW130869   0.475   0.108   3.320 -0.2228  0.9162 -1.2356
 6470SOL    HW230870   0.393   0.222   3.289 -0.5002 -0.3152  0.0637
 6471SOL     OW30871   3.213   2.195   7.762  0.3437 -0.2636 -0.4430
 6471SOL    HW130872   3.253   2.150   7.688 -0.4323  1.6694 -2.0255
 6471SOL    HW230873   3.294   2.194   7.813 -1.0690  0.5363  1.8175
 6472SOL     OW30874   2.043   4.278  13.462  0.0934 -0.0346  0.1581
 6472SOL    HW130875   2.039   4.306  13.371  1.2293 -0.9760 -0.1769
 6472SOL    HW230876   2.138   4.280  13.474 -0.1005  0.1267  1.6218
 6473SOL     OW30877   3.828   1.241   7.409  0.0457  0.9776  0.0352
 6473SOL    HW130878   3.761   1.222   7.474  0.4053 -0.2139  0.0675
 6473SOL    HW230879   3.908   1.258   7.459  0.9708  0.7650 -1.3713
 6474SOL     OW30880   1.742   3.182  16.385 -0.2469  0.1441  0.7700
 6474SOL    HW130881   1.775   3.256  16.437 -0.1854  1.2770 -0.8618
 6474SOL    HW230882   1.694   3.227  16.315  0.2652 -0.7096 -0.1189
 6475SOL     OW30883   3.647   1.540  13.829  0.1442 -0.5502 -0.1240
 6475SOL    HW130884   3.730   1.546  13.782 -0.6025 -1.1143 -1.5170
 6475SOL    HW230885   3.662   1.584  13.912  0.3125  1.3824 -1.1684
 6476SOL     OW30886   2.455   2.300  11.271 -0.1468 -0.2580  0.4766
 6476SOL    HW130887   2.453   2.262  11.183 -0.4215  1.4810 -0.2702
 6476SOL    HW230888   2.478   2.390  11.245 -0.4479 -0.3129  0.0251
 6477SOL     OW30889   3.686   0.273   7.268  0.3293  0.3530  0.2732
 6477SOL    HW130890   3.702   0.295   7.359  2.0504  1.9765 -0.4028
 6477SOL    HW230891   3.762   0.306   7.219 -1.0999 -0.2585 -2.3330
 6478SOL     OW30892   3.215   2.312   8.500 -0.1154 -0.5993 -0.1382
 6478SOL    HW130893   3.181   2.251   8.435  0.3126 -1.4869  0.4659
 6478SOL    HW230894   3.156   2.295   8.574  0.7889  1.3843  1.0251
 6479SOL     OW30895   2.432   1.042  16.186  0.1857 -0.2879  0.0177
 6479SOL    HW130896   2.512   1.059  16.137 -0.4798  0.6637 -0.7398
 6479SOL    HW230897   2.441   0.958  16.232 -1.3944 -1.6867 -2.2207
 6480SOL     OW30898   1.687   2.222   6.933 -0.3951  0.2232  0.4615
 6480SOL    HW130899   1.757   2.277   6.899  1.1351 -0.7256  2.0414
 6480SOL    HW230900   1.662   2.269   7.012  0.5961  0.3159  0.7189
 6481SOL     OW30901   2.027   1.053   8.215 -0.4955 -0.7375  0.2241
 6481SOL    HW130902   2.102   1.095   8.171  0.6900 -2.5935  0.4722
 6481SOL    HW230903   1.987   1.120   8.270 -1.9920 -1.0298 -0.5107
 6482SOL     OW30904   2.355   0.814   8.865  0.0289  0.4428  0.3659
 6482SOL    HW130905   2.448   0.791   8.867  0.0697  0.5570 -0.3237
 6482SOL    HW230906   2.330   0.807   8.957  0.6308 -1.3446  0.4055
 6483SOL     OW30907   1.483   0.510  14.252  0.0011 -0.6565 -0.2494
 6483SOL    HW130908   1.467   0.574  14.321 -0.2723 -1.5037  0.4794
 6483SOL    HW230909   1.579   0.506  14.252 -0.0137 -1.0550 -0.5200
 6484SOL     OW30910   0.482   2.178   1.458  0.2254 -0.0542 -0.3472
 6484SOL    HW130911   0.405   2.168   1.402  1.0071 -0.9312 -1.2778
 6484SOL    HW230912   0.525   2.237   1.396  0.1282  1.1565  0.7260
 6485SOL     OW30913   1.942   3.104   2.288 -0.5100  0.3925 -0.3154
 6485SOL    HW130914   1.984   3.047   2.352 -0.3218  0.0046 -0.7883
 6485SOL    HW230915   1.911   3.182   2.336 -0.8230  1.4866 -2.3003
 6486SOL     OW30916   1.969   0.622  15.318 -0.2131 -0.7336  0.4317
 6486SOL    HW130917   2.011   0.637  15.403  0.9479 -0.1452 -0.2492
 6486SOL    HW230918   1.949   0.528  15.319  0.0858 -0.8145 -1.0759
 6487SOL     OW30919   1.112   2.436   4.215  0.7623  0.0207  0.1756
 6487SOL    HW130920   1.090   2.442   4.122 -0.3665 -0.0032  0.4446
 6487SOL    HW230921   1.081   2.350   4.241 -0.2876  0.6666  1.0699
 6488SOL     OW30922   3.556   0.980   2.203  0.0281 -0.2695  0.4947
 6488SOL    HW130923   3.525   0.948   2.118  2.8268 -3.6874  0.7397
 6488SOL    HW230924   3.482   1.035   2.229  1.6885  0.8819  2.7311
 6489SOL     OW30925   4.617   0.283   4.955 -0.1218  0.2287 -0.4436
 6489SOL    HW130926   4.599   0.297   5.047  1.5475 -4.6774  0.6303
 6489SOL    HW230927   4.533   0.242   4.935 -0.4027  1.2237 -1.3060
 6490SOL     OW30928   2.551   0.031   1.549 -0.4428  0.4252 -0.2733
 6490SOL    HW130929   2.463   0.069   1.552 -1.1313 -1.2404  0.4049
 6490SOL    HW230930   2.557   0.002   1.458  1.7663 -1.1098  0.3714
 6491SOL     OW30931   3.216   3.921   0.750  0.0419  1.0460  0.2901
 6491SOL    HW130932   3.303   3.921   0.790 -0.5927 -1.3066  1.6489
 6491SOL    HW230933   3.224   3.981   0.677 -1.0114 -1.0054 -1.5236
 6492SOL     OW30934   1.235   4.557   6.107 -0.1596  0.1718 -0.7142
 6492SOL    HW130935   1.260   4.486   6.166 -1.0077  0.6374  0.2214
 6492SOL    HW230936   1.265   4.517   6.026 -0.3320 -1.0466 -0.1725
 6493SOL     OW30937   4.673   0.998   2.504  0.0712  0.1062  0.5299
 6493SOL    HW130938   4.655   1.038   2.589  2.1463 -0.6833  1.3315
 6493SOL    HW230939   4.618   1.051   2.446  0.9442  0.5594  0.1097
 6494SOL     OW30940   4.673   1.939  14.656 -0.0565 -0.5498  0.0395
 6494SOL    HW130941   4.722   1.869  14.614  0.0015 -0.2858 -0.3249
 6494SOL    HW230942   4.712   2.017  14.616  0.5841  0.2368  2.1731
 6495SOL     OW30943   4.015   3.226   3.303  0.0502 -0.5490  0.0469
 6495SOL    HW130944   4.029   3.311   3.262  2.1046 -0.6589  0.4857
 6495SOL    HW230945   3.935   3.191   3.264 -0.9974  2.2398 -0.3325
 6496SOL     OW30946   3.249   3.641   9.100 -0.0940  0.1998 -0.1579
 6496SOL    HW130947   3.258   3.571   9.035  1.2697  0.6044 -0.4078
 6496SOL    HW230948   3.286   3.599   9.178  1.1929  2.1593  0.2883
 6497SOL     OW30949   4.307   3.036  16.211 -0.3550 -0.6475 -0.2340
 6497SOL    HW130950   4.350   3.118  16.186 -0.9957 -0.0882  0.5319
 6497SOL    HW230951   4.320   3.036  16.305  1.6490  0.0158 -0.4978
 6498SOL     OW30952   2.641   2.916  15.493  0.2141 -0.1726 -0.2177
 6498SOL    HW130953   2.587   2.967  15.552  1.8969  2.1134 -0.6579
 6498SOL    HW230954   2.604   2.830  15.515  0.7447  0.0567  1.5751
 6499SOL     OW30955   4.253   4.083   6.929  0.0083 -0.8605  0.4934
 6499SOL    HW130956   4.334   4.117   6.968 -0.4730  0.5757  0.2487
 6499SOL    HW230957   4.281   4.064   6.840  1.3236  0.0942  0.6866
 6500SOL     OW30958   4.649   4.708  14.635 -0.0305 -0.3291  0.4105
 6500SOL    HW130959   4.569   4.670  14.599 -0.4312  0.1474  0.8128
 6500SOL    HW230960   4.693   4.626  14.661 -2.2822 -0.9093  2.3621
 6501SOL     OW30961   4.456   1.800   4.475 -0.0598  0.6363  0.2532
 6501SOL    HW130962   4.519   1.818   4.405  1.1218 -0.6195  1.0100
 6501SOL    HW230963   4.449   1.881   4.526  2.0742  0.9573  0.0322
 6502SOL     OW30964   2.563   4.130   1.100  0.3726  0.5789  0.6357
 6502SOL    HW130965   2.578   4.221   1.074  3.0952 -0.2568 -0.7032
 6502SOL    HW230966   2.553   4.142   1.195  0.4499 -0.5628  0.7806
 6503SOL     OW30967   3.602   3.390   7.082 -0.1559  0.4495 -0.9047
 6503SOL    HW130968   3.509   3.408   7.097 -1.0419 -3.4161 -1.5082
 6503SOL    HW230969   3.615   3.353   7.169 -0.3552 -0.3054 -1.1896
 6504SOL     OW30970   0.258   2.260   2.370 -0.8368  0.5338 -0.5114
 6504SOL    HW130971   0.193   2.211   2.422  0.4484  0.5520  1.1094
 6504SOL    HW230972   0.199   2.322   2.327  0.9330 -0.1873 -3.9221
 6505SOL     OW30973   0.355   0.010   6.799  0.2394  0.3415 -0.3373
 6505SOL    HW130974   0.417   0.015   6.727  1.3957  0.6844  0.6785
 6505SOL    HW230975   0.359   4.646   6.836 -0.9981  1.0694  1.5453
 6506SOL     OW30976   0.032   0.669   9.819 -0.6116 -0.4222 -0.3818
 6506SOL    HW130977   0.012   0.752   9.775  0.5343  0.2621  0.3838
 6506SOL    HW230978   4.673   0.657   9.864 -1.0570  0.4078 -0.9820
 6507SOL     OW30979   3.712   0.636   5.354  0.2555  0.0384  0.0932
 6507SOL    HW130980   3.667   0.626   5.438 -0.2449  1.3867 -0.0226
 6507SOL    HW230981   3.639   0.646   5.292  0.2785  0.2639  0.1030
 6508SOL     OW30982   1.904   1.031   9.254  0.2893  1.0553  0.1233
 6508SOL    HW130983   1.980   1.065   9.207  1.4355 -1.3115  0.2570
 6508SOL    HW230984   1.904   1.090   9.329  2.0232  1.8207 -0.4668
 6509SOL     OW30985   2.905   2.031   6.990  0.3962  0.3263  0.1681
 6509SOL    HW130986   2.904   2.125   6.973 -1.2955  0.6210  1.8943
 6509SOL    HW230987   2.942   2.038   7.078 -2.3866 -0.5627  1.4049
 6510SOL     OW30988   0.517   4.577  16.567 -0.3136 -0.0592  0.1384
 6510SOL    HW130989   0.483   4.658  16.606  1.0512  0.3544  0.4658
 6510SOL    HW230990   0.609   4.596  16.584 -0.6900  0.1015  2.0228
 6511SOL     OW30991   4.592   1.111   8.638  0.0169  0.4583 -0.7714
 6511SOL    HW130992   4.588   1.060   8.557  5.2828 -1.7224  0.3704
 6511SOL    HW230993   4.601   1.052   8.713  0.2233 -0.1831 -1.2986
 6512SOL     OW30994   3.490   0.427   6.257  0.0819 -0.2713  0.1093
 6512SOL    HW130995   3.577   0.399   6.229  0.3440  2.2806 -1.6798
 6512SOL    HW230996   3.433   0.356   6.230 -0.4664  0.1909  0.0462
 6513SOL     OW30997   1.114   1.090   8.769  0.0284  0.8181 -0.0669
 6513SOL    HW130998   1.085   1.114   8.857  3.1578  1.3447  0.8246
 6513SOL    HW230999   1.157   1.171   8.742  1.1826  0.2320  0.0211
 6514SOL     OW31000   1.342   4.384  11.713 -0.1233 -0.4504 -0.8503
 6514SOL    HW131001   1.313   4.436  11.788 -0.1428 -0.8757 -0.5630
 6514SOL    HW231002   1.436   4.386  11.730 -0.5743  0.2090  1.5284
 6515SOL     OW31003   2.808   3.536   4.403 -0.3231  0.4179 -0.4886
 6515SOL    HW131004   2.715   3.528   4.426  0.0565  2.0671  1.6716
 6515SOL    HW231005   2.797   3.502   4.314  0.5741  0.9335 -0.7933
 6516SOL     OW31006   0.561   2.194   9.481  0.4222  0.1268  0.1438
 6516SOL    HW131007   0.570   2.119   9.422  1.1044  0.7862 -0.5978
 6516SOL    HW231008   0.622   2.253   9.436  0.9850  0.2463  1.0535
 6517SOL     OW31009   1.148   0.504   1.260 -0.1133  0.2968  0.3267
 6517SOL    HW131010   1.233   0.489   1.301  1.5684  1.9527 -2.5759
 6517SOL    HW231011   1.143   0.597   1.282  2.2267 -0.2777  3.2481
 6518SOL     OW31012   2.571   4.452   4.318  0.2542 -0.7101  0.1678
 6518SOL    HW131013   2.536   4.500   4.393 -0.4673  0.4485 -0.9249
 6518SOL    HW231014   2.604   4.371   4.357 -0.0780 -0.3303  1.2468
 6519SOL     OW31015   3.824   2.037  14.888  0.2421 -0.3715  0.5739
 6519SOL    HW131016   3.827   2.129  14.863 -1.0672 -1.3518 -3.0631
 6519SOL    HW231017   3.821   2.038  14.984 -0.7112 -0.9120  0.5464
 6520SOL     OW31018   0.999   4.508   8.705  0.1624 -0.6816 -0.0416
 6520SOL    HW131019   1.088   4.532   8.679 -1.2360  1.4440 -2.9265
 6520SOL    HW231020   1.021   4.425   8.747 -0.6539 -0.2498  1.2144
 6521SOL     OW31021   4.532   2.640   3.725 -0.3152 -0.4863 -0.5035
 6521SOL    HW131022   4.587   2.610   3.653  0.9534  0.9556 -0.1294
 6521SOL    HW231023   4.523   2.556   3.770  1.5459 -0.4548 -0.0681
 6522SOL     OW31024   2.478   1.119   8.890 -0.2071 -0.2464 -0.3386
 6522SOL    HW131025   2.447   1.037   8.851 -0.6826 -1.0068  1.6145
 6522SOL    HW231026   2.452   1.124   8.982  0.7542  0.4433 -0.1116
 6523SOL     OW31027   0.026   1.453   9.233  0.4566  0.2751  0.2956
 6523SOL    HW131028   0.012   1.360   9.215  1.4662  0.3769 -1.0128
 6523SOL    HW231029   4.697   1.453   9.313 -4.3556 -1.1861 -2.9110
 6524SOL     OW31030   4.347   3.651   7.339  0.1354  0.3580 -0.1649
 6524SOL    HW131031   4.370   3.704   7.263  0.1533  3.5328  2.0671
 6524SOL    HW231032   4.267   3.695   7.368 -0.6469 -0.6077 -0.8438
 6525SOL     OW31033   4.359   2.976  11.411  0.4718  0.2366 -0.0289
 6525SOL    HW131034   4.380   2.918  11.484 -0.6354 -0.1951 -0.0456
 6525SOL    HW231035   4.267   2.991  11.431  1.2602 -0.9474  4.4325
 6526SOL     OW31036   2.006   3.575   6.069 -0.0786  0.5559 -0.5020
 6526SOL    HW131037   1.951   3.587   5.992  0.6026 -0.1303 -1.0933
 6526SOL    HW231038   1.998   3.481   6.051  0.2421 -0.0737  2.6910
 6527SOL     OW31039   4.236   0.555  15.816 -0.1777  0.1144 -0.4419
 6527SOL    HW131040   4.190   0.477  15.785 -0.8158  0.5770 -0.6492
 6527SOL    HW231041   4.325   0.519  15.813  0.0417  0.6970 -1.1916
 6528SOL     OW31042   1.218   1.392  16.823 -0.2931  0.2821 -0.3660
 6528SOL    HW131043   1.246   1.302  16.834 -1.1612 -0.1689 -1.8874
 6528SOL    HW231044   1.199   1.422  16.912 -1.0899  0.0325 -0.4582
 6529SOL     OW31045   1.449   0.234   8.261 -0.2782  0.1250  1.0347
 6529SOL    HW131046   1.530   0.221   8.310  1.5653  0.0078 -2.0181
 6529SOL    HW231047   1.405   0.300   8.315 -2.6975 -1.3829  0.9091
 6530SOL     OW31048   3.093   1.387   5.872  0.3755 -0.0642  0.4816
 6530SOL    HW131049   3.022   1.451   5.882  0.8689  0.3653  1.1614
 6530SOL    HW231050   3.041   1.307   5.876  0.7832 -0.2786  1.3473
 6531SOL     OW31051   1.360   2.676  16.013  0.5867 -0.4544  0.1434
 6531SOL    HW131052   1.301   2.652  16.084 -2.0337  1.3138 -1.4538
 6531SOL    HW231053   1.399   2.758  16.042  0.2500  0.1277 -1.0646
 6532SOL     OW31054   3.348   4.339   4.458 -0.2662  0.0289 -0.0470
 6532SOL    HW131055   3.312   4.252   4.477  0.7031 -0.2218  0.6035
 6532SOL    HW231056   3.379   4.380   4.538  1.6197  0.8636 -1.2158
 6533SOL     OW31057   3.683   3.109   5.902  0.2047  0.2503  0.1083
 6533SOL    HW131058   3.606   3.116   5.959  0.4221 -0.7559  0.5272
 6533SOL    HW231059   3.651   3.060   5.827 -0.7144  3.0716 -1.3237
 6534SOL     OW31060   2.464   3.029   4.358  0.4191 -0.6917  0.0806
 6534SOL    HW131061   2.454   2.954   4.299 -1.0923  0.2829 -0.8702
 6534SOL    HW231062   2.374   3.036   4.390  0.1195  0.0478 -0.9613
 6535SOL     OW31063   0.016   3.972  17.010 -0.2562  0.5087 -0.4178
 6535SOL    HW131064   4.713   4.044  16.954  1.6664 -0.8678 -3.0935
 6535SOL    HW231065   4.694   3.901  16.967 -0.4505  1.3376 -1.5539
 6536SOL     OW31066   4.193   2.190   4.948 -0.0322 -0.2830  0.3113
 6536SOL    HW131067   4.261   2.257   4.956 -0.7152  0.7685 -2.6530
 6536SOL    HW231068   4.132   2.247   4.900 -2.4176 -4.1738 -1.3051
 6537SOL     OW31069   0.154   2.905   6.174  0.3861  0.2239 -0.1788
 6537SOL    HW131070   0.170   2.947   6.089  1.5171 -0.7358 -0.4377
 6537SOL    HW231071   0.238   2.897   6.220  0.9665 -1.2465 -1.4937
 6538SOL     OW31072   2.321   0.027   6.493  0.4140 -0.2981  0.1910
 6538SOL    HW131073   2.287   0.011   6.582  1.9786 -1.3903  0.5904
 6538SOL    HW231074   2.343   4.661   6.469 -0.5135 -0.8815  1.5093
 6539SOL     OW31075   4.245   0.474   7.072  0.1573  0.4001  0.2567
 6539SOL    HW131076   4.280   0.395   7.030 -0.0645  0.1325  0.5773
 6539SOL    HW231077   4.248   0.443   7.163  1.7390 -2.1635 -0.6618
 6540SOL     OW31078   0.310   0.394   3.164  0.6209 -0.2239  0.4617
 6540SOL    HW131079   0.228   0.424   3.203  0.9566 -0.0916  1.0792
 6540SOL    HW231080   0.298   0.432   3.077  0.3117 -0.2103  0.5112
 6541SOL     OW31081   2.921   1.913   2.425 -0.2046  0.2620  0.0730
 6541SOL    HW131082   2.857   1.921   2.495  0.6859  0.8005  0.8345
 6541SOL    HW231083   2.966   1.998   2.417  0.1994  0.1174  0.8290
 6542SOL     OW31084   2.770   1.737   8.254  0.0044 -0.6190  0.7278
 6542SOL    HW131085   2.793   1.672   8.321 -1.8266  0.0313  2.0019
 6542SOL    HW231086   2.782   1.681   8.177 -0.0835  0.2316  0.0952
 6543SOL     OW31087   4.092   2.649   8.904 -0.0845  0.0104 -0.1853
 6543SOL    HW131088   4.129   2.660   8.991 -1.0595  0.3319  0.1885
 6543SOL    HW231089   4.006   2.612   8.921 -1.0412  1.3812 -2.0943
 6544SOL     OW31090   2.877   2.078  11.858 -0.3434  0.2209  0.1905
 6544SOL    HW131091   2.957   2.027  11.845 -0.7509 -1.0276  2.3830
 6544SOL    HW231092   2.920   2.155  11.895  0.6147 -0.0190 -0.4228
 6545SOL     OW31093   0.036   3.027   4.950  0.2160 -0.4409 -0.1087
 6545SOL    HW131094   4.694   3.014   5.018  1.0136  0.4807  0.8436
 6545SOL    HW231095   4.709   3.013   4.871  2.9144 -1.3287 -1.6820
 6546SOL     OW31096   3.926   4.083   2.114  0.0724 -0.2752  0.1422
 6546SOL    HW131097   3.927   4.166   2.162 -0.8593 -0.9617  1.3380
 6546SOL    HW231098   3.838   4.086   2.076 -0.7140  1.5022  2.0967
 6547SOL     OW31099   0.701   1.133   6.312 -0.2336  0.3237  0.1752
 6547SOL    HW131100   0.758   1.201   6.348 -0.8439 -0.5005  2.7223
 6547SOL    HW231101   0.671   1.080   6.386  1.0895  0.0823  0.5495
 6548SOL     OW31102   2.644   2.254   3.645 -0.0693 -0.3935  0.4060
 6548SOL    HW131103   2.680   2.300   3.720  0.6384 -1.0194  0.4471
 6548SOL    HW231104   2.554   2.271   3.671 -0.5923 -1.5504 -0.6377
 6549SOL     OW31105   1.888   2.818   3.194 -0.0890 -0.4161 -0.6259
 6549SOL    HW131106   1.912   2.725   3.190 -0.0323 -0.4081 -0.4879
 6549SOL    HW231107   1.944   2.853   3.125 -0.2170 -0.7307 -0.8900
 6550SOL     OW31108   3.306   1.007   8.247 -0.0051  0.0382  0.7235
 6550SOL    HW131109   3.215   0.977   8.243  0.2926 -0.8834  0.9109
 6550SOL    HW231110   3.335   0.958   8.323  2.5423  1.0055  0.3804
 6551SOL     OW31111   3.148   0.789   9.166  0.0226  0.0644  0.0751
 6551SOL    HW131112   3.119   0.753   9.250 -0.4389  1.5101  0.5438
 6551SOL    HW231113   3.074   0.768   9.110  0.3741  1.9748 -1.1313
 6552SOL     OW31114   1.562   4.712  15.738 -0.5222 -0.2151  0.0796
 6552SOL    HW131115   1.633   0.051  15.734 -0.6906 -0.0135  0.2863
 6552SOL    HW231116   1.559   4.675  15.649 -0.5310  0.1065 -0.0548
 6553SOL     OW31117   0.216   3.528   8.281  0.2989 -0.2480  0.4708
 6553SOL    HW131118   0.202   3.603   8.340  0.8765 -0.1624  0.5000
 6553SOL    HW231119   0.137   3.482   8.311 -0.7287  1.0922 -0.1844
 6554SOL     OW31120   2.819   3.222   6.526  0.3472  0.2019  0.1036
 6554SOL    HW131121   2.765   3.293   6.562 -1.1016 -1.7778  1.9205
 6554SOL    HW231122   2.899   3.266   6.500  0.2102 -0.1994 -0.9879
 6555SOL     OW31123   3.704   4.611   7.715  0.1161  0.1213 -0.2016
 6555SOL    HW131124   3.794   4.616   7.682  1.4949 -1.8234  3.2819
 6555SOL    HW231125   3.695   4.516   7.719 -1.5717  0.1996 -2.1488
 6556SOL     OW31126   4.004   0.448   4.130 -0.3332  0.2790 -0.0632
 6556SOL    HW131127   3.943   0.508   4.086  0.3334  0.0149 -1.3470
 6556SOL    HW231128   4.063   0.500   4.184 -3.6701  2.2800  1.6974
 6557SOL     OW31129   0.946   2.257   8.194  0.0877 -0.3344  0.0835
 6557SOL    HW131130   0.905   2.246   8.108  0.9697 -1.9248 -0.1382
 6557SOL    HW231131   0.922   2.181   8.247  1.8237 -0.2287  1.0252
 6558SOL     OW31132   0.188   2.657   6.950 -0.2253  0.7032  0.2613
 6558SOL    HW131133   0.133   2.734   6.963 -0.9185  0.1536  0.5801
 6558SOL    HW231134   0.164   2.586   7.010 -2.1390  1.0436 -0.0999
 6559SOL     OW31135   2.398   2.504  11.951  0.2118 -0.4191 -0.2888
 6559SOL    HW131136   2.334   2.503  11.880 -1.5511 -1.8625  1.3261
 6559SOL    HW231137   2.436   2.417  11.942 -1.7918 -1.3243  0.0400
 6560SOL     OW31138   3.805   4.231   1.552 -0.2498 -0.3358  0.0571
 6560SOL    HW131139   3.866   4.205   1.621 -1.3262 -2.1725  0.3171
 6560SOL    HW231140   3.862   4.244   1.476  0.8729 -1.1197  0.7516
 6561SOL     OW31141   2.804   2.310   8.575 -0.1729 -0.0720  0.1967
 6561SOL    HW131142   2.735   2.351   8.626 -1.7522 -0.7796 -1.3594
 6561SOL    HW231143   2.853   2.387   8.544 -1.0814  0.1316 -0.7432
 6562SOL     OW31144   2.771   4.613   2.189 -0.2338 -0.2482  0.2577
 6562SOL    HW131145   2.836   4.609   2.258 -0.0733  0.8101  0.1753
 6562SOL    HW231146   2.779   4.522   2.161 -0.2991 -0.3851  0.6962
 6563SOL     OW31147   1.343   2.572   2.832 -0.0009  0.1090  0.3213
 6563SOL    HW131148   1.274   2.572   2.898  0.0638 -2.1603  0.3832
 6563SOL    HW231149   1.299   2.626   2.766 -1.2847  0.6885  1.6498
 6564SOL     OW31150   1.228   2.554   0.739  0.2301  0.7305  0.5294
 6564SOL    HW131151   1.150   2.569   0.687  0.4034  4.0910  1.1943
 6564SOL    HW231152   1.199   2.597   0.820 -2.2634 -0.3116  0.1881
 6565SOL     OW31153   0.386   0.590   7.468 -0.3544 -0.2434  0.9157
 6565SOL    HW131154   0.418   0.600   7.558 -1.5898  0.1463  1.3151
 6565SOL    HW231155   0.316   0.655   7.476 -0.7354 -0.5373 -0.0125
 6566SOL     OW31156   4.680   4.332  17.525 -0.6591 -0.3495  0.5118
 6566SOL    HW131157   4.676   4.425  17.544 -0.4950 -0.5256  1.3890
 6566SOL    HW231158   4.692   4.297  17.613  2.3897 -0.8433 -0.0996
 6567SOL     OW31159   0.865   3.714   8.642 -0.0675 -0.4459 -0.1867
 6567SOL    HW131160   0.776   3.747   8.655 -0.1557 -1.0426  0.7043
 6567SOL    HW231161   0.847   3.622   8.621 -1.1868 -0.3410  0.2731
 6568SOL     OW31162   2.602   0.814   5.472 -0.5855  0.2897 -0.0848
 6568SOL    HW131163   2.583   0.722   5.454 -1.8006  0.8301 -1.5533
 6568SOL    HW231164   2.682   0.802   5.523 -1.7763 -1.0805  1.4611
 6569SOL     OW31165   4.643   1.475  16.536 -0.0447  0.2664  0.1314
 6569SOL    HW131166   4.677   1.397  16.580 -0.5988  0.9369  1.7577
 6569SOL    HW231167   4.687   1.476  16.451 -1.7222  1.1245 -0.7316
 6570SOL     OW31168   1.342   0.317   7.512  0.1319 -0.1127 -0.3406
 6570SOL    HW131169   1.289   0.314   7.432  0.7311  0.2487 -0.7491
 6570SOL    HW231170   1.324   0.231   7.550  0.5572 -0.5191 -1.0457
 6571SOL     OW31171   4.170   4.391   6.875 -0.2727  0.0813  0.1906
 6571SOL    HW131172   4.208   4.474   6.904  1.2526  0.2006 -2.1118
 6571SOL    HW231173   4.102   4.378   6.941  0.4568 -0.9709  0.7546
 6572SOL     OW31174   3.336   0.238   5.337  0.7953 -0.1528 -0.2734
 6572SOL    HW131175   3.398   0.171   5.309  0.6667 -0.2745 -0.2626
 6572SOL    HW231176   3.364   0.244   5.429 -0.2578  2.0349 -0.0893
 6573SOL     OW31177   2.216   2.066   5.954  0.0653 -0.0163  0.1304
 6573SOL    HW131178   2.268   2.048   6.032  2.1174  0.3138 -1.1638
 6573SOL    HW231179   2.171   2.145   5.984 -0.2619  0.3815 -1.4296
 6574SOL     OW31180   3.923   1.677   5.205  0.2391  0.7326 -0.4527
 6574SOL    HW131181   3.957   1.618   5.272  0.8558 -0.5164 -1.8764
 6574SOL    HW231182   4.001   1.732   5.191  1.2874  0.0417  2.7108
 6575SOL     OW31183   1.730   3.403   4.600 -0.2818 -0.2956  0.3742
 6575SOL    HW131184   1.786   3.435   4.530 -0.6570 -0.1554  0.1387
 6575SOL    HW231185   1.654   3.461   4.586 -0.8327 -1.3512 -0.9680
 6576SOL     OW31186   3.956   3.777   2.951  0.2588 -0.1729  0.4750
 6576SOL    HW131187   3.890   3.725   2.996  1.9979 -2.2074  0.6728
 6576SOL    HW231188   3.908   3.858   2.936  0.3043  0.1979  2.3374
 6577SOL     OW31189   0.837   0.114  10.510 -0.5568 -0.0060  0.3585
 6577SOL    HW131190   0.825   0.207  10.528 -0.4406  0.1534 -0.3920
 6577SOL    HW231191   0.896   0.088  10.581  2.3180 -0.1495 -2.0577
 6578SOL     OW31192   1.815   3.576  15.495  1.2622  0.0878 -0.3927
 6578SOL    HW131193   1.818   3.549  15.404  0.8079 -1.1066 -0.0515
 6578SOL    HW231194   1.909   3.594  15.504  0.6237  1.9760  2.7505
 6579SOL     OW31195   0.310   1.214  14.044  0.1916 -0.0734 -0.0199
 6579SOL    HW131196   0.319   1.186  14.135 -2.3168  0.5692  0.4396
 6579SOL    HW231197   0.215   1.204  14.032  0.3165 -0.9860 -0.2509
 6580SOL     OW31198   1.526   1.060   8.036 -0.1850  0.2656  0.7014
 6580SOL    HW131199   1.468   1.007   7.981 -0.7238  1.0939  0.4711
 6580SOL    HW231200   1.589   1.000   8.075  0.9026  1.7813  1.2711
 6581SOL     OW31201   3.516   0.968   2.617  0.0963  0.3889  0.1503
 6581SOL    HW131202   3.567   0.982   2.696  2.5010  0.3885 -1.3888
 6581SOL    HW231203   3.513   1.054   2.574 -1.4086  0.1553 -0.1969
 6582SOL     OW31204   3.055   4.587   5.125  0.3078 -0.5678 -0.8022
 6582SOL    HW131205   3.144   4.613   5.101 -0.3511  1.2215 -1.2669
 6582SOL    HW231206   3.021   4.564   5.038 -0.4841  1.8284 -1.1002
 6583SOL     OW31207   2.764   1.679   3.089  0.4779 -0.7170 -0.2343
 6583SOL    HW131208   2.813   1.634   3.157 -0.2619 -0.6198  0.3651
 6583SOL    HW231209   2.841   1.720   3.049 -0.4016  1.8511  0.7167
 6584SOL     OW31210   1.247   3.719   4.062  0.1495 -0.1517  0.5560
 6584SOL    HW131211   1.229   3.777   4.135  1.1360  0.5732  0.2266
 6584SOL    HW231212   1.258   3.638   4.111  0.5687  0.4845  1.5073
 6585SOL     OW31213   4.415   1.854   4.150 -0.1973  0.0925  0.5813
 6585SOL    HW131214   4.498   1.845   4.198 -0.1989  1.4765  0.8493
 6585SOL    HW231215   4.379   1.765   4.153 -1.6571  0.6770  0.4561
 6586SOL     OW31216   0.131   3.126  15.348  0.3489 -0.1961  0.7870
 6586SOL    HW131217   0.121   3.157  15.258  1.6039 -0.8046  0.4373
 6586SOL    HW231218   0.070   3.052  15.359 -1.1898  0.8914 -0.3098
 6587SOL     OW31219   3.805   3.294   6.917  0.6662  0.2161  0.0152
 6587SOL    HW131220   3.797   3.353   6.842 -0.0725 -0.8168 -0.7126
 6587SOL    HW231221   3.738   3.331   6.975  1.1463  0.6159  0.3166
 6588SOL     OW31222   1.840   4.612   5.485 -0.3395  0.2987  0.3341
 6588SOL    HW131223   1.781   4.567   5.546  0.9155 -1.2372  0.4038
 6588SOL    HW231224   1.907   4.647   5.543  0.2456  0.8796 -0.6840
 6589SOL     OW31225   3.977   1.623   4.176  0.2044  0.1571  0.5691
 6589SOL    HW131226   4.037   1.623   4.251  0.4566  1.1975  0.3716
 6589SOL    HW231227   3.895   1.612   4.223 -0.8581 -0.1918 -1.3759
 6590SOL     OW31228   3.305   3.470   3.446  0.2560  0.0194 -0.0976
 6590SOL    HW131229   3.331   3.506   3.531  0.1762  2.8468 -1.2859
 6590SOL    HW231230   3.381   3.418   3.422 -1.0204 -2.0977  0.4033
 6591SOL     OW31231   3.447   1.207   2.498 -0.3492 -0.0624  0.5194
 6591SOL    HW131232   3.398   1.244   2.572  0.0219  1.1068  0.1708
 6591SOL    HW231233   3.516   1.271   2.482 -1.0611  0.1769 -1.5991
 6592SOL     OW31234   0.238   4.366   7.606  0.1720  0.1474  0.1456
 6592SOL    HW131235   0.210   4.295   7.548  0.4378  0.7873 -0.7658
 6592SOL    HW231236   0.322   4.334   7.638 -0.0877 -0.0867  0.5969
 6593SOL     OW31237   0.016   2.795   8.233 -0.2557 -0.4007  0.0953
 6593SOL    HW131238   0.074   2.729   8.193 -0.1214  0.6103 -1.3479
 6593SOL    HW231239   0.060   2.827   8.312  0.7237 -0.2547 -0.5105
 6594SOL     OW31240   1.561   3.835  16.904 -0.2294  0.7243  0.9504
 6594SOL    HW131241   1.648   3.860  16.874  0.0589 -0.4963  0.7544
 6594SOL    HW231242   1.551   3.741  16.888 -1.7320  1.0478  0.0214
 6595SOL     OW31243   2.774   3.338   4.810  0.6407  0.1303  0.1284
 6595SOL    HW131244   2.789   3.291   4.728  2.3747 -0.9149  1.0387
 6595SOL    HW231245   2.853   3.301   4.850 -0.6613 -2.2855  0.4769
 6596SOL     OW31246   0.750   4.628   4.922  0.4264  0.0996  0.2623
 6596SOL    HW131247   0.678   4.619   4.985 -0.5289 -0.6109 -0.9247
 6596SOL    HW231248   0.735   4.556   4.860  2.0438 -0.1244  0.1297
 6597SOL     OW31249   2.059   2.155   1.838 -0.3772  0.6301  0.1892
 6597SOL    HW131250   1.966   2.150   1.815 -0.4632 -0.6571  0.7939
 6597SOL    HW231251   2.052   2.175   1.932 -0.4634  0.1038  0.2966
 6598SOL     OW31252   2.903   1.366   3.642  0.2630  0.4827 -0.1685
 6598SOL    HW131253   2.848   1.319   3.705 -0.4217 -0.8175 -1.7233
 6598SOL    HW231254   2.858   1.449   3.630  0.7348  0.9414  1.3499
 6599SOL     OW31255   1.582   0.035  17.489  0.2474 -0.5018 -0.3901
 6599SOL    HW131256   1.552   4.701  17.558  0.1279  1.5956  1.3187
 6599SOL    HW231257   1.653   0.080  17.534 -1.4180  1.2888  0.5003
 6600SOL     OW31258   0.246   3.931  16.843  0.9515  0.6767  0.5997
 6600SOL    HW131259   0.197   3.956  16.921 -0.4773  0.7498 -0.3307
 6600SOL    HW231260   0.300   4.010  16.841  1.3887  0.3874  0.9020
 6601SOL     OW31261   4.601   0.604   1.919  0.0511 -0.4607  0.0194
 6601SOL    HW131262   4.513   0.591   1.954 -0.4873  0.2504 -1.0803
 6601SOL    HW231263   4.650   0.523   1.935  2.0728  0.9735  0.9343
 6602SOL     OW31264   0.550   3.241   6.175  0.4903  0.8530 -0.9868
 6602SOL    HW131265   0.491   3.281   6.239  0.3787  0.4548 -0.8431
 6602SOL    HW231266   0.536   3.150   6.201  0.3738  1.0638 -0.3147
 6603SOL     OW31267   2.758   3.262   6.191  0.2480 -0.3065  0.1206
 6603SOL    HW131268   2.726   3.253   6.101 -1.1439  0.6655  0.5184
 6603SOL    HW231269   2.829   3.198   6.189  0.4158 -0.1897  2.4501
 6604SOL     OW31270   1.776   3.774   9.340 -0.3720  0.2381  0.0199
 6604SOL    HW131271   1.767   3.679   9.329 -0.1652  0.1310  0.7858
 6604SOL    HW231272   1.865   3.779   9.375 -0.7295  0.8676  0.8229
 6605SOL     OW31273   1.064   2.462   8.772 -0.3732 -0.6097 -0.1041
 6605SOL    HW131274   0.971   2.479   8.763 -0.1481  0.0588 -1.1590
 6605SOL    HW231275   1.099   2.549   8.749 -0.0195  0.0193  2.8313
 6606SOL     OW31276   3.666   0.123   7.642  0.1063  0.0472 -0.1500
 6606SOL    HW131277   3.664   0.033   7.673  0.6119  0.8029  2.0817
 6606SOL    HW231278   3.573   0.142   7.629  1.0085  3.1266 -2.0337
 6607SOL     OW31279   4.234   0.713   4.555 -0.1162 -0.1689 -0.1847
 6607SOL    HW131280   4.291   0.694   4.629 -1.0449 -0.3019  0.4980
 6607SOL    HW231281   4.175   0.778   4.593  0.8101  0.7148 -0.2786
 6608SOL     OW31282   0.665   2.626   4.245  0.1692  0.9358  0.5950
 6608SOL    HW131283   0.612   2.626   4.324 -1.1603 -0.0355 -0.3042
 6608SOL    HW231284   0.751   2.631   4.288 -0.9321  1.4023  2.7430
 6609SOL     OW31285   1.260   1.342   4.694  0.2672  0.0759  0.5804
 6609SOL    HW131286   1.171   1.306   4.688  0.2337 -0.0866  1.9192
 6609SOL    HW231287   1.244   1.406   4.764 -1.7333 -0.2100  0.3887
 6610SOL     OW31288   3.213   2.835   9.158  0.4791  0.0588 -0.2083
 6610SOL    HW131289   3.172   2.754   9.187  1.1142 -0.7906 -1.6965
 6610SOL    HW231290   3.216   2.823   9.063 -1.9693  2.5494 -0.6416
 6611SOL     OW31291   1.027   0.657   7.979  0.2678  0.1376  0.1754
 6611SOL    HW131292   1.069   0.573   7.999  1.9559  0.7861 -0.6529
 6611SOL    HW231293   0.938   0.635   7.951  0.2846 -0.5126  0.6355
 6612SOL     OW31294   4.535   1.831  10.252 -0.2794  0.0945  0.1145
 6612SOL    HW131295   4.593   1.906  10.240 -1.4661  0.5956 -2.5634
 6612SOL    HW231296   4.449   1.872  10.266 -1.2357 -2.2675  1.1952
 6613SOL     OW31297   2.348   0.233   3.161 -0.2405 -0.4978  0.6309
 6613SOL    HW131298   2.319   0.160   3.105 -1.5763  0.2186  0.4052
 6613SOL    HW231299   2.306   0.308   3.120 -0.5906 -0.9181  0.2241
 6614SOL     OW31300   0.585   1.520   2.245 -0.2317  0.1317  0.3202
 6614SOL    HW131301   0.499   1.509   2.204 -1.1598 -0.4682  2.4488
 6614SOL    HW231302   0.637   1.499   2.168 -0.2544 -2.4610  1.0187
 6615SOL     OW31303   1.382   0.793   6.699  0.0267 -0.4779  0.3400
 6615SOL    HW131304   1.310   0.745   6.658 -1.0741  0.9897  0.5261
 6615SOL    HW231305   1.453   0.730   6.697 -0.8075 -1.3540 -2.1641
 6616SOL     OW31306   2.974   3.850  17.261 -0.0791  0.2463 -0.5115
 6616SOL    HW131307   2.895   3.898  17.286 -0.3306  0.0761 -0.9749
 6616SOL    HW231308   3.036   3.919  17.235  0.6256 -0.0729  0.3382
 6617SOL     OW31309   0.054   1.741   2.252 -0.5198 -0.0966 -0.2614
 6617SOL    HW131310   4.720   1.677   2.209 -1.0089 -0.5917  1.1622
 6617SOL    HW231311   0.016   1.750   2.339  1.0964  1.8719  0.2161
 6618SOL     OW31312   2.359   2.490   4.258 -0.1043  0.1793  0.3305
 6618SOL    HW131313   2.325   2.416   4.209 -0.4946  0.7345 -0.2316
 6618SOL    HW231314   2.377   2.545   4.182 -0.2102  0.5532  0.5711
 6619SOL     OW31315   2.248   2.594   6.539 -0.2264  0.3415  0.8333
 6619SOL    HW131316   2.298   2.635   6.469 -2.5038 -1.1270 -1.6247
 6619SOL    HW231317   2.246   2.665   6.603  0.6940  0.0731  1.1654
 6620SOL     OW31318   3.315   2.388   7.449 -0.2756  0.8236 -0.4537
 6620SOL    HW131319   3.302   2.363   7.357 -1.8254  0.9456 -0.2683
 6620SOL    HW231320   3.407   2.369   7.466 -1.2398 -2.1268  1.4069
 6621SOL     OW31321   2.179   3.464   4.287 -0.0091  0.0719 -0.6319
 6621SOL    HW131322   2.116   3.403   4.325 -0.8314  0.4690 -1.3547
 6621SOL    HW231323   2.260   3.450   4.336 -1.2756 -0.1457  1.3651
 6622SOL     OW31324   4.385   2.504  11.823  0.1132 -0.3816  0.0953
 6622SOL    HW131325   4.420   2.446  11.755 -0.1491 -0.8711  0.3735
 6622SOL    HW231326   4.462   2.534  11.870 -0.0625  1.4249 -0.7768
 6623SOL     OW31327   0.350   3.512  16.084 -0.0719 -0.3457  0.3003
 6623SOL    HW131328   0.425   3.534  16.030  0.2035 -3.0411 -0.4038
 6623SOL    HW231329   0.360   3.417  16.086 -0.2213 -0.3672  0.0395
 6624SOL     OW31330   3.852   3.853   8.403  0.2716  0.2033 -0.1011
 6624SOL    HW131331   3.940   3.818   8.421 -0.4317 -1.7560 -0.4632
 6624SOL    HW231332   3.849   3.920   8.471 -0.3388  2.3395 -2.2440
 6625SOL     OW31333   0.933   3.631   2.830  0.0787 -0.0144  0.0968
 6625SOL    HW131334   0.934   3.726   2.840  0.8496  0.0442 -0.5649
 6625SOL    HW231335   1.005   3.608   2.772 -0.7914 -1.3114 -0.4579
 6626SOL     OW31336   4.102   1.882   7.401  0.2601 -0.1711 -0.2997
 6626SOL    HW131337   4.033   1.835   7.447  0.9553  1.2845  2.2365
 6626SOL    HW231338   4.184   1.846   7.436 -1.7685 -4.3415  0.1190
 6627SOL     OW31339   0.743   3.398   2.556 -0.3290 -0.9643  0.2685
 6627SOL    HW131340   0.715   3.472   2.502  2.2166 -0.9074 -0.9978
 6627SOL    HW231341   0.819   3.371   2.504  0.7786 -0.1585  1.4677
 6628SOL     OW31342   0.854   2.551   6.548 -0.0132  0.1478  0.1005
 6628SOL    HW131343   0.882   2.562   6.639 -0.8985  0.2618  0.3551
 6628SOL    HW231344   0.760   2.537   6.557 -0.2672  0.3806 -2.1502
 6629SOL     OW31345   4.610   3.437   4.277 -0.3921  0.1843  0.0073
 6629SOL    HW131346   4.619   3.414   4.370  1.3906 -2.1843 -0.7555
 6629SOL    HW231347   4.517   3.449   4.257 -0.3361  0.2061 -0.2384
 6630SOL     OW31348   1.082   2.580  17.660 -0.5500 -0.1064  0.3890
 6630SOL    HW131349   1.055   2.667  17.690  1.2444  0.3534  0.6574
 6630SOL    HW231350   1.103   2.534   0.044  1.4428 -0.5547 -0.3627
 6631SOL     OW31351   1.034   3.158   3.958  0.0473  0.2998 -0.4443
 6631SOL    HW131352   0.957   3.153   3.901 -1.6396 -0.0488  1.8392
 6631SOL    HW231353   1.038   3.248   3.992 -0.6757  0.4204 -0.6673
 6632SOL     OW31354   3.671   4.429   8.519  0.4658  0.0180 -0.0862
 6632SOL    HW131355   3.748   4.432   8.576  0.3125 -0.1026  0.1292
 6632SOL    HW231356   3.705   4.375   8.447  0.3728  2.8799 -2.2717
 6633SOL     OW31357   3.991   2.260   6.396 -0.2500 -0.2271  0.0888
 6633SOL    HW131358   4.081   2.292   6.401  0.4208 -2.2262  0.7895
 6633SOL    HW231359   3.977   2.250   6.302  0.3541 -2.4560  0.2530
 6634SOL     OW31360   2.735   0.741   9.420 -0.0287  0.3589 -0.5530
 6634SOL    HW131361   2.688   0.751   9.336  1.7141  2.5692 -1.2702
 6634SOL    HW231362   2.812   0.695   9.387 -0.4861 -1.5893  1.1280
 6635SOL     OW31363   3.615   4.452  10.714 -0.0602  0.8526  0.4936
 6635SOL    HW131364   3.705   4.440  10.745 -0.0198 -0.7544 -0.1998
 6635SOL    HW231365   3.617   4.428  10.622 -0.3584 -0.8789  0.9329
 6636SOL     OW31366   1.855   4.420   7.834  0.2896  0.1683 -0.2869
 6636SOL    HW131367   1.936   4.470   7.828  0.9941 -0.7843  1.1517
 6636SOL    HW231368   1.845   4.386   7.745  0.0056  1.0444 -0.5856
 6637SOL     OW31369   2.196   3.084   4.999 -0.1690 -0.0488  0.0721
 6637SOL    HW131370   2.242   3.158   5.039 -0.8847  0.6857 -0.4882
 6637SOL    HW231371   2.242   3.013   5.045  1.3643  0.8859 -0.0261
 6638SOL     OW31372   0.628   1.132   2.172  0.1449  0.5012  0.0572
 6638SOL    HW131373   0.696   1.194   2.147  0.5760 -0.3549 -0.8866
 6638SOL    HW231374   0.670   1.046   2.166 -0.1351  0.4022 -0.4483
 6639SOL     OW31375   1.755   2.993   9.250  0.1599 -0.6118  0.1677
 6639SOL    HW131376   1.843   3.011   9.219 -0.2132  0.8481 -0.0131
 6639SOL    HW231377   1.707   3.014   9.170  0.7062  1.4384  0.3822
 6640SOL     OW31378   4.289   2.327   7.655  0.0223 -0.6909  0.6329
 6640SOL    HW131379   4.373   2.350   7.695  0.8685 -1.9524 -0.4057
 6640SOL    HW231380   4.252   2.300   7.739  2.4648 -0.6636  1.7361
 6641SOL     OW31381   1.329   1.597  16.533  0.7490 -0.3949  0.2927
 6641SOL    HW131382   1.357   1.551  16.612 -1.3702 -2.4025 -0.1146
 6641SOL    HW231383   1.325   1.542  16.455  1.0469  1.9692 -1.3984
 6642SOL     OW31384   0.022   0.791   2.682  0.3933  0.2004 -0.1392
 6642SOL    HW131385   0.013   0.877   2.640 -1.8835 -0.9816 -2.1182
 6642SOL    HW231386   0.029   0.729   2.609  1.5671  0.5625 -0.3469
 6643SOL     OW31387   1.033   4.329   3.151  0.0699  0.3219 -0.3469
 6643SOL    HW131388   1.064   4.255   3.202  0.4501  0.2814 -0.6388
 6643SOL    HW231389   0.941   4.311   3.131  0.2309  0.3008 -1.0461
 6644SOL     OW31390   3.891   1.430  11.375  0.0041  0.3721  0.5205
 6644SOL    HW131391   3.838   1.442  11.297  1.8050 -1.2108 -0.9485
 6644SOL    HW231392   3.965   1.381  11.339 -0.6060  0.2466 -0.5607
 6645SOL     OW31393   2.108   4.213   1.955 -0.2041 -0.2097  0.2577
 6645SOL    HW131394   2.180   4.268   1.923 -1.6842  1.9390  0.6609
 6645SOL    HW231395   2.038   4.259   1.909 -0.4160  0.0445  0.8361
 6646SOL     OW31396   4.113   3.314  12.702  0.5329  0.1425 -0.0699
 6646SOL    HW131397   4.030   3.299  12.747 -0.1089 -0.5713 -1.4890
 6646SOL    HW231398   4.142   3.223  12.690 -0.2886 -0.0071 -0.9483
 6647SOL     OW31399   0.744   4.310  16.786 -0.2650 -0.0829  0.3624
 6647SOL    HW131400   0.716   4.302  16.877  1.5161 -2.5956  0.7145
 6647SOL    HW231401   0.829   4.265  16.789  1.0189  2.2405 -1.3528
 6648SOL     OW31402   2.391   3.717  11.793 -0.4805 -0.2713  0.3479
 6648SOL    HW131403   2.328   3.690  11.726  0.6802 -2.1369  0.0195
 6648SOL    HW231404   2.348   3.704  11.878  1.4125 -2.5966  0.9480
 6649SOL     OW31405   4.185   1.038   6.585 -0.0498  0.0975  0.3691
 6649SOL    HW131406   4.235   1.040   6.504 -0.8339 -0.1171 -0.1198
 6649SOL    HW231407   4.177   1.133   6.600  3.8351  0.6739 -1.2560
 6650SOL     OW31408   3.482   1.227   8.246  0.4569 -0.7420  0.8131
 6650SOL    HW131409   3.424   1.164   8.288 -2.0453  0.1604 -1.2662
 6650SOL    HW231410   3.492   1.211   8.152  1.1680  0.1777  0.7271
 6651SOL     OW31411   3.455   3.069   1.946  0.2404 -0.4065  0.1742
 6651SOL    HW131412   3.431   3.154   1.983 -0.0571 -0.7243  0.6967
 6651SOL    HW231413   3.518   3.104   1.883 -2.4523  2.6488 -0.8303
 6652SOL     OW31414   1.899   0.755  10.375 -0.5807  0.5362  0.0890
 6652SOL    HW131415   1.918   0.661  10.367 -1.0126  0.6586 -2.4479
 6652SOL    HW231416   1.903   0.779  10.283  1.5592  0.4429  0.1665
 6653SOL     OW31417   0.213   4.655   2.686  0.2136 -0.0077 -0.2055
 6653SOL    HW131418   0.193   4.596   2.759  0.9651  1.5909  1.2988
 6653SOL    HW231419   0.230   4.592   2.616  1.8210  0.1743  0.0221
 6654SOL     OW31420   1.602   1.489   9.787 -0.8668 -0.3090 -0.2316
 6654SOL    HW131421   1.559   1.572   9.766 -1.1522  0.0028  1.5871
 6654SOL    HW231422   1.601   1.490   9.883  2.0660 -3.5819 -0.1508
 6655SOL     OW31423   2.007   0.884  16.630 -0.4958  0.5183 -0.7826
 6655SOL    HW131424   1.953   0.811  16.599  1.1188 -0.1253 -2.0998
 6655SOL    HW231425   1.998   0.947  16.559 -1.6430 -1.1139 -2.0892
 6656SOL     OW31426   4.398   1.969   7.253 -0.3970 -0.4262 -0.7270
 6656SOL    HW131427   4.394   1.913   7.331 -1.1270  1.7033  0.7827
 6656SOL    HW231428   4.357   1.909   7.191  2.3072 -2.5222 -0.4625
 6657SOL     OW31429   0.558   2.226  11.107  0.0402 -0.9215  0.3821
 6657SOL    HW131430   0.501   2.155  11.135 -0.1712 -0.4395  1.1705
 6657SOL    HW231431   0.647   2.191  11.106  0.9318  1.2227  3.3012
 6658SOL     OW31432   3.654   3.733   7.027 -0.1139  0.3941 -0.3585
 6658SOL    HW131433   3.623   3.649   7.063  0.8557  0.3193  0.2944
 6658SOL    HW231434   3.573   3.783   7.028 -0.0041  0.4555  3.1156
 6659SOL     OW31435   4.338   1.626   2.557 -0.2005  0.2222  0.4456
 6659SOL    HW131436   4.288   1.683   2.497  0.7392  1.2794  0.6625
 6659SOL    HW231437   4.264   1.596   2.610 -0.2200 -0.1580  0.2033
 6660SOL     OW31438   3.771   0.917   1.538  0.1071  0.0520  0.3605
 6660SOL    HW131439   3.684   0.944   1.568  0.5595 -0.6058  2.2831
 6660SOL    HW231440   3.831   0.980   1.578  0.7381  0.0100 -0.5216
 6661SOL     OW31441   0.508   2.682  10.993 -0.4209 -0.0970  0.3005
 6661SOL    HW131442   0.424   2.716  10.962  0.2445  2.0412  0.8790
 6661SOL    HW231443   0.516   2.591  10.962 -1.8298  0.4469 -1.6227
 6662SOL     OW31444   3.716   2.704   5.633  0.1829  0.2623  0.1391
 6662SOL    HW131445   3.678   2.626   5.674  0.5772 -0.6821 -1.2922
 6662SOL    HW231446   3.774   2.747   5.695  0.5936 -1.2996  0.8518
 6663SOL     OW31447   3.941   1.065   3.832  0.6332 -0.8003 -0.3227
 6663SOL    HW131448   3.943   1.086   3.926 -0.8563 -0.2752 -0.4152
 6663SOL    HW231449   3.966   1.146   3.788 -0.1903 -0.3509  0.0386
 6664SOL     OW31450   2.540   0.220   5.593  0.1943 -0.0314  0.0604
 6664SOL    HW131451   2.591   0.200   5.672  0.3870  0.1401 -0.0200
 6664SOL    HW231452   2.482   0.144   5.586  1.4575 -1.0905  1.0272
 6665SOL     OW31453   3.006   0.645   9.392  0.4483 -0.2790 -0.2055
 6665SOL    HW131454   2.970   0.641   9.480 -2.0825 -0.7155 -1.2663
 6665SOL    HW231455   3.100   0.645   9.414  0.6838 -1.4414 -1.2287
 6666SOL     OW31456   2.972   1.593   8.970 -0.3460  0.2231 -0.2720
 6666SOL    HW131457   2.903   1.555   8.914 -1.6616 -0.5080  1.8518
 6666SOL    HW231458   2.994   1.674   8.924  0.9600 -1.8600 -3.3345
 6667SOL     OW31459   1.256   2.562   4.699 -0.4885  0.1954 -0.2847
 6667SOL    HW131460   1.167   2.529   4.688  0.5081 -2.1030 -1.3269
 6667SOL    HW231461   1.235   2.644   4.744 -0.0510 -1.3532  2.7828
 6668SOL     OW31462   0.828   3.411  16.026  0.3850 -0.6283  0.2751
 6668SOL    HW131463   0.870   3.489  16.063  1.6850 -1.2203  0.0475
 6668SOL    HW231464   0.880   3.406  15.946  0.8528 -1.5003  0.6285
 6669SOL     OW31465   0.754   2.577  12.129 -0.2520  0.4717 -0.1101
 6669SOL    HW131466   0.743   2.668  12.159  0.2423  1.1160 -1.8513
 6669SOL    HW231467   0.812   2.589  12.054  1.3381  0.0657  1.0701
 6670SOL     OW31468   3.212   3.544   4.304 -0.2107  0.8336  0.3140
 6670SOL    HW131469   3.145   3.560   4.370  0.4114  0.2525  1.0871
 6670SOL    HW231470   3.274   3.501   4.363  0.0851 -0.7745 -1.1567
 6671SOL     OW31471   3.770   2.822   6.122 -0.3887  0.0393 -0.2026
 6671SOL    HW131472   3.707   2.889   6.150  0.6668  0.9508 -0.0053
 6671SOL    HW231473   3.812   2.799   6.206 -0.1643  1.1109 -0.0228
 6672SOL     OW31474   3.252   3.646  14.042  0.0856  0.2558  0.7618
 6672SOL    HW131475   3.341   3.682  14.035  0.4615 -0.6193  1.0106
 6672SOL    HW231476   3.197   3.723  14.057 -0.8579 -0.2646 -0.1115
 6673SOL     OW31477   1.389   1.161   4.271 -0.3293  0.1843 -0.2351
 6673SOL    HW131478   1.451   1.159   4.344 -1.2590  0.9687  0.5750
 6673SOL    HW231479   1.412   1.239   4.221  2.5129  0.2574  1.1658
 6674SOL     OW31480   4.618   1.698   5.551  0.8465 -0.0436  0.4408
 6674SOL    HW131481   4.572   1.705   5.635 -0.4787  0.4939 -0.3214
 6674SOL    HW231482   4.596   1.607   5.531 -0.0470  0.7275 -2.0413
 6675SOL     OW31483   4.044   0.417   3.621 -0.2205 -0.0327  0.3580
 6675SOL    HW131484   4.027   0.422   3.715 -1.1767  3.2273 -0.0055
 6675SOL    HW231485   4.050   0.321   3.616  0.7070  0.2093 -2.9235
 6676SOL     OW31486   3.207   1.248   2.361 -0.1095 -1.1342  0.0666
 6676SOL    HW131487   3.122   1.227   2.399  0.7877  1.0831  3.2970
 6676SOL    HW231488   3.252   1.167   2.386  2.2652  0.1146 -0.1235
 6677SOL     OW31489   3.869   4.235  15.496 -0.5862  0.7054  0.2253
 6677SOL    HW131490   3.890   4.327  15.481 -0.8410  1.0592  2.0338
 6677SOL    HW231491   3.894   4.201  15.410  0.9802 -0.1987  1.0563
 6678SOL     OW31492   2.787   3.606   3.531 -0.5155 -0.6081  0.0692
 6678SOL    HW131493   2.782   3.581   3.439  2.8059 -1.5494  0.1119
 6678SOL    HW231494   2.713   3.563   3.573  0.8263 -0.2496  2.8285
 6679SOL     OW31495   3.576   3.529  17.412 -0.6509 -0.1902  0.1612
 6679SOL    HW131496   3.486   3.560  17.422 -0.5639  0.5156 -1.4291
 6679SOL    HW231497   3.570   3.434  17.423 -1.1437 -0.1293  0.4255
 6680SOL     OW31498   3.690   4.104   8.179  0.4990  0.0978 -0.0526
 6680SOL    HW131499   3.650   4.022   8.149 -0.1394 -0.0059  1.0628
 6680SOL    HW231500   3.759   4.112   8.114  1.8546 -2.4815  1.0877
 6681SOL     OW31501   3.992   3.797   3.489  0.2032 -0.4696 -0.6104
 6681SOL    HW131502   4.071   3.824   3.443 -1.4349  0.1585 -3.0385
 6681SOL    HW231503   3.942   3.759   3.417 -1.5307 -1.9514  1.3610
 6682SOL     OW31504   1.169   1.650   9.292 -0.1403  0.0472 -0.5767
 6682SOL    HW131505   1.212   1.582   9.344 -1.1864  0.0011  0.2181
 6682SOL    HW231506   1.167   1.715   9.362  2.7001  0.0459 -0.5028
 6683SOL     OW31507   1.588   4.615  15.477  0.3072 -0.1578  0.3159
 6683SOL    HW131508   1.638   4.548  15.431  0.4628  0.1467  0.0427
 6683SOL    HW231509   1.569   4.674  15.404 -0.9850 -1.9482 -0.7716
 6684SOL     OW31510   1.486   3.592  14.947  0.2862 -0.2573  0.1104
 6684SOL    HW131511   1.550   3.521  14.939  0.5650 -0.0675  0.7002
 6684SOL    HW231512   1.527   3.644  15.015  0.3538 -0.4521  0.2203
 6685SOL     OW31513   0.974   2.248   8.965  0.4439  0.1684  0.1183
 6685SOL    HW131514   1.067   2.224   8.967  0.4230  0.0977  0.2056
 6685SOL    HW231515   0.968   2.261   9.059  2.1598 -0.2925  0.2992
 6686SOL     OW31516   1.465   4.138   4.451 -0.0422  0.0250  0.6498
 6686SOL    HW131517   1.521   4.188   4.392 -0.6335 -0.1963 -0.1023
 6686SOL    HW231518   1.395   4.203   4.462 -0.1195  0.0261  0.1683
 6687SOL     OW31519   3.590   3.959   8.484 -0.5439  0.1860  0.2224
 6687SOL    HW131520   3.678   3.995   8.494 -0.3167  0.1065 -1.6268
 6687SOL    HW231521   3.606   3.879   8.435 -2.4110 -1.2289  1.9062
 6688SOL     OW31522   1.447   4.524  10.913  0.1816 -0.4481  1.0852
 6688SOL    HW131523   1.468   4.551  11.003  1.8580  0.8140  0.2945
 6688SOL    HW231524   1.532   4.506  10.875  1.3106 -0.3481  3.5339
 6689SOL     OW31525   1.405   4.688   8.291 -0.2183  0.2184 -0.2091
 6689SOL    HW131526   1.487   4.709   8.337 -0.7726  1.5788  0.1656
 6689SOL    HW231527   1.377   0.052   8.267  0.1828  0.3712 -0.1179
 6690SOL     OW31528   1.667   2.193   3.430  0.3633  0.3189 -0.1254
 6690SOL    HW131529   1.636   2.276   3.466  1.9353 -0.4595  2.9917
 6690SOL    HW231530   1.753   2.191   3.471 -0.6950 -0.4334  2.0645
 6691SOL     OW31531   1.440   3.068   3.380  0.1474 -0.2561 -0.1790
 6691SOL    HW131532   1.431   3.110   3.295 -0.0553 -2.2424 -1.1133
 6691SOL    HW231533   1.522   3.023   3.362 -0.0138 -0.3268 -0.7184
 6692SOL     OW31534   3.142   3.933   7.090 -0.1236  0.1098 -0.0646
 6692SOL    HW131535   3.134   3.967   7.178  1.1972 -0.4510  0.2735
 6692SOL    HW231536   3.073   3.868   7.076 -1.0173  1.5331 -2.4058
 6693SOL     OW31537   2.083   0.030   8.938 -0.0261  0.1021 -0.1462
 6693SOL    HW131538   2.173   0.020   8.967 -0.4879 -3.0759  0.1640
 6693SOL    HW231539   2.056   0.116   8.973  1.1898  0.4585 -0.0807
 6694SOL     OW31540   2.989   1.158   0.635 -0.2233  0.0639 -0.1139
 6694SOL    HW131541   3.080   1.186   0.636  0.2606 -1.7726  3.7284
 6694SOL    HW231542   2.968   1.158   0.541 -2.1253  1.7113  0.2971
 6695SOL     OW31543   2.642   4.355   1.538 -0.1132 -0.0273  0.3141
 6695SOL    HW131544   2.600   4.338   1.454  2.2141  2.3453 -1.3280
 6695SOL    HW231545   2.680   4.267   1.546 -2.2676 -1.1200 -1.6480
 6696SOL     OW31546   0.066   3.658   2.578  0.3639 -0.2434  0.1359
 6696SOL    HW131547   0.112   3.618   2.652  0.4049 -0.4858 -0.0179
 6696SOL    HW231548   0.053   3.580   2.524  1.8245  0.4603 -1.2178
 6697SOL     OW31549   2.923   4.336   6.511  0.2379 -0.3731 -0.3413
 6697SOL    HW131550   2.880   4.388   6.443  0.0959  0.3200  0.2747
 6697SOL    HW231551   2.958   4.266   6.456  3.5628 -0.3046  1.7400
 6698SOL     OW31552   2.849   0.282   9.268  0.1281 -0.2338  0.0995
 6698SOL    HW131553   2.941   0.309   9.270 -0.2778  1.1156  0.6718
 6698SOL    HW231554   2.816   0.310   9.183 -1.3812 -1.4903  0.2770
 6699SOL     OW31555   3.602   2.907  16.931  0.0970 -0.1029 -0.5384
 6699SOL    HW131556   3.600   2.900  17.026  3.4089  0.9752 -0.3833
 6699SOL    HW231557   3.693   2.891  16.906 -0.0493 -1.6534 -0.0668
 6700SOL     OW31558   4.362   0.434   7.949 -0.4854 -0.2426 -0.4049
 6700SOL    HW131559   4.331   0.383   7.873  0.6954  0.8854 -1.6350
 6700SOL    HW231560   4.444   0.388   7.968 -0.5568  0.1375  0.8038
 6701SOL     OW31561   3.426   0.865   9.069 -0.0522 -0.3397 -0.4189
 6701SOL    HW131562   3.353   0.869   9.007  0.8424  1.1064 -1.3897
 6701SOL    HW231563   3.490   0.820   9.015 -0.5028 -1.2997 -0.1508
 6702SOL     OW31564   3.538   1.181  17.073 -0.0410  0.0655  0.1988
 6702SOL    HW131565   3.442   1.181  17.079  0.0124 -2.4652  0.7420
 6702SOL    HW231566   3.572   1.142  17.154  2.2276 -0.6879 -1.1163
 6703SOL     OW31567   0.646   4.442   5.179  0.0036  0.4822  0.5698
 6703SOL    HW131568   0.682   4.354   5.182  0.1006  0.5716  2.3097
 6703SOL    HW231569   0.573   4.417   5.122  1.6123 -2.2241 -0.2797
 6704SOL     OW31570   3.222   0.438   2.418  0.3361 -0.2896 -0.4266
 6704SOL    HW131571   3.137   0.444   2.462 -0.4924 -0.0153 -2.0616
 6704SOL    HW231572   3.228   0.533   2.410  0.7369 -0.2626  0.2245
 6705SOL     OW31573   1.476   2.076   7.063  0.0766 -0.7882 -0.8590
 6705SOL    HW131574   1.490   2.139   6.992 -3.1134  0.7812 -0.0484
 6705SOL    HW231575   1.463   2.134   7.137  2.0324 -1.1715 -0.2078
 6706SOL     OW31576   1.289   1.002   6.122 -0.4851  0.4229 -0.5483
 6706SOL    HW131577   1.223   1.066   6.150 -0.5218 -0.1918  0.7891
 6706SOL    HW231578   1.345   0.980   6.196  1.5541  0.8968 -1.9582
 6707SOL     OW31579   1.459   0.308   2.797  0.0671 -0.8164  0.1799
 6707SOL    HW131580   1.399   0.234   2.805 -2.1922  0.9936  0.2191
 6707SOL    HW231581   1.401   0.383   2.815  0.6465 -0.5108  0.7820
 6708SOL     OW31582   2.435   3.636   7.013 -0.0830 -0.4314 -0.8390
 6708SOL    HW131583   2.340   3.644   7.005  0.1129  2.9821  0.0708
 6708SOL    HW231584   2.436   3.588   7.096 -2.5557 -0.5170 -0.8650
 6709SOL     OW31585   2.224   2.861   6.614  0.0349  0.4001  0.0311
 6709SOL    HW131586   2.141   2.851   6.660 -0.4475  0.2772 -0.8663
 6709SOL    HW231587   2.187   2.900   6.535  1.4483  0.3720 -0.6507
 6710SOL     OW31588   3.236   2.150   5.720  0.5524  0.2260 -0.3865
 6710SOL    HW131589   3.216   2.060   5.745  0.4267 -0.4605 -2.9370
 6710SOL    HW231590   3.317   2.170   5.766  1.2743  1.5394 -2.2298
 6711SOL     OW31591   1.605   0.767   0.692  0.7146 -0.0728 -0.0476
 6711SOL    HW131592   1.616   0.746   0.784  0.5780  0.7668  0.1590
 6711SOL    HW231593   1.667   0.701   0.661 -0.2061 -1.1115  0.3233
 6712SOL     OW31594   2.246   3.136  14.645  0.0309 -0.3009 -0.1049
 6712SOL    HW131595   2.250   3.042  14.628  0.7023 -0.2697 -0.1204
 6712SOL    HW231596   2.332   3.155  14.608  1.0257 -0.1698  2.3127
 6713SOL     OW31597   2.635   3.642   2.746  0.6945  0.2942 -0.0982
 6713SOL    HW131598   2.708   3.697   2.715 -0.0250  1.8040  0.9030
 6713SOL    HW231599   2.564   3.706   2.741 -0.5957 -1.0877  0.7359
 6714SOL     OW31600   1.956   2.405   7.766  0.2209  0.0073 -0.1840
 6714SOL    HW131601   1.923   2.453   7.690  0.6529  1.1249  0.3277
 6714SOL    HW231602   1.877   2.398   7.818  1.9187 -1.3274  2.1846
 6715SOL     OW31603   0.291   4.040   9.620 -0.0732  0.7212  0.1255
 6715SOL    HW131604   0.205   4.081   9.626 -0.1997  0.3082  1.1157
 6715SOL    HW231605   0.269   3.948   9.633  1.1952  0.0526 -2.3943
 6716SOL     OW31606   3.275   2.013  15.669  0.1326  0.3346  0.3246
 6716SOL    HW131607   3.368   1.990  15.678 -1.0098 -4.1810  0.9369
 6716SOL    HW231608   3.275   2.091  15.725  0.2615  0.2524  0.4403
 6717SOL     OW31609   4.611   4.090  16.801 -0.4162  0.7431 -0.0001
 6717SOL    HW131610   4.701   4.120  16.812 -1.1201  2.8170 -0.0045
 6717SOL    HW231611   4.623   4.056  16.712 -0.3906  0.3323  0.1576
 6718SOL     OW31612   0.717   2.006   8.046 -0.2669 -0.0565  0.4296
 6718SOL    HW131613   0.763   1.967   7.972 -0.3463 -0.1578  0.4352
 6718SOL    HW231614   0.733   1.942   8.115 -1.2279 -0.1722  0.5395
 6719SOL     OW31615   2.315   4.212   6.545  0.1196  0.1585 -0.2391
 6719SOL    HW131616   2.242   4.152   6.529 -0.1382 -0.0460  1.6956
 6719SOL    HW231617   2.375   4.152   6.589 -2.4174 -2.5950 -0.5475
 6720SOL     OW31618   1.664   2.015   2.043  0.2854 -0.4717 -0.6058
 6720SOL    HW131619   1.624   1.966   1.971 -1.0069 -0.0737 -0.1504
 6720SOL    HW231620   1.671   2.103   2.005 -0.7635 -0.5622 -0.9979
 6721SOL     OW31621   2.962   0.322  12.209  0.1474  0.0080  0.2552
 6721SOL    HW131622   2.921   0.385  12.269 -2.8202 -1.5271 -0.2055
 6721SOL    HW231623   2.885   0.303  12.157 -0.0388 -0.1567  0.5889
 6722SOL     OW31624   1.449   0.658   7.926 -0.0898 -0.0268  0.0182
 6722SOL    HW131625   1.432   0.578   7.878 -1.2172 -0.1961  0.6998
 6722SOL    HW231626   1.483   0.632   8.012 -0.5909  3.0037  1.1363
 6723SOL     OW31627   3.467   0.760   9.333 -0.0150  0.0392 -0.3885
 6723SOL    HW131628   3.454   0.814   9.255  1.8775 -0.4999 -1.0913
 6723SOL    HW231629   3.512   0.682   9.302  0.2789  0.2600 -0.5241
 6724SOL     OW31630   0.750   0.573   8.734 -0.0898 -0.3481 -0.3313
 6724SOL    HW131631   0.708   0.545   8.653  0.5192 -0.2452 -0.6788
 6724SOL    HW231632   0.718   0.498   8.784  2.6268 -0.4656  1.1986
 6725SOL     OW31633   2.605   2.979   6.434  0.1603  0.3481  0.5894
 6725SOL    HW131634   2.655   2.926   6.371 -1.4136 -2.7787  1.9492
 6725SOL    HW231635   2.517   2.996   6.401 -0.4972 -2.3514  0.9314
 6726SOL     OW31636   0.564   4.373  13.539  0.5973  0.2519 -0.2769
 6726SOL    HW131637   0.573   4.302  13.475  0.9449  1.1392 -1.2137
 6726SOL    HW231638   0.592   4.327  13.618 -1.7564 -0.2393  0.2940
 6727SOL     OW31639   3.190   3.231  11.204 -0.0849 -0.2044 -0.1099
 6727SOL    HW131640   3.146   3.242  11.288 -1.2943  2.0497 -1.0303
 6727SOL    HW231641   3.200   3.136  11.193 -1.1130 -0.2546 -0.6899
 6728SOL     OW31642   4.305   2.447   4.677  0.4334  0.3143 -0.0240
 6728SOL    HW131643   4.234   2.490   4.630  1.4766 -1.5976 -3.3154
 6728SOL    HW231644   4.257   2.405   4.748  0.8542  0.7706  0.5319
 6729SOL     OW31645   3.296   4.386   0.855  0.6676 -0.1905 -0.0563
 6729SOL    HW131646   3.235   4.368   0.783  1.4151 -2.4746 -0.1165
 6729SOL    HW231647   3.273   4.315   0.916 -0.5517  0.3907  0.1632
 6730SOL     OW31648   0.284   4.400   2.017 -0.1579  0.0151  0.4375
 6730SOL    HW131649   0.304   4.408   1.924 -1.1961 -2.3446 -0.0008
 6730SOL    HW231650   0.188   4.396   2.016 -0.1167 -0.6940 -1.4446
 6731SOL     OW31651   3.565   1.347   6.240  0.1717 -0.0147  0.1979
 6731SOL    HW131652   3.609   1.405   6.177  3.2735 -2.3761  0.2216
 6731SOL    HW231653   3.635   1.330   6.304  0.1442  0.1544  0.2723
 6732SOL     OW31654   1.107   4.032   4.458 -0.0207 -0.1457  0.2269
 6732SOL    HW131655   1.019   4.025   4.420 -0.2748 -0.9255  0.9606
 6732SOL    HW231656   1.101   4.114   4.507  0.4211 -0.4395  0.7659
 6733SOL     OW31657   2.997   1.132   4.154  0.1485 -0.1990 -0.1210
 6733SOL    HW131658   3.056   1.102   4.223 -0.5789  0.7793  0.9366
 6733SOL    HW231659   2.919   1.118   4.208  0.6054  1.9351  1.0827
 6734SOL     OW31660   0.256   2.032   4.398  0.3660  0.2326  0.6428
 6734SOL    HW131661   0.176   2.050   4.349 -0.2226  2.6834  2.4821
 6734SOL    HW231662   0.297   1.975   4.333 -0.0227  2.2336 -1.3630
 6735SOL     OW31663   2.103   2.062   3.928  0.1063  0.0370 -0.0345
 6735SOL    HW131664   2.167   2.112   3.878 -0.2841  2.6647  2.1154
 6735SOL    HW231665   2.162   2.004   3.975 -0.7278 -0.0153  0.9495
 6736SOL     OW31666   4.126   0.331  17.326  0.4420 -0.6033  0.1748
 6736SOL    HW131667   4.048   0.328  17.382  0.4475  0.9472  0.2764
 6736SOL    HW231668   4.097   0.405  17.272 -0.7627 -0.5656  0.8718
 6737SOL     OW31669   0.663   1.845   7.325  0.4226 -0.2439  0.5344
 6737SOL    HW131670   0.726   1.877   7.390 -0.4701  0.3060  1.1225
 6737SOL    HW231671   0.586   1.890   7.359 -1.0583 -1.6369 -0.9487
 6738SOL     OW31672   3.577   4.290   5.721 -0.0185  0.1225 -0.1435
 6738SOL    HW131673   3.670   4.313   5.726  0.3467 -1.3379 -0.1833
 6738SOL    HW231674   3.532   4.345   5.785  1.6861 -1.4335  2.4062
 6739SOL     OW31675   4.702   3.225   7.121  0.2759 -0.1851  0.0389
 6739SOL    HW131676   4.621   3.206   7.075  1.2357 -1.7314 -1.0144
 6739SOL    HW231677   4.671   3.267   7.201  1.1649  2.7607 -1.1477
 6740SOL     OW31678   1.491   4.364   7.175 -0.4232 -0.0715  0.0789
 6740SOL    HW131679   1.509   4.362   7.081 -2.2120  3.9382 -0.3593
 6740SOL    HW231680   1.491   4.460   7.179 -0.3024 -0.0794  0.2801
 6741SOL     OW31681   3.072   2.218  11.295  0.4115 -0.4381  0.2698
 6741SOL    HW131682   3.024   2.199  11.215 -1.4867 -1.6975  1.6924
 6741SOL    HW231683   3.012   2.178  11.359 -1.3351 -0.3854 -1.3291
 6742SOL     OW31684   1.088   2.384  12.561 -0.5042  0.2320 -0.2314
 6742SOL    HW131685   1.007   2.408  12.516 -1.5971 -0.7149  1.2060
 6742SOL    HW231686   1.083   2.442  12.637  1.5005  1.4486 -1.0508
 6743SOL     OW31687   3.525   3.992   0.010 -0.3366 -0.1842  0.9065
 6743SOL    HW131688   3.575   4.022  17.631  1.0556 -3.2665  0.6007
 6743SOL    HW231689   3.435   4.020  17.692  0.3070  1.4105  0.0593
 6744SOL     OW31690   4.052   3.635   2.067 -0.6742  0.2143 -0.0156
 6744SOL    HW131691   4.021   3.557   2.113 -0.5210  0.2195  0.0983
 6744SOL    HW231692   4.127   3.607   2.016  0.1711 -0.7462  1.7373
 6745SOL     OW31693   1.500   2.530   4.800 -0.1850  0.4806 -0.0275
 6745SOL    HW131694   1.426   2.543   4.742 -1.7321  0.1177  1.8547
 6745SOL    HW231695   1.515   2.620   4.831 -0.4152  0.7167 -0.6030
 6746SOL     OW31696   3.362   4.433  12.553 -0.3641 -0.3798 -0.0918
 6746SOL    HW131697   3.341   4.383  12.475 -0.9303  0.7906 -0.6983
 6746SOL    HW231698   3.362   4.365  12.620 -4.4085 -2.4459 -2.2187
 6747SOL     OW31699   2.774   1.852  14.536  0.0816 -0.2083 -0.3487
 6747SOL    HW131700   2.855   1.871  14.489  1.3305 -0.9369  1.4985
 6747SOL    HW231701   2.747   1.942  14.554 -1.8489 -1.2014  1.7639
 6748SOL     OW31702   4.188   2.857  13.919 -0.0276 -0.1458  0.0337
 6748SOL    HW131703   4.140   2.841  14.000  1.0288 -2.1325  0.2532
 6748SOL    HW231704   4.268   2.807  13.936 -0.3269 -1.8297 -3.3715
 6749SOL     OW31705   1.970   2.033   9.604 -0.0462  0.1078 -0.1910
 6749SOL    HW131706   1.907   2.086   9.652 -1.1315 -2.0904  0.8022
 6749SOL    HW231707   2.055   2.054   9.642  1.1190 -2.8797 -1.1032
 6750SOL     OW31708   3.037   1.779  15.966  0.1467 -0.7850 -0.0552
 6750SOL    HW131709   2.957   1.765  16.016 -0.2333 -0.3599 -0.5357
 6750SOL    HW231710   3.094   1.799  16.040 -0.6415  1.0965  0.0410
 6751SOL     OW31711   2.972   1.915  13.723 -0.0998 -0.0549 -0.1167
 6751SOL    HW131712   3.036   1.856  13.761 -0.6593 -1.2391 -0.9910
 6751SOL    HW231713   2.930   1.969  13.790  0.1373 -1.5016  1.1725
 6752SOL     OW31714   2.156   0.374   8.615 -0.3202 -0.0602 -0.1114
 6752SOL    HW131715   2.241   0.333   8.635  0.5289  1.7116 -0.1148
 6752SOL    HW231716   2.183   0.437   8.549  0.5802 -0.2134  0.1112
 6753SOL     OW31717   2.515   2.042   5.291 -0.0041 -0.2358 -0.3013
 6753SOL    HW131718   2.503   1.950   5.316 -0.7629 -0.6272 -2.1143
 6753SOL    HW231719   2.532   2.033   5.197 -0.8595 -0.2787 -0.4511
 6754SOL     OW31720   2.923   2.663   1.208 -0.0462 -0.7187 -0.1364
 6754SOL    HW131721   2.948   2.604   1.137  2.4736 -1.5160  1.4232
 6754SOL    HW231722   3.011   2.688   1.237 -0.1721  0.8704 -1.1516
 6755SOL     OW31723   0.407   4.070   9.872 -0.0653 -0.1913  0.0758
 6755SOL    HW131724   0.339   4.121   9.916 -0.8451 -1.7026  0.6270
 6755SOL    HW231725   0.379   4.069   9.780 -0.2522  0.4105  0.1266
 6756SOL     OW31726   4.174   1.195   6.838  0.3177 -0.0740  0.5406
 6756SOL    HW131727   4.261   1.157   6.830 -0.1322 -0.8573 -0.5999
 6756SOL    HW231728   4.129   1.111   6.846 -0.9040  0.2817 -2.6693
 6757SOL     OW31729   0.751   1.945   7.080  0.3913 -0.0759  0.4974
 6757SOL    HW131730   0.709   1.938   7.167  1.1254 -1.1407  0.7697
 6757SOL    HW231731   0.762   2.040   7.074  2.5095 -0.4450 -1.1928
 6758SOL     OW31732   3.477   1.689   2.260 -0.2511  0.2929  0.1407
 6758SOL    HW131733   3.507   1.699   2.351 -1.3268  1.0058  0.4107
 6758SOL    HW231734   3.458   1.595   2.264 -1.3535  0.4175 -2.4546
 6759SOL     OW31735   0.319   2.100   3.470 -0.4566  0.0992 -0.3944
 6759SOL    HW131736   0.384   2.159   3.432  0.6494 -1.3187 -0.6788
 6759SOL    HW231737   0.335   2.026   3.411 -1.7533 -0.6146  0.1473
 6760SOL     OW31738   4.585   2.165   9.685 -0.3570 -0.1139 -0.2766
 6760SOL    HW131739   4.518   2.120   9.635 -0.3850 -1.1182  0.6621
 6760SOL    HW231740   4.653   2.097   9.691  0.9689  1.1768 -0.6852
 6761SOL     OW31741   1.651   2.759   2.915 -0.0506 -0.1449  0.1839
 6761SOL    HW131742   1.620   2.671   2.938 -3.5775  0.7380 -1.2110
 6761SOL    HW231743   1.711   2.783   2.986  1.8992  0.4797 -1.6817
 6762SOL     OW31744   2.031   2.044   9.343  0.4025  0.2096 -0.5826
 6762SOL    HW131745   1.994   2.021   9.428  0.6160 -3.1841 -1.4169
 6762SOL    HW231746   1.956   2.083   9.298 -1.0478 -2.1793 -0.2125
 6763SOL     OW31747   3.093   1.838  10.123 -0.9547 -0.3889 -0.3735
 6763SOL    HW131748   3.095   1.821  10.217  0.3533 -1.0513 -0.5144
 6763SOL    HW231749   3.179   1.807  10.093 -1.0732 -0.4634 -0.6385
 6764SOL     OW31750   2.524   2.091   3.223  0.0278 -0.1971  0.0713
 6764SOL    HW131751   2.590   2.021   3.214 -0.8661 -1.0401  0.0069
 6764SOL    HW231752   2.488   2.104   3.136  0.8370  0.2673 -0.1922
 6765SOL     OW31753   2.746   3.905   1.157 -0.4812  0.1842 -0.1595
 6765SOL    HW131754   2.704   3.979   1.115  1.8165  3.7714  3.8677
 6765SOL    HW231755   2.690   3.832   1.131  0.3479 -0.2186 -0.8335
 6766SOL     OW31756   3.642   3.755   8.263  0.3767 -0.0374  0.0854
 6766SOL    HW131757   3.680   3.702   8.192  0.6292  2.1953 -1.4361
 6766SOL    HW231758   3.720   3.803   8.289  0.4096 -0.3728  0.5923
 6767SOL     OW31759   4.464   3.265  17.594 -0.4356 -0.3844  0.1541
 6767SOL    HW131760   4.379   3.244  17.630 -0.3394  4.1928  3.0225
 6767SOL    HW231761   4.468   3.221  17.509 -2.3138 -0.5870  0.1836
 6768SOL     OW31762   1.274   4.519  11.941 -0.3455 -0.0796 -0.3737
 6768SOL    HW131763   1.360   4.501  11.980 -1.2280 -0.1311  1.5932
 6768SOL    HW231764   1.277   4.615  11.949  0.9741 -0.1846  0.4235
 6769SOL     OW31765   2.506   2.234  11.940  0.2934 -0.0756 -0.0046
 6769SOL    HW131766   2.596   2.233  11.908  0.3675 -2.2444  0.2884
 6769SOL    HW231767   2.523   2.196  12.026 -2.8473  0.9452  1.0782
 6770SOL     OW31768   1.130   0.853  10.134  0.0852 -0.2986  0.7014
 6770SOL    HW131769   1.145   0.911  10.209  4.0456 -2.0047  1.2263
 6770SOL    HW231770   1.058   0.889  10.082  1.7358  2.5529  0.3537
 6771SOL     OW31771   2.251   0.087   2.376  0.3013  0.2705  0.3819
 6771SOL    HW131772   2.296   0.141   2.311  0.4504  0.4837  0.6653
 6771SOL    HW231773   2.287   0.118   2.459 -0.3296  0.5018  0.5636
 6772SOL     OW31774   4.206   3.036  15.776 -0.1025 -0.5025 -0.1549
 6772SOL    HW131775   4.205   3.122  15.819  0.7362 -0.4350 -0.2765
 6772SOL    HW231776   4.300   3.022  15.769  0.1640 -0.1545  2.8160
 6773SOL     OW31777   4.570   3.515   5.955 -0.8159  0.3477 -0.3100
 6773SOL    HW131778   4.532   3.433   5.924 -0.4990 -0.1525  0.6174
 6773SOL    HW231779   4.494   3.566   5.982 -0.6197 -0.2519  1.3690
 6774SOL     OW31780   1.575   3.745  15.175 -0.0347  0.0049 -0.3076
 6774SOL    HW131781   1.495   3.795  15.194  0.6026  1.5167 -1.5695
 6774SOL    HW231782   1.590   3.719  15.266 -1.3328 -1.7854 -0.6057
 6775SOL     OW31783   2.234   2.671   8.014 -0.0795  0.6545 -0.2953
 6775SOL    HW131784   2.169   2.701   7.952 -3.0625 -1.2431  1.9128
 6775SOL    HW231785   2.298   2.742   8.014  0.6296  0.0203 -0.8871
 6776SOL     OW31786   0.063   3.576   6.942  0.0998  0.0486 -0.6483
 6776SOL    HW131787   0.005   3.645   6.909 -1.3983 -0.4748  0.8879
 6776SOL    HW231788   0.090   3.536   6.859 -0.0698 -1.6222  0.1083
 6777SOL     OW31789   0.689   4.208   0.137 -0.4080  0.3004  0.3271
 6777SOL    HW131790   0.676   4.251   0.052 -1.5747 -0.4439  0.1283
 6777SOL    HW231791   0.615   4.239   0.189 -0.9664 -0.6726  0.1273
 6778SOL     OW31792   0.328   4.663  15.005 -0.4508 -0.3206 -0.0718
 6778SOL    HW131793   0.403   4.720  15.022 -0.8294  0.1321  0.0690
 6778SOL    HW231794   0.305   4.649  15.097  0.8992  1.1366  0.4895
 6779SOL     OW31795   4.098   4.413   2.548 -0.3456 -0.6194  0.2544
 6779SOL    HW131796   4.167   4.423   2.614  0.2842 -2.1376 -0.1614
 6779SOL    HW231797   4.013   4.403   2.591 -1.1770  1.3647 -0.9254
 6780SOL     OW31798   4.653   3.485   3.613 -0.1977  0.6059 -0.8333
 6780SOL    HW131799   4.592   3.463   3.683  0.1833 -0.2929 -0.7712
 6780SOL    HW231800   4.651   3.580   3.611 -0.7090  0.6181  0.5553
 6781SOL     OW31801   0.434   3.977   9.368 -0.0799  0.0642 -0.2412
 6781SOL    HW131802   0.506   3.932   9.413  1.0634  0.3318 -1.8023
 6781SOL    HW231803   0.396   4.035   9.434 -1.3612  1.2328 -1.9871
 6782SOL     OW31804   0.058   0.427   4.519  0.4485  0.1088  0.0944
 6782SOL    HW131805   0.024   0.471   4.597  2.0256 -1.4020  1.6487
 6782SOL    HW231806   0.089   0.495   4.459 -1.2505 -0.2102 -1.1400
 6783SOL     OW31807   1.796   4.571   4.384 -0.3682 -0.0364  0.2329
 6783SOL    HW131808   1.724   4.563   4.322  0.7673 -1.8320 -0.8377
 6783SOL    HW231809   1.803   4.477   4.396 -2.1676 -0.3246 -0.9901
 6784SOL     OW31810   2.319   1.196  12.390  0.1363 -0.2676 -0.1996
 6784SOL    HW131811   2.359   1.109  12.384  0.0724 -0.3939  1.2625
 6784SOL    HW231812   2.246   1.188  12.329 -0.8024 -0.1274  0.9086
 6785SOL     OW31813   0.155   3.275  15.876 -0.4091 -0.0984 -0.1317
 6785SOL    HW131814   0.063   3.257  15.895 -0.7731  2.0349  0.0605
 6785SOL    HW231815   0.173   3.202  15.816  1.5318  1.8520 -1.9256
 6786SOL     OW31816   0.385   4.618   6.231 -0.8329 -0.0963  0.3289
 6786SOL    HW131817   0.478   4.596   6.239 -1.3503 -1.5642  2.1822
 6786SOL    HW231818   0.384   4.637   6.137 -2.1582 -1.5469  0.0463
 6787SOL     OW31819   1.285   3.467   8.480 -0.0750  0.4510  0.3959
 6787SOL    HW131820   1.269   3.379   8.446  2.6860 -0.7885  2.3299
 6787SOL    HW231821   1.201   3.506   8.456  0.1657 -0.6049 -2.1799
 6788SOL     OW31822   0.797   3.129   2.735 -0.1782 -0.3808 -0.2120
 6788SOL    HW131823   0.772   3.120   2.827 -0.4563  0.1525 -0.2374
 6788SOL    HW231824   0.774   3.220   2.720 -2.5047 -1.4534 -2.9908
 6789SOL     OW31825   3.530   2.171   0.061  0.1605  0.1952 -0.2647
 6789SOL    HW131826   3.578   2.088   0.067 -1.9725 -1.1637 -1.8716
 6789SOL    HW231827   3.547   2.194   0.152  1.6012  0.3885 -0.5877
 6790SOL     OW31828   2.166   4.639   8.446 -0.6551  0.4393 -0.1453
 6790SOL    HW131829   2.096   4.577   8.467 -0.7354  1.6961  3.3965
 6790SOL    HW231830   2.217   4.576   8.396 -3.6146 -2.1965  0.1728
 6791SOL     OW31831   1.951   0.547   2.875 -0.1015 -0.0134 -0.1909
 6791SOL    HW131832   1.862   0.516   2.888  0.4734 -1.2138  0.7949
 6791SOL    HW231833   1.966   0.616   2.940  1.8631 -1.7872  1.2514
 6792SOL     OW31834   3.100   2.960   2.939  0.3990 -0.3616  0.6128
 6792SOL    HW131835   3.183   2.955   2.892 -0.0577  1.1294 -0.3252
 6792SOL    HW231836   3.075   2.867   2.945 -0.6175 -0.0490  1.2055
 6793SOL     OW31837   3.748   4.286   4.320  0.3989  0.4012  0.2026
 6793SOL    HW131838   3.767   4.353   4.254  1.7950  0.1635  0.3556
 6793SOL    HW231839   3.752   4.328   4.406 -2.3105  0.7625  0.1499
 6794SOL     OW31840   4.031   3.826   6.424  0.2339  0.1013  0.0210
 6794SOL    HW131841   3.980   3.750   6.452  0.0021 -0.1180 -1.0244
 6794SOL    HW231842   4.033   3.866   6.511  1.0113 -2.2710  1.1086
 6795SOL     OW31843   3.104   3.540  14.699  0.4573  0.3294 -0.2581
 6795SOL    HW131844   3.086   3.454  14.737 -2.4645  0.9063 -0.3199
 6795SOL    HW231845   3.030   3.559  14.642 -0.3900 -0.5746  0.5437
 6796SOL     OW31846   3.744   2.199   0.929 -0.3464 -0.6454 -0.2924
 6796SOL    HW131847   3.714   2.219   1.017 -0.4532 -2.5092  0.0963
 6796SOL    HW231848   3.662   2.192   0.880  0.4714  1.0819 -1.9305
 6797SOL     OW31849   1.463   0.446   3.411 -1.0872 -0.1922 -0.5397
 6797SOL    HW131850   1.530   0.412   3.471 -2.5788 -0.0029  1.2444
 6797SOL    HW231851   1.420   0.509   3.469 -4.1722 -1.9487 -0.8836
 6798SOL     OW31852   0.864   2.686   2.606 -0.0278 -0.5941 -0.1464
 6798SOL    HW131853   0.796   2.639   2.558  1.4241  0.2380 -2.9981
 6798SOL    HW231854   0.920   2.686   2.528 -1.3199 -3.4031 -1.0703
 6799SOL     OW31855   3.574   1.960   0.970  0.3205 -0.9225 -0.4387
 6799SOL    HW131856   3.562   2.034   1.029 -1.2075 -0.8994 -0.7842
 6799SOL    HW231857   3.670   1.967   0.970  0.1415  1.3969  2.0801
 6800SOL     OW31858   3.133   1.931  13.511 -0.2811 -0.2059 -0.1699
 6800SOL    HW131859   3.067   1.938  13.579  0.0422 -3.0265  0.4418
 6800SOL    HW231860   3.119   2.006  13.453 -1.3181 -1.4215 -1.4681
 6801SOL     OW31861   0.371   3.465  15.237  0.0792  0.2422  0.1700
 6801SOL    HW131862   0.457   3.499  15.259 -0.0391  0.6747 -0.0179
 6801SOL    HW231863   0.329   3.479  15.322  1.4279 -2.6358  1.2933
 6802SOL     OW31864   4.142   4.195   2.864  0.4034 -0.0441 -0.2471
 6802SOL    HW131865   4.191   4.258   2.811  0.7427 -1.2106 -1.2952
 6802SOL    HW231866   4.125   4.126   2.800 -0.0198 -0.8283  0.7126
 6803SOL     OW31867   2.553   4.187   7.073  0.5469  0.4598  0.4959
 6803SOL    HW131868   2.478   4.187   7.014  1.0143 -0.7221 -0.0943
 6803SOL    HW231869   2.529   4.249   7.142 -2.3560 -0.6679  0.4847
 6804SOL     OW31870   4.440   0.684   0.244  0.1361 -0.1314 -0.7150
 6804SOL    HW131871   4.375   0.708   0.310 -0.9105 -1.3102 -1.3087
 6804SOL    HW231872   4.427   0.589   0.249 -0.0288 -0.0743 -0.0437
 6805SOL     OW31873   0.895   4.148   8.889  0.1471 -0.1030 -0.5395
 6805SOL    HW131874   0.939   4.210   8.831  1.0561 -1.8554 -1.7417
 6805SOL    HW231875   0.896   4.071   8.831  1.4297 -0.2764 -0.2738
 6806SOL     OW31876   2.041   1.643   2.757 -0.1489  0.7799  0.9391
 6806SOL    HW131877   1.968   1.642   2.696 -0.6211  2.3320  1.4852
 6806SOL    HW231878   2.089   1.720   2.728  1.3668 -0.6594 -0.4128
 6807SOL     OW31879   3.720   1.268   6.945 -0.5527  0.2043  0.1300
 6807SOL    HW131880   3.810   1.293   6.964 -0.5920  0.4463 -0.0039
 6807SOL    HW231881   3.690   1.247   7.033 -0.7312 -1.0024 -0.2195
 6808SOL     OW31882   2.348   4.450  16.485  0.5727  0.1286  0.1736
 6808SOL    HW131883   2.361   4.451  16.390  0.1664  1.9054  0.1456
 6808SOL    HW231884   2.415   4.508  16.521  0.2000 -1.4672  3.4577
 6809SOL     OW31885   4.051   0.142   2.978 -0.1292  0.2481 -0.3554
 6809SOL    HW131886   4.080   0.126   2.889  2.8231  0.6595  0.5132
 6809SOL    HW231887   4.028   0.233   2.961  0.0863 -0.0627 -2.2606
 6810SOL     OW31888   1.263   0.499  11.609 -0.2998  0.0900 -0.2147
 6810SOL    HW131889   1.219   0.552  11.543 -0.6113  2.1812  1.6813
 6810SOL    HW231890   1.341   0.461  11.567 -1.4702 -0.8707 -1.4954
 6811SOL     OW31891   1.677   1.253   3.927  0.4054  0.5101  0.1613
 6811SOL    HW131892   1.668   1.319   3.996 -1.7051 -0.4784  0.8645
 6811SOL    HW231893   1.651   1.303   3.850 -2.8000  0.3858  1.1300
 6812SOL     OW31894   2.572   0.604  17.512  0.2327  0.1372  0.1140
 6812SOL    HW131895   2.545   0.632  17.600 -1.5493 -1.5908  0.1272
 6812SOL    HW231896   2.564   0.508  17.512 -0.4251  0.2037 -0.8695
 6813SOL     OW31897   1.640   0.698   6.139 -0.0348  0.3090  0.1483
 6813SOL    HW131898   1.603   0.692   6.227 -1.4981  2.4679 -0.3219
 6813SOL    HW231899   1.638   0.608   6.106  0.1244  0.5049 -0.3942
 6814SOL     OW31900   2.091   2.893   4.222 -0.2998  0.0768 -0.1166
 6814SOL    HW131901   2.144   2.950   4.278 -0.0791  1.2854 -1.5761
 6814SOL    HW231902   2.092   2.812   4.273 -0.6890 -0.3239 -0.7381
 6815SOL     OW31903   3.496   1.291  11.313  0.4815  0.1770  0.1486
 6815SOL    HW131904   3.555   1.356  11.274  0.8378  0.0220  0.4316
 6815SOL    HW231905   3.527   1.213  11.267 -1.2715 -1.4550  1.7614
 6816SOL     OW31906   3.860   0.772   0.925 -0.1904 -0.1720  0.2982
 6816SOL    HW131907   3.882   0.842   0.865 -0.6692  1.2587  1.7971
 6816SOL    HW231908   3.894   0.693   0.883 -2.2738 -0.6621 -0.4791
 6817SOL     OW31909   1.668   1.924   0.049  0.2568 -0.0829 -0.0198
 6817SOL    HW131910   1.635   2.002   0.004  2.2026  0.8469  0.1493
 6817SOL    HW231911   1.593   1.866   0.057 -0.7877  1.1915 -0.5427
 6818SOL     OW31912   4.580   3.932   8.703 -0.2907 -0.4772 -0.0325
 6818SOL    HW131913   4.613   3.896   8.621  0.5138  0.6519 -0.2024
 6818SOL    HW231914   4.528   4.009   8.681  1.2848  0.9882  1.4241
 6819SOL     OW31915   1.734   4.087  16.366  0.0478  0.0688  0.2684
 6819SOL    HW131916   1.714   4.174  16.332  1.9565  0.1263 -0.6932
 6819SOL    HW231917   1.746   4.032  16.288 -0.3127  1.1908 -0.5638
 6820SOL     OW31918   1.082   1.140   8.032  0.0038 -0.0232  0.1230
 6820SOL    HW131919   1.101   1.071   8.095 -1.7182 -0.9972 -0.4296
 6820SOL    HW231920   1.172   1.153   8.000 -0.3165  0.7137 -0.4992
 6821SOL     OW31921   1.680   0.833   9.601  0.2730  0.2984  0.2231
 6821SOL    HW131922   1.676   0.925   9.625  1.4950  0.1999  0.7857
 6821SOL    HW231923   1.647   0.799   9.685  0.9626 -0.5362  0.1602
 6822SOL     OW31924   1.805   2.842  13.462  0.1233 -0.5314 -0.3707
 6822SOL    HW131925   1.836   2.796  13.384  0.2907  0.5921 -0.9689
 6822SOL    HW231926   1.873   2.905  13.487  1.2131 -1.8591 -0.0406
 6823SOL     OW31927   0.503   2.164   6.735 -0.5401 -0.3407  0.2251
 6823SOL    HW131928   0.421   2.212   6.750 -0.3770 -0.7402  2.3786
 6823SOL    HW231929   0.489   2.092   6.796 -1.1278 -0.1910  0.2676
 6824SOL     OW31930   4.451   0.854   2.716 -0.3193 -0.1497  0.6348
 6824SOL    HW131931   4.531   0.802   2.718  1.5356  2.7318  1.4445
 6824SOL    HW231932   4.496   0.937   2.731 -1.3772  0.0667  2.4878
 6825SOL     OW31933   1.767   2.273   1.869 -0.1076 -0.3051 -0.0944
 6825SOL    HW131934   1.799   2.361   1.851 -1.9236  0.2726 -0.4898
 6825SOL    HW231935   1.675   2.288   1.891  0.1691 -2.9810  2.8831
 6826SOL     OW31936   2.189   0.920   4.551  0.1587 -0.4859  0.4859
 6826SOL    HW131937   2.179   0.967   4.467  2.2597  0.8332  0.9756
 6826SOL    HW231938   2.168   0.989   4.614 -0.0686 -0.3489  0.2592
 6827SOL     OW31939   0.345   1.662   7.492  0.0222 -0.1891 -0.3173
 6827SOL    HW131940   0.270   1.660   7.432 -0.1353  1.9517 -0.1658
 6827SOL    HW231941   0.327   1.746   7.533 -0.0128 -1.6210  2.6390
 6828SOL     OW31942   0.390   0.284  14.145 -0.0220  0.1948  0.2168
 6828SOL    HW131943   0.367   0.239  14.064 -3.6256  1.0189  0.7722
 6828SOL    HW231944   0.428   0.213  14.196  0.9072  1.3042  1.0513
 6829SOL     OW31945   1.539   4.249  15.737  0.6713  0.1534  0.5150
 6829SOL    HW131946   1.536   4.341  15.761 -0.0267  0.6843 -1.6522
 6829SOL    HW231947   1.626   4.223  15.766  1.3775  1.3819 -0.5546
 6830SOL     OW31948   1.921   2.350   5.664 -0.4089 -0.2570 -0.6340
 6830SOL    HW131949   1.894   2.421   5.724  3.4230  0.4935  0.1895
 6830SOL    HW231950   1.835   2.311   5.647  0.8307 -2.7853 -0.9893
 6831SOL     OW31951   1.920   3.590  15.044 -0.2675  0.7539 -0.1850
 6831SOL    HW131952   1.945   3.662  14.986 -0.0920 -0.0989 -1.1791
 6831SOL    HW231953   1.876   3.529  14.985 -2.3232  0.5069  1.6312
 6832SOL     OW31954   3.967   2.454   3.661 -0.1435  0.3128  0.1281
 6832SOL    HW131955   3.955   2.466   3.756  0.2207 -1.2388  0.3769
 6832SOL    HW231956   3.955   2.541   3.623  2.3875  1.6827  2.4883
 6833SOL     OW31957   4.146   4.025   7.184  0.1042  0.0037  0.1394
 6833SOL    HW131958   4.147   4.021   7.088 -1.0767  1.0473  0.0838
 6833SOL    HW231959   4.241   4.034   7.197  0.1716 -0.4921 -0.0101
 6834SOL     OW31960   2.759   3.948   8.953 -0.2371  0.3059 -0.1240
 6834SOL    HW131961   2.751   3.857   8.924 -1.5476 -0.6441  3.1433
 6834SOL    HW231962   2.755   4.002   8.874  0.8454  1.0673  0.3420
 6835SOL     OW31963   2.826   3.554   4.990  0.0692 -0.5205  0.2237
 6835SOL    HW131964   2.771   3.497   4.936  0.1014 -0.6187  0.2943
 6835SOL    HW231965   2.764   3.614   5.032 -0.1534 -0.3576 -0.3412
 6836SOL     OW31966   3.631   0.452   6.019 -0.3738 -0.4597 -0.1845
 6836SOL    HW131967   3.543   0.469   5.985 -0.4684 -0.4561  0.0648
 6836SOL    HW231968   3.683   0.494   5.950  0.7282 -1.8556 -0.2080
 6837SOL     OW31969   0.441   2.626   7.711 -0.8029 -0.2958  0.2899
 6837SOL    HW131970   0.352   2.659   7.713 -1.1290 -1.0064 -2.0764
 6837SOL    HW231971   0.494   2.701   7.739  0.3033 -0.3446 -1.6272
 6838SOL     OW31972   3.748   0.349   5.493  0.7058 -0.1198  0.0491
 6838SOL    HW131973   3.799   0.429   5.490  0.0832  0.2633 -0.3078
 6838SOL    HW231974   3.757   0.310   5.406 -1.7974 -2.6907  0.9160
 6839SOL     OW31975   0.657   3.201   8.031 -0.0308  0.4720  0.2072
 6839SOL    HW131976   0.710   3.130   8.068 -0.5333 -1.3835 -2.6769
 6839SOL    HW231977   0.580   3.145   8.029 -1.3775  2.2418  1.6049
 6840SOL     OW31978   4.323   3.419   3.166  0.1052  0.1043 -0.0589
 6840SOL    HW131979   4.329   3.325   3.184  0.7675 -0.0292 -0.9812
 6840SOL    HW231980   4.240   3.435   3.211  0.3501  1.2183 -0.0156
 6841SOL     OW31981   3.311   2.534   1.610  0.1699 -0.0031 -0.0855
 6841SOL    HW131982   3.271   2.530   1.523 -2.2844 -0.1978  1.0480
 6841SOL    HW231983   3.234   2.543   1.667 -0.0838 -0.3882 -0.3608
 6842SOL     OW31984   0.183   0.504  14.148 -0.8739 -0.2426  0.4161
 6842SOL    HW131985   0.171   0.456  14.230  1.6576 -0.8670  0.4418
 6842SOL    HW231986   0.267   0.460  14.128 -0.1783  0.7254  1.2198
 6843SOL     OW31987   2.013   3.253  15.174 -0.0184 -0.4299 -0.0580
 6843SOL    HW131988   2.075   3.206  15.230  0.8450 -1.8399 -2.1735
 6843SOL    HW231989   2.058   3.256  15.089 -1.8945 -0.7217 -1.0472
 6844SOL     OW31990   2.601   1.064   4.529 -0.0787 -0.2485 -0.2346
 6844SOL    HW131991   2.569   1.130   4.591 -0.6290  0.7451 -1.5936
 6844SOL    HW231992   2.652   1.117   4.468  2.0083 -0.5275  1.2899
 6845SOL     OW31993   2.852   2.062   5.740  0.4571  0.3852 -0.0171
 6845SOL    HW131994   2.825   1.984   5.788 -1.7249  0.8126 -0.5764
 6845SOL    HW231995   2.912   2.030   5.673 -1.1197 -0.5842 -0.9498
 6846SOL     OW31996   3.283   3.346   3.911  0.3090  0.4786 -0.6197
 6846SOL    HW131997   3.311   3.301   3.831 -0.7752 -2.8350  0.8786
 6846SOL    HW231998   3.197   3.311   3.933  2.0557 -3.0273  0.6320
 6847SOL     OW31999   1.517   3.251   6.113  0.3115  0.2269 -0.0879
 6847SOL    HW132000   1.468   3.289   6.186  1.8334  3.4829 -0.7797
 6847SOL    HW232001   1.547   3.175   6.164 -1.0644  2.0739  3.4737
 6848SOL     OW32002   4.371   3.619  14.521  0.2574  0.0130  0.0985
 6848SOL    HW132003   4.346   3.619  14.614  1.3091  1.2956  0.3660
 6848SOL    HW232004   4.346   3.528  14.504 -0.8941  0.3869 -0.2635
 6849SOL     OW32005   3.909   0.600   4.545 -0.5039 -0.3664  0.4434
 6849SOL    HW132006   3.953   0.576   4.463  0.3343  1.6706  0.2929
 6849SOL    HW232007   3.977   0.562   4.601 -2.0712 -2.9700  0.5951
 6850SOL     OW32008   0.339   4.445   3.814  0.2038  0.0984  0.4256
 6850SOL    HW132009   0.339   4.359   3.856 -0.2798  1.0358  2.3675
 6850SOL    HW232010   0.290   4.498   3.877  0.0982  0.1880  0.2661
 6851SOL     OW32011   1.079   0.209   9.297  0.0631  0.1274 -0.5148
 6851SOL    HW132012   1.146   0.145   9.320  0.1840  0.9513  1.3845
 6851SOL    HW232013   1.033   0.211   9.381 -1.6615  0.5258 -1.4525
 6852SOL     OW32014   3.474   2.644   8.410  0.4002 -0.4414  0.2248
 6852SOL    HW132015   3.461   2.566   8.464  0.8481 -0.5402  0.1914
 6852SOL    HW232016   3.443   2.620   8.323 -0.9057  2.3085 -0.0376
 6853SOL     OW32017   4.084   4.558  14.523  0.3130  0.6202 -0.1638
 6853SOL    HW132018   4.133   4.476  14.529  0.8661  0.7754 -2.4223
 6853SOL    HW232019   4.113   4.603  14.444 -1.9452  1.0583 -0.7409
 6854SOL     OW32020   1.491   1.235   4.560 -0.1978 -0.2347 -0.0392
 6854SOL    HW132021   1.558   1.208   4.623  0.1351  1.9479  0.5452
 6854SOL    HW232022   1.427   1.263   4.625 -0.8380 -1.0172 -0.3364
 6855SOL     OW32023   0.187   2.756   4.782 -0.1249 -0.5876  0.7951
 6855SOL    HW132024   0.134   2.803   4.716  0.6207  0.0490  0.6510
 6855SOL    HW232025   0.197   2.675   4.732  2.3944  0.5111 -0.4703
 6856SOL     OW32026   0.582   3.244   3.313 -0.4240 -0.3846  0.0450
 6856SOL    HW132027   0.625   3.258   3.229 -1.5965 -0.1964 -0.5173
 6856SOL    HW232028   0.496   3.222   3.278  0.0481 -1.7161 -0.2771
 6857SOL     OW32029   1.354   3.433   7.783  0.1689 -0.0531  0.0616
 6857SOL    HW132030   1.278   3.393   7.826 -1.0507 -0.2283 -2.2374
 6857SOL    HW232031   1.318   3.522   7.779 -0.0839 -0.1941 -0.7276
 6858SOL     OW32032   0.443   3.469   6.713 -0.2484 -0.1959  0.4723
 6858SOL    HW132033   0.462   3.481   6.620 -1.6432  3.0951  0.6037
 6858SOL    HW232034   0.460   3.379   6.739 -0.6994 -1.1686 -2.5321
 6859SOL     OW32035   1.344   1.161   6.510 -0.1502 -0.3175  0.7678
 6859SOL    HW132036   1.426   1.181   6.555 -0.1623 -0.4780  0.8620
 6859SOL    HW232037   1.298   1.105   6.573  0.9954 -1.7877  0.3041
 6860SOL     OW32038   1.859   3.899  14.331 -0.8097 -0.1542  0.2520
 6860SOL    HW132039   1.898   3.977  14.291  1.9234 -0.8792  1.5491
 6860SOL    HW232040   1.863   3.914  14.425 -3.2452 -2.4987  0.7339
 6861SOL     OW32041   1.264   0.463  11.228 -0.0290 -0.4554  0.3870
 6861SOL    HW132042   1.272   0.539  11.284  1.5156  0.2600 -0.8143
 6861SOL    HW232043   1.339   0.478  11.171  0.4925 -0.0567  1.1835
 6862SOL     OW32044   1.718   4.347  11.248 -0.3599  0.7067 -0.0834
 6862SOL    HW132045   1.681   4.409  11.310  2.5603 -0.4070  2.7916
 6862SOL    HW232046   1.656   4.275  11.252  0.9582 -0.3620  1.1235
 6863SOL     OW32047   0.010   2.797   8.615  0.0085  0.0915  0.5329
 6863SOL    HW132048   4.656   2.790   8.669 -1.3054 -0.1040 -1.4177
 6863SOL    HW232049   4.707   2.882   8.581  2.2524  0.6424  0.0929
 6864SOL     OW32050   2.174   0.799   7.030 -0.1422  0.3482 -0.0062
 6864SOL    HW132051   2.153   0.710   7.002 -1.7307  0.4647  0.8392
 6864SOL    HW232052   2.250   0.783   7.086  0.4205  2.1568 -0.2581
 6865SOL     OW32053   3.501   0.980  16.829 -0.2957 -0.0045  0.0813
 6865SOL    HW132054   3.471   0.908  16.884 -1.9360  0.4015 -0.2697
 6865SOL    HW232055   3.453   1.049  16.875  0.4242  0.7861 -0.3434
 6866SOL     OW32056   4.724   3.342   9.273  0.4714 -0.7110 -0.6974
 6866SOL    HW132057   4.663   3.277   9.238 -0.8373 -0.5110  1.1876
 6866SOL    HW232058   4.697   3.409   9.211  2.3021  2.1005  1.5368
 6867SOL     OW32059   1.869   2.657  10.727 -0.0148  0.4491  0.5722
 6867SOL    HW132060   1.925   2.582  10.703  1.6115  1.5309  0.9760
 6867SOL    HW232061   1.782   2.637  10.693  0.1904  0.4015  0.0783
 6868SOL     OW32062   4.018   0.502   6.547 -0.0618  0.9089  0.4950
 6868SOL    HW132063   3.933   0.459   6.558 -0.2606  0.8634 -1.3056
 6868SOL    HW232064   4.070   0.460   6.616  1.1223  4.4029  1.7437
 6869SOL     OW32065   2.393   1.119   2.004 -0.0781 -0.6123  0.2579
 6869SOL    HW132066   2.309   1.134   2.047  0.9581  0.0181  2.0742
 6869SOL    HW232067   2.431   1.206   2.015  0.7550 -0.8129 -1.1021
 6870SOL     OW32068   4.087   3.873  11.230  0.3190 -0.0591 -0.2865
 6870SOL    HW132069   4.096   3.947  11.290  2.0796 -0.3649 -0.1640
 6870SOL    HW232070   4.120   3.909  11.147  2.2589  2.1312  1.4260
 6871SOL     OW32071   1.765   0.708  11.056  0.2069 -0.0942 -1.0539
 6871SOL    HW132072   1.776   0.691  10.962  5.1441  0.4483 -0.5760
 6871SOL    HW232073   1.699   0.778  11.056  1.4592  1.0720 -3.4442
 6872SOL     OW32074   1.291   0.056  11.985  0.2814 -0.5194 -0.0579
 6872SOL    HW132075   1.301   0.112  11.908  3.0006 -0.3747  0.4164
 6872SOL    HW232076   1.313   0.122  12.051  0.0688 -0.3453 -0.1586
 6873SOL     OW32077   3.464   3.092  11.160 -0.4649 -0.4355 -0.4103
 6873SOL    HW132078   3.549   3.049  11.155  0.4889  1.3949 -0.1370
 6873SOL    HW232079   3.396   3.025  11.149  0.2448 -1.3290  0.6544
 6874SOL     OW32080   1.678   1.478   5.758  0.6154 -0.0632  0.3794
 6874SOL    HW132081   1.591   1.442   5.772  0.3443 -0.5563 -2.4245
 6874SOL    HW232082   1.659   1.572   5.763 -0.8653 -0.3038 -0.6263
 6875SOL     OW32083   2.342   1.730   8.594 -0.5268 -0.9132 -0.4021
 6875SOL    HW132084   2.312   1.713   8.683  2.5166 -1.1363  0.6144
 6875SOL    HW232085   2.314   1.821   8.593  0.3993 -0.6418 -1.9814
 6876SOL     OW32086   3.204   1.537  13.603  0.8626  0.4188  0.5553
 6876SOL    HW132087   3.230   1.445  13.616  1.3809  0.4444 -0.2992
 6876SOL    HW232088   3.123   1.532  13.654  0.4139 -1.8090 -0.3598
 6877SOL     OW32089   3.138   2.440   7.675 -0.3550  0.4523 -0.8069
 6877SOL    HW132090   3.209   2.454   7.612  0.9665  0.0858  0.5993
 6877SOL    HW232091   3.134   2.345   7.671 -1.1359  0.3861  1.4747
 6878SOL     OW32092   3.665   3.802   4.484  0.1015  0.1061 -0.1781
 6878SOL    HW132093   3.614   3.859   4.543  0.0803 -1.2058  1.0648
 6878SOL    HW232094   3.648   3.841   4.398  4.2944 -2.7829 -2.2563
 6879SOL     OW32095   0.252   3.118   2.204  0.2963  0.0981  0.3824
 6879SOL    HW132096   0.163   3.091   2.227 -0.6765  2.9341 -0.0529
 6879SOL    HW232097   0.283   3.028   2.205 -1.0830 -0.3940 -0.8674
 6880SOL     OW32098   4.390   4.633   2.840  0.0827  0.1402  0.3460
 6880SOL    HW132099   4.439   4.692   2.783  0.0769 -0.2517 -0.0590
 6880SOL    HW232100   4.437   4.645   2.923  1.7085 -0.4832 -0.4863
 6881SOL     OW32101   3.615   0.645   6.673  0.5005 -0.1024  0.9139
 6881SOL    HW132102   3.642   0.569   6.726  3.0689 -0.3355 -0.7052
 6881SOL    HW232103   3.577   0.705   6.737 -0.0934 -0.8429  1.2584
 6882SOL     OW32104   1.617   2.732   8.123 -0.5588 -0.5083 -0.2094
 6882SOL    HW132105   1.629   2.651   8.173 -2.1387 -0.1685  0.7256
 6882SOL    HW232106   1.667   2.716   8.043 -0.5992 -0.4730 -0.2422
 6883SOL     OW32107   3.036   4.358   1.384 -0.0932  0.1843  0.3128
 6883SOL    HW132108   2.990   4.437   1.413  0.7087  0.9569 -0.4958
 6883SOL    HW232109   3.009   4.356   1.292  1.7908  1.0025 -0.2556
 6884SOL     OW32110   2.249   3.716   4.248  0.1602  0.2877 -0.0449
 6884SOL    HW132111   2.207   3.631   4.263  1.2458  0.3378  3.2201
 6884SOL    HW232112   2.337   3.701   4.282  0.4511 -0.1240 -0.9555
 6885SOL     OW32113   2.458   3.989  13.471 -0.1453  0.3515 -0.0585
 6885SOL    HW132114   2.494   4.015  13.556 -1.9238  0.7672  0.5727
 6885SOL    HW232115   2.530   3.935  13.440 -0.8995  0.1158 -1.4213
 6886SOL     OW32116   4.026   3.427   5.672  0.3535  0.2998  0.0779
 6886SOL    HW132117   3.989   3.438   5.759 -1.1785  0.6727 -0.6255
 6886SOL    HW232118   4.004   3.337   5.648  0.6332  0.0236  0.8857
 6887SOL     OW32119   4.590   3.798  13.170 -0.0684 -0.6543  0.1421
 6887SOL    HW132120   4.637   3.746  13.236  1.5009  0.7466  0.1279
 6887SOL    HW232121   4.653   3.869  13.159 -2.6500  1.6767  0.5986
 6888SOL     OW32122   0.025   1.120   5.550 -0.2517  0.1121  0.3085
 6888SOL    HW132123   4.705   1.094   5.630  1.2619 -0.5517  0.9407
 6888SOL    HW232124   0.113   1.098   5.581  0.3403  0.3145 -1.2115
 6889SOL     OW32125   1.224   1.073  11.770 -0.1310  0.5279 -0.2577
 6889SOL    HW132126   1.136   1.111  11.773 -1.0499 -1.5907 -0.1952
 6889SOL    HW232127   1.205   1.001  11.710  1.0021 -0.3145  0.3991
 6890SOL     OW32128   1.820   0.192  10.005  0.0300  0.0765 -0.0401
 6890SOL    HW132129   1.841   0.285  10.002  0.1512  0.0845  1.3265
 6890SOL    HW232130   1.779   0.183  10.091 -0.1713  0.9601 -0.0376
 6891SOL     OW32131   0.645   1.072   4.673  0.1210  0.1608 -0.4532
 6891SOL    HW132132   0.555   1.038   4.680  0.5287 -0.7248  0.6206
 6891SOL    HW232133   0.668   1.046   4.584 -0.1071  0.6277 -0.6452
 6892SOL     OW32134   2.852   3.271   7.212  0.4101  0.3062  0.0635
 6892SOL    HW132135   2.857   3.244   7.304  1.0040  0.0525 -0.0445
 6892SOL    HW232136   2.880   3.362   7.222 -0.9243  0.7454 -0.2047
 6893SOL     OW32137   1.050   0.794   9.808 -0.0629 -0.4464 -0.6427
 6893SOL    HW132138   1.099   0.874   9.786 -1.2349  0.1132 -1.2467
 6893SOL    HW232139   1.068   0.737   9.733  1.5070 -1.8280  0.7934
 6894SOL     OW32140   1.879   2.527   3.254 -0.2686 -0.2222 -0.1220
 6894SOL    HW132141   1.842   2.487   3.332  1.1158  0.0772  0.6906
 6894SOL    HW232142   1.849   2.481   3.176 -0.4178 -1.9205  0.9490
 6895SOL     OW32143   0.561   4.260   3.304  0.7679 -0.5080 -0.3005
 6895SOL    HW132144   0.536   4.171   3.327 -0.9422  0.5887  2.0738
 6895SOL    HW232145   0.514   4.264   3.220 -1.4025  0.1024  0.9245
 6896SOL     OW32146   0.467   0.495   8.159 -0.2638  0.3307  0.1993
 6896SOL    HW132147   0.374   0.473   8.158  0.0088 -0.8556  0.7800
 6896SOL    HW232148   0.463   0.588   8.181  0.1825  0.6155 -0.8711
 6897SOL     OW32149   2.768   4.022   7.101  0.6993 -0.4072  0.7841
 6897SOL    HW132150   2.793   4.061   7.185 -3.0307  1.0601  1.2208
 6897SOL    HW232151   2.702   4.089   7.084 -0.3951 -1.9052 -0.8665
 6898SOL     OW32152   2.466   4.218   1.750 -0.2575 -0.5412 -0.0301
 6898SOL    HW132153   2.534   4.160   1.785 -1.1432 -0.2248  2.1937
 6898SOL    HW232154   2.515   4.264   1.682  0.5424  0.8875  1.4985
 6899SOL     OW32155   0.960   1.578   5.865  0.3540 -0.6648 -0.6307
 6899SOL    HW132156   0.872   1.558   5.897 -0.0470  0.1818 -1.1924
 6899SOL    HW232157   0.964   1.673   5.875  0.0901 -0.8062  0.8273
 6900SOL     OW32158   2.654   3.923   9.351 -0.5271  0.2191  0.1734
 6900SOL    HW132159   2.694   3.966   9.426  0.7202 -1.7035  0.5997
 6900SOL    HW232160   2.598   3.862   9.399  0.8781 -0.4471  0.9506
 6901SOL     OW32161   0.314   4.018   2.114  0.0779  0.5540  0.2545
 6901SOL    HW132162   0.407   4.010   2.136  0.4431 -0.5597 -1.6809
 6901SOL    HW232163   0.321   3.996   2.021 -0.5512  0.3926  0.2469
 6902SOL     OW32164   0.578   1.640   4.923 -0.1291  0.2018  0.0283
 6902SOL    HW132165   0.535   1.724   4.935 -1.2462 -0.2667 -0.7068
 6902SOL    HW232166   0.527   1.590   4.987 -2.6556  2.9177  0.1045
 6903SOL     OW32167   1.317   2.597   8.022 -0.1486  0.0046 -0.1293
 6903SOL    HW132168   1.242   2.571   8.075 -0.3719  0.2416 -0.3321
 6903SOL    HW232169   1.282   2.681   7.993  1.3708  0.7084  0.1076
 6904SOL     OW32170   1.169   3.532   6.943  0.2078 -0.0338 -0.2671
 6904SOL    HW132171   1.215   3.580   7.011 -1.4390 -1.0420  1.5710
 6904SOL    HW232172   1.234   3.520   6.874 -0.3805 -1.2706 -0.6183
 6905SOL     OW32173   2.702   3.660  17.341 -0.1351 -0.0976 -0.0964
 6905SOL    HW132174   2.633   3.716  17.306  1.1075 -0.1444 -2.6358
 6905SOL    HW232175   2.708   3.590  17.276  0.0975  0.5174 -0.7338
 6906SOL     OW32176   1.411   4.468   7.715 -0.1086 -0.5289  0.3812
 6906SOL    HW132177   1.477   4.497   7.651 -2.5703  0.7486 -1.6095
 6906SOL    HW232178   1.471   4.431   7.780 -0.3852  1.4622  1.7787
 6907SOL     OW32179   3.424   4.568   7.760 -0.2227  0.0685  0.1245
 6907SOL    HW132180   3.484   4.639   7.740 -0.8663  0.5947  0.0376
 6907SOL    HW232181   3.495   4.506   7.773  1.7205  2.4646  1.0315
 6908SOL     OW32182   4.412   1.685  12.178 -0.3202 -0.3363  0.2776
 6908SOL    HW132183   4.432   1.594  12.153  0.3799 -1.0614  3.5257
 6908SOL    HW232184   4.350   1.702  12.107  0.2895 -1.3935 -0.5089
 6909SOL     OW32185   1.431   1.192  11.446  0.6147 -0.1715 -0.5375
 6909SOL    HW132186   1.474   1.115  11.484  1.1495 -0.1919 -1.1830
 6909SOL    HW232187   1.359   1.157  11.393 -0.0551 -1.1378  1.0250
 6910SOL     OW32188   4.224   2.987   9.422  0.1668  0.0960  0.5564
 6910SOL    HW132189   4.278   2.922   9.466 -0.3989  0.4947  1.8458
 6910SOL    HW232190   4.277   3.066   9.433 -0.3800  0.6898 -1.0663
 6911SOL     OW32191   4.715   1.268   5.324  0.7216  0.2205  0.1290
 6911SOL    HW132192   0.019   1.205   5.390  0.0706  0.4949  0.6589
 6911SOL    HW232193   0.053   1.246   5.254  0.5272  1.1592 -0.3388
 6912SOL     OW32194   2.633   4.255   3.941 -0.0300 -0.0725  0.7290
 6912SOL    HW132195   2.580   4.334   3.937 -0.1151 -0.2412 -1.5361
 6912SOL    HW232196   2.687   4.265   4.020  0.5483  1.5152  0.1240
 6913SOL     OW32197   4.060   0.939  16.985  0.1111 -0.0220 -0.8957
 6913SOL    HW132198   4.116   1.017  16.978  0.2691 -0.0083  0.4813
 6913SOL    HW232199   3.997   0.947  16.914 -2.0857 -0.5368  1.0146
 6914SOL     OW32200   1.544   0.898   2.915  0.0410  0.3373 -0.4510
 6914SOL    HW132201   1.538   0.936   3.002 -1.8167 -1.6098  0.2522
 6914SOL    HW232202   1.502   0.965   2.861  0.3962  0.6837 -0.2972
 6915SOL     OW32203   4.176   2.003   3.897  0.5794 -0.1872  0.6623
 6915SOL    HW132204   4.147   1.987   3.987  2.4508  2.9243  1.8104
 6915SOL    HW232205   4.270   1.986   3.905  0.6701  0.7424  1.5854
 6916SOL     OW32206   3.551   3.142   7.803 -0.1440 -0.1845  0.2928
 6916SOL    HW132207   3.631   3.098   7.833 -1.5182 -2.5340  0.5363
 6916SOL    HW232208   3.488   3.111   7.868 -0.5125  1.3558  0.6605
 6917SOL     OW32209   0.919   3.252  17.608 -0.0304  0.3780  0.2761
 6917SOL    HW132210   0.981   3.309  17.653 -0.8654  3.1218 -2.0690
 6917SOL    HW232211   0.879   3.198  17.676 -0.3048  0.6805  0.3554
 6918SOL     OW32212   4.456   0.079   1.553 -0.5437  0.2324 -0.5951
 6918SOL    HW132213   4.382   0.067   1.492 -0.3509 -0.0168 -0.7772
 6918SOL    HW232214   4.519   0.021   1.512  0.9861  1.2289  0.3466
 6919SOL     OW32215   0.890   2.813   1.008  0.1775 -0.3406  0.9460
 6919SOL    HW132216   0.919   2.742   1.066  1.0475  0.1162  1.0818
 6919SOL    HW232217   0.958   2.817   0.941 -1.7757  0.7268 -0.9871
 6920SOL     OW32218   4.321   2.560   7.245 -0.2640  0.1620  0.2195
 6920SOL    HW132219   4.412   2.586   7.232 -0.9363  2.7099  0.5786
 6920SOL    HW232220   4.313   2.518   7.160  1.7168 -0.2161  0.2311
 6921SOL     OW32221   2.708   1.559   6.919  0.2051 -0.1420  0.2974
 6921SOL    HW132222   2.650   1.507   6.976  1.5884  1.3614  3.0623
 6921SOL    HW232223   2.777   1.493   6.916  0.9567  0.6889 -0.6296
 6922SOL     OW32224   0.654   2.919   8.979 -0.3650 -0.0913 -0.2569
 6922SOL    HW132225   0.726   2.942   9.039 -0.8422  1.0543 -0.1092
 6922SOL    HW232226   0.581   2.961   9.025 -1.3365 -2.3129  0.2104
 6923SOL     OW32227   3.627   2.462   5.732 -0.3699  0.5287  0.9164
 6923SOL    HW132228   3.558   2.478   5.796 -1.2995  0.1774  0.0031
 6923SOL    HW232229   3.600   2.393   5.671  1.3871  1.0632 -0.4703
 6924SOL     OW32230   0.444   2.672   4.413 -0.3109  0.5925 -0.1417
 6924SOL    HW132231   0.356   2.693   4.443  0.3447  1.2466  1.3214
 6924SOL    HW232232   0.498   2.665   4.492  0.9254  1.2348 -0.9293
 6925SOL     OW32233   4.015   2.096   7.536 -0.2258 -0.0807  0.2004
 6925SOL    HW132234   4.075   2.037   7.488  0.9196  0.2327  1.2549
 6925SOL    HW232235   4.043   2.083   7.626 -0.8011 -0.5236  0.3160
 6926SOL     OW32236   2.204   1.621  15.956 -0.1901 -0.1029  0.2132
 6926SOL    HW132237   2.221   1.680  15.883  3.2545 -1.5197 -0.1110
 6926SOL    HW232238   2.118   1.585  15.933 -0.0571 -0.7484  0.7354
 6927SOL     OW32239   0.066   2.377   5.517 -0.4296 -0.6287 -0.2150
 6927SOL    HW132240   0.026   2.386   5.604 -0.0894  1.7866 -0.3007
 6927SOL    HW232241   0.007   2.311   5.482 -0.4106  0.5023 -2.3479
 6928SOL     OW32242   2.798   3.423   2.000 -0.1059  0.0305  0.7587
 6928SOL    HW132243   2.800   3.381   1.914 -0.9988 -1.0237  1.2543
 6928SOL    HW232244   2.890   3.449   2.005 -0.1071  0.3741 -1.0365
 6929SOL     OW32245   4.218   2.032   6.109  0.3543  0.6055  0.7315
 6929SOL    HW132246   4.297   1.993   6.071  0.3812  0.2966  1.1071
 6929SOL    HW232247   4.259   2.093   6.170  1.2242  1.5682 -0.8251
 6930SOL     OW32248   2.952   1.250  11.340  0.6621  0.5288  0.2691
 6930SOL    HW132249   2.923   1.335  11.374  0.8528  0.0604  1.6009
 6930SOL    HW232250   3.037   1.245  11.384  1.0885 -2.2794 -0.9005
 6931SOL     OW32251   2.660   2.877   2.781 -0.6784  0.7434  0.1460
 6931SOL    HW132252   2.631   2.859   2.691  1.4638 -3.0593  0.2198
 6931SOL    HW232253   2.750   2.847   2.785 -1.1958 -1.3519 -3.5926
 6932SOL     OW32254   1.221   1.040   3.640 -0.6136 -0.4491  0.4569
 6932SOL    HW132255   1.306   1.065   3.603 -0.9080 -0.9136 -0.5301
 6932SOL    HW232256   1.214   1.101   3.713 -3.6512 -1.9331  1.3960
 6933SOL     OW32257   1.467   3.717   8.753 -0.3815 -0.0799  0.5479
 6933SOL    HW132258   1.546   3.713   8.807 -0.3537 -0.2281  0.4966
 6933SOL    HW232259   1.467   3.622   8.738  2.6343 -0.2525  1.6297
 6934SOL     OW32260   1.780   0.935  10.797  0.0954  0.1618 -0.2177
 6934SOL    HW132261   1.718   0.935  10.870  0.6220  1.0269  0.2352
 6934SOL    HW232262   1.805   0.844  10.781 -1.9288 -0.2186 -1.2336
 6935SOL     OW32263   4.185   2.399   5.445  0.3764 -0.5693 -0.0697
 6935SOL    HW132264   4.222   2.436   5.525 -1.1231  0.9843 -0.0858
 6935SOL    HW232265   4.100   2.372   5.479 -0.2258  0.9958 -0.3028
 6936SOL     OW32266   4.613   2.192   5.433  0.3927 -0.2629  0.3046
 6936SOL    HW132267   4.580   2.104   5.452  2.2690 -1.2588 -1.0447
 6936SOL    HW232268   4.547   2.217   5.368 -0.8213 -0.1969  1.5643
 6937SOL     OW32269   3.912   0.525  14.919  0.5891 -0.4171  0.3858
 6937SOL    HW132270   3.910   0.447  14.864 -1.4589 -0.7664  0.9746
 6937SOL    HW232271   3.986   0.507  14.978  0.0675 -1.1023  0.8371
 6938SOL     OW32272   0.003   0.052   3.613  0.1252 -0.2841  0.3607
 6938SOL    HW132273   0.078   0.110   3.619  0.4842 -0.5353 -1.8236
 6938SOL    HW232274   4.674   0.102   3.675 -2.9844 -3.3938  0.2321
 6939SOL     OW32275   1.234   4.706   2.008 -0.2045 -0.5427 -0.2691
 6939SOL    HW132276   1.228   0.065   2.056 -2.2067 -1.1731  0.5974
 6939SOL    HW232277   1.240   4.643   2.079  1.3436  0.9364  0.8946
 6940SOL     OW32278   0.195   3.040   2.815 -1.1836  0.0198  0.0552
 6940SOL    HW132279   0.176   3.119   2.765 -1.1668  1.0091  1.6162
 6940SOL    HW232280   0.189   3.078   2.903  1.7528 -1.2350  0.7764
 6941SOL     OW32281   0.492   2.322   1.685  0.3567  0.1121 -0.1121
 6941SOL    HW132282   0.521   2.372   1.610  2.0574 -0.0658  0.4408
 6941SOL    HW232283   0.442   2.251   1.644 -0.0035  0.0517  0.4222
 6942SOL     OW32284   0.673   3.055   9.797 -0.3173 -0.1004  0.3449
 6942SOL    HW132285   0.723   3.132   9.769  1.5544 -1.5377 -0.2401
 6942SOL    HW232286   0.588   3.086   9.765  0.9730  0.7541 -2.3110
 6943SOL     OW32287   0.784   2.776   8.452  0.4194 -0.2274  0.0033
 6943SOL    HW132288   0.792   2.858   8.501 -1.3705 -1.2006  1.9578
 6943SOL    HW232289   0.690   2.765   8.436  0.3282  0.7361 -0.0881
 6944SOL     OW32290   0.113   1.600   5.313  0.3213  0.5949  0.2894
 6944SOL    HW132291   0.142   1.568   5.398  0.2863  0.9490  0.4306
 6944SOL    HW232292   0.053   1.533   5.280  0.7055 -1.0233  2.8843
 6945SOL     OW32293   1.074   1.428  11.532 -0.1690 -0.5469  0.3111
 6945SOL    HW132294   1.155   1.468  11.562 -1.6099  0.8786  2.2829
 6945SOL    HW232295   1.085   1.335  11.553  1.4931 -0.7865 -1.6481
 6946SOL     OW32296   1.351   4.165   4.017  0.1319  0.0303  0.3470
 6946SOL    HW132297   1.419   4.099   4.003 -0.4800 -0.6912  0.8461
 6946SOL    HW232298   1.280   4.123   4.064  1.3638 -1.2581  1.0749
 6947SOL     OW32299   0.665   3.496  16.208 -0.0327 -0.0646  0.2760
 6947SOL    HW132300   0.686   3.589  16.200  0.7420 -0.2108  0.5977
 6947SOL    HW232301   0.693   3.470  16.121 -1.3294  0.4533 -0.2910
 6948SOL     OW32302   1.674   0.505   2.950 -0.5393 -0.0257  0.0843
 6948SOL    HW132303   1.622   0.544   3.020  0.6463  1.4860  0.1342
 6948SOL    HW232304   1.614   0.453   2.897 -0.2162 -0.2966 -0.0202
 6949SOL     OW32305   0.661   2.951   2.546 -0.1054  0.0021  0.4469
 6949SOL    HW132306   0.717   3.001   2.606  1.2627  0.2811 -1.0750
 6949SOL    HW232307   0.589   2.920   2.602 -0.5133  0.6135  0.2700
 6950SOL     OW32308   1.541   4.704   7.051 -0.5774 -0.3898 -0.2427
 6950SOL    HW132309   1.540   0.054   6.991  1.3070  1.3039  1.8148
 6950SOL    HW232310   1.465   4.658   7.015 -0.4121 -0.5780 -0.3536
 6951SOL     OW32311   0.404   2.603  14.186  0.0537  0.3293 -0.0203
 6951SOL    HW132312   0.330   2.663  14.185 -1.3039 -1.3514 -1.1106
 6951SOL    HW232313   0.470   2.659  14.227  1.1276 -0.4244 -0.7177
 6952SOL     OW32314   1.277   4.565   1.135  0.8163 -0.0166  0.2143
 6952SOL    HW132315   1.290   4.552   1.041 -1.0109  0.7719 -0.1469
 6952SOL    HW232316   1.251   4.475   1.159 -2.1891  0.2120 -2.1248
 6953SOL     OW32317   3.028   2.099  12.121 -0.3177  0.2099  0.3000
 6953SOL    HW132318   3.119   2.087  12.094 -0.6143 -1.0767 -0.1732
 6953SOL    HW232319   3.005   2.008  12.138  1.1514 -0.1656  0.2335
 6954SOL     OW32320   2.707   2.804   8.570  0.1827 -0.1470  0.7244
 6954SOL    HW132321   2.785   2.826   8.621 -1.6276  1.8285  2.6881
 6954SOL    HW232322   2.736   2.811   8.479 -1.8983  1.1415  0.1477
 6955SOL     OW32323   0.327   0.065   7.508  0.1816 -0.3932 -0.0105
 6955SOL    HW132324   0.363   0.074   7.596  3.7828  0.7578 -1.6278
 6955SOL    HW232325   0.259   0.133   7.508  0.4063 -0.1705 -1.7597
 6956SOL     OW32326   1.078   4.526   2.988 -0.4864  0.0893 -0.5597
 6956SOL    HW132327   1.071   4.462   3.059 -1.3466 -2.2356 -2.7138
 6956SOL    HW232328   0.985   4.534   2.964 -0.8218 -1.2894  0.2692
 6957SOL     OW32329   2.315   4.625  16.777  0.0965  0.1636  0.0874
 6957SOL    HW132330   2.286   4.710  16.809 -0.3498 -0.7734  2.1617
 6957SOL    HW232331   2.366   4.658  16.704  0.7017  4.7137  2.5810
 6958SOL     OW32332   0.996   4.394   4.904 -0.1243 -0.3167  0.2200
 6958SOL    HW132333   0.928   4.329   4.889 -0.0832 -0.9223  2.6557
 6958SOL    HW232334   1.013   4.404   4.810  0.7279  0.4513  0.4491
 6959SOL     OW32335   3.415   4.367   8.485  0.0449  0.4009  0.0625
 6959SOL    HW132336   3.509   4.383   8.492 -0.0648  2.0686 -2.2149
 6959SOL    HW232337   3.402   4.321   8.568  0.4553 -3.1258 -1.8102
 6960SOL     OW32338   2.295   4.323   9.627  0.2561  0.2177  0.3008
 6960SOL    HW132339   2.234   4.255   9.655 -0.5166  2.4406  3.9778
 6960SOL    HW232340   2.374   4.271   9.612 -1.1252 -1.5821 -0.7686
 6961SOL     OW32341   4.276   4.718  14.316 -0.6853  0.0084 -0.0862
 6961SOL    HW132342   4.234   4.669  14.245 -1.1306 -1.3167  1.1097
 6961SOL    HW232343   4.269   0.084  14.285  0.1711  0.5721  1.3585
 6962SOL     OW32344   3.774   0.930   3.485  0.3736 -0.6150 -0.4879
 6962SOL    HW132345   3.680   0.914   3.476  0.3002  0.3127 -1.3867
 6962SOL    HW232346   3.785   1.025   3.485  0.2935 -0.6075  1.2508
 6963SOL     OW32347   2.415   3.484  17.472 -0.0990  0.0933  0.6437
 6963SOL    HW132348   2.341   3.482  17.410  0.2570 -1.4681  0.2642
 6963SOL    HW232349   2.378   3.499  17.559  1.3507 -0.3461  1.3254
 6964SOL     OW32350   2.295   1.582  10.388  0.2437  0.0237  0.2240
 6964SOL    HW132351   2.325   1.663  10.345  0.2516 -0.2610 -0.3046
 6964SOL    HW232352   2.315   1.597  10.480  0.2572 -0.2194  0.2602
 6965SOL     OW32353   3.197   1.331  15.610  0.3906  0.3348  0.0299
 6965SOL    HW132354   3.120   1.290  15.650 -0.3594  2.2972  0.6513
 6965SOL    HW232355   3.188   1.281  15.530  0.5871  0.5689 -0.1396
 6966SOL     OW32356   3.205   2.660  14.978  0.1350 -0.0648  0.1718
 6966SOL    HW132357   3.147   2.584  14.975  0.4722 -0.2508 -1.6936
 6966SOL    HW232358   3.213   2.676  14.884  0.9160 -0.8800  0.1024
 6967SOL     OW32359   1.022   4.599   8.056  0.4816 -0.1987 -0.2749
 6967SOL    HW132360   1.037   4.647   8.137  1.0765  0.2889 -0.6731
 6967SOL    HW232361   0.969   4.527   8.091  0.6813 -0.7736 -1.1590
 6968SOL     OW32362   1.671   2.624   7.292 -0.0703  0.3833 -0.2125
 6968SOL    HW132363   1.740   2.634   7.226 -0.1611  1.7273 -0.0855
 6968SOL    HW232364   1.677   2.708   7.336 -0.5942 -0.8383  2.2011
 6969SOL     OW32365   0.759   2.390   9.412  0.0181 -0.7430 -0.2129
 6969SOL    HW132366   0.832   2.333   9.437  0.7150 -0.6243 -1.9518
 6969SOL    HW232367   0.791   2.470   9.454 -0.0894 -0.3048 -0.9658
 6970SOL     OW32368   2.838   2.728   8.995  0.4889 -1.1078 -0.0801
 6970SOL    HW132369   2.754   2.761   9.030  1.0154  1.3252 -1.0948
 6970SOL    HW232370   2.906   2.792   9.014 -0.4384 -0.7024  1.8554
 6971SOL     OW32371   2.722   3.832   5.785  0.1501  0.1213 -0.1321
 6971SOL    HW132372   2.808   3.864   5.814  0.3629 -0.9222  0.3875
 6971SOL    HW232373   2.691   3.814   5.873 -0.1122  0.4752 -0.1528
 6972SOL     OW32374   2.961   1.217   7.383 -0.5417 -0.4656 -0.4169
 6972SOL    HW132375   2.899   1.218   7.455 -1.8989 -0.2214 -1.5903
 6972SOL    HW232376   2.950   1.297   7.331  0.4939 -0.9705 -1.4202
 6973SOL     OW32377   1.071   1.341  13.741  0.0387  0.0006  0.4204
 6973SOL    HW132378   1.090   1.362  13.832  1.4027  0.2501  0.0792
 6973SOL    HW232379   1.152   1.321  13.694 -0.8593 -1.4443 -0.5106
 6974SOL     OW32380   0.647   2.013  16.994 -0.1994  0.3564  0.1075
 6974SOL    HW132381   0.570   2.008  17.051 -0.8712  2.1646 -0.6362
 6974SOL    HW232382   0.651   1.923  16.962 -1.6537  0.5555 -0.6519
 6975SOL     OW32383   0.196   3.542   3.434 -0.3238 -0.4287  0.0986
 6975SOL    HW132384   0.282   3.560   3.472 -0.2552  1.0896 -0.7696
 6975SOL    HW232385   0.127   3.556   3.500 -0.4626 -3.0820  0.5207
 6976SOL     OW32386   3.077   0.899   1.349 -0.3731  0.0979 -0.1615
 6976SOL    HW132387   3.112   0.977   1.307  1.1980  0.9207  2.6598
 6976SOL    HW232388   2.996   0.879   1.302  0.3715  0.9961 -1.8161
 6977SOL     OW32389   0.594   1.124  17.664 -0.2009  0.3939  0.3705
 6977SOL    HW132390   0.607   1.100   0.057  0.5680  0.2827  0.2323
 6977SOL    HW232391   0.598   1.219  17.672 -2.6148  0.5715 -0.4546
 6978SOL     OW32392   0.201   0.434   6.517  0.2171  0.1271 -0.4519
 6978SOL    HW132393   0.129   0.483   6.557  2.4166  2.2014  0.9112
 6978SOL    HW232394   0.266   0.481   6.568 -1.2879  0.5128  1.1029
 6979SOL     OW32395   1.403   4.141   7.279 -0.2575  0.9615 -0.3881
 6979SOL    HW132396   1.319   4.167   7.317  0.0918 -0.2768  1.2431
 6979SOL    HW232397   1.424   4.211   7.217  0.1811 -1.2351 -2.7021
 6980SOL     OW32398   1.078   4.098   3.811  0.2595  0.4505 -0.6018
 6980SOL    HW132399   1.045   4.013   3.840 -2.0890  2.3625  2.4052
 6980SOL    HW232400   1.073   4.081   3.717  1.7122 -0.5869 -0.4736
 6981SOL     OW32401   0.437   1.186  13.464 -0.1216  0.2245 -0.0652
 6981SOL    HW132402   0.482   1.143  13.536  1.1159  0.2229 -0.8372
 6981SOL    HW232403   0.420   1.273  13.499  1.2779  0.8726 -1.0185
 6982SOL     OW32404   4.483   2.515  14.806  0.6684  0.2132  0.4786
 6982SOL    HW132405   4.396   2.542  14.835 -0.1307  0.4686 -2.1828
 6982SOL    HW232406   4.475   2.420  14.803  2.8640  0.0056  1.6146
 6983SOL     OW32407   1.027   2.404   7.459  0.4035  0.0753  0.0246
 6983SOL    HW132408   0.987   2.482   7.496  2.6051  0.3243  1.8107
 6983SOL    HW232409   1.099   2.394   7.520 -2.0711 -2.2259  2.5901
 6984SOL     OW32410   0.412   3.278   3.000  0.0355  0.2883 -0.0377
 6984SOL    HW132411   0.351   3.252   3.069 -1.1108  0.9199 -0.8082
 6984SOL    HW232412   0.491   3.264   3.052  0.5939 -0.1400 -1.0037
 6985SOL     OW32413   2.380   4.420   3.817  0.0780  0.4410  0.3388
 6985SOL    HW132414   2.403   4.476   3.891  0.4353  0.6936  0.0353
 6985SOL    HW232415   2.444   4.459   3.758  1.0059 -1.0737  0.3348
 6986SOL     OW32416   4.481   4.433   5.641 -0.5141  0.6227 -0.2615
 6986SOL    HW132417   4.431   4.401   5.716  1.2918  0.9289  1.0873
 6986SOL    HW232418   4.475   4.363   5.576  0.3301  0.9006 -0.6414
 6987SOL     OW32419   4.666   1.417   3.596  0.1058  0.1514 -0.2664
 6987SOL    HW132420   4.659   1.454   3.684 -2.6634  3.2977 -1.7606
 6987SOL    HW232421   4.606   1.479   3.553 -0.0962 -2.0283 -3.1634
 6988SOL     OW32422   1.428   2.401  17.314 -0.3117  0.7962  0.4840
 6988SOL    HW132423   1.415   2.496  17.321 -0.7463  0.9074 -2.0681
 6988SOL    HW232424   1.467   2.381  17.400 -0.5688 -0.0596  0.3937
 6989SOL     OW32425   2.112   1.563   8.549 -0.6597  0.4219 -0.1466
 6989SOL    HW132426   2.201   1.599   8.553 -1.1876  1.7265  0.0889
 6989SOL    HW232427   2.054   1.621   8.598 -1.4204 -2.7912  2.7588
 6990SOL     OW32428   1.608   0.818   4.386  0.0689  0.2071 -0.3822
 6990SOL    HW132429   1.674   0.840   4.321 -1.6792  0.9285 -1.9264
 6990SOL    HW232430   1.664   0.802   4.461  0.9409 -0.7774 -1.2485
 6991SOL     OW32431   2.375   2.672  13.157  0.2245 -0.4086 -0.2564
 6991SOL    HW132432   2.282   2.649  13.162  0.7948 -1.8377  3.1988
 6991SOL    HW232433   2.360   2.767  13.150  1.5416 -0.1549  0.2206
 6992SOL     OW32434   4.278   4.327   5.196 -0.2186  0.4398  0.2591
 6992SOL    HW132435   4.354   4.373   5.231  0.2718 -0.1211 -0.0719
 6992SOL    HW232436   4.318   4.244   5.169  0.2306 -0.3431  3.3954
 6993SOL     OW32437   3.426   1.985   6.829  0.2086  0.0919 -0.2174
 6993SOL    HW132438   3.478   1.992   6.750 -0.0938 -0.5591 -0.4786
 6993SOL    HW232439   3.373   1.909   6.803  0.7492 -0.3506 -0.0322
 6994SOL     OW32440   0.494   2.017   4.147 -0.5838 -0.6773  0.2533
 6994SOL    HW132441   0.559   2.012   4.217 -2.4561  0.1507  2.0249
 6994SOL    HW232442   0.436   1.947   4.176 -2.3781  1.7038  2.3500
 6995SOL     OW32443   2.580   3.965   7.839  0.0674  0.0581 -0.2544
 6995SOL    HW132444   2.609   3.874   7.847 -1.4578 -0.4597 -0.6672
 6995SOL    HW232445   2.643   4.003   7.900  0.6873 -0.7822 -0.3686
 6996SOL     OW32446   3.399   4.477   2.153 -0.1661  0.0610  0.2989
 6996SOL    HW132447   3.339   4.450   2.083 -0.9104 -1.2309  1.4556
 6996SOL    HW232448   3.392   4.572   2.144 -0.7733 -0.0812 -0.6946
 6997SOL     OW32449   3.282   0.486   1.879 -0.8321 -0.4024 -0.5958
 6997SOL    HW132450   3.244   0.438   1.806  0.3161 -1.7903 -0.2731
 6997SOL    HW232451   3.204   0.533   1.907  1.9565  3.4453  0.8524
 6998SOL     OW32452   2.246   3.721   3.973  0.0705  0.5869 -0.0757
 6998SOL    HW132453   2.182   3.767   4.027 -0.6742  0.1521 -0.5714
 6998SOL    HW232454   2.326   3.741   4.020  0.2896  0.9252 -0.5890
 6999SOL     OW32455   2.968   1.419  15.896  0.3375 -0.2103 -0.7993
 6999SOL    HW132456   3.023   1.440  15.972  0.0511  0.7629 -0.8727
 6999SOL    HW232457   2.887   1.461  15.926  1.4730  1.6767 -0.4324
 7000SOL     OW32458   2.256   1.913   7.462 -0.1123 -0.6060 -0.1375
 7000SOL    HW132459   2.334   1.872   7.425  1.3834  0.9638  1.2734
 7000SOL    HW232460   2.197   1.838   7.454  1.1884 -1.6486  0.1404
 7001SOL     OW32461   1.848   1.823  11.175 -0.2216 -0.3245  1.1892
 7001SOL    HW132462   1.924   1.873  11.205  0.0148 -0.2613  0.4931
 7001SOL    HW232463   1.785   1.894  11.184  0.8716  0.8694 -0.3881
 7002SOL     OW32464   0.643   0.153   4.081  0.1207 -0.2151  0.2160
 7002SOL    HW132465   0.591   0.097   4.138 -0.1755  1.6814  1.7968
 7002SOL    HW232466   0.611   0.139   3.992  2.8486  0.9057 -0.9621
 7003SOL     OW32467   0.533   1.593   5.236 -0.2582 -0.6012  0.0542
 7003SOL    HW132468   0.461   1.656   5.235  1.3080  1.2013  1.8715
 7003SOL    HW232469   0.615   1.640   5.225 -0.0873 -0.9907 -0.3251
 7004SOL     OW32470   4.367   3.851   3.819 -0.4980 -1.0177  0.3254
 7004SOL    HW132471   4.343   3.802   3.740  1.1422 -0.5653 -0.4539
 7004SOL    HW232472   4.305   3.808   3.878  0.3798 -2.1020  0.4621
 7005SOL     OW32473   0.070   1.446   2.631 -0.2561  0.2926  0.7263
 7005SOL    HW132474   0.097   1.381   2.696 -0.2306 -0.1305  0.2936
 7005SOL    HW232475   0.134   1.514   2.652 -0.7065  0.2631  2.2550
 7006SOL     OW32476   1.164   3.182  10.180  0.6214 -0.3176  0.2351
 7006SOL    HW132477   1.178   3.213  10.091 -0.4042 -1.1709 -0.2070
 7006SOL    HW232478   1.114   3.102  10.165 -0.4238  0.2202  0.8510
 7007SOL     OW32479   1.871   3.171   5.301  0.1897  0.5582 -0.2578
 7007SOL    HW132480   1.923   3.239   5.258  2.0229 -1.0275 -0.5632
 7007SOL    HW232481   1.911   3.096   5.258 -2.1957  0.4464 -2.2570
 7008SOL     OW32482   1.953   3.677   5.788  0.0664 -0.1466  0.4616
 7008SOL    HW132483   1.871   3.688   5.739  0.3867 -0.2673 -0.1005
 7008SOL    HW232484   1.982   3.593   5.755 -0.0730 -0.9223  2.2833
 7009SOL     OW32485   2.170   3.973  11.407  0.2656  0.8895 -0.2026
 7009SOL    HW132486   2.231   3.937  11.342 -0.5328  1.1943 -1.1265
 7009SOL    HW232487   2.120   3.896  11.435  1.1122 -0.0288 -1.1964
 7010SOL     OW32488   3.145   0.146   6.737 -0.0630  0.0303  0.6908
 7010SOL    HW132489   3.175   0.128   6.648 -2.3039  1.3365 -0.3386
 7010SOL    HW232490   3.229   0.141   6.781  0.1574  0.4571  0.3159
 7011SOL     OW32491   2.716   2.857   0.008  0.9402 -0.2835  0.5601
 7011SOL    HW132492   2.806   2.844   0.038  1.5172  0.7025 -0.7361
 7011SOL    HW232493   2.691   2.936   0.055  0.5627 -0.8082  1.2431
 7012SOL     OW32494   0.105   2.971   7.833 -0.5462  0.0955 -0.7193
 7012SOL    HW132495   0.154   3.052   7.819 -1.4992  0.8522  0.2344
 7012SOL    HW232496   0.016   2.996   7.857 -0.9064 -1.0377 -0.8505
 7013SOL     OW32497   2.869   2.512   8.819 -0.5757  0.1406  0.1832
 7013SOL    HW132498   2.924   2.557   8.884 -0.2557  0.3796 -0.2569
 7013SOL    HW232499   2.786   2.515   8.867  0.8389  1.8608  2.5203
 7014SOL     OW32500   1.901   3.953   5.261  0.2160  0.1682 -0.0891
 7014SOL    HW132501   1.892   3.937   5.355  1.3645 -1.0438 -0.1924
 7014SOL    HW232502   1.868   3.872   5.223  1.4819 -0.2352 -0.3050
 7015SOL     OW32503   3.353   2.188   5.329 -1.0554 -0.6226 -0.0391
 7015SOL    HW132504   3.343   2.100   5.365 -1.7245 -0.5348  0.0060
 7015SOL    HW232505   3.424   2.223   5.383  1.4176 -1.0380 -3.0303
 7016SOL     OW32506   3.147   0.934   4.291  0.0241  0.8419 -0.0943
 7016SOL    HW132507   3.213   0.881   4.336 -0.4695  1.0065  0.8014
 7016SOL    HW232508   3.138   0.880   4.212 -0.8586 -0.0036  0.5971
 7017SOL     OW32509   4.356   4.057   5.938  0.0668 -0.0922 -0.5687
 7017SOL    HW132510   4.386   4.048   5.848 -1.6979  3.4566 -1.5201
 7017SOL    HW232511   4.437   4.072   5.986  0.1485 -0.6720 -0.5226
 7018SOL     OW32512   1.978   3.300   3.298 -0.1147  0.0086  0.3657
 7018SOL    HW132513   1.962   3.338   3.211  1.2856  0.1552  0.1715
 7018SOL    HW232514   2.059   3.256   3.272  0.7679  1.8178  0.0629
 7019SOL     OW32515   0.932   2.537   9.737  0.7473 -0.8567  0.4406
 7019SOL    HW132516   0.990   2.470   9.702  1.0604  0.3892 -1.4124
 7019SOL    HW232517   0.914   2.588   9.658  1.2193  2.2950  2.3578
 7020SOL     OW32518   0.189   4.233   6.312  0.0085  0.0063 -0.0754
 7020SOL    HW132519   0.285   4.228   6.316 -0.1686 -2.1729  1.3697
 7020SOL    HW232520   0.175   4.146   6.274  0.8316  0.0981 -0.5752
 7021SOL     OW32521   4.068   3.929   3.218  0.1955  0.1274  0.0942
 7021SOL    HW132522   3.975   3.936   3.196  0.5631 -1.4073 -1.9115
 7021SOL    HW232523   4.097   3.866   3.152 -0.4737  0.0968 -0.1743
 7022SOL     OW32524   4.038   1.942   1.819  0.4637  0.3713  0.0709
 7022SOL    HW132525   3.958   1.904   1.783  0.1703  0.6483  0.4215
 7022SOL    HW232526   4.052   1.880   1.891  4.4305  1.9908  0.6894
 7023SOL     OW32527   1.020   2.708   2.372  0.0132  0.5742  0.3551
 7023SOL    HW132528   1.012   2.704   2.277  2.4427 -1.0491  0.2352
 7023SOL    HW232529   1.113   2.719   2.392  0.4638 -0.7622 -0.9999
 7024SOL     OW32530   0.712   1.886  10.728 -0.4257  0.4471 -0.0646
 7024SOL    HW132531   0.724   1.802  10.772 -1.9713 -0.6140 -1.6630
 7024SOL    HW232532   0.781   1.886  10.662  2.6936 -1.8551  3.1837
 7025SOL     OW32533   4.185   0.499  11.792  0.1742  0.3031 -0.2326
 7025SOL    HW132534   4.100   0.543  11.783 -0.2439 -0.2929  0.7210
 7025SOL    HW232535   4.245   0.568  11.766  0.9131 -0.5302 -0.7190
 7026SOL     OW32536   0.462   1.672  12.458  0.2500  0.1677  0.1027
 7026SOL    HW132537   0.482   1.731  12.530 -2.4805  1.8480 -0.5089
 7026SOL    HW232538   0.532   1.608  12.472  1.2417  1.2651  0.1359
 7027SOL     OW32539   3.198   2.737  14.687 -0.6337 -0.0920 -0.0845
 7027SOL    HW132540   3.128   2.788  14.729 -1.2821 -0.8218 -0.2924
 7027SOL    HW232541   3.245   2.812  14.650 -0.5695  0.2498  0.6937
 7028SOL     OW32542   0.745   0.898   2.156  0.4141 -0.0838 -0.1765
 7028SOL    HW132543   0.832   0.935   2.166  0.9449 -1.2856 -0.4239
 7028SOL    HW232544   0.768   0.806   2.157 -0.1163 -0.2387 -1.5478
 7029SOL     OW32545   4.277   2.774  14.336  0.3967  0.0249  0.0754
 7029SOL    HW132546   4.237   2.714  14.400  1.9160 -0.4101  0.6090
 7029SOL    HW232547   4.369   2.780  14.363 -0.2855  1.8361  2.0734
 7030SOL     OW32548   2.210   4.049   3.399  0.2092 -0.1727  0.5325
 7030SOL    HW132549   2.246   4.028   3.313 -2.0051  0.9036 -0.6361
 7030SOL    HW232550   2.176   4.138   3.393 -0.0720 -0.1859  1.7770
 7031SOL     OW32551   1.422   1.311   0.235  0.1157 -0.3985  0.3480
 7031SOL    HW132552   1.486   1.258   0.282  0.3303 -1.3515 -1.0345
 7031SOL    HW232553   1.352   1.247   0.255  0.0631 -0.2165  0.7523
 7032SOL     OW32554   4.391   2.720  14.074 -0.2349 -0.0847 -0.0773
 7032SOL    HW132555   4.340   2.744  14.150 -1.6847 -0.3626 -0.9574
 7032SOL    HW232556   4.430   2.643  14.116  0.4616  0.0280 -0.5143
 7033SOL     OW32557   1.093   4.571   0.720  0.0823  0.0485 -0.2567
 7033SOL    HW132558   1.020   4.586   0.781 -0.5942 -0.7646 -0.8848
 7033SOL    HW232559   1.145   4.502   0.761 -0.6122 -0.8633 -0.9171
 7034SOL     OW32560   2.895   0.703  10.863  0.5806 -0.6680  0.3206
 7034SOL    HW132561   2.914   0.624  10.812 -1.1203  0.5736 -2.2286
 7034SOL    HW232562   2.863   0.656  10.940  1.2509  1.0693  1.6412
 7035SOL     OW32563   3.555   2.889   9.287 -0.4698  0.8324  0.3000
 7035SOL    HW132564   3.615   2.847   9.225 -1.2721 -0.7618  0.5940
 7035SOL    HW232565   3.506   2.817   9.326  0.8349 -1.0596 -1.5437
 7036SOL     OW32566   0.795   1.041   8.508  0.4584 -0.4225  0.1132
 7036SOL    HW132567   0.890   1.051   8.511  0.4362 -0.0678 -0.3126
 7036SOL    HW232568   0.762   1.124   8.541 -1.8116 -0.9500 -0.7897
 7037SOL     OW32569   0.416   2.508   7.995  0.1278 -0.2601 -0.1947
 7037SOL    HW132570   0.440   2.551   7.912 -0.0094  1.4429  0.6422
 7037SOL    HW232571   0.497   2.467   8.026 -0.0116  0.0009  0.5080
 7038SOL     OW32572   2.353   0.458  17.050  0.2173  0.0398 -0.4648
 7038SOL    HW132573   2.417   0.407  17.100  0.1344  0.6291  0.2418
 7038SOL    HW232574   2.349   0.532  17.111  0.2438  0.9866 -1.6237
 7039SOL     OW32575   1.267   3.535   4.252 -0.3182 -0.2736 -0.0919
 7039SOL    HW132576   1.322   3.458   4.245  3.9430  3.1672 -4.6892
 7039SOL    HW232577   1.252   3.552   4.345 -0.8223  1.5756 -0.5063
 7040SOL     OW32578   2.190   3.622   1.534  0.0175 -0.1372 -0.2727
 7040SOL    HW132579   2.216   3.644   1.624 -2.5991  2.1650 -0.0675
 7040SOL    HW232580   2.115   3.682   1.526 -0.7900 -1.2367 -0.9321
 7041SOL     OW32581   1.663   1.483   0.112  0.2801  0.5321 -0.3075
 7041SOL    HW132582   1.570   1.477   0.090  0.5424 -1.7786 -0.7720
 7041SOL    HW232583   1.657   1.552   0.177 -0.5748  0.7184 -0.5864
 7042SOL     OW32584   2.219   3.539   6.462  0.6110 -0.1309 -0.3649
 7042SOL    HW132585   2.244   3.575   6.548 -1.0728 -0.6694  0.3443
 7042SOL    HW232586   2.290   3.564   6.403  2.3521  0.3058  1.8851
 7043SOL     OW32587   0.654   2.412   8.129 -0.6038 -0.0761 -0.2457
 7043SOL    HW132588   0.749   2.407   8.119 -0.6461  0.5122 -0.9425
 7043SOL    HW232589   0.626   2.373   8.213 -0.8778  1.9332  0.5961
 7044SOL     OW32590   3.996   3.286   0.489  0.1425  0.2347 -0.1153
 7044SOL    HW132591   3.912   3.302   0.534  0.6809  0.6721  0.7281
 7044SOL    HW232592   3.971   3.280   0.397  1.2393 -2.8252 -0.1873
 7045SOL     OW32593   2.610   1.495   7.164 -0.1593 -0.6798  0.2738
 7045SOL    HW132594   2.588   1.403   7.149 -0.2616 -0.5637 -0.2736
 7045SOL    HW232595   2.584   1.497   7.256  1.2432  0.5665  0.6469
 7046SOL     OW32596   4.452   3.516   5.676  0.8470 -0.0611 -0.2637
 7046SOL    HW132597   4.401   3.435   5.677  0.4246  0.1608 -2.4894
 7046SOL    HW232598   4.399   3.580   5.723 -0.4251 -0.3467 -1.2975
 7047SOL     OW32599   0.441   1.899   3.339  0.7361 -0.3450  0.3071
 7047SOL    HW132600   0.403   1.825   3.291  1.4029  0.6731 -1.7936
 7047SOL    HW232601   0.523   1.907   3.290 -0.2594  0.3802 -1.2423
 7048SOL     OW32602   2.834   0.895   1.200 -0.1849 -0.0046 -0.1035
 7048SOL    HW132603   2.774   0.925   1.132  0.9835  0.1459 -1.0595
 7048SOL    HW232604   2.824   0.966   1.264 -1.9170 -0.3716  0.0328
 7049SOL     OW32605   1.361   0.982   9.789 -0.2276  0.4800 -0.8085
 7049SOL    HW132606   1.398   0.894   9.790  3.2483  1.9749  0.9160
 7049SOL    HW232607   1.303   0.972   9.713 -1.9193 -0.5803  0.6424
 7050SOL     OW32608   4.670   3.235   8.953  0.3725 -0.5874 -0.3646
 7050SOL    HW132609   4.589   3.230   8.902 -0.3228  1.4861  0.5088
 7050SOL    HW232610   0.013   3.188   8.905  0.2147 -1.3455  0.1488
 7051SOL     OW32611   1.981   0.210  13.203  0.4381 -0.4406  0.2995
 7051SOL    HW132612   1.902   0.255  13.233  0.0300  0.3089 -1.8691
 7051SOL    HW232613   2.054   0.260  13.241 -0.5326  0.1463  1.3845
 7052SOL     OW32614   1.377   3.721   0.149 -0.4884 -0.8342  0.4575
 7052SOL    HW132615   1.431   3.724   0.069  1.2560  1.2491  1.7122
 7052SOL    HW232616   1.305   3.781   0.128  0.1022 -0.3979 -0.3197
 7053SOL     OW32617   3.049   3.531   4.503 -0.2497  0.0166  0.2135
 7053SOL    HW132618   3.054   3.436   4.506  0.2049  0.0800  1.5460
 7053SOL    HW232619   2.959   3.548   4.478 -0.0416  2.0429  0.8147
 7054SOL     OW32620   2.868   2.776   6.929  0.4484 -0.2028 -0.0176
 7054SOL    HW132621   2.888   2.810   7.017 -0.4997  1.0579 -0.2863
 7054SOL    HW232622   2.952   2.804   6.890 -0.9870  3.7754 -0.2845
 7055SOL     OW32623   4.488   1.120   6.137  0.0587  0.1938  0.7584
 7055SOL    HW132624   4.550   1.047   6.138 -0.2243 -0.0582  0.1814
 7055SOL    HW232625   4.430   1.092   6.065  0.3911 -1.1877  1.0220
 7056SOL     OW32626   0.597   4.605  17.088 -0.2857  0.3077  0.6491
 7056SOL    HW132627   0.615   4.641  17.175  0.8496 -2.1920  1.4676
 7056SOL    HW232628   0.642   4.667  17.031 -1.0797  1.1185  0.9047
 7057SOL     OW32629   0.205   4.285  12.933  0.1300 -0.0190 -0.1466
 7057SOL    HW132630   0.253   4.268  13.014 -0.7841  0.7761  0.5602
 7057SOL    HW232631   0.118   4.255  12.959 -0.0969  0.0865 -0.7956
 7058SOL     OW32632   3.425   2.080  13.252  0.2022  0.7511 -0.2648
 7058SOL    HW132633   3.457   2.162  13.290  1.4815  0.0675  0.1158
 7058SOL    HW232634   3.430   2.025  13.330 -1.6767 -0.8827 -1.3052
 7059SOL     OW32635   2.994   4.146   0.958 -0.2647  0.2291 -0.3280
 7059SOL    HW132636   2.984   4.109   1.045  2.1123 -0.3037 -0.3059
 7059SOL    HW232637   2.929   4.102   0.903 -0.6588 -0.7028  0.8752
 7060SOL     OW32638   0.931   3.310   6.801 -0.1244  0.5909  0.2371
 7060SOL    HW132639   0.973   3.327   6.717  0.9056 -1.9105  0.2636
 7060SOL    HW232640   0.944   3.388   6.853  0.6723  0.5520  0.0978
 7061SOL     OW32641   0.897   0.426   8.517 -0.2047  0.4621  0.3854
 7061SOL    HW132642   0.933   0.405   8.603 -2.6679  2.2402  1.8924
 7061SOL    HW232643   0.865   0.339   8.495  0.0740  0.3405  0.4719
 7062SOL     OW32644   4.199   1.947   4.406  0.5161  0.7217  0.2189
 7062SOL    HW132645   4.147   1.918   4.331  0.0323  0.5417  0.6280
 7062SOL    HW232646   4.265   1.877   4.406 -0.1867  0.0640 -1.1989
 7063SOL     OW32647   4.095   1.280   3.442  0.4367  0.1845  0.1678
 7063SOL    HW132648   4.050   1.239   3.369 -0.6821  0.1704  0.8664
 7063SOL    HW232649   4.185   1.275   3.411 -0.2899 -0.1122 -1.8412
 7064SOL     OW32650   1.059   0.060   6.966 -0.2753 -0.0781 -0.8104
 7064SOL    HW132651   1.028   0.038   6.878  1.6667  2.4254 -2.1092
 7064SOL    HW232652   1.110   0.139   6.949  2.5502 -1.2937  2.0682
 7065SOL     OW32653   3.518   4.250   1.275 -0.1026 -0.4709 -0.3357
 7065SOL    HW132654   3.574   4.193   1.327 -1.3219 -2.3579 -1.0846
 7065SOL    HW232655   3.440   4.194   1.277 -2.2554  2.4541 -2.0086
 7066SOL     OW32656   0.465   0.994   3.586 -0.7465  0.1223  0.5036
 7066SOL    HW132657   0.523   0.938   3.638  1.1922 -1.1395 -3.0146
 7066SOL    HW232658   0.475   1.074   3.638 -1.4420 -0.4569  1.5237
 7067SOL     OW32659   3.809   2.520   4.945  0.5724  0.1594  0.2855
 7067SOL    HW132660   3.786   2.600   4.896 -0.9229  0.2061  1.0594
 7067SOL    HW232661   3.777   2.550   5.030 -1.0352 -0.0147 -0.2466
 7068SOL     OW32662   1.874   2.731  16.675  0.6534 -0.5350 -0.4071
 7068SOL    HW132663   1.903   2.781  16.752 -0.0549  0.3173 -0.6926
 7068SOL    HW232664   1.929   2.784  16.618  0.2166 -0.3170 -0.6327
 7069SOL     OW32665   0.166   0.759   7.435 -0.2336  0.1119 -0.5809
 7069SOL    HW132666   0.154   0.810   7.355 -2.4721 -1.8446 -1.4817
 7069SOL    HW232667   0.108   0.803   7.497  0.2691  0.5696 -0.4299
 7070SOL     OW32668   1.725   1.203   8.937 -0.4645  0.1947 -0.1484
 7070SOL    HW132669   1.752   1.293   8.956 -1.0825  0.5010 -0.7177
 7070SOL    HW232670   1.796   1.179   8.878 -0.0455 -0.8000  0.7612
 7071SOL     OW32671   0.554   3.291   8.543  0.4252 -0.0215 -0.2427
 7071SOL    HW132672   0.500   3.319   8.469  3.4407 -0.2037 -2.5018
 7071SOL    HW232673   0.526   3.202   8.562 -0.6254 -0.2615 -2.9585
 7072SOL     OW32674   0.871   0.585   2.805  0.1305  0.8489 -0.2628
 7072SOL    HW132675   0.958   0.544   2.807 -0.0815  0.3795 -0.6458
 7072SOL    HW232676   0.824   0.506   2.779  1.3266 -0.2284  0.8166
 7073SOL     OW32677   2.394   2.154  16.595 -0.5058 -0.3493  0.0315
 7073SOL    HW132678   2.396   2.204  16.676  0.9205  1.2686 -1.0168
 7073SOL    HW232679   2.416   2.072  16.639 -1.7233 -1.1093 -0.7754
 7074SOL     OW32680   0.869   0.539   1.887  0.3125  0.0363 -0.1830
 7074SOL    HW132681   0.843   0.448   1.878 -0.2797  0.0970  1.0596
 7074SOL    HW232682   0.961   0.531   1.859  1.1016  0.9737  2.1038
 7075SOL     OW32683   3.301   2.325   4.596  0.5019  0.1215  0.4648
 7075SOL    HW132684   3.290   2.335   4.690 -1.3610  1.9707  0.0380
 7075SOL    HW232685   3.394   2.302   4.597  0.0764 -1.5646  1.3950
 7076SOL     OW32686   2.790   2.815   0.683 -0.0113 -0.0010 -0.1565
 7076SOL    HW132687   2.760   2.886   0.626  1.3362  0.0288 -0.8334
 7076SOL    HW232688   2.797   2.864   0.765 -0.6470  1.4894 -0.9904
 7077SOL     OW32689   4.334   0.635   2.443 -0.1391 -0.2487 -0.5338
 7077SOL    HW132690   4.340   0.718   2.396 -0.8376 -0.2401 -0.6140
 7077SOL    HW232691   4.338   0.578   2.366  0.1511 -0.5529 -0.2934
 7078SOL     OW32692   3.276   2.183   2.514  0.6062  0.1074  0.0291
 7078SOL    HW132693   3.234   2.164   2.598  3.0882 -0.7940  1.0804
 7078SOL    HW232694   3.239   2.268   2.491 -1.6204 -0.4370  1.5695
 7079SOL     OW32695   3.051   3.050  15.921 -0.3664  0.1207 -0.7017
 7079SOL    HW132696   3.080   3.104  15.847  2.3391 -1.6735 -0.9216
 7079SOL    HW232697   3.037   2.963  15.883  0.2929  0.5920 -2.0463
 7080SOL     OW32698   2.426   1.763   4.454 -0.0891  0.7087 -0.4014
 7080SOL    HW132699   2.492   1.832   4.459 -1.4371  2.0087 -0.3989
 7080SOL    HW232700   2.346   1.805   4.486 -0.0200  1.2615 -0.9535
 7081SOL     OW32701   3.454   0.934   7.269  0.2582 -0.4806  0.2232
 7081SOL    HW132702   3.512   1.007   7.290 -1.4649  0.6057  1.1030
 7081SOL    HW232703   3.518   0.867   7.244  0.2787 -0.3075 -0.1833
 7082SOL     OW32704   4.007   2.243   4.547 -0.0945  0.1947 -0.1765
 7082SOL    HW132705   4.032   2.265   4.457  0.4364  0.1465 -0.0425
 7082SOL    HW232706   4.000   2.325   4.597  0.5292 -0.0505  0.3074
 7083SOL     OW32707   4.285   0.892   1.315  0.2708  0.0423 -0.2570
 7083SOL    HW132708   4.316   0.902   1.405  0.8303  1.3896 -0.6031
 7083SOL    HW232709   4.367   0.865   1.276  0.6956 -2.5573  2.4245
 7084SOL     OW32710   2.996   4.097  12.606  0.4303  0.1688  0.2161
 7084SOL    HW132711   2.942   4.064  12.678 -1.0921 -1.1804 -1.5161
 7084SOL    HW232712   3.045   4.022  12.571  1.3401  0.2032  1.4061
 7085SOL     OW32713   1.016   1.523   8.481  0.0567  0.2583  0.0104
 7085SOL    HW132714   0.950   1.582   8.517  0.6542 -0.2937  1.9915
 7085SOL    HW232715   0.962   1.455   8.442  0.5794  0.5115 -1.1727
 7086SOL     OW32716   0.169   3.625  17.231  0.2216 -0.4304  0.0920
 7086SOL    HW132717   0.118   3.586  17.160  0.4475 -0.2235 -0.1816
 7086SOL    HW232718   0.120   3.704  17.253  1.0710 -0.0839  0.7515
 7087SOL     OW32719   1.876   2.515   4.543  0.2104 -0.8220  0.0534
 7087SOL    HW132720   1.916   2.597   4.516  0.6118 -1.2490 -0.6603
 7087SOL    HW232721   1.944   2.464   4.587  0.8670 -1.5181 -1.7698
 7088SOL     OW32722   1.415   4.098   2.753 -0.1566 -0.2900  0.2238
 7088SOL    HW132723   1.472   4.114   2.678 -0.0102 -2.2434 -0.0816
 7088SOL    HW232724   1.463   4.138   2.825 -0.1786  0.1755 -0.0202
 7089SOL     OW32725   3.028   2.642   3.237  0.0342  0.5661 -0.2659
 7089SOL    HW132726   2.934   2.654   3.241 -0.0121 -0.0298  0.5536
 7089SOL    HW232727   3.048   2.673   3.149 -1.5697  2.0750 -0.0835
 7090SOL     OW32728   2.722   3.139   6.854  0.2530  0.4296 -0.0276
 7090SOL    HW132729   2.730   3.098   6.940 -1.2379  1.7180  0.7113
 7090SOL    HW232730   2.766   3.224   6.860 -1.1882  1.1482  0.1402
 7091SOL     OW32731   3.910   3.889   2.548 -0.0266  0.0892  0.3244
 7091SOL    HW132732   3.924   3.911   2.456 -0.4534 -0.4627  0.1356
 7091SOL    HW232733   3.947   3.801   2.548 -2.2315 -0.8374  0.3327
 7092SOL     OW32734   4.304   3.126   7.822  0.5932 -0.4113 -0.2165
 7092SOL    HW132735   4.389   3.090   7.845 -0.2972 -2.5801 -0.2630
 7092SOL    HW232736   4.256   3.085   7.894  0.3259  2.1034  1.0239
 7093SOL     OW32737   4.244   1.090  12.785  0.0614  0.6868  0.5776
 7093SOL    HW132738   4.283   1.175  12.766  1.5398 -0.4232 -1.2812
 7093SOL    HW232739   4.192   1.077  12.705 -1.0733 -0.0055  1.4264
 7094SOL     OW32740   0.356   1.500   8.198 -0.1671 -0.0781  0.1242
 7094SOL    HW132741   0.266   1.472   8.184 -0.7723  1.4993  0.9151
 7094SOL    HW232742   0.388   1.416   8.231 -0.0437 -0.4884 -1.0325
 7095SOL     OW32743   2.504   1.304   2.937  0.0668  0.1430 -0.0728
 7095SOL    HW132744   2.502   1.304   3.033 -0.1324  2.8123 -0.0911
 7095SOL    HW232745   2.458   1.384   2.915 -0.3551 -0.3757 -1.0839
 7096SOL     OW32746   4.517   4.576   3.074 -0.5092 -0.0240  0.1159
 7096SOL    HW132747   4.428   4.549   3.097 -0.2379  0.0812  1.2807
 7096SOL    HW232748   4.571   4.517   3.127 -2.5516 -1.7529  0.2518
 7097SOL     OW32749   4.225   1.475   6.761  0.1297  0.2413 -0.1070
 7097SOL    HW132750   4.317   1.455   6.781  0.4685  2.6492  0.8578
 7097SOL    HW232751   4.174   1.398   6.787 -2.0483  1.8376  0.3232
 7098SOL     OW32752   3.844   2.665   7.439  0.1144  0.1705  0.1330
 7098SOL    HW132753   3.878   2.577   7.461 -1.9005 -0.5611  0.2840
 7098SOL    HW232754   3.898   2.687   7.363  2.1119 -2.3663  0.7876
 7099SOL     OW32755   0.113   0.597  11.967 -0.8510  0.2015  0.2898
 7099SOL    HW132756   0.019   0.612  11.973 -1.3602 -1.7321 -2.8396
 7099SOL    HW232757   0.141   0.637  12.049  1.2234  0.3382 -0.4843
 7100SOL     OW32758   2.043   2.003   7.850  0.3604 -0.3069  0.2608
 7100SOL    HW132759   2.056   1.918   7.891 -2.3216  0.4263  2.6140
 7100SOL    HW232760   2.081   2.054   7.921 -1.5346 -2.2099  2.6142
 7101SOL     OW32761   4.212   4.658   6.926 -0.5339  0.3037 -0.1741
 7101SOL    HW132762   4.298   4.695   6.947 -1.5155  1.1691  2.3664
 7101SOL    HW232763   4.151   0.002   6.953 -0.4501 -0.4453  1.9174
 7102SOL     OW32764   4.295   0.509   5.069 -0.0801  0.0347 -0.2923
 7102SOL    HW132765   4.207   0.545   5.062  0.0203 -0.0310 -2.0496
 7102SOL    HW232766   4.301   0.479   5.159  1.6856 -0.8930 -0.7140
 7103SOL     OW32767   4.056   2.242   8.291 -0.2098  0.1862  0.1587
 7103SOL    HW132768   4.074   2.199   8.375 -1.9988 -0.1396  0.3727
 7103SOL    HW232769   4.125   2.306   8.276  0.9959 -0.4886  2.7752
 7104SOL     OW32770   3.980   1.877   6.654  0.1425  0.1259  0.0471
 7104SOL    HW132771   4.027   1.923   6.723 -1.3530  0.5124  0.8162
 7104SOL    HW232772   3.925   1.824   6.713 -0.8760 -0.2606 -1.2515
 7105SOL     OW32773   2.303   1.727   1.046  0.3383 -0.7983 -0.2059
 7105SOL    HW132774   2.368   1.658   1.066 -1.0605 -2.0404  0.0803
 7105SOL    HW232775   2.231   1.707   1.106 -0.4184  0.6522 -0.6570
 7106SOL     OW32776   0.373   0.197   2.086 -0.4085 -0.5383 -0.1666
 7106SOL    HW132777   0.304   0.164   2.143 -1.4838 -1.2063 -1.8548
 7106SOL    HW232778   0.443   0.213   2.149 -0.9635  1.9247 -0.1833
 7107SOL     OW32779   0.861   3.613   8.193  0.1059  0.1043 -0.1917
 7107SOL    HW132780   0.810   3.533   8.184  2.7493 -1.5676 -0.4167
 7107SOL    HW232781   0.793   3.669   8.230 -2.8990 -2.5787 -1.6529
 7108SOL     OW32782   2.424   3.479  16.001  0.2799 -0.1779 -0.1006
 7108SOL    HW132783   2.443   3.537  16.075  2.4914  0.1548 -0.9378
 7108SOL    HW232784   2.504   3.428  15.991  0.3530 -0.2369  0.8328
 7109SOL     OW32785   3.681   1.104   7.216 -0.6922 -0.4616 -0.8341
 7109SOL    HW132786   3.741   1.166   7.258 -1.0314 -1.2865  0.8615
 7109SOL    HW232787   3.743   1.053   7.164 -0.1667  1.9638 -2.6175
 7110SOL     OW32788   0.812   4.166   6.203 -0.6484 -0.1187 -0.3615
 7110SOL    HW132789   0.741   4.103   6.218 -1.5273  0.5793 -1.5735
 7110SOL    HW232790   0.757   4.228   6.156 -0.4108 -0.2408 -0.7966
 7111SOL     OW32791   2.371   0.793   8.418  0.1345 -0.5014  0.5339
 7111SOL    HW132792   2.323   0.805   8.500 -0.9225  1.5308 -0.3684
 7111SOL    HW232793   2.297   0.764   8.363  2.2787 -2.1733 -1.4759
 7112SOL     OW32794   0.958   2.392   3.721 -0.2530  0.2574 -0.3459
 7112SOL    HW132795   1.020   2.380   3.649  0.9505 -2.2450  1.1296
 7112SOL    HW232796   0.898   2.452   3.676  0.1884 -0.9027 -2.5046
 7113SOL     OW32797   2.961   1.803   3.373  0.0850  0.2926  0.0857
 7113SOL    HW132798   3.053   1.829   3.371  0.4448 -0.9052  0.6134
 7113SOL    HW232799   2.978   1.713   3.401 -0.5529  2.2562  6.8606
 7114SOL     OW32800   1.934   3.407   5.671  0.1820 -0.0149  0.3360
 7114SOL    HW132801   1.936   3.460   5.591  2.0359  0.0028  0.3832
 7114SOL    HW232802   1.859   3.350   5.654  0.4569 -0.3974  0.3913
 7115SOL     OW32803   1.114   1.013  16.617  0.0005 -0.7482  0.0253
 7115SOL    HW132804   1.111   1.018  16.522 -0.4570  0.3426  0.0912
 7115SOL    HW232805   1.075   0.930  16.644 -1.1186  0.4600  2.1692
 7116SOL     OW32806   4.121   3.036   2.899 -0.3545 -0.4658 -0.1268
 7116SOL    HW132807   4.081   3.028   2.986 -1.2516 -0.7529 -0.5675
 7116SOL    HW232808   4.138   2.942   2.893 -1.3052 -0.6668  0.3743
 7117SOL     OW32809   2.124   4.411   7.276  0.5975  0.2960  0.2631
 7117SOL    HW132810   2.079   4.450   7.351 -1.1193  0.1264 -0.6660
 7117SOL    HW232811   2.212   4.441   7.298  0.5829  1.5560 -1.3794
 7118SOL     OW32812   2.123   0.222   7.662 -0.0844  0.2522  0.2088
 7118SOL    HW132813   2.143   0.264   7.579  2.7332 -0.5765  0.4683
 7118SOL    HW232814   2.028   0.210   7.657 -0.0067 -1.1740  1.9178
 7119SOL     OW32815   3.418   3.290   5.095  0.1470 -0.1814  0.1309
 7119SOL    HW132816   3.438   3.214   5.040  0.5901  0.7544 -1.0145
 7119SOL    HW232817   3.363   3.347   5.041  1.9804  0.1372 -1.4205
 7120SOL     OW32818   0.601   2.903   1.493 -0.0801  0.6241  0.0957
 7120SOL    HW132819   0.538   2.898   1.565  0.0673  0.4530  0.2128
 7120SOL    HW232820   0.599   2.996   1.469 -0.0137  0.4058 -0.7667
 7121SOL     OW32821   0.193   3.154   9.173 -0.4801 -0.1346 -0.3419
 7121SOL    HW132822   0.136   3.080   9.192 -0.1909 -0.4522 -0.7248
 7121SOL    HW232823   0.141   3.215   9.226  0.5322 -0.5525  1.1502
 7122SOL     OW32824   0.612   4.079   2.275  0.1726  0.4814  0.2495
 7122SOL    HW132825   0.696   4.049   2.311 -0.4767 -0.4191  1.0094
 7122SOL    HW232826   0.580   4.118   2.356  1.6819  1.2047  0.5053
 7123SOL     OW32827   2.156   4.710   9.302 -0.2436 -0.0408 -0.4054
 7123SOL    HW132828   2.220   0.055   9.286 -1.4901  1.4161  0.8548
 7123SOL    HW232829   2.077   0.037   9.318  0.7100  0.4449  2.7558
 7124SOL     OW32830   2.796   0.121  13.580  0.1002  0.6449 -0.2556
 7124SOL    HW132831   2.849   0.041  13.580 -1.6404 -0.5081 -0.6104
 7124SOL    HW232832   2.754   0.124  13.666 -0.7284  0.7799 -0.6708
 7125SOL     OW32833   2.597   3.739   6.175  0.2204  0.6137  0.2457
 7125SOL    HW132834   2.560   3.693   6.100  1.3035  0.7868 -0.3864
 7125SOL    HW232835   2.533   3.809   6.188  1.3259  1.4350  1.1809
 7126SOL     OW32836   4.655   0.302  16.235  0.1040  0.4649 -0.0887
 7126SOL    HW132837   0.004   0.362  16.250 -0.1001  0.2252  1.9318
 7126SOL    HW232838   4.591   0.360  16.194  0.4484  1.4299  0.7580
 7127SOL     OW32839   1.832   0.541   5.360  0.0290 -0.4141  0.0845
 7127SOL    HW132840   1.787   0.612   5.313  0.6582  0.1897  0.3941
 7127SOL    HW232841   1.780   0.463   5.381 -0.4240  0.0993  0.8753
 7128SOL     OW32842   3.299   0.124   0.827  0.9031 -0.5393 -0.2048
 7128SOL    HW132843   3.219   0.103   0.875 -0.4469 -0.8020 -2.5947
 7128SOL    HW232844   3.265   0.130   0.738 -2.2392 -0.2613  1.0156
 7129SOL     OW32845   3.345   2.063   7.571  0.1283 -0.3187  0.3331
 7129SOL    HW132846   3.409   1.991   7.570 -1.6727 -1.9174  0.4168
 7129SOL    HW232847   3.314   2.058   7.481 -0.1501  1.1021  0.3665
 7130SOL     OW32848   4.099   2.783   1.668 -0.5848 -0.0324 -0.4806
 7130SOL    HW132849   4.094   2.852   1.734  0.6490 -0.9086  0.5160
 7130SOL    HW232850   4.194   2.774   1.674 -0.6173  0.3848  0.5779
 7131SOL     OW32851   0.012   4.134  12.768  0.3329 -0.1899 -0.7259
 7131SOL    HW132852   0.038   4.214  12.723  0.3126  0.4605  0.4021
 7131SOL    HW232853   4.705   4.171  12.851 -1.8325 -1.9763 -0.7628
 7132SOL     OW32854   1.766   4.153   3.150 -0.1553  0.5610 -0.4701
 7132SOL    HW132855   1.744   4.211   3.222  0.5364 -0.5064  0.6192
 7132SOL    HW232856   1.797   4.219   3.087 -0.1696 -0.0947 -1.1695
 7133SOL     OW32857   0.649   1.526  16.763  0.3015 -0.1548 -0.3404
 7133SOL    HW132858   0.710   1.505  16.833  0.6067  1.2824 -0.1815
 7133SOL    HW232859   0.613   1.438  16.754  0.0614  0.0558 -1.3722
 7134SOL     OW32860   2.062   1.665   3.830 -0.1287  0.1035  0.2488
 7134SOL    HW132861   2.078   1.677   3.736 -0.7214  1.8908  0.3751
 7134SOL    HW232862   1.996   1.596   3.831  1.1200 -1.0921  0.3727
 7135SOL     OW32863   1.669   0.236   8.416 -0.5136  0.2667  0.7121
 7135SOL    HW132864   1.763   0.227   8.400 -0.1215  3.1794  1.3373
 7135SOL    HW232865   1.664   0.181   8.494  0.0581  1.4382  1.5834
 7136SOL     OW32866   1.950   3.567   2.277 -0.0122 -0.3407 -0.0857
 7136SOL    HW132867   1.877   3.620   2.309 -2.0212 -4.2213  1.7419
 7136SOL    HW232868   1.913   3.483   2.305 -2.4596  0.0519 -2.0929
 7137SOL     OW32869   0.453   4.377   6.077  0.1416 -0.3119 -0.1373
 7137SOL    HW132870   0.384   4.318   6.108 -0.8231  0.9842  0.2053
 7137SOL    HW232871   0.404   4.454   6.048  1.3590  0.2704 -0.6545
 7138SOL     OW32872   2.974   0.107   5.774  0.0932  0.0560  0.0914
 7138SOL    HW132873   2.913   0.136   5.707 -0.0832  2.5768  1.3621
 7138SOL    HW232874   3.050   0.157   5.744 -1.8029  2.2192 -1.0957
 7139SOL     OW32875   0.581   0.216   7.285 -0.2326  0.0510 -0.1334
 7139SOL    HW132876   0.488   0.231   7.271 -0.3139 -0.4961 -0.1635
 7139SOL    HW232877   0.616   0.226   7.197 -0.3500  1.0815 -0.0589
 7140SOL     OW32878   3.719   1.611   4.317  0.2740  0.0050  0.3124
 7140SOL    HW132879   3.628   1.609   4.286  0.4876  1.1462 -0.3627
 7140SOL    HW232880   3.718   1.545   4.386 -3.2420  3.5490  3.6511
 7141SOL     OW32881   0.176   4.614   7.314  0.1941 -0.5644 -0.0041
 7141SOL    HW132882   0.231   4.649   7.384 -0.2274 -1.3308  0.7075
 7141SOL    HW232883   0.204   4.523   7.314  2.1795  0.0573 -0.9927
 7142SOL     OW32884   0.972   1.011   2.257  0.4064  0.2769  0.0065
 7142SOL    HW132885   1.047   1.017   2.198  1.2418  0.8605  1.1114
 7142SOL    HW232886   0.973   1.093   2.306 -0.3709 -0.0085  0.5052
 7143SOL     OW32887   2.692   0.066   3.440  0.1890  0.3377  0.5915
 7143SOL    HW132888   2.777   0.100   3.469 -0.3882  1.7333  0.6638
 7143SOL    HW232889   2.712   4.715   3.385 -1.8690 -0.8024  1.4291
 7144SOL     OW32890   0.010   0.787   3.797  0.6943 -0.1514  0.1421
 7144SOL    HW132891   4.674   0.862   3.801 -0.0626 -0.6750 -1.4187
 7144SOL    HW232892   0.096   0.822   3.818  0.6119  0.6124 -0.7875
 7145SOL     OW32893   1.045   3.831  11.029  0.0074  0.1952 -1.0555
 7145SOL    HW132894   1.047   3.921  10.996  0.7028  0.6380  0.1678
 7145SOL    HW232895   0.961   3.801  10.996  0.4056 -1.2456 -0.7822
 7146SOL     OW32896   3.823   3.062   3.173  0.5388 -0.5441 -0.1514
 7146SOL    HW132897   3.731   3.087   3.163  0.6302  0.3941  1.3664
 7146SOL    HW232898   3.813   2.967   3.174 -1.7360 -0.2738  2.2047
 7147SOL     OW32899   2.887   3.481   9.560 -0.2343  0.2430 -0.8201
 7147SOL    HW132900   2.906   3.550   9.496  0.3770 -1.2246 -2.2143
 7147SOL    HW232901   2.802   3.452   9.526 -1.5966  3.4465 -0.1796
 7148SOL     OW32902   0.815   0.155   8.577 -0.0199  0.3118  0.3791
 7148SOL    HW132903   0.869   0.085   8.614  0.6543 -0.8780 -2.8983
 7148SOL    HW232904   0.813   0.126   8.486 -1.5254  1.1430  0.1585
 7149SOL     OW32905   0.916   3.342   9.460 -0.3155  0.3428 -0.4622
 7149SOL    HW132906   0.912   3.422   9.407 -2.7064 -0.7026 -1.8281
 7149SOL    HW232907   0.826   3.311   9.452 -0.0677 -0.7335  0.8731
 7150SOL     OW32908   0.512   2.155   7.150  0.5142  0.1224 -0.0028
 7150SOL    HW132909   0.490   2.244   7.126  1.9006 -0.2781 -2.7791
 7150SOL    HW232910   0.540   2.128   7.063  0.0958  0.1798 -0.1560
 7151SOL     OW32911   3.658   0.443   6.889 -0.6472 -0.0192 -0.1805
 7151SOL    HW132912   3.575   0.417   6.929  0.3822  0.6472  2.4123
 7151SOL    HW232913   3.710   0.408   6.962  0.1607  1.4868 -0.0321
 7152SOL     OW32914   3.881   3.115   1.288  0.3989  0.1072  0.6531
 7152SOL    HW132915   3.973   3.097   1.269  0.2958  1.3651 -1.0117
 7152SOL    HW232916   3.873   3.083   1.378 -0.0915 -2.1872 -0.2039
 7153SOL     OW32917   2.043   3.460  14.285  0.1803 -0.3449  0.2102
 7153SOL    HW132918   2.084   3.376  14.305 -2.2924 -1.0868  2.0763
 7153SOL    HW232919   1.960   3.429  14.251  1.0185 -0.1758 -2.0469
 7154SOL     OW32920   0.084   3.771  11.782  0.5098 -0.0134 -0.0086
 7154SOL    HW132921   0.178   3.764  11.767  0.7720  0.1536  1.5465
 7154SOL    HW232922   0.065   3.857  11.821  1.2904 -1.1294  2.7962
 7155SOL     OW32923   4.211   3.759   4.033 -0.2860  0.2807  0.2054
 7155SOL    HW132924   4.256   3.764   4.117 -2.0208 -3.4863  1.3739
 7155SOL    HW232925   4.150   3.686   4.039 -0.5344  0.5610  0.9877
 7156SOL     OW32926   0.580   4.188   5.335 -0.2385 -0.2553  0.0778
 7156SOL    HW132927   0.631   4.167   5.257  2.8243  0.2680  1.9558
 7156SOL    HW232928   0.646   4.204   5.403  0.4555 -1.8072 -0.2287
 7157SOL     OW32929   1.620   0.451   5.666  0.3343  0.2787  0.5226
 7157SOL    HW132930   1.531   0.443   5.632 -0.3746  1.2662  2.1093
 7157SOL    HW232931   1.662   0.391   5.604 -1.2758  1.0091 -1.2574
 7158SOL     OW32932   4.352   3.926  14.392  0.1750  0.1333  0.4932
 7158SOL    HW132933   4.437   3.967  14.404  0.0760  0.2221  0.8921
 7158SOL    HW232934   4.293   3.999  14.411  0.6987  1.0956 -1.5853
 7159SOL     OW32935   1.993   2.934   7.188  0.5999  0.1585  0.1258
 7159SOL    HW132936   2.030   2.949   7.276  2.9846  0.3994 -0.9003
 7159SOL    HW232937   2.072   2.924   7.135  0.1641  0.3564 -0.5497
 7160SOL     OW32938   2.871   2.922  16.322  0.3467  0.4054  0.3177
 7160SOL    HW132939   2.909   2.834  16.326 -1.1998 -0.1837  2.0226
 7160SOL    HW232940   2.950   2.975  16.332  1.1749 -0.6330 -0.7500
 7161SOL     OW32941   2.280   2.654   4.044 -0.2536  0.0527 -0.4091
 7161SOL    HW132942   2.306   2.596   3.973  0.6082  0.8453 -0.7402
 7161SOL    HW232943   2.237   2.731   4.005  0.2011  0.0198 -0.9590
 7162SOL     OW32944   1.061   3.383   4.139 -0.1169  0.0051 -0.3205
 7162SOL    HW132945   1.126   3.446   4.171  1.6966 -2.0749  0.1393
 7162SOL    HW232946   1.007   3.354   4.212 -1.1516  1.2227 -0.6147
 7163SOL     OW32947   0.345   0.664   3.596 -0.0738 -0.4004 -0.2074
 7163SOL    HW132948   0.254   0.673   3.568 -0.5225  1.3023  1.8090
 7163SOL    HW232949   0.397   0.676   3.516 -1.4555  0.8536 -0.9219
 7164SOL     OW32950   1.131   4.551  13.600  0.1128 -0.2109  0.2431
 7164SOL    HW132951   1.039   4.554  13.572 -0.7805 -1.2946  3.0779
 7164SOL    HW232952   1.165   4.613  13.535 -0.1372  1.3357  1.6135
 7165SOL     OW32953   3.940   0.947   1.287  0.2251  0.4672 -0.1965
 7165SOL    HW132954   3.897   0.933   1.372  1.1714  1.7761  0.4925
 7165SOL    HW232955   3.893   1.023   1.255 -0.9738 -0.2296 -0.0786
 7166SOL     OW32956   2.323   2.648   6.852 -0.3112  0.0797 -0.0953
 7166SOL    HW132957   2.385   2.714   6.883  1.3755 -0.8534 -1.5516
 7166SOL    HW232958   2.382   2.573   6.854 -3.1541 -2.1293  1.2745
 7167SOL     OW32959   2.645   3.478  14.431 -0.1549  0.0814 -0.1631
 7167SOL    HW132960   2.561   3.445  14.401 -1.2587  1.2936  1.6325
 7167SOL    HW232961   2.683   3.399  14.472  1.1586  0.7348 -0.1068
 7168SOL     OW32962   0.774   1.254   8.204 -0.1556  0.3387 -0.4537
 7168SOL    HW132963   0.863   1.243   8.239 -0.0088  1.2024 -0.5686
 7168SOL    HW232964   0.737   1.312   8.271 -0.9335 -2.4930  1.5829
 7169SOL     OW32965   1.815   1.664  11.545  0.0938  0.2725 -0.0788
 7169SOL    HW132966   1.785   1.689  11.632 -0.2666  1.8073 -0.6519
 7169SOL    HW232967   1.800   1.740  11.489  0.1400  1.5412  1.6334
 7170SOL     OW32968   3.708   0.014   2.370 -0.2357  0.4279  0.0114
 7170SOL    HW132969   3.796   0.024   2.335 -1.0018  1.1713 -1.6948
 7170SOL    HW232970   3.715   0.011   2.465 -2.4698 -2.1499  0.1082
 7171SOL     OW32971   0.593   3.828   2.575  0.7638 -0.0025  0.5859
 7171SOL    HW132972   0.558   3.794   2.657  1.9078 -1.1314  0.6270
 7171SOL    HW232973   0.514   3.849   2.526 -0.1955 -2.5559  1.0653
 7172SOL     OW32974   4.534   2.292   4.615 -0.4568  0.5296  0.6124
 7172SOL    HW132975   4.473   2.218   4.608 -0.0156  0.2912 -0.6205
 7172SOL    HW232976   4.473   2.365   4.620 -0.0437  0.8317  1.1694
 7173SOL     OW32977   3.946   1.204   1.435 -0.4704  0.3219 -0.3132
 7173SOL    HW132978   3.862   1.235   1.470 -1.0277 -0.7774 -0.6868
 7173SOL    HW232979   3.976   1.160   1.514 -1.5204  1.3260  0.6507
 7174SOL     OW32980   1.955   3.314   5.948 -0.1763  0.2806  0.6535
 7174SOL    HW132981   1.861   3.324   5.965 -0.6999 -1.6249 -1.0811
 7174SOL    HW232982   1.948   3.313   5.853  0.8986  1.4337  0.5610
 7175SOL     OW32983   2.213   4.559   2.268 -0.6174 -0.0408 -0.1173
 7175SOL    HW132984   2.209   4.637   2.324 -1.1980  0.0304 -0.2592
 7175SOL    HW232985   2.167   4.501   2.329 -0.7094 -0.4109 -0.5424
 7176SOL     OW32986   3.058   3.270   4.530  0.3852  0.2830  0.2828
 7176SOL    HW132987   3.060   3.258   4.625 -2.6334 -0.9844  0.1864
 7176SOL    HW232988   3.101   3.188   4.505 -1.8080 -1.1299  1.1535
 7177SOL     OW32989   0.473   2.523   5.522  0.2300  0.3150 -0.7479
 7177SOL    HW132990   0.552   2.517   5.576  0.2695 -0.6381 -0.9126
 7177SOL    HW232991   0.406   2.489   5.581 -0.0140  0.5768 -0.8734
 7178SOL     OW32992   0.567   3.020   5.893  0.0115  0.8545 -0.4447
 7178SOL    HW132993   0.575   3.006   5.799 -1.2433 -0.6649 -0.3282
 7178SOL    HW232994   0.616   2.948   5.934  0.3549  0.3636 -1.7216
 7179SOL     OW32995   1.068   0.439   9.480  0.5003  0.0716 -0.3245
 7179SOL    HW132996   0.981   0.468   9.452  0.9501  1.3766 -0.3866
 7179SOL    HW232997   1.058   0.347   9.504  1.6773  0.5846  2.1695
 7180SOL     OW32998   2.139   1.626   1.247 -0.0922 -0.0800 -0.3414
 7180SOL    HW132999   2.182   1.551   1.289 -1.9028 -0.7182  0.3804
 7180SOL    HW233000   2.048   1.598   1.257 -0.5459  1.5306 -0.0742
 7181SOL     OW33001   3.290   2.273  17.654  0.0532 -0.1426 -0.2078
 7181SOL    HW133002   3.358   2.244   0.017 -0.2142  1.2071  0.7336
 7181SOL    HW233003   3.268   2.351   0.005 -0.3877 -0.0647 -0.5401
 7182SOL     OW33004   3.715   2.133   1.633  0.4512 -0.3971  0.0209
 7182SOL    HW133005   3.716   2.128   1.728  1.3677  4.4890  0.2695
 7182SOL    HW233006   3.646   2.067   1.629 -1.1518  1.1998  0.9407
 7183SOL     OW33007   1.955   0.468   3.762 -0.2073  0.3556 -0.0798
 7183SOL    HW133008   1.930   0.465   3.670 -2.2396 -0.6926  0.5022
 7183SOL    HW233009   1.943   0.376   3.783 -0.2582  0.7123  1.4702
 7184SOL     OW33010   1.871   0.943   6.287  0.1546  0.2223 -0.0198
 7184SOL    HW133011   1.948   0.991   6.255 -0.7529  1.6833  0.0265
 7184SOL    HW233012   1.822   0.924   6.208 -1.7694 -2.1023  1.7518
 7185SOL     OW33013   2.113   1.134  11.440  0.4581 -0.3042  0.3473
 7185SOL    HW133014   2.140   1.222  11.414  1.3650 -0.0366  2.2383
 7185SOL    HW233015   2.087   1.148  11.531  1.4828  0.1910  0.5559
 7186SOL     OW33016   3.683   0.176   4.557 -0.1718  0.2430  0.5657
 7186SOL    HW133017   3.641   0.219   4.631 -0.8439  1.1044 -0.3189
 7186SOL    HW233018   3.755   0.148   4.613  1.2229  0.4002 -1.1511
 7187SOL     OW33019   0.276   4.418  16.118 -0.5515  0.3817 -0.2199
 7187SOL    HW133020   0.328   4.468  16.182 -0.5990  2.5667 -1.8664
 7187SOL    HW233021   0.188   4.448  16.137  0.3940  3.7013 -1.0157
 7188SOL     OW33022   0.981   1.183  11.696  0.2183 -0.6556 -0.2132
 7188SOL    HW133023   0.945   1.131  11.624  0.9470 -1.1548 -0.2146
 7188SOL    HW233024   0.907   1.201  11.754  0.4109 -2.1951  0.5320
 7189SOL     OW33025   2.826   1.469   8.756 -0.2219 -0.1735  0.0124
 7189SOL    HW133026   2.746   1.451   8.805 -0.8528  1.5044 -0.3819
 7189SOL    HW233027   2.815   1.414   8.679  4.1855 -0.3676 -0.4984
 7190SOL     OW33028   3.519   2.325  13.365  0.4252 -0.2896 -0.4642
 7190SOL    HW133029   3.593   2.367  13.409 -0.8548  2.2936 -0.7453
 7190SOL    HW233030   3.503   2.389  13.295 -0.6630  0.0595  0.0962
 7191SOL     OW33031   1.876   3.686   5.168  0.3656 -0.3483  0.2026
 7191SOL    HW133032   1.933   3.723   5.102  0.8128 -0.6104  0.4448
 7191SOL    HW233033   1.928   3.612   5.200  1.4252 -0.2582 -1.3072
 7192SOL     OW33034   0.235   3.401   3.728 -0.0319  0.0047  0.0836
 7192SOL    HW133035   0.279   3.322   3.761 -0.1444 -0.3119 -0.5335
 7192SOL    HW233036   0.155   3.360   3.695  1.2783 -1.1787 -1.6332
 7193SOL     OW33037   1.602   1.292   2.407 -0.4312 -0.7713 -0.8191
 7193SOL    HW133038   1.624   1.374   2.451 -1.6391  0.0729 -1.7944
 7193SOL    HW233039   1.509   1.312   2.395  0.1908  1.9963 -1.0297
 7194SOL     OW33040   0.518   4.087   1.291 -0.3509  0.2909  0.0076
 7194SOL    HW133041   0.474   4.167   1.263  0.1219  1.0494  1.4097
 7194SOL    HW233042   0.489   4.031   1.220  1.9318 -0.8352 -0.0542
 7195SOL     OW33043   2.584   0.282   8.061  0.2735 -0.1397  0.0340
 7195SOL    HW133044   2.512   0.268   8.122  1.2963 -1.7753  0.8437
 7195SOL    HW233045   2.559   0.369   8.030 -2.8195 -0.3660  1.9266
 7196SOL     OW33046   0.581   1.900   6.252 -0.3875  0.1641  0.1453
 7196SOL    HW133047   0.645   1.903   6.324 -0.6911  0.1516  0.4143
 7196SOL    HW233048   0.534   1.982   6.265 -0.6443  0.0204  0.1264
 7197SOL     OW33049   2.769   0.166   1.779  0.1655  0.5187  0.0558
 7197SOL    HW133050   2.683   0.192   1.745  0.4557 -1.0819 -1.9064
 7197SOL    HW233051   2.811   0.126   1.703  0.6654 -2.5674  1.9715
 7198SOL     OW33052   2.713   3.788   0.689 -0.0396 -0.2755 -0.1750
 7198SOL    HW133053   2.700   3.701   0.726 -2.1666 -0.1304 -0.5786
 7198SOL    HW233054   2.798   3.770   0.649 -0.2242  0.4839 -0.9012
 7199SOL     OW33055   3.925   0.662  14.437 -0.9027 -0.3927 -0.1488
 7199SOL    HW133056   3.986   0.659  14.364  0.5234 -0.5585  1.0389
 7199SOL    HW233057   3.916   0.756  14.455 -0.5501 -0.1891 -1.0351
 7200SOL     OW33058   2.039   0.881  11.301 -0.2910 -0.1641 -0.3851
 7200SOL    HW133059   1.985   0.828  11.360 -0.4797  1.6434  1.0628
 7200SOL    HW233060   2.058   0.953  11.361  1.8860 -1.2473  0.2449
 7201SOL     OW33061   2.867   1.660   2.730 -0.5508 -0.6335 -0.0413
 7201SOL    HW133062   2.920   1.715   2.788 -2.8188  1.2676  0.1990
 7201SOL    HW233063   2.875   1.577   2.778 -2.7062  0.3126  1.9608
 7202SOL     OW33064   0.722   4.538   0.223 -0.1315  0.3723  0.1084
 7202SOL    HW133065   0.780   4.502   0.155 -0.6593  0.0884 -0.1934
 7202SOL    HW233066   0.639   4.549   0.177 -0.5345 -1.0755  0.4667
 7203SOL     OW33067   2.411   4.138   2.635  0.3111  0.7848  0.1234
 7203SOL    HW133068   2.484   4.130   2.696 -0.5317 -0.1503  1.0118
 7203SOL    HW233069   2.410   4.062   2.578  0.5272  1.8355 -1.2658
 7204SOL     OW33070   2.023   2.836   8.192  0.0402 -0.0486  0.1248
 7204SOL    HW133071   2.108   2.826   8.235  0.4963  1.8167 -0.3085
 7204SOL    HW233072   1.983   2.752   8.211  0.9321 -1.0371 -2.4436
 7205SOL     OW33073   0.058   3.589   3.198  0.0941 -0.3917 -0.5232
 7205SOL    HW133074   0.068   3.554   3.287  0.9065  2.6383  0.5606
 7205SOL    HW233075   4.687   3.592   3.188 -0.1780 -1.5547  1.8813
 7206SOL     OW33076   1.511   0.433   0.657  0.6265  0.3330  0.8110
 7206SOL    HW133077   1.559   0.450   0.738 -0.2760  0.2468  1.3639
 7206SOL    HW233078   1.568   0.479   0.595 -1.3449  0.1570 -1.1301
 7207SOL     OW33079   1.609   2.568   4.539 -0.2458  0.0617 -0.8670
 7207SOL    HW133080   1.702   2.558   4.558 -0.3386 -0.9919 -0.9917
 7207SOL    HW233081   1.582   2.559   4.630  0.3149  0.1035 -0.6984
 7208SOL     OW33082   0.935   0.035   2.554 -0.4279 -0.1057 -0.4080
 7208SOL    HW133083   0.939   0.051   2.460  2.5383 -0.2597 -0.3043
 7208SOL    HW233084   0.878   4.682   2.555 -2.7606  1.6486  1.4735
 7209SOL     OW33085   3.016   4.324  10.981  0.5942 -0.0826 -0.0189
 7209SOL    HW133086   2.938   4.269  10.970 -0.6871  1.1607  2.9182
 7209SOL    HW233087   3.028   4.309  11.075  0.8029 -0.4253 -0.0988
 7210SOL     OW33088   1.048   1.675   7.373 -0.5001  0.1472 -0.0777
 7210SOL    HW133089   0.964   1.646   7.338  0.6311 -1.4756 -1.4388
 7210SOL    HW233090   1.081   1.733   7.304 -1.7318  0.6023 -0.2978
 7211SOL     OW33091   4.234   0.895  17.206  0.2853  0.0002  0.4908
 7211SOL    HW133092   4.176   0.885  17.131  0.2485 -1.0667  0.6687
 7211SOL    HW233093   4.189   0.954  17.266  2.6228 -0.1010  2.3390
 7212SOL     OW33094   0.209   3.063   9.487  0.3340 -0.5052  0.0113
 7212SOL    HW133095   0.123   3.071   9.528  0.2460 -0.3512 -0.1996
 7212SOL    HW233096   0.257   3.056   9.569  1.7697  0.1363 -0.7599
 7213SOL     OW33097   2.697   0.463  10.725 -0.0813 -0.6258  0.4565
 7213SOL    HW133098   2.788   0.490  10.730 -0.4857  0.6779  0.7873
 7213SOL    HW233099   2.699   0.386  10.782 -0.0057 -1.9478 -1.3119
 7214SOL     OW33100   3.846   3.584   2.427  1.1209 -0.6012 -0.0327
 7214SOL    HW133101   3.890   3.583   2.513  1.5410  0.5259 -0.2419
 7214SOL    HW233102   3.923   3.570   2.372  2.2303 -0.8886  1.5583
 7215SOL     OW33103   3.457   4.158   4.180  0.4757 -0.4226  0.2050
 7215SOL    HW133104   3.410   4.221   4.124 -0.0712 -1.8348 -0.9464
 7215SOL    HW233105   3.493   4.222   4.240  0.9639 -0.4501 -0.0556
 7216SOL     OW33106   2.257   3.614   7.938  0.2723  0.0739  0.2385
 7216SOL    HW133107   2.296   3.558   7.872 -0.8271 -1.6787  1.0790
 7216SOL    HW233108   2.180   3.655   7.899 -0.7968  0.1474  2.4410
 7217SOL     OW33109   0.949   3.526  10.079  0.4147  0.4798 -0.0840
 7217SOL    HW133110   0.873   3.482  10.041 -0.3918  0.1627  1.8557
 7217SOL    HW233111   0.907   3.593  10.134  0.5892  0.2736  0.3027
 7218SOL     OW33112   4.045   2.211   0.977 -0.2629 -0.0393 -0.4018
 7218SOL    HW133113   3.949   2.212   0.980 -0.1916  1.8033  1.2570
 7218SOL    HW233114   4.071   2.120   0.992 -4.4945 -1.0807  0.5431
 7219SOL     OW33115   0.459   2.373   9.951 -0.3301 -0.2273  0.5893
 7219SOL    HW133116   0.494   2.458   9.976 -0.9990  0.2509 -0.1321
 7219SOL    HW233117   0.476   2.385   9.858  2.1335 -1.0626  0.9283
 7220SOL     OW33118   0.773   2.462   5.376 -0.3525 -0.5432  0.1965
 7220SOL    HW133119   0.783   2.550   5.413 -2.2428 -0.0995 -0.3675
 7220SOL    HW233120   0.791   2.412   5.456  1.5336 -1.3372 -0.7122
 7221SOL     OW33121   0.860   2.559   1.137  0.2399 -0.3618 -0.6245
 7221SOL    HW133122   0.767   2.555   1.116 -0.6278  4.0119  2.3583
 7221SOL    HW233123   0.852   2.545   1.232  1.5749 -0.8923 -0.5817
 7222SOL     OW33124   4.046   3.309   7.029 -0.1987  0.3348  0.8139
 7222SOL    HW133125   3.967   3.304   6.975  1.6640 -0.7453 -1.8544
 7222SOL    HW233126   4.012   3.339   7.113 -0.9908 -1.2810  1.0781
 7223SOL     OW33127   4.302   0.501   1.928  0.0938  0.2353 -0.2876
 7223SOL    HW133128   4.259   0.582   1.957  2.2694  2.4490 -3.3044
 7223SOL    HW233129   4.238   0.465   1.867 -0.7978 -0.2053  0.8905
 7224SOL     OW33130   0.513   3.809  12.345 -0.8215 -0.1485 -0.6844
 7224SOL    HW133131   0.507   3.715  12.360  0.5262 -0.1760 -0.3754
 7224SOL    HW233132   0.519   3.839  12.436 -1.1443  0.4302 -0.8476
 7225SOL     OW33133   3.099   0.353   9.272  0.0709 -0.5063 -0.3333
 7225SOL    HW133134   3.125   0.432   9.224  0.4408  0.2442  1.0904
 7225SOL    HW233135   3.151   0.348   9.352 -2.8367  0.0060  1.6134
 7226SOL     OW33136   3.809   0.277   7.906 -0.2314 -0.3039 -0.0329
 7226SOL    HW133137   3.737   0.330   7.872  0.5197  1.4090  1.0216
 7226SOL    HW233138   3.768   0.210   7.960 -1.1262  0.9380  0.8238
 7227SOL     OW33139   4.294   4.034  14.687 -0.2591 -0.2841  0.0049
 7227SOL    HW133140   4.319   3.944  14.664 -0.3872 -0.9248  2.4706
 7227SOL    HW233141   4.258   4.069  14.605  1.7416  1.4322 -0.1394
 7228SOL     OW33142   1.980   3.311   0.676  0.2715 -0.3347 -0.3979
 7228SOL    HW133143   1.920   3.261   0.732  1.4574 -2.0975 -0.6865
 7228SOL    HW233144   2.041   3.241   0.652 -1.7627 -2.4633  0.5321
 7229SOL     OW33145   3.266   4.101   1.279 -0.1327 -0.0349  0.2317
 7229SOL    HW133146   3.174   4.086   1.256  0.4865 -1.0546 -1.5514
 7229SOL    HW233147   3.265   4.103   1.375 -1.5046  2.0374  0.1728
 7230SOL     OW33148   4.158   1.675   3.194 -0.7407  0.5091  0.0312
 7230SOL    HW133149   4.155   1.770   3.182 -1.4175  0.6697  1.5102
 7230SOL    HW233150   4.078   1.664   3.246 -1.6115 -1.2283 -1.6604
 7231SOL     OW33151   0.362   3.298   4.437 -0.2244  0.0596 -0.5021
 7231SOL    HW133152   0.395   3.382   4.404 -0.0887 -0.7044 -2.2813
 7231SOL    HW233153   0.345   3.319   4.529  1.0931 -0.3192 -0.1812
 7232SOL     OW33154   2.724   0.022   7.130  0.0412  0.6394 -0.1468
 7232SOL    HW133155   2.697   4.675   7.073 -1.4180 -0.2633  1.6890
 7232SOL    HW233156   2.781   4.703   7.194 -1.7330 -1.5903 -0.0772
 7233SOL     OW33157   3.317   2.951   7.076 -0.3925  0.3649  0.2819
 7233SOL    HW133158   3.278   2.991   7.153 -2.3072 -0.5891 -0.2051
 7233SOL    HW233159   3.266   2.985   7.002 -0.2084  1.6629  0.7536
 7234SOL     OW33160   2.073   3.022   4.656 -0.3630  0.2355 -0.0050
 7234SOL    HW133161   2.063   2.955   4.725 -1.3784 -1.2125 -1.5689
 7234SOL    HW233162   1.986   3.026   4.618 -0.3751  2.1667  0.2558
 7235SOL     OW33163   1.378   3.089   6.837 -0.3182  0.0738  0.0487
 7235SOL    HW133164   1.299   3.036   6.833  0.9753 -1.7207 -1.5878
 7235SOL    HW233165   1.444   3.022   6.856  1.6778  1.5850 -1.5753
 7236SOL     OW33166   3.890   0.242   8.756 -0.3950  0.3948 -0.1115
 7236SOL    HW133167   3.853   0.159   8.726  0.7784 -1.0376  2.3538
 7236SOL    HW233168   3.882   0.231   8.851  1.3339 -0.5158 -0.0731
 7237SOL     OW33169   3.342   3.782   3.542  0.1555  0.8888  0.2601
 7237SOL    HW133170   3.404   3.742   3.603  0.5178  0.6792 -0.2479
 7237SOL    HW233171   3.327   3.867   3.584  0.1804  2.2298 -2.4873
 7238SOL     OW33172   3.991   3.891   4.580  0.0842 -0.3366  0.2002
 7238SOL    HW133173   3.901   3.922   4.579 -0.2676 -1.3608 -0.1901
 7238SOL    HW233174   4.020   3.906   4.670  1.6582  0.5351 -0.4478
 7239SOL     OW33175   2.376   4.450   7.496 -0.0703 -0.0562  0.5215
 7239SOL    HW133176   2.433   4.435   7.571  0.4411  1.7570  0.4918
 7239SOL    HW233177   2.299   4.474   7.548 -0.6251  0.5199 -0.5569
 7240SOL     OW33178   2.795   0.297  10.438 -0.5629  0.5397 -0.5548
 7240SOL    HW133179   2.870   0.350  10.410 -1.5965  1.5457 -1.4213
 7240SOL    HW233180   2.839   0.220  10.474  0.3000  1.1221 -0.3670
 7241SOL     OW33181   0.854   1.501   0.978 -0.4299  0.2844 -0.1179
 7241SOL    HW133182   0.831   1.477   1.068  1.7043 -1.1467  0.0647
 7241SOL    HW233183   0.829   1.416   0.942 -1.5600  1.7680 -2.7954
 7242SOL     OW33184   1.339   4.357   3.022 -0.2351 -0.5584  0.1104
 7242SOL    HW133185   1.405   4.352   2.954 -1.2708  0.0463 -0.9441
 7242SOL    HW233186   1.268   4.394   2.969  1.3835  0.0433 -1.6416
 7243SOL     OW33187   1.119   2.745   0.364 -0.1982  0.5872 -0.2222
 7243SOL    HW133188   1.125   2.829   0.318 -0.1858  1.5610  1.5423
 7243SOL    HW233189   1.177   2.692   0.310 -0.2539  2.1069 -1.7955
 7244SOL     OW33190   2.239   1.031  10.984 -0.4922  0.0301  0.4072
 7244SOL    HW133191   2.163   0.973  10.991  0.2204 -1.0942 -1.1024
 7244SOL    HW233192   2.286   1.022  11.067  0.9608 -2.7853 -0.7220
 7245SOL     OW33193   4.291   1.423  15.012  0.3307 -0.4672 -0.6054
 7245SOL    HW133194   4.365   1.462  14.965 -0.1858  0.4151 -0.6956
 7245SOL    HW233195   4.214   1.472  14.983  0.7029  0.0056 -0.8019
 7246SOL     OW33196   1.731   1.216  17.645 -0.2414  0.1581  0.3906
 7246SOL    HW133197   1.752   1.143  17.586  0.0584  2.0911 -1.8996
 7246SOL    HW233198   1.636   1.215  17.643 -0.2182 -2.7172  0.9604
 7247SOL     OW33199   4.499   3.025   0.703  0.0931  0.1807 -0.6780
 7247SOL    HW133200   4.543   2.967   0.765 -0.0222 -0.2880 -1.0313
 7247SOL    HW233201   4.542   3.109   0.717 -0.2843  0.1980  0.3486
 7248SOL     OW33202   0.220   3.156   8.824 -0.2977  0.5792 -0.1235
 7248SOL    HW133203   0.284   3.107   8.877 -0.2355  1.7040  0.8308
 7248SOL    HW233204   0.247   3.245   8.846  0.3626  0.1122  0.9899
 7249SOL     OW33205   2.893   1.599  15.343  0.1432 -0.3002 -0.5867
 7249SOL    HW133206   2.870   1.507  15.328  0.3738 -0.5784  0.7429
 7249SOL    HW233207   2.909   1.594  15.438 -2.0553  0.4634 -0.1751
 7250SOL     OW33208   4.700   0.361   1.983  0.2785  0.4408 -0.8407
 7250SOL    HW133209   0.066   0.352   1.952  0.2408 -0.5680 -0.6596
 7250SOL    HW233210   4.660   0.321   1.906 -1.8558 -1.8785  1.4890
 7251SOL     OW33211   4.417   0.390   6.678 -0.3857  0.0122  0.2004
 7251SOL    HW133212   4.350   0.439   6.726 -0.6717 -0.3944  0.2152
 7251SOL    HW233213   4.358   0.356   6.610 -2.8442  0.6169  2.0342
 7252SOL     OW33214   4.712   0.588   1.544  0.2158  0.2140 -0.1791
 7252SOL    HW133215   4.617   0.578   1.547  0.0370  2.0559 -0.1237
 7252SOL    HW233216   0.009   0.534   1.468 -3.0656  0.7789 -1.4829
 7253SOL     OW33217   0.102   0.635   4.366  0.2552 -0.4454  0.6115
 7253SOL    HW133218   0.121   0.722   4.403  0.8298  0.2329 -1.2752
 7253SOL    HW233219   0.035   0.665   4.304 -0.0843 -0.6054  0.9005
 7254SOL     OW33220   4.535   1.875   8.009  0.1230 -0.0978 -0.3726
 7254SOL    HW133221   4.606   1.869   8.074 -0.2378 -1.1365 -0.0698
 7254SOL    HW233222   4.457   1.881   8.064  1.4661  0.5239  1.4645
 7255SOL     OW33223   4.458   2.054   2.413 -0.3652  0.1764 -0.2137
 7255SOL    HW133224   4.467   1.973   2.364  0.3652  1.4675 -2.2333
 7255SOL    HW233225   4.468   2.016   2.500 -2.3209  1.4062  0.5432
 7256SOL     OW33226   0.633   1.146   7.725 -0.1142 -0.0015  0.0268
 7256SOL    HW133227   0.683   1.107   7.798  0.6216 -1.2845 -1.1633
 7256SOL    HW233228   0.704   1.167   7.665  0.7588 -2.6475  0.1027
 7257SOL     OW33229   2.026   0.381   6.175 -0.0307  0.4027 -0.5570
 7257SOL    HW133230   2.026   0.468   6.135 -0.3522  0.9822  0.7031
 7257SOL    HW233231   2.062   0.397   6.262 -1.5669  1.2303 -0.0762
 7258SOL     OW33232   3.228   2.425   7.943  0.0049 -0.2861  0.3012
 7258SOL    HW133233   3.146   2.387   7.973 -0.1184 -0.3172 -0.0856
 7258SOL    HW233234   3.222   2.441   7.849  2.7804 -0.5170  0.0755
 7259SOL     OW33235   0.996   2.881  10.763 -0.0742  0.1731 -0.2194
 7259SOL    HW133236   0.969   2.851  10.676 -3.6039 -0.1197  0.9962
 7259SOL    HW233237   0.961   2.817  10.824  0.0178 -0.6124 -0.9874
 7260SOL     OW33238   2.475   1.767   6.008 -0.5425  0.3133 -0.3597
 7260SOL    HW133239   2.392   1.732   5.973 -0.6732  0.5307 -0.2671
 7260SOL    HW233240   2.440   1.832   6.069 -1.2432 -1.6127  1.3073
 7261SOL     OW33241   4.068   0.417   1.783 -0.0463 -0.4123  0.4204
 7261SOL    HW133242   4.005   0.452   1.846 -1.4681 -0.8281 -0.7732
 7261SOL    HW233243   4.041   0.325   1.789 -0.3755 -0.3231  0.2786
 7262SOL     OW33244   2.812   0.615   9.022 -0.4485  0.3327 -0.2963
 7262SOL    HW133245   2.777   0.546   9.078  1.6131 -0.0124  0.5813
 7262SOL    HW233246   2.880   0.568   8.973  1.4798  1.0116  1.7096
 7263SOL     OW33247   2.820   3.890   2.334  0.4285 -0.1603 -0.0421
 7263SOL    HW133248   2.787   3.942   2.407 -1.6553 -0.2723 -0.8810
 7263SOL    HW233249   2.865   3.957   2.283 -1.7652  1.7969  0.6044
 7264SOL     OW33250   0.085   2.493   7.140  0.0479 -0.4183  0.4931
 7264SOL    HW133251   0.093   2.439   7.219 -0.5628 -2.5038 -0.8703
 7264SOL    HW233252   0.036   2.429   7.088  0.4473  0.1735 -0.5955
 7265SOL     OW33253   3.466   4.104   2.113  0.2790 -0.5124  0.2094
 7265SOL    HW133254   3.452   4.092   2.019  0.2677 -0.7613  0.2409
 7265SOL    HW233255   3.431   4.190   2.135  0.0062 -0.3924 -0.6751
 7266SOL     OW33256   0.786   4.061  14.815  0.2140  0.4456  0.7041
 7266SOL    HW133257   0.714   4.097  14.763 -0.1728 -3.0052 -1.1222
 7266SOL    HW233258   0.744   4.082  14.898 -1.5926 -0.8423  0.0977
 7267SOL     OW33259   1.209   2.010   8.122  0.2980 -0.2651 -0.4996
 7267SOL    HW133260   1.266   2.055   8.185  1.2594  0.3642 -1.8183
 7267SOL    HW233261   1.137   1.981   8.178  0.8916  0.6238  0.7210
 7268SOL     OW33262   2.895   3.882   3.490  0.5032  0.1554  0.2600
 7268SOL    HW133263   2.913   3.789   3.480 -2.2314 -0.3221 -0.0828
 7268SOL    HW233264   2.821   3.876   3.549 -0.5916  2.0514 -0.9055
 7269SOL     OW33265   4.472   0.779   6.176 -0.7216 -0.1587 -0.1254
 7269SOL    HW133266   4.537   0.752   6.241  0.2514 -1.9155 -1.8043
 7269SOL    HW233267   4.397   0.795   6.232 -1.8165 -1.1556 -1.2992
 7270SOL     OW33268   1.844   2.477   6.194  0.1419 -0.2897  0.0679
 7270SOL    HW133269   1.838   2.568   6.222  2.9061 -0.3819  0.9973
 7270SOL    HW233270   1.928   2.453   6.234  0.0671 -1.6662 -0.5763
 7271SOL     OW33271   3.029   2.892  12.231  0.0704  0.3379  0.4297
 7271SOL    HW133272   3.069   2.841  12.161 -1.0015  2.1768 -1.5576
 7271SOL    HW233273   2.979   2.956  12.179 -0.8931 -1.5277 -0.9390
 7272SOL     OW33274   3.168   3.553   1.002  0.0728 -0.0857  0.1793
 7272SOL    HW133275   3.247   3.500   1.014 -0.1958 -0.7270 -0.8944
 7272SOL    HW233276   3.155   3.541   0.908 -2.7154 -0.7448  0.6534
 7273SOL     OW33277   4.031   0.350   2.246 -0.1434  0.5589  0.1873
 7273SOL    HW133278   4.013   0.389   2.160 -0.4578  0.6936  0.3173
 7273SOL    HW233279   3.952   0.370   2.295  0.0193  0.0806  0.6429
 7274SOL     OW33280   1.364   3.906   2.413  0.4389  0.6465 -0.6091
 7274SOL    HW133281   1.408   3.894   2.328 -0.8611  0.4077 -1.2429
 7274SOL    HW233282   1.409   3.985   2.441 -1.1631  0.7831  1.5362
 7275SOL     OW33283   3.214   0.673  13.538 -0.4257 -0.5348 -0.6409
 7275SOL    HW133284   3.261   0.713  13.465  0.5474 -0.2159  0.1691
 7275SOL    HW233285   3.128   0.711  13.516 -1.3517 -0.7900  2.5161
 7276SOL     OW33286   1.926   2.823   2.474 -0.3810  0.4416  0.3021
 7276SOL    HW133287   1.882   2.841   2.557  1.8723  3.3391  0.8871
 7276SOL    HW233288   1.854   2.835   2.411 -0.1593  0.9582  0.1456
 7277SOL     OW33289   4.718   3.534   2.895 -0.3636 -0.0533  0.0014
 7277SOL    HW133290   4.653   3.549   2.963 -0.4331  0.0247 -0.0816
 7277SOL    HW233291   4.667   3.530   2.814  0.8228 -0.1439 -0.7472
 7278SOL     OW33292   0.714   4.132   6.604 -0.3139  0.2458  0.3067
 7278SOL    HW133293   0.802   4.106   6.575  0.5826  3.0252  0.5381
 7278SOL    HW233294   0.670   4.047   6.610  0.0787  0.2111  2.8044
 7279SOL     OW33295   3.053   0.068   0.895  0.7903  0.3782 -0.1339
 7279SOL    HW133296   3.017   0.122   0.965 -0.7591 -0.6682 -0.1344
 7279SOL    HW233297   2.988   4.723   0.909  1.5220 -0.0414  1.1926
 7280SOL     OW33298   1.034   2.497   0.534 -0.2280 -0.0271  0.0867
 7280SOL    HW133299   1.050   2.551   0.456  0.2203 -0.9043 -0.4384
 7280SOL    HW233300   1.039   2.411   0.491 -0.3636 -0.2947  0.6031
 7281SOL     OW33301   2.178   2.248   8.293  0.3673 -0.0079  0.1919
 7281SOL    HW133302   2.238   2.284   8.358  1.1434  0.3016 -0.6871
 7281SOL    HW233303   2.097   2.253   8.343  0.3103 -2.5370  0.3483
 7282SOL     OW33304   1.905   4.038   9.582 -0.4190  0.3714  0.1359
 7282SOL    HW133305   1.837   4.055   9.647  0.0853  0.8261  0.5422
 7282SOL    HW233306   1.897   4.120   9.533  1.8985  2.2530  2.8714
 7283SOL     OW33307   0.476   2.572   8.680  0.1909 -0.0674 -0.0516
 7283SOL    HW133308   0.493   2.627   8.756  0.7075  0.4919 -0.5737
 7283SOL    HW233309   0.491   2.485   8.715  2.0410  1.5191  3.0542
 7284SOL     OW33310   1.637   1.928   5.032 -0.0680 -0.1108 -0.0426
 7284SOL    HW133311   1.607   1.885   5.112 -2.9108 -0.6834 -1.3911
 7284SOL    HW233312   1.686   1.994   5.079  1.6307 -1.0908 -0.4537
 7285SOL     OW33313   2.441   1.680  12.984 -0.2382  0.2123 -0.0452
 7285SOL    HW133314   2.375   1.613  12.967 -1.2125  1.4759 -1.3131
 7285SOL    HW233315   2.377   1.745  13.013 -1.2622 -1.0785  0.6011
 7286SOL     OW33316   4.087   1.626  14.547 -0.2416 -0.7130  0.0845
 7286SOL    HW133317   4.008   1.645  14.599 -0.2876  0.3050 -0.3599
 7286SOL    HW233318   4.151   1.630  14.618  1.7099 -0.9549 -1.6636
 7287SOL     OW33319   2.588   0.679   8.837 -0.9317  0.0950 -0.4358
 7287SOL    HW133320   2.639   0.672   8.756  0.4098  1.9005  0.2282
 7287SOL    HW233321   2.661   0.672   8.900 -0.8505 -1.2773 -0.6776
 7288SOL     OW33322   2.464   1.122  10.790 -0.3986  0.2192 -0.6716
 7288SOL    HW133323   2.560   1.124  10.784 -0.4903 -0.2937 -2.2786
 7288SOL    HW233324   2.430   1.182  10.724 -2.5961 -2.6383 -2.1537
 7289SOL     OW33325   4.056   4.481   3.578  0.3208  0.0541  0.3834
 7289SOL    HW133326   4.014   4.506   3.661 -0.2949  0.7723 -0.1497
 7289SOL    HW233327   3.998   4.518   3.512  1.1053 -0.2084 -0.4591
 7290SOL     OW33328   2.624   3.141   7.724  0.4959  0.0177 -0.1345
 7290SOL    HW133329   2.672   3.206   7.672  1.7332 -0.3842  0.5027
 7290SOL    HW233330   2.674   3.062   7.707  1.5454  0.7336 -0.4073
 7291SOL     OW33331   1.440   0.427   8.448  0.3084  0.5594  0.5922
 7291SOL    HW133332   1.347   0.442   8.430  0.2370 -1.7227 -0.8881
 7291SOL    HW233333   1.466   0.488   8.517  2.6319 -0.3508  0.5392
 7292SOL     OW33334   3.510   0.081   2.151  0.3706  0.6367  0.3171
 7292SOL    HW133335   3.557   0.083   2.234  2.2400 -0.1453 -0.7389
 7292SOL    HW233336   3.428   0.126   2.173  0.8487  0.2254  2.9521
 7293SOL     OW33337   2.251   3.484   3.330  0.1628  0.0009 -0.5924
 7293SOL    HW133338   2.272   3.455   3.419  0.0764  0.7922 -0.3126
 7293SOL    HW233339   2.299   3.416   3.283  1.7010  0.8840 -0.2929
 7294SOL     OW33340   3.092   2.820   2.561 -0.2538 -0.1039  0.1728
 7294SOL    HW133341   3.047   2.902   2.580 -0.5104 -0.1731 -0.1333
 7294SOL    HW233342   3.042   2.776   2.492  1.9674 -0.1656 -1.4047
 7295SOL     OW33343   1.353   2.215  15.343  0.1451  0.4236  0.3214
 7295SOL    HW133344   1.379   2.291  15.291 -0.9390  0.3025 -0.3861
 7295SOL    HW233345   1.420   2.208  15.412  0.0659  1.0307  0.4566
 7296SOL     OW33346   3.332   4.096  11.278 -0.1427  0.3567  0.2339
 7296SOL    HW133347   3.338   4.182  11.237 -2.8880 -0.0337 -1.0188
 7296SOL    HW233348   3.327   4.040  11.200  2.8974  2.4657 -1.4610
 7297SOL     OW33349   0.581   2.519   1.134 -0.0876 -0.6673  0.1338
 7297SOL    HW133350   0.519   2.447   1.140 -1.8124  0.6963 -1.6876
 7297SOL    HW233351   0.557   2.578   1.206  1.2368 -1.8018  1.5091
 7298SOL     OW33352   0.271   4.507   5.606  0.1376 -0.2607 -0.2762
 7298SOL    HW133353   0.268   4.602   5.616  0.4027 -0.2876  0.0717
 7298SOL    HW233354   0.192   4.464   5.638  0.0449 -1.5056 -2.1605
 7299SOL     OW33355   2.227   4.649   4.176 -0.0775 -0.2569 -0.7679
 7299SOL    HW133356   2.178   4.705   4.236  1.9819 -0.6339  1.2756
 7299SOL    HW233357   2.302   4.705   4.160  0.6241 -0.8974  0.2545
 7300SOL     OW33358   0.501   0.558   6.839  0.0145 -0.3276  0.1552
 7300SOL    HW133359   0.586   0.516   6.823  0.1866 -0.6281  1.8471
 7300SOL    HW233360   0.469   0.493   6.901 -0.0074 -1.5551 -1.1414
 7301SOL     OW33361   3.773   0.521  11.255  0.3340  0.3671  0.3980
 7301SOL    HW133362   3.768   0.436  11.299 -0.5054  1.2438  1.9702
 7301SOL    HW233363   3.789   0.494  11.165 -0.4841 -1.2614  0.7428
 7302SOL     OW33364   3.387   2.428   2.283 -0.4974  0.4789  0.0186
 7302SOL    HW133365   3.471   2.396   2.250 -0.2951 -0.4484  1.4099
 7302SOL    HW233366   3.418   2.448   2.372  0.6781  1.1151 -0.5379
 7303SOL     OW33367   1.402   1.048   2.571  0.4021  0.1640  0.2272
 7303SOL    HW133368   1.492   1.080   2.578  0.8470 -1.0689  0.1659
 7303SOL    HW233369   1.359   1.127   2.604  1.6105  0.8470  0.1849
 7304SOL     OW33370   1.810   1.140   9.991 -0.6645 -0.0726  0.3838
 7304SOL    HW133371   1.856   1.215  10.029  1.0429 -1.0577  0.2575
 7304SOL    HW233372   1.727   1.124  10.036 -0.0728 -0.2542  1.4143
 7305SOL     OW33373   2.929   4.545   2.448 -0.3487 -0.6214  0.3276
 7305SOL    HW133374   2.903   4.627   2.491 -1.2194  0.5247 -2.3995
 7305SOL    HW233375   2.992   4.516   2.515  0.3027  1.0102  0.4135
 7306SOL     OW33376   2.711   2.476  10.608 -0.1688  0.0778 -0.1365
 7306SOL    HW133377   2.687   2.497  10.699 -0.0268  2.5901 -0.6935
 7306SOL    HW233378   2.698   2.562  10.569 -0.8840  0.1935  0.3578
 7307SOL     OW33379   1.175   2.815   4.467  0.5291  1.0532  0.1814
 7307SOL    HW133380   1.233   2.797   4.541 -0.9582 -1.0960  0.8296
 7307SOL    HW233381   1.099   2.859   4.504 -0.5138  0.4207 -1.2284
 7308SOL     OW33382   4.561   1.472  13.962 -0.4578  0.8183  0.6092
 7308SOL    HW133383   4.583   1.557  13.924  1.3075 -0.2175 -0.6501
 7308SOL    HW233384   4.521   1.424  13.889  1.5799 -0.2272  0.1886
 7309SOL     OW33385   3.818   1.885   1.090  0.3915 -0.1480 -0.9455
 7309SOL    HW133386   3.884   1.834   1.137 -1.0652 -1.4128 -0.2764
 7309SOL    HW233387   3.775   1.921   1.168 -0.6349 -0.5531 -1.3233
 7310SOL     OW33388   2.713   2.360   6.247  0.1662  0.5523  0.0291
 7310SOL    HW133389   2.791   2.379   6.195  0.7121 -2.0595 -0.1032
 7310SOL    HW233390   2.721   2.421   6.320 -3.2616  1.4306 -0.3462
 7311SOL     OW33391   1.619   0.633   8.845 -0.4150 -0.3423  0.2769
 7311SOL    HW133392   1.610   0.713   8.896  2.0242 -1.7558  2.9303
 7311SOL    HW233393   1.574   0.658   8.765  1.2690  0.2076 -0.4994
 7312SOL     OW33394   0.908   2.854   6.432  0.4999 -0.8302 -0.1577
 7312SOL    HW133395   0.933   2.882   6.520  1.6303  2.5059 -1.5334
 7312SOL    HW233396   0.919   2.760   6.448 -1.3687 -0.9819  0.3111
 7313SOL     OW33397   4.191   0.157   7.521 -0.0765  0.2267 -0.3517
 7313SOL    HW133398   4.220   0.074   7.484  0.6014  0.3415 -0.0925
 7313SOL    HW233399   4.123   0.146   7.587 -1.5923 -0.5500 -2.0453
 7314SOL     OW33400   4.095   2.179  14.711 -0.1973 -0.4459 -0.3099
 7314SOL    HW133401   4.110   2.253  14.652 -0.2778 -2.8293 -3.3290
 7314SOL    HW233402   4.036   2.214  14.777 -0.0030 -1.3089  0.3288
 7315SOL     OW33403   2.361   3.408   0.653  0.2571 -0.0254  0.1626
 7315SOL    HW133404   2.298   3.393   0.724 -1.4771 -0.9775 -1.5748
 7315SOL    HW233405   2.319   3.384   0.571 -1.1480  1.6939  0.3703
 7316SOL     OW33406   2.533   1.095   6.635 -0.3109 -0.3058 -0.3190
 7316SOL    HW133407   2.537   1.007   6.673 -1.1584 -0.1911  0.0452
 7316SOL    HW233408   2.509   1.059   6.549 -0.6633  0.2891 -0.4703
 7317SOL     OW33409   2.454   3.423   4.765 -0.5699 -0.2358 -0.2877
 7317SOL    HW133410   2.514   3.350   4.781  0.7971  0.7534 -0.9756
 7317SOL    HW233411   2.517   3.493   4.749  2.6548 -2.2018  3.6131
 7318SOL     OW33412   3.003   2.522   4.742  0.0408  0.3356 -0.1556
 7318SOL    HW133413   3.052   2.529   4.824 -1.2161 -2.0684  0.7900
 7318SOL    HW233414   2.932   2.461   4.762 -0.3174  0.4158 -1.1687
 7319SOL     OW33415   3.075   1.576   5.032 -0.0842  0.3072 -0.2447
 7319SOL    HW133416   3.137   1.645   5.012 -2.1237  2.0688 -0.5315
 7319SOL    HW233417   3.137   1.527   5.086 -0.5854  0.0380  0.0878
 7320SOL     OW33418   3.985   0.381   2.877  0.0331  0.1659  0.2932
 7320SOL    HW133419   4.017   0.394   2.787 -0.6129  0.8895  0.1643
 7320SOL    HW233420   4.024   0.453   2.928  3.5100 -2.0504  0.7513
 7321SOL     OW33421   2.814   0.803  11.936  0.1482 -0.1248 -0.4415
 7321SOL    HW133422   2.772   0.717  11.945 -1.1867  0.8628  2.9187
 7321SOL    HW233423   2.899   0.785  11.897  1.1135  2.8614  0.3256
 7322SOL     OW33424   4.054   0.178   4.257  0.7460 -0.0306 -0.5727
 7322SOL    HW133425   4.061   0.261   4.209 -0.8623 -0.6792 -1.9289
 7322SOL    HW233426   3.959   0.170   4.254  0.7065  0.3875 -0.4223
 7323SOL     OW33427   2.817   0.104   4.592 -0.1828  0.1481 -0.1792
 7323SOL    HW133428   2.750   0.163   4.627 -0.5443  0.9084 -2.0961
 7323SOL    HW233429   2.874   0.166   4.546  0.7379  0.2258  1.0847
 7324SOL     OW33430   4.354   4.195   3.491  0.1034  0.2339 -0.6566
 7324SOL    HW133431   4.377   4.288   3.497  1.7324 -0.1670 -0.8347
 7324SOL    HW233432   4.258   4.198   3.486 -0.0144 -1.6903  0.2926
 7325SOL     OW33433   0.282   2.004   7.901  0.1861  0.5805  0.0570
 7325SOL    HW133434   0.222   1.932   7.921  1.8264 -0.9779 -0.5493
 7325SOL    HW233435   0.330   2.030   7.980  3.0188  0.3219 -1.5647
 7326SOL     OW33436   0.792   3.107  11.032  0.0389  0.1876 -0.4853
 7326SOL    HW133437   0.708   3.122  10.988  0.1386 -1.3462 -1.1956
 7326SOL    HW233438   0.796   3.012  11.023 -0.3361  0.2418 -1.2608
 7327SOL     OW33439   4.719   2.470   4.482 -0.1827  0.3217 -0.2974
 7327SOL    HW133440   4.676   2.391   4.517  1.3749 -1.0171 -1.4460
 7327SOL    HW233441   0.025   2.506   4.566 -1.1895  2.6993 -0.9620
 7328SOL     OW33442   4.297   1.620  15.248 -0.2552  0.2571 -0.0348
 7328SOL    HW133443   4.257   1.618  15.335 -0.7711 -0.4482 -0.2950
 7328SOL    HW233444   4.265   1.550  15.191  1.5023 -0.9851  0.5004
 7329SOL     OW33445   4.220   4.224  15.654 -0.0382  0.0879  0.5606
 7329SOL    HW133446   4.310   4.194  15.641  0.0311  0.4552  0.1891
 7329SOL    HW233447   4.208   4.252  15.563 -2.7785 -1.5643  0.4003
 7330SOL     OW33448   1.138   4.174  13.537 -0.1502 -0.1809 -0.2020
 7330SOL    HW133449   1.073   4.190  13.469 -0.2688  0.5493  0.0810
 7330SOL    HW233450   1.150   4.080  13.521  1.1120 -0.1461  0.5849
 7331SOL     OW33451   4.622   2.141   3.877  0.0179 -0.2521 -0.6510
 7331SOL    HW133452   4.697   2.097   3.837 -0.0184 -1.6600  0.8315
 7331SOL    HW233453   4.553   2.078   3.862  1.1100 -1.7176  0.4672
 7332SOL     OW33454   2.614   4.720  16.995  0.0823  0.2812 -0.0928
 7332SOL    HW133455   2.644   0.084  16.975 -2.2584  1.1478  0.2588
 7332SOL    HW233456   2.537   0.024  17.044 -0.2634  0.2653 -0.6298
 7333SOL     OW33457   4.522   3.176   9.176  0.2654 -0.0879 -0.0918
 7333SOL    HW133458   4.439   3.206   9.140 -1.8862 -3.8091  1.7988
 7333SOL    HW233459   4.571   3.187   9.095  1.6344  4.2013  1.2883
 7334SOL     OW33460   3.551   0.072   7.134  0.1442  0.4388  0.4037
 7334SOL    HW133461   3.619   0.044   7.073 -1.3132  2.1191 -1.9603
 7334SOL    HW233462   3.606   0.126   7.192  1.5749 -0.7214  0.1352
 7335SOL     OW33463   1.058   2.179   4.247  0.2081 -0.5880 -0.1809
 7335SOL    HW133464   1.103   2.109   4.201  1.3342  0.8618 -1.3065
 7335SOL    HW233465   0.973   2.185   4.202 -0.6946  0.8000  1.7002
 7336SOL     OW33466   3.739   1.090   8.976  0.2026  0.6947 -0.3339
 7336SOL    HW133467   3.688   1.066   9.054 -0.6129  2.5520 -0.3072
 7336SOL    HW233468   3.690   1.166   8.945  0.6873  1.5970  1.1112
 7337SOL     OW33469   2.317   2.718   5.684 -0.0175 -0.1174 -0.1802
 7337SOL    HW133470   2.243   2.776   5.702  2.0148  1.9833  1.3314
 7337SOL    HW233471   2.374   2.780   5.640 -1.8657  1.2064 -0.6814
 7338SOL     OW33472   1.550   0.363   7.330  0.1699  0.2757  0.2317
 7338SOL    HW133473   1.523   0.342   7.419  2.8495 -1.6568  0.5961
 7338SOL    HW233474   1.525   0.455   7.321 -0.8593  0.3175  3.7261
 7339SOL     OW33475   3.432   0.413   7.522 -0.5335  0.1534 -0.6392
 7339SOL    HW133476   3.362   0.467   7.559 -0.7068  1.3622 -2.7341
 7339SOL    HW233477   3.427   0.335   7.577  0.1437 -0.1555 -1.0160
 7340SOL     OW33478   1.994   3.261   4.340 -0.0567 -0.5208 -0.0152
 7340SOL    HW133479   1.955   3.200   4.401  1.1293 -0.7370  0.5228
 7340SOL    HW233480   1.940   3.270   4.261  0.7771 -0.1448 -0.5533
 7341SOL     OW33481   2.374   0.540   7.815 -0.5891  0.1516  0.1245
 7341SOL    HW133482   2.306   0.473   7.823 -0.7933  0.1489 -1.4879
 7341SOL    HW233483   2.360   0.568   7.724  1.6499 -0.3703 -0.3898
 7342SOL     OW33484   2.150   0.412   2.546  0.0593 -0.5584 -0.1863
 7342SOL    HW133485   2.133   0.498   2.582 -1.3776 -0.9695  0.1028
 7342SOL    HW233486   2.070   0.361   2.537 -0.2525  0.3439 -2.7417
 7343SOL     OW33487   2.036   4.638   1.093 -0.2305  0.0906  0.0097
 7343SOL    HW133488   2.043   4.600   1.181 -0.7157  0.4332  0.2020
 7343SOL    HW233489   1.957   4.594   1.062 -1.2898 -0.4048  3.3898
 7344SOL     OW33490   1.609   1.920   8.567  0.0029 -0.1288 -0.0036
 7344SOL    HW133491   1.637   2.009   8.589  3.9272 -1.7249  1.3050
 7344SOL    HW233492   1.653   1.916   8.482  0.0983 -0.4898  0.0664
 7345SOL     OW33493   3.516   0.968   3.874 -0.4591  0.0011 -0.1668
 7345SOL    HW133494   3.485   1.011   3.954 -2.1793 -1.9488  0.1951
 7345SOL    HW233495   3.455   0.895   3.864  0.6323 -1.0121  0.5480
 7346SOL     OW33496   3.068   4.709   0.185 -0.1962 -0.0413 -0.0325
 7346SOL    HW133497   3.095   0.076   0.193 -1.6883  0.3294  0.7362
 7346SOL    HW233498   2.977   4.715   0.213  0.3656 -2.2014  2.2997
 7347SOL     OW33499   1.943   0.878  10.119  0.7109 -0.2541 -0.3948
 7347SOL    HW133500   1.921   0.953  10.065 -0.3845 -0.8638 -0.8032
 7347SOL    HW233501   2.024   0.910  10.158  0.2737  1.7800 -1.1747
 7348SOL     OW33502   0.445   4.101  14.830  0.4715  0.3439  0.1997
 7348SOL    HW133503   0.448   4.184  14.876 -0.6597 -0.7178  2.1822
 7348SOL    HW233504   0.507   4.113  14.758  0.8164  1.9436  0.7652
 7349SOL     OW33505   1.804   3.771   4.428 -0.0429 -1.1494  0.0643
 7349SOL    HW133506   1.765   3.687   4.405  1.5598 -1.2595 -2.2996
 7349SOL    HW233507   1.875   3.733   4.480 -0.0010  0.3974  1.1220
 7350SOL     OW33508   0.773   1.528  17.042  0.2838  0.3501  0.1553
 7350SOL    HW133509   0.729   1.563  17.119  0.1485 -1.5011  0.9211
 7350SOL    HW233510   0.845   1.477  17.080  0.7093  1.4362  0.8126
 7351SOL     OW33511   2.743   4.219  17.275 -0.1284  0.3593 -0.4881
 7351SOL    HW133512   2.773   4.243  17.188  0.6553  1.5423  0.1005
 7351SOL    HW233513   2.760   4.303  17.317  2.4790 -0.0173 -0.7588
 7352SOL     OW33514   1.916   3.983   8.586  0.2613  0.2231  0.2106
 7352SOL    HW133515   1.921   3.910   8.647  0.0332  0.0733  0.0501
 7352SOL    HW233516   1.846   3.945   8.532 -0.2570 -0.3730  1.2987
 7353SOL     OW33517   3.038   1.574   9.239 -0.4257  0.2872  0.4844
 7353SOL    HW133518   3.020   1.539   9.152 -0.3082  0.5508  0.3540
 7353SOL    HW233519   3.108   1.516   9.272  0.7694  2.3160  1.4980
 7354SOL     OW33520   3.957   2.313   6.669  0.3264  0.0073  0.5637
 7354SOL    HW133521   3.970   2.280   6.580 -0.1582  0.8631  0.1780
 7354SOL    HW233522   3.865   2.291   6.681  0.6150 -0.2633  2.3016
 7355SOL     OW33523   1.756   1.662   4.388  0.4818  0.1969 -0.0861
 7355SOL    HW133524   1.760   1.669   4.293  0.1906 -1.2954 -0.2012
 7355SOL    HW233525   1.699   1.587   4.404  0.9023 -0.8166 -3.2261
 7356SOL     OW33526   1.875   1.930   5.683  0.4164  0.0230  1.1536
 7356SOL    HW133527   1.863   2.003   5.745  1.5102  1.4695 -0.3257
 7356SOL    HW233528   1.818   1.864   5.723  0.6344 -0.3000  0.9240
 7357SOL     OW33529   3.317   1.593  15.576  0.2114  0.6934  0.9380
 7357SOL    HW133530   3.285   1.508  15.546  2.1148  0.3121 -0.0404
 7357SOL    HW233531   3.303   1.593  15.671  1.4297 -0.3312  1.1144
 7358SOL     OW33532   2.152   1.630   3.290 -0.3829  0.2995  0.4440
 7358SOL    HW133533   2.243   1.601   3.289 -0.4172  0.1613  1.1544
 7358SOL    HW233534   2.140   1.611   3.197  1.2387  1.5041  0.0001
 7359SOL     OW33535   1.117   0.721  12.383  0.3997 -0.4495  0.3115
 7359SOL    HW133536   1.051   0.731  12.314  1.9549 -1.9686 -1.4113
 7359SOL    HW233537   1.179   0.788  12.353  0.9728 -0.6814  0.9808
 7360SOL     OW33538   2.265   1.619   8.126  0.0056  0.1122 -1.1174
 7360SOL    HW133539   2.287   1.700   8.080 -0.3759 -1.1429 -3.4894
 7360SOL    HW233540   2.352   1.588   8.151 -1.0541 -2.2855 -0.4338
 7361SOL     OW33541   3.755   3.612   3.053 -0.1770 -0.1305 -0.0182
 7361SOL    HW133542   3.799   3.543   3.003 -0.3630  0.5142 -1.0766
 7361SOL    HW233543   3.699   3.642   2.981 -2.4935  0.7056  2.1515
 7362SOL     OW33544   4.027   3.472   6.321  0.1706  0.0070 -0.4099
 7362SOL    HW133545   3.981   3.525   6.256  0.5418  0.7624 -0.0513
 7362SOL    HW233546   4.094   3.534   6.350  2.0966 -1.7537 -1.1223
 7363SOL     OW33547   2.606   4.007   7.575 -0.1733  0.1009  0.0180
 7363SOL    HW133548   2.624   4.100   7.592  0.2364 -0.2360  1.3437
 7363SOL    HW233549   2.588   3.981   7.665 -0.7705  1.4340  0.2879
 7364SOL     OW33550   0.096   3.784   5.497  0.5355 -0.0820 -0.4299
 7364SOL    HW133551   0.018   3.731   5.515  0.4065  0.0966 -0.4667
 7364SOL    HW233552   0.097   3.767   5.403  0.4124 -1.5204 -0.1811
 7365SOL     OW33553   3.947   3.838   2.259  0.2163  0.0718 -0.0895
 7365SOL    HW133554   3.983   3.776   2.195  0.5807  2.3791 -2.1486
 7365SOL    HW233555   3.949   3.912   2.197  3.0373  0.2934  0.2576
 7366SOL     OW33556   3.311   1.499   9.422 -0.2539  0.1380  0.2818
 7366SOL    HW133557   3.278   1.414   9.452  0.6786 -0.0968  0.6284
 7366SOL    HW233558   3.404   1.477   9.417 -0.2214  0.3483 -0.0568
 7367SOL     OW33559   4.175   2.474   6.455 -0.2393 -0.2951 -0.3710
 7367SOL    HW133560   4.104   2.510   6.508 -2.0218 -1.0190 -2.3024
 7367SOL    HW233561   4.249   2.461   6.514  0.3507  1.4627 -0.6986
 7368SOL     OW33562   3.212   4.681   2.621  0.1670  0.4627  0.1333
 7368SOL    HW133563   3.123   4.714   2.615  0.3368  1.0876  1.0595
 7368SOL    HW233564   3.219   4.697   2.715 -1.4911 -0.7367  0.4426
 7369SOL     OW33565   2.016   0.488  17.178  0.0836 -0.0095  0.1531
 7369SOL    HW133566   2.109   0.476  17.197  0.0912  1.3132  1.0035
 7369SOL    HW233567   1.991   0.413  17.125  1.7513 -2.8409  3.3328
 7370SOL     OW33568   2.159   3.772   3.475 -0.3790 -0.2906  0.1070
 7370SOL    HW133569   2.175   3.848   3.419 -1.2571  0.6654  1.1403
 7370SOL    HW233570   2.248   3.759   3.507 -0.1167  2.3170  0.4857
 7371SOL     OW33571   3.869   1.307   1.890  0.0467  0.0374  0.3472
 7371SOL    HW133572   3.781   1.336   1.915 -0.2932 -0.6338 -0.0709
 7371SOL    HW233573   3.914   1.390   1.905 -1.0074  0.4067  1.5188
 7372SOL     OW33574   1.446   0.290   1.135 -0.2468 -0.4002 -0.4752
 7372SOL    HW133575   1.449   0.354   1.064 -1.3391  1.2829  1.0020
 7372SOL    HW233576   1.430   0.338   1.216 -0.2370  1.3392 -1.5069
 7373SOL     OW33577   2.905   1.290   8.484  0.0201 -0.0420 -0.3958
 7373SOL    HW133578   2.907   1.195   8.495 -0.9752 -0.1827 -1.3480
 7373SOL    HW233579   2.970   1.299   8.414  2.1042  1.0211  1.6557
 7374SOL     OW33580   1.007   3.648   8.422 -0.0743  0.0366 -0.0293
 7374SOL    HW133581   0.951   3.674   8.495 -2.3789 -0.5238 -1.6072
 7374SOL    HW233582   0.945   3.623   8.353 -0.1337 -0.0361  0.0496
 7375SOL     OW33583   3.710   3.642   8.018 -0.1020 -0.3534 -0.1442
 7375SOL    HW133584   3.687   3.549   8.013  1.4685 -0.7392 -0.3323
 7375SOL    HW233585   3.801   3.628   7.991  0.8200  4.4738  0.4672
 7376SOL     OW33586   0.364   2.365  14.540  0.2608  0.1164 -0.3663
 7376SOL    HW133587   0.281   2.411  14.554  0.6391  0.8281 -0.4890
 7376SOL    HW233588   0.407   2.410  14.468  0.9625  0.9913  0.6177
 7377SOL     OW33589   2.241   2.886   3.287  0.0258  0.4838 -0.2283
 7377SOL    HW133590   2.218   2.896   3.379 -1.5365  1.4489 -0.7310
 7377SOL    HW233591   2.178   2.816   3.269  0.3719  0.2937 -0.7359
 7378SOL     OW33592   4.381   3.666  15.711 -0.0566  0.2180 -0.8507
 7378SOL    HW133593   4.385   3.584  15.663 -0.0134 -1.0213  1.2776
 7378SOL    HW233594   4.408   3.631  15.795 -0.8797  1.6722  0.0323
 7379SOL     OW33595   4.252   1.536   6.450 -0.5811 -0.1794 -0.2950
 7379SOL    HW133596   4.216   1.507   6.533 -1.5708 -1.2269 -1.0869
 7379SOL    HW233597   4.224   1.626   6.436  0.2382  0.5216  2.7786
 7380SOL     OW33598   2.391   4.397   2.152  0.2689 -0.5778  0.2480
 7380SOL    HW133599   2.328   4.463   2.181  1.0836  0.5048 -0.4276
 7380SOL    HW233600   2.384   4.379   2.058 -0.9306 -0.1496  0.2645
 7381SOL     OW33601   0.316   1.798   8.655 -0.4565 -0.9482 -0.7491
 7381SOL    HW133602   0.379   1.829   8.590  1.1514 -0.7245  0.8853
 7381SOL    HW233603   0.309   1.875   8.711 -0.6618  0.9016 -3.3204
 7382SOL     OW33604   1.042   3.616  14.745 -0.3990  0.2333 -0.5727
 7382SOL    HW133605   1.100   3.651  14.677  0.2215 -0.8035 -0.5806
 7382SOL    HW233606   0.980   3.688  14.760 -0.8684 -0.1728 -0.5494
 7383SOL     OW33607   4.442   1.915   3.888 -0.1476  0.3329 -0.4695
 7383SOL    HW133608   4.458   1.930   3.981 -0.2005 -1.0092 -0.2333
 7383SOL    HW233609   4.460   1.823   3.868  1.7463  0.4091  0.8829
 7384SOL     OW33610   2.306   2.638  14.177 -0.3313 -0.1447 -0.4650
 7384SOL    HW133611   2.327   2.577  14.106 -1.7446 -1.0633 -0.0982
 7384SOL    HW233612   2.396   2.662  14.196 -0.8978 -0.7608  2.9654
 7385SOL     OW33613   3.990   2.963   9.270 -0.2235 -0.0519 -0.0265
 7385SOL    HW133614   4.059   2.964   9.336 -0.6857  2.5614  0.4150
 7385SOL    HW233615   3.946   2.878   9.278  0.9344 -0.6083  0.4571
 7386SOL     OW33616   3.083   1.749   6.120  0.0347 -0.1543 -0.3310
 7386SOL    HW133617   3.117   1.812   6.056 -0.4741 -0.4592 -0.9133
 7386SOL    HW233618   2.990   1.748   6.095  0.1824 -1.1155 -0.8305
 7387SOL     OW33619   1.355   0.138   8.678  0.4087  0.1688 -0.2017
 7387SOL    HW133620   1.442   0.127   8.640  1.6036  2.6925  1.7755
 7387SOL    HW233621   1.369   0.220   8.726 -1.3295  0.8906 -0.9317
 7388SOL     OW33622   3.348   3.403   7.207 -0.3811 -0.2244 -0.6669
 7388SOL    HW133623   3.336   3.445   7.292  0.3656 -0.6546 -0.3554
 7388SOL    HW233624   3.276   3.448   7.163 -0.2906  0.9554  0.4180
 7389SOL     OW33625   3.964   3.614  10.972 -0.3629 -0.3382  0.1583
 7389SOL    HW133626   4.018   3.636  10.896 -0.7515 -0.1329 -0.0608
 7389SOL    HW233627   4.015   3.539  11.000 -0.1891 -0.0371  0.6390
 7390SOL     OW33628   0.942   4.213  17.231 -0.3109 -0.8401  0.0147
 7390SOL    HW133629   1.025   4.252  17.260 -0.2296  0.4416 -2.0030
 7390SOL    HW233630   0.881   4.286  17.236  1.1505  0.3739 -0.2393
 7391SOL     OW33631   3.110   3.730   3.370 -0.2312 -0.0562  0.4714
 7391SOL    HW133632   3.090   3.822   3.387 -0.9674 -0.1522  0.1536
 7391SOL    HW233633   3.196   3.713   3.409  1.1029  1.1505 -1.9726
 7392SOL     OW33634   3.910   3.691  11.656 -0.0853  0.4113  0.2044
 7392SOL    HW133635   3.837   3.698  11.595  1.0902 -0.3809 -1.3046
 7392SOL    HW233636   3.872   3.622  11.710 -1.6080  1.1078  0.0107
 7393SOL     OW33637   0.621   4.085   2.724 -0.4314 -0.1728 -0.1401
 7393SOL    HW133638   0.686   4.134   2.673  0.3570 -2.7300 -1.6068
 7393SOL    HW233639   0.616   4.007   2.668  0.7420  0.7915 -1.5918
 7394SOL     OW33640   3.137   1.175  12.595  0.6923  0.0596 -0.3211
 7394SOL    HW133641   3.089   1.248  12.556 -0.9728  0.3297  2.2757
 7394SOL    HW233642   3.164   1.132  12.513  0.5704 -1.7814  0.5910
 7395SOL     OW33643   1.072   2.224   3.525  0.4315  0.0257 -0.1108
 7395SOL    HW133644   1.006   2.180   3.471  2.1933 -0.6821 -1.6681
 7395SOL    HW233645   1.109   2.151   3.575  0.7014 -0.1783 -0.6127
 7396SOL     OW33646   4.361   4.346  10.574  0.6500  0.1387  0.4042
 7396SOL    HW133647   4.421   4.421  10.567  0.7589 -0.1544 -1.9566
 7396SOL    HW233648   4.285   4.380  10.526  0.7154  0.9611  0.8806
 7397SOL     OW33649   0.339   3.052   4.733  0.7165 -0.1168  0.5815
 7397SOL    HW133650   0.292   3.068   4.652  0.7375  1.0280  0.7910
 7397SOL    HW233651   0.295   2.981   4.779  0.4408 -1.3033 -1.5658
 7398SOL     OW33652   3.203   3.199  17.536  0.7602 -0.0699 -0.8337
 7398SOL    HW133653   3.131   3.199  17.473 -1.2188 -0.4244  1.3769
 7398SOL    HW233654   3.145   3.196  17.613  0.7504  1.0611 -0.7996
 7399SOL     OW33655   4.434   3.259  16.706  0.3164 -0.7767 -0.5142
 7399SOL    HW133656   4.523   3.236  16.731 -0.1550 -1.7595  0.2553
 7399SOL    HW233657   4.435   3.232  16.614 -0.9211 -0.4277 -0.6361
 7400SOL     OW33658   3.134   2.526   5.868 -0.6345  0.0533  0.6163
 7400SOL    HW133659   3.138   2.582   5.790 -0.0063 -2.0882 -0.8654
 7400SOL    HW233660   3.075   2.455   5.844  0.1045 -0.7145  1.0600
 7401SOL     OW33661   1.103   3.220   2.855 -0.0860 -0.2447  0.0528
 7401SOL    HW133662   1.161   3.293   2.834 -1.9367  1.5275  1.1653
 7401SOL    HW233663   1.156   3.160   2.908 -2.4355 -0.8759  1.6923
 7402SOL     OW33664   3.024   1.719  15.134  0.2662  0.4886 -0.6486
 7402SOL    HW133665   3.076   1.641  15.113  0.4836  1.0933 -2.3864
 7402SOL    HW233666   2.965   1.701  15.207 -1.0222  2.3953 -1.2335
 7403SOL     OW33667   3.970   3.132   3.828 -0.1084  0.0575 -0.7141
 7403SOL    HW133668   3.961   3.179   3.745 -0.8527  2.5849  0.8056
 7403SOL    HW233669   4.058   3.096   3.818  0.1548  0.6787 -0.5998
 7404SOL     OW33670   2.240   1.928   3.238  0.0310  0.6614 -0.1928
 7404SOL    HW133671   2.190   1.851   3.267  0.6307  1.0181  1.7940
 7404SOL    HW233672   2.330   1.911   3.267  0.2725 -0.5789 -1.6065
 7405SOL     OW33673   0.298   1.741  10.710  0.1331  0.2415 -0.1712
 7405SOL    HW133674   0.278   1.665  10.765  0.3163 -0.7622 -1.4973
 7405SOL    HW233675   0.325   1.801  10.780 -1.1455  0.6211 -0.0020
 7406SOL     OW33676   1.560   3.065   1.418 -0.2279 -0.1099  0.5049
 7406SOL    HW133677   1.640   3.031   1.458 -0.0185  1.0000  1.0294
 7406SOL    HW233678   1.513   2.992   1.378  0.2770 -1.1437  1.7755
 7407SOL     OW33679   4.618   3.783  10.728 -0.0431 -0.7796 -0.2001
 7407SOL    HW133680   4.692   3.756  10.783  0.0009 -4.3751 -2.0301
 7407SOL    HW233681   4.658   3.839  10.661 -2.7480 -0.3371 -1.4349
 7408SOL     OW33682   2.783   3.909   4.247  0.8557 -0.1049 -0.4455
 7408SOL    HW133683   2.842   3.940   4.316  1.9497 -0.7363 -1.1043
 7408SOL    HW233684   2.843   3.863   4.188  1.1738 -2.2555  1.5466
 7409SOL     OW33685   4.486   0.965   3.684  0.1378  0.2939 -0.4959
 7409SOL    HW133686   4.485   0.932   3.774 -3.3386 -0.0578 -0.6811
 7409SOL    HW233687   4.443   1.050   3.690  1.1865  0.5263  3.5090
 7410SOL     OW33688   1.837   0.544   5.795 -0.5550 -0.6169 -0.1057
 7410SOL    HW133689   1.894   0.490   5.739 -0.8796 -1.5015  0.4123
 7410SOL    HW233690   1.749   0.542   5.756 -1.1623  0.0929  1.2473
 7411SOL     OW33691   3.192   1.829   4.776  0.5044 -0.2790  0.0449
 7411SOL    HW133692   3.263   1.868   4.726 -0.6211 -0.3844 -1.6228
 7411SOL    HW233693   3.245   1.760   4.816  0.4726  0.9428  2.2105
 7412SOL     OW33694   4.333   0.770   9.781 -0.0023 -0.2344  0.2622
 7412SOL    HW133695   4.365   0.688   9.820 -1.2202 -1.2480 -0.8603
 7412SOL    HW233696   4.366   0.834   9.844  0.9046  3.2014 -3.7523
 7413SOL     OW33697   3.670   4.051   2.326  0.3521 -0.0304 -0.0030
 7413SOL    HW133698   3.698   4.142   2.339 -1.7652  0.2539  2.7031
 7413SOL    HW233699   3.596   4.074   2.270 -0.2108 -1.4527  0.1664
 7414SOL     OW33700   3.499   4.210   6.555 -0.3148 -0.1234 -0.0499
 7414SOL    HW133701   3.518   4.208   6.648  0.5346 -1.1622 -0.2511
 7414SOL    HW233702   3.546   4.134   6.520 -3.9170 -1.6383 -1.6245
 7415SOL     OW33703   3.865   4.096   4.717 -0.0960 -0.4469 -0.3513
 7415SOL    HW133704   3.902   4.101   4.805 -1.3977 -0.6451  0.2205
 7415SOL    HW233705   3.786   4.144   4.743 -0.1647 -1.2817  1.0121
 7416SOL     OW33706   2.527   4.557   9.315  0.5314  0.0360  0.0002
 7416SOL    HW133707   2.457   4.591   9.260  1.3889 -0.1108 -1.1840
 7416SOL    HW233708   2.586   4.633   9.312 -1.3278  1.4898  0.3809
 7417SOL     OW33709   1.220   1.159  16.197  0.7399  0.1208 -0.3934
 7417SOL    HW133710   1.257   1.110  16.124 -0.4755  0.7356 -1.4323
 7417SOL    HW233711   1.158   1.090  16.221  2.9262 -1.5134  0.4622
 7418SOL     OW33712   1.976   2.350   6.416 -0.5787 -0.2423 -0.1620
 7418SOL    HW133713   2.009   2.309   6.496 -1.3133 -2.5640 -1.0596
 7418SOL    HW233714   1.957   2.437   6.451 -1.0358 -0.4207  0.0373
 7419SOL     OW33715   3.287   3.074   5.536 -1.0980  0.1317  0.3152
 7419SOL    HW133716   3.274   3.060   5.442 -1.5601  1.6415  0.1697
 7419SOL    HW233717   3.293   3.169   5.540 -3.0961  0.2602  0.3202
 7420SOL     OW33718   3.249   0.910   8.872  0.2413 -0.0030 -0.1134
 7420SOL    HW133719   3.206   0.953   8.798  2.9923 -0.0295 -1.7178
 7420SOL    HW233720   3.165   0.897   8.916 -0.3755 -0.9506 -1.5641
 7421SOL     OW33721   4.340   2.834   5.768 -0.1768 -0.1199  0.0224
 7421SOL    HW133722   4.271   2.791   5.819  0.3481  0.3330  1.1220
 7421SOL    HW233723   4.297   2.868   5.690 -0.3750  0.9269  0.5868
 7422SOL     OW33724   3.743   2.102   6.247 -0.2981 -0.0872 -1.0882
 7422SOL    HW133725   3.761   2.047   6.323  0.2140 -0.0433 -1.1803
 7422SOL    HW233726   3.828   2.144   6.235 -1.5322  2.6819 -0.1292
 7423SOL     OW33727   1.437   1.695   9.175  0.2573 -0.3243  0.0461
 7423SOL    HW133728   1.349   1.659   9.175  0.1769 -0.1176  2.7066
 7423SOL    HW233729   1.489   1.616   9.155 -0.3808 -0.3069 -1.7307
 7424SOL     OW33730   0.101   3.060   5.907 -0.4678 -0.0247 -0.3342
 7424SOL    HW133731   0.190   3.094   5.901 -0.1398 -1.0046 -1.0099
 7424SOL    HW233732   0.072   3.088   5.821 -0.0496  2.0876  0.2182
 7425SOL     OW33733   3.924   3.262   3.591 -0.7281 -0.3007  0.0532
 7425SOL    HW133734   3.899   3.353   3.606 -0.5156 -0.1880 -0.2732
 7425SOL    HW233735   3.974   3.248   3.510  0.7950  2.0237  0.5998
 7426SOL     OW33736   0.969   4.693   6.742  0.0820 -0.1149  0.2335
 7426SOL    HW133737   0.929   4.635   6.677 -0.4654 -1.4500  1.7725
 7426SOL    HW233738   0.999   0.041   6.686  1.3397 -2.0937 -1.6820
 7427SOL     OW33739   2.680   4.419   1.957  0.0344  0.0031  0.6568
 7427SOL    HW133740   2.769   4.415   1.924 -0.0092  0.7868  0.4319
 7427SOL    HW233741   2.638   4.472   1.889  0.5941  0.0205  0.3283
 7428SOL     OW33742   3.950   2.627   8.301  0.0489 -0.1935  0.5096
 7428SOL    HW133743   4.021   2.583   8.348  0.3364 -1.7067 -1.3234
 7428SOL    HW233744   3.991   2.662   8.222  1.0327 -1.9454  0.2283
 7429SOL     OW33745   3.150   3.416   5.454 -0.4694 -0.3840  0.1099
 7429SOL    HW133746   3.158   3.501   5.496 -0.1164 -0.7057  0.6866
 7429SOL    HW233747   3.187   3.361   5.522 -0.2216 -0.1084  0.1962
 7430SOL     OW33748   0.098   2.142  14.486 -0.4158  0.1306  0.3917
 7430SOL    HW133749   0.111   2.086  14.409  0.1835  1.2116 -0.2999
 7430SOL    HW233750   0.189   2.163  14.506 -0.6044  1.6083 -0.2620
 7431SOL     OW33751   4.129   4.242   2.340 -0.3221  0.1842 -0.0401
 7431SOL    HW133752   4.131   4.312   2.405  0.0124  0.7129 -0.6195
 7431SOL    HW233753   4.046   4.253   2.294  0.3319  2.7807 -0.6229
 7432SOL     OW33754   2.533   0.993  11.652  0.3706 -0.6858  0.0738
 7432SOL    HW133755   2.526   0.913  11.600 -1.8933 -0.5386  0.1356
 7432SOL    HW233756   2.512   1.055  11.582 -2.1523 -0.6518  0.8731
 7433SOL     OW33757   0.599   4.706   2.048 -0.0566 -0.5855 -0.2917
 7433SOL    HW133758   0.546   0.020   1.978 -1.4176  0.0193  1.0807
 7433SOL    HW233759   0.550   4.624   2.052 -1.9234  0.4866 -1.1828
 7434SOL     OW33760   3.895   0.635  11.512  0.1267  0.1152  0.1621
 7434SOL    HW133761   3.961   0.569  11.495  2.3702  2.0892  1.1936
 7434SOL    HW233762   3.840   0.623  11.435  2.1315 -1.4370 -1.0065
 7435SOL     OW33763   1.501   1.514  16.146  0.4442 -0.6299  0.5297
 7435SOL    HW133764   1.441   1.462  16.200 -0.7705 -1.3691 -1.5434
 7435SOL    HW233765   1.512   1.589  16.205 -0.3497 -0.2590  0.1996
 7436SOL     OW33766   4.567   2.753   2.084 -0.1499 -0.2691 -0.3525
 7436SOL    HW133767   4.475   2.738   2.109 -0.2088  0.3800 -0.1635
 7436SOL    HW233768   4.557   2.816   2.013  1.6222 -0.8284 -1.0859
 7437SOL     OW33769   1.045   1.585   5.205  0.0829  0.2561 -0.2922
 7437SOL    HW133770   0.980   1.587   5.135 -0.3457 -2.6738  0.0390
 7437SOL    HW233771   1.112   1.638   5.162  0.3625  1.4536  1.5982
 7438SOL     OW33772   1.865   2.241  11.666  0.7979 -0.2960  0.4303
 7438SOL    HW133773   1.925   2.174  11.699  0.7972 -0.0065  1.0210
 7438SOL    HW233774   1.915   2.284  11.597 -2.1323  0.1644 -1.3894
 7439SOL     OW33775   1.310   2.314   9.258  0.0964 -0.0593 -0.2624
 7439SOL    HW133776   1.321   2.318   9.353  0.4175 -0.5995 -0.2753
 7439SOL    HW233777   1.341   2.225   9.245  2.0916  0.6633 -0.5136
 7440SOL     OW33778   4.255   0.747   6.331 -0.3531  0.4641 -0.1154
 7440SOL    HW133779   4.295   0.711   6.410  0.7376 -1.0988 -1.3903
 7440SOL    HW233780   4.166   0.773   6.354 -0.4137  0.9847 -0.9375
 7441SOL     OW33781   0.194   0.925   7.215 -0.4043 -0.6191  0.6861
 7441SOL    HW133782   0.281   0.911   7.178  0.5725 -0.3880  2.8864
 7441SOL    HW233783   0.174   1.013   7.183  0.0125 -0.5685  0.5762
 7442SOL     OW33784   1.096   2.035   9.365  0.4892 -0.5578 -0.2212
 7442SOL    HW133785   1.037   1.960   9.364  0.9667 -0.9484  2.7286
 7442SOL    HW233786   1.174   1.985   9.389 -0.3976 -1.8897 -0.1375
 7443SOL     OW33787   2.444   3.433   8.465 -0.1296 -0.2459 -0.1279
 7443SOL    HW133788   2.359   3.435   8.508 -0.5529 -0.7476 -0.9408
 7443SOL    HW233789   2.436   3.354   8.411  1.0617 -1.7048  1.8069
 7444SOL     OW33790   4.192   0.504   0.336  0.5332  0.3107 -0.4073
 7444SOL    HW133791   4.214   0.596   0.350  1.4953  0.1091 -0.6197
 7444SOL    HW233792   4.173   0.503   0.242 -2.4516  1.4889  0.1575
 7445SOL     OW33793   4.215   1.569  13.509  0.0924 -0.5972  0.7464
 7445SOL    HW133794   4.178   1.641  13.457  3.1157  0.9851  0.7540
 7445SOL    HW233795   4.298   1.608  13.536  0.3212  0.8650 -2.0447
 7446SOL     OW33796   0.185   1.677  17.225 -0.4665 -0.0680  0.4777
 7446SOL    HW133797   0.231   1.627  17.156 -1.0908 -0.6531  0.4819
 7446SOL    HW233798   0.249   1.737  17.263 -0.8618  0.9726 -0.5250
 7447SOL     OW33799   4.182   0.787   6.061 -0.2828 -0.4596  0.5056
 7447SOL    HW133800   4.215   0.763   6.147 -0.6899 -1.5075  0.3702
 7447SOL    HW233801   4.261   0.758   6.016  0.3196 -0.3716  1.5075
 7448SOL     OW33802   3.830   4.045   6.212 -0.3570 -0.2590 -0.1217
 7448SOL    HW133803   3.780   4.068   6.290 -0.6104  2.0740 -0.9609
 7448SOL    HW233804   3.922   4.059   6.234 -0.2142 -1.8497  0.2356
 7449SOL     OW33805   1.967   0.276   8.079  0.4663  0.1259 -0.3739
 7449SOL    HW133806   1.975   0.202   8.018  4.3003  0.1089  0.1718
 7449SOL    HW233807   2.011   0.240   8.155 -0.7478  0.8993  0.7030
 7450SOL     OW33808   3.631   3.992   6.405  0.0896  0.2155 -0.0712
 7450SOL    HW133809   3.621   3.943   6.486 -0.8690 -1.4589 -1.2059
 7450SOL    HW233810   3.586   3.931   6.347 -1.0330  0.5496  0.4391
 7451SOL     OW33811   2.303   2.971  14.369  0.6627 -0.3227  0.7786
 7451SOL    HW133812   2.294   2.921  14.450 -0.2750 -2.3551 -0.6056
 7451SOL    HW233813   2.246   2.924  14.309 -3.2110  3.8029  1.1952
 7452SOL     OW33814   4.618   2.521   3.005 -0.1626 -0.2939  0.0529
 7452SOL    HW133815   4.619   2.607   3.046  1.3732  0.2167 -1.0907
 7452SOL    HW233816   4.695   2.521   2.948 -0.3129 -0.8452 -0.1579
 7453SOL     OW33817   4.185   3.334   5.964 -0.1372  0.2683 -0.2447
 7453SOL    HW133818   4.091   3.332   5.982  0.0584  0.1807  0.7706
 7453SOL    HW233819   4.204   3.241   5.962 -0.2926  0.2630 -2.3926
 7454SOL     OW33820   0.032   0.490   3.229  0.1555  0.1981  0.0263
 7454SOL    HW133821   4.709   0.454   3.154  0.4190 -0.9756  0.4293
 7454SOL    HW233822   4.691   0.555   3.258 -0.9945 -1.1557  0.5204
 7455SOL     OW33823   2.081   3.462  11.444 -0.4792  0.8044  0.2778
 7455SOL    HW133824   2.026   3.520  11.496 -1.1802  2.1179 -1.9533
 7455SOL    HW233825   2.041   3.375  11.437 -1.3779  1.0854  2.0390
 7456SOL     OW33826   0.642   2.469  15.751 -0.3368  0.7347  0.4450
 7456SOL    HW133827   0.661   2.526  15.677 -0.5741 -1.1074 -1.0361
 7456SOL    HW233828   0.691   2.389  15.730  0.1534  0.9267  0.8509
 7457SOL     OW33829   3.454   0.149   8.153  0.4381  0.3275 -0.0234
 7457SOL    HW133830   3.507   0.203   8.212  1.0598  1.6077 -1.7882
 7457SOL    HW233831   3.528   0.108   8.107 -0.8098  0.1625 -1.8456
 7458SOL     OW33832   2.981   2.066   3.171 -0.2691 -0.6318 -0.2968
 7458SOL    HW133833   3.008   2.023   3.252  1.8650 -0.6121 -0.9895
 7458SOL    HW233834   3.003   2.157   3.191  0.3446 -0.9565  0.5040
 7459SOL     OW33835   2.597   3.927   0.494 -0.2744 -0.7120 -0.3917
 7459SOL    HW133836   2.581   3.841   0.456 -0.9735 -0.5463 -0.4633
 7459SOL    HW233837   2.614   3.899   0.584 -2.5519  1.5706  0.7742
 7460SOL     OW33838   1.973   4.428   1.789 -0.5688 -0.1134 -0.1407
 7460SOL    HW133839   1.964   4.484   1.712  1.3661 -2.5329 -2.1447
 7460SOL    HW233840   1.993   4.486   1.862  2.5609 -1.5347  0.1696
 7461SOL     OW33841   0.879   3.409  13.916 -0.2531 -0.6549 -0.2851
 7461SOL    HW133842   0.917   3.411  14.004 -0.3574 -2.5814 -0.1954
 7461SOL    HW233843   0.921   3.485  13.876  0.1873 -1.6722 -1.7731
 7462SOL     OW33844   0.121   2.734   1.046 -0.0747  0.4737 -0.6142
 7462SOL    HW133845   0.183   2.665   1.022 -0.6083  0.2787 -1.4451
 7462SOL    HW233846   0.150   2.751   1.136  0.3851  0.1095 -0.6960
 7463SOL     OW33847   1.887   1.282   9.359 -0.4386  0.1515  0.8197
 7463SOL    HW133848   1.850   1.306   9.274  0.7660  0.9496  0.5151
 7463SOL    HW233849   1.974   1.319   9.374 -0.8582  0.9648  1.2499
 7464SOL     OW33850   4.447   1.482  10.110 -0.3025 -0.4983  0.0437
 7464SOL    HW133851   4.490   1.537  10.176  0.0988 -2.9413  1.8424
 7464SOL    HW233852   4.442   1.402  10.163  2.1004 -1.9076 -1.8307
 7465SOL     OW33853   4.339   0.240   2.734  0.1135  0.2983 -1.1067
 7465SOL    HW133854   4.255   0.211   2.698 -1.2602  2.2072  0.4943
 7465SOL    HW233855   4.349   0.334   2.715 -1.0520  0.7599  0.5725
 7466SOL     OW33856   4.198   2.720  15.188 -0.3880  0.2318 -0.5732
 7466SOL    HW133857   4.103   2.724  15.189 -0.4177 -0.7461  0.4835
 7466SOL    HW233858   4.219   2.770  15.109 -1.8935  1.4061 -0.2321
 7467SOL     OW33859   2.227   0.881   8.647 -0.3605  0.4730 -0.2084
 7467SOL    HW133860   2.272   0.843   8.722  0.0295  0.9941 -0.1765
 7467SOL    HW233861   2.150   0.917   8.690  1.3813  2.7675  0.9731
 7468SOL     OW33862   4.543   3.738   8.015 -0.0488  0.0114  0.3982
 7468SOL    HW133863   4.484   3.806   7.982 -0.2988  0.2178  1.2743
 7468SOL    HW233864   4.587   3.783   8.086 -2.3892 -0.8568  2.3863
 7469SOL     OW33865   1.835   3.091   4.514 -0.4653 -0.0992 -0.5686
 7469SOL    HW133866   1.801   3.038   4.442 -0.1694 -0.2998 -0.5624
 7469SOL    HW233867   1.759   3.136   4.551 -0.7282 -0.5035 -0.6123
 7470SOL     OW33868   3.793   2.105  15.982 -0.0257  0.3913 -0.1636
 7470SOL    HW133869   3.767   2.118  16.074  0.4818  2.2100 -0.2808
 7470SOL    HW233870   3.771   2.187  15.937  1.1311  0.0167 -1.4143
 7471SOL     OW33871   1.979   0.845   1.126 -0.1159  0.5786  0.1484
 7471SOL    HW133872   1.940   0.759   1.140  0.8889  0.1526  0.2656
 7471SOL    HW233873   2.010   0.836   1.036  1.1213 -0.2126  0.6517
 7472SOL     OW33874   3.681   0.092   3.672 -0.8856  0.0546  0.3035
 7472SOL    HW133875   3.662   0.147   3.596  1.1273  1.7648  1.0135
 7472SOL    HW233876   3.590   0.084   3.699 -0.8372 -0.4430  0.3105
 7473SOL     OW33877   3.516   3.807   6.242  0.3887  0.1836 -0.4032
 7473SOL    HW133878   3.475   3.721   6.229  0.5646 -0.1909  1.5206
 7473SOL    HW233879   3.509   3.850   6.157  0.6012  1.1756  0.0850
 7474SOL     OW33880   2.345   2.157   3.823 -0.0367 -0.5298  0.0274
 7474SOL    HW133881   2.404   2.093   3.782 -0.9578 -1.7026  0.5138
 7474SOL    HW233882   2.344   2.234   3.766 -2.2113  1.3544  2.6508
 7475SOL     OW33883   0.696   2.882  10.944 -0.0823  0.0077  0.0333
 7475SOL    HW133884   0.724   2.800  10.904 -0.2667  0.1814 -0.4527
 7475SOL    HW233885   0.602   2.872  10.958 -0.4168 -0.3676 -2.4263
 7476SOL     OW33886   3.845   3.634   3.303  0.0372 -0.2454  0.0367
 7476SOL    HW133887   3.772   3.679   3.346 -1.0096  0.2626 -2.2635
 7476SOL    HW233888   3.804   3.624   3.217  0.7516  0.1881 -0.3602
 7477SOL     OW33889   3.299   1.927   7.348  0.3191 -0.2081  0.2074
 7477SOL    HW133890   3.228   1.869   7.377  0.3650  0.6076  1.9286
 7477SOL    HW233891   3.276   1.955   7.260 -3.4871  0.9275  1.5657
 7478SOL     OW33892   4.415   2.682   4.756 -0.7987 -0.0007  0.3691
 7478SOL    HW133893   4.330   2.638   4.759 -0.8229  0.0034 -0.4308
 7478SOL    HW233894   4.482   2.617   4.735  1.0185  1.4907  1.5993
 7479SOL     OW33895   1.759   4.177   8.438  0.0015 -0.0664  0.1944
 7479SOL    HW133896   1.717   4.128   8.509 -0.5233 -1.1913 -0.8950
 7479SOL    HW233897   1.852   4.165   8.451 -0.1439 -0.0850  1.2356
 7480SOL     OW33898   2.413   0.488   4.876  0.3707  0.2502  0.0330
 7480SOL    HW133899   2.380   0.574   4.849 -2.9597  0.0189  3.4025
 7480SOL    HW233900   2.353   0.426   4.833  2.1173 -0.1385 -1.8673
 7481SOL     OW33901   0.688   4.031   5.828 -0.3699 -0.1302  0.7702
 7481SOL    HW133902   0.769   3.980   5.827  0.6816  1.5974 -1.4253
 7481SOL    HW233903   0.701   4.116   5.870  2.9527 -0.6849  0.8308
 7482SOL     OW33904   2.869   4.073   7.806  0.2551  0.0184 -0.5719
 7482SOL    HW133905   2.953   4.119   7.815  0.4773 -0.5147 -0.0050
 7482SOL    HW233906   2.867   4.017   7.883 -1.7307 -1.3368 -1.6043
 7483SOL     OW33907   1.933   0.091   2.303 -0.5080 -0.1341 -0.1258
 7483SOL    HW133908   1.868   0.139   2.251 -2.2429 -3.9403 -1.3981
 7483SOL    HW233909   1.906   0.003   2.280 -1.7834 -0.3048  2.0308
 7484SOL     OW33910   2.315   3.866   7.672 -0.2694 -0.1424 -0.0243
 7484SOL    HW133911   2.397   3.872   7.721  0.5413  2.1623 -1.6468
 7484SOL    HW233912   2.253   3.811   7.720  0.6337 -1.4304 -0.3488
 7485SOL     OW33913   2.633   2.819   3.516  0.1408 -0.5688 -0.3893
 7485SOL    HW133914   2.612   2.727   3.530 -0.3941 -0.4564 -0.4332
 7485SOL    HW233915   2.604   2.814   3.424 -2.5801  0.3863  0.4132
 7486SOL     OW33916   2.861   2.921   9.299 -0.1116  0.3174  0.7245
 7486SOL    HW133917   2.776   2.954   9.329  0.0350  2.0207 -0.7652
 7486SOL    HW233918   2.896   3.006   9.273  2.6053 -0.3709  2.1774
 7487SOL     OW33919   1.739   3.957   8.870 -0.0427  0.5084  0.5922
 7487SOL    HW133920   1.831   3.941   8.890 -0.3542 -0.0845  1.5486
 7487SOL    HW233921   1.693   3.922   8.947 -0.8885  0.2348 -0.0370
 7488SOL     OW33922   3.032   4.119   8.490  0.4994 -0.9042  0.1587
 7488SOL    HW133923   3.005   4.182   8.557 -1.2835 -3.5211  1.8960
 7488SOL    HW233924   3.115   4.081   8.519  0.9525 -0.3623 -0.4282
 7489SOL     OW33925   4.696   1.705  16.273  0.0550  0.5856 -0.0241
 7489SOL    HW133926   0.063   1.684  16.295 -1.2954 -2.3414  2.6917
 7489SOL    HW233927   4.671   1.765  16.343 -0.9317 -0.7425  0.7597
 7490SOL     OW33928   3.333   2.257   6.930  0.1566 -0.1922  0.0875
 7490SOL    HW133929   3.242   2.246   6.902 -0.5616  0.9276  1.9835
 7490SOL    HW233930   3.368   2.176   6.892  0.2103 -0.1038 -0.0492
 7491SOL     OW33931   3.628   0.739  14.169 -0.0527 -0.2721 -0.3846
 7491SOL    HW133932   3.584   0.783  14.097  0.7517 -1.6083 -1.6923
 7491SOL    HW233933   3.704   0.797  14.168  1.7447 -2.6015  1.1722
 7492SOL     OW33934   2.330   4.261  13.446 -0.2091  0.9695 -1.0454
 7492SOL    HW133935   2.365   4.346  13.418  1.4776  0.3863 -0.7005
 7492SOL    HW233936   2.409   4.208  13.449 -0.6285  0.2524 -2.8415
 7493SOL     OW33937   0.403   3.309  12.857 -0.0606 -0.0631  0.0988
 7493SOL    HW133938   0.319   3.263  12.850  0.1891 -0.6508  0.8989
 7493SOL    HW233939   0.380   3.354  12.938 -1.3610 -0.7382  0.1121
 7494SOL     OW33940   4.205   0.660  17.326 -0.3232 -0.2234 -0.1001
 7494SOL    HW133941   4.204   0.745  17.282 -1.1919  0.0143  0.3723
 7494SOL    HW233942   4.156   0.607  17.263 -0.6343  2.0388 -1.7552
 7495SOL     OW33943   2.736   4.358   2.913  0.4114 -0.4298  0.1119
 7495SOL    HW133944   2.641   4.360   2.903  0.3179 -2.4113  0.6482
 7495SOL    HW233945   2.747   4.441   2.960 -1.3694 -0.7402  1.0854
 7496SOL     OW33946   3.523   1.177   7.973  0.1804  0.0682  0.3706
 7496SOL    HW133947   3.469   1.123   7.915  1.6852 -2.1375  0.9987
 7496SOL    HW233948   3.532   1.257   7.921 -0.2102 -0.0158  0.1810
 7497SOL     OW33949   2.330   0.097   4.480  0.4678  0.3203  0.2924
 7497SOL    HW133950   2.368   0.181   4.506 -0.5503  1.3883 -1.6681
 7497SOL    HW233951   2.246   0.131   4.449  0.2849  0.6364  1.1468
 7498SOL     OW33952   1.355   4.495   0.452  0.1982  0.9043 -0.3393
 7498SOL    HW133953   1.370   4.455   0.538  1.1966  2.1256  0.0563
 7498SOL    HW233954   1.332   4.581   0.486 -0.6867  1.4643 -2.4176
 7499SOL     OW33955   3.843   2.805  16.039  0.2686 -0.7470  0.2918
 7499SOL    HW133956   3.850   2.755  16.121 -0.8631 -2.4294 -0.6387
 7499SOL    HW233957   3.931   2.840  16.026  0.1396 -0.5164  0.0560
 7500SOL     OW33958   2.785   0.496   1.317  1.0482  0.1973 -0.3658
 7500SOL    HW133959   2.771   0.525   1.408  0.4060 -0.5453 -0.2275
 7500SOL    HW233960   2.702   0.448   1.311  1.7356 -0.8061 -1.6519
 7501SOL     OW33961   3.943   4.255   0.667 -0.1976  0.0095 -0.1842
 7501SOL    HW133962   3.921   4.216   0.583  1.5631 -1.5068  0.0793
 7501SOL    HW233963   3.861   4.223   0.706  0.3319 -0.7590  0.2896
 7502SOL     OW33964   4.712   3.455   5.658  0.1520  0.4303 -0.1688
 7502SOL    HW133965   4.623   3.492   5.652 -0.3056 -0.9498 -2.0738
 7502SOL    HW233966   4.694   3.364   5.682  0.3918  0.7434  1.1647
 7503SOL     OW33967   3.008   4.174  17.556 -0.0368  0.2324 -0.2868
 7503SOL    HW133968   2.974   4.247  17.504  0.8097  0.2235 -0.8602
 7503SOL    HW233969   2.981   4.198  17.644 -1.1139  0.2429 -0.6281
 7504SOL     OW33970   1.586   3.692   7.881 -0.3222 -0.7697 -0.0963
 7504SOL    HW133971   1.593   3.619   7.942  0.8293 -0.8951 -0.3867
 7504SOL    HW233972   1.530   3.659   7.811 -0.9393 -1.7252  0.8551
 7505SOL     OW33973   3.169   4.351   7.350 -0.0368  0.0903 -0.2513
 7505SOL    HW133974   3.155   4.434   7.304  2.2391 -1.7644 -4.2842
 7505SOL    HW233975   3.207   4.389   7.429  1.4083 -2.8320  0.4615
 7506SOL     OW33976   2.676   3.125  10.114 -0.1086  0.3648  0.7343
 7506SOL    HW133977   2.672   3.201  10.172 -0.0040  0.4572  0.6199
 7506SOL    HW233978   2.748   3.155  10.059 -1.1356 -2.8589 -2.3985
 7507SOL     OW33979   0.456   1.067   5.725 -0.3001  0.2651 -0.0872
 7507SOL    HW133980   0.526   1.045   5.663 -0.3369 -0.4931  0.1483
 7507SOL    HW233981   0.507   1.072   5.806  0.4741 -2.9403 -0.3945
 7508SOL     OW33982   2.777   4.627   8.412 -0.0402 -0.6231  0.1432
 7508SOL    HW133983   2.817   4.597   8.331 -0.5460 -1.8976  0.3601
 7508SOL    HW233984   2.854   4.644   8.467 -0.7052  1.1339  0.5240
 7509SOL     OW33985   3.024   1.116   5.135  0.2581 -0.2976 -0.5272
 7509SOL    HW133986   2.960   1.049   5.160  0.6475  0.1080  1.5615
 7509SOL    HW233987   3.010   1.187   5.198  2.5578  0.3419 -0.7575
 7510SOL     OW33988   3.587   1.189   3.751  0.1209 -0.2373  0.1932
 7510SOL    HW133989   3.560   1.269   3.796  1.9927 -0.2998  1.4588
 7510SOL    HW233990   3.579   1.116   3.813  2.2492 -0.4596  0.2174
 7511SOL     OW33991   4.466   4.133  16.104  0.5767 -0.0076  0.2737
 7511SOL    HW133992   4.537   4.071  16.088 -0.8164 -1.1070 -1.5737
 7511SOL    HW233993   4.409   4.121  16.028  0.6050 -0.0513  0.2596
 7512SOL     OW33994   0.385   4.394   4.243 -0.2566 -0.5790  0.4567
 7512SOL    HW133995   0.480   4.404   4.238 -0.4889  1.2837 -0.1510
 7512SOL    HW233996   0.351   4.482   4.260 -0.4395 -0.7047  0.7465
 7513SOL     OW33997   1.404   2.811  14.069 -0.2726 -0.3726  0.4655
 7513SOL    HW133998   1.309   2.803  14.062 -0.2677 -0.6756  0.7857
 7513SOL    HW233999   1.422   2.731  14.118  0.9108  0.8932  2.0972
 7514SOL     OW34000   2.155   3.105   3.704  0.2261 -0.5699  0.3026
 7514SOL    HW134001   2.069   3.147   3.704  0.2182 -0.5863  0.6165
 7514SOL    HW234002   2.186   3.129   3.791  2.5913  1.6981 -1.1645
 7515SOL     OW34003   2.559   1.182   3.992 -0.1793  0.1395  0.2053
 7515SOL    HW134004   2.487   1.238   3.965  2.4498  2.2900 -2.4385
 7515SOL    HW234005   2.547   1.168   4.086 -1.2746  1.5479  0.2668
 7516SOL     OW34006   0.149   2.734   4.023 -0.0686  0.3587  0.7232
 7516SOL    HW134007   0.065   2.780   4.025  0.5267  1.4188  1.0172
 7516SOL    HW234008   0.145   2.699   4.112  2.5852 -1.0019  0.3322
 7517SOL     OW34009   4.223   4.151   7.785  0.4039  0.5902  0.0046
 7517SOL    HW134010   4.245   4.241   7.762 -1.9454 -0.0579 -4.9016
 7517SOL    HW234011   4.130   4.136   7.766  1.6571 -1.4934 -4.4157
 7518SOL     OW34012   4.641   1.682  15.334  0.2041  0.5070 -0.4910
 7518SOL    HW134013   4.617   1.627  15.259 -0.3848  1.9111 -1.3384
 7518SOL    HW234014   4.682   1.757  15.291  1.4064 -0.2108 -0.6106
 7519SOL     OW34015   3.028   3.630  17.399  0.2145  0.5149  0.3455
 7519SOL    HW134016   3.002   3.709  17.352  1.1993  1.0743  0.7515
 7519SOL    HW234017   2.981   3.564  17.348  1.9958 -0.8797  0.4998
 7520SOL     OW34018   1.171   3.891   8.512  0.1077 -0.2662  0.1247
 7520SOL    HW134019   1.258   3.857   8.493  0.1094 -0.3976  0.3688
 7520SOL    HW234020   1.116   3.812   8.508 -0.2233  0.0210 -1.0268
 7521SOL     OW34021   3.604   0.511   2.770  0.2288  0.2795 -0.0641
 7521SOL    HW134022   3.644   0.511   2.857 -0.6115  0.9596  0.3121
 7521SOL    HW234023   3.631   0.595   2.732 -0.7180 -0.5603 -2.6342
 7522SOL     OW34024   1.227   1.126  16.837  0.6985 -0.0748  0.4106
 7522SOL    HW134025   1.262   1.053  16.887  1.5970  0.5910  0.7560
 7522SOL    HW234026   1.184   1.083  16.763 -0.4689  1.2136  0.3373
 7523SOL     OW34027   3.312   3.916   5.073  0.2109  0.1125  0.6022
 7523SOL    HW134028   3.341   3.827   5.091 -1.1825 -0.4095  0.2082
 7523SOL    HW234029   3.227   3.908   5.031 -0.4310 -0.8817  2.1028
 7524SOL     OW34030   1.666   4.188   5.052 -0.1339 -0.2935  0.7348
 7524SOL    HW134031   1.638   4.274   5.020 -0.4701 -0.3956  0.7589
 7524SOL    HW234032   1.607   4.125   5.012  1.0423 -0.5973 -0.5438
 7525SOL     OW34033   2.801   2.934  13.101  0.2523  0.1683  0.1010
 7525SOL    HW134034   2.742   2.875  13.054 -1.1366  0.1813  1.7989
 7525SOL    HW234035   2.836   2.994  13.035 -0.5572  1.3702  0.7445
 7526SOL     OW34036   3.278   4.379   1.614  0.0842 -0.3484 -0.2792
 7526SOL    HW134037   3.371   4.389   1.630 -0.6178  1.7983  2.5073
 7526SOL    HW234038   3.260   4.438   1.540 -2.4650 -0.8684 -0.1025
 7527SOL     OW34039   3.121   4.198   5.276 -0.4842 -0.1551 -0.5392
 7527SOL    HW134040   3.119   4.209   5.181 -0.3842  0.3339 -0.4806
 7527SOL    HW234041   3.198   4.143   5.290  0.3885  1.4290  0.7662
 7528SOL     OW34042   4.056   0.879   9.121 -0.1699 -0.6281  0.3093
 7528SOL    HW134043   3.966   0.876   9.155 -0.7210  1.7255 -0.9535
 7528SOL    HW234044   4.112   0.881   9.199 -0.4790  1.1714  0.4860
 7529SOL     OW34045   0.317   1.712   4.587  0.1341 -0.2187 -0.0457
 7529SOL    HW134046   0.314   1.627   4.542 -1.1812 -0.3697  0.3523
 7529SOL    HW234047   0.402   1.749   4.563 -0.1213  1.3320  1.4258
 7530SOL     OW34048   1.359   2.428   0.355 -0.3672  0.1626 -0.0618
 7530SOL    HW134049   1.446   2.429   0.394 -0.5764  0.0022  0.4121
 7530SOL    HW234050   1.381   2.498   0.294  0.5449  0.0767  0.1674
 7531SOL     OW34051   4.592   2.331  11.398  0.2667  0.3559  0.0435
 7531SOL    HW134052   4.648   2.264  11.360 -0.7303 -0.1675 -0.4914
 7531SOL    HW234053   4.646   2.410  11.397  0.8419 -0.0522 -0.3103
 7532SOL     OW34054   3.075   3.283   5.230  0.8826  0.3202 -0.4148
 7532SOL    HW134055   3.086   3.212   5.294  3.7158  0.8312 -0.3475
 7532SOL    HW234056   3.110   3.352   5.287  1.4338  0.6561 -1.1686
 7533SOL     OW34057   1.861   4.610   0.252 -0.3288  0.6197  0.0509
 7533SOL    HW134058   1.786   4.654   0.213 -0.5416  0.3424  0.1473
 7533SOL    HW234059   1.931   4.671   0.231 -0.5530  0.9332  0.2065
 7534SOL     OW34060   2.568   3.694   1.172 -0.1830  0.1373  0.0561
 7534SOL    HW134061   2.550   3.660   1.084  0.7621  3.0268 -1.2738
 7534SOL    HW234062   2.481   3.680   1.211  0.2192 -0.9821  0.5318
 7535SOL     OW34063   3.543   0.910  16.503  0.4689 -0.2556  0.0179
 7535SOL    HW134064   3.571   0.819  16.496  2.5544  0.4032 -0.2299
 7535SOL    HW234065   3.629   0.953  16.512  0.5750 -0.5409  0.3682
 7536SOL     OW34066   0.818   3.566   5.991  0.2440 -0.0235  0.1070
 7536SOL    HW134067   0.745   3.625   5.977 -2.2262 -3.3643 -1.1516
 7536SOL    HW234068   0.893   3.611   5.951 -0.3928 -0.5254 -1.6383
 7537SOL     OW34069   1.704   0.207  10.287 -0.1012 -0.0635 -0.3359
 7537SOL    HW134070   1.761   0.142  10.328 -0.8878  0.5910  1.7988
 7537SOL    HW234071   1.638   0.219  10.356 -0.4719 -3.4691 -0.0707
 7538SOL     OW34072   2.397   0.909   9.820  0.9757 -0.5927 -0.2799
 7538SOL    HW134073   2.403   0.868   9.734  2.6894 -0.4174 -0.2379
 7538SOL    HW234074   2.490   0.925   9.836 -0.4746  4.4387  3.1886
 7539SOL     OW34075   1.328   0.327  11.840  0.1724 -0.0555 -0.1896
 7539SOL    HW134076   1.385   0.404  11.839 -0.4608  0.3979 -2.0709
 7539SOL    HW234077   1.284   0.347  11.757 -0.0452 -0.6424 -0.2157
 7540SOL     OW34078   0.867   4.442   0.013  0.9429  0.2230 -0.0852
 7540SOL    HW134079   0.957   4.472   0.024  1.1311 -0.7589  0.9731
 7540SOL    HW234080   0.868   4.369  17.649  2.0271 -1.2071  1.6429
 7541SOL     OW34081   0.709   1.611   4.029 -0.0595 -0.4949  0.4757
 7541SOL    HW134082   0.691   1.702   4.006 -1.2463 -0.6225  0.9106
 7541SOL    HW234083   0.717   1.579   3.939 -0.8589 -1.2410  0.6682
 7542SOL     OW34084   1.076   2.717   6.651  0.0183 -0.0557  0.0360
 7542SOL    HW134085   1.122   2.646   6.605  0.0050  0.6999 -1.1574
 7542SOL    HW234086   1.014   2.665   6.702 -0.1535  0.6576  0.5419
 7543SOL     OW34087   1.296   1.697  10.004 -0.0476 -0.3501  0.2793
 7543SOL    HW134088   1.321   1.606   9.990 -0.0525 -0.4224  0.7462
 7543SOL    HW234089   1.362   1.723   9.939  1.3187 -2.6975  0.7132
 7544SOL     OW34090   1.414   0.994   1.933 -0.3865  0.6859 -0.2392
 7544SOL    HW134091   1.500   1.008   1.971 -0.8746  0.8253  0.8171
 7544SOL    HW234092   1.385   0.915   1.979 -1.1067  1.6040  0.8664
 7545SOL     OW34093   3.227   0.696  12.583 -0.3270  0.2413  0.2927
 7545SOL    HW134094   3.244   0.640  12.659  1.0717  0.7608  0.3567
 7545SOL    HW234095   3.196   0.629  12.521  0.5745 -0.0193  0.1226
 7546SOL     OW34096   0.923   0.269   1.503 -0.1891 -0.2185  0.1098
 7546SOL    HW134097   0.964   0.271   1.590 -2.4819 -1.7387  1.2149
 7546SOL    HW234098   0.931   0.364   1.489 -1.0961 -0.3085 -1.0220
 7547SOL     OW34099   0.873   4.481   9.055  0.0387 -0.4478 -0.5013
 7547SOL    HW134100   0.853   4.466   8.963  2.2134  0.3133 -1.0835
 7547SOL    HW234101   0.820   4.409   9.089  0.4629 -0.9513 -0.9023
 7548SOL     OW34102   1.945   1.561  15.857  0.2780  0.0312 -0.0712
 7548SOL    HW134103   1.930   1.502  15.783 -2.2756  0.3083  0.2474
 7548SOL    HW234104   1.860   1.556  15.899 -0.0440 -0.8967 -0.8348
 7549SOL     OW34105   3.799   3.050   7.837  0.1139  0.5447  0.5402
 7549SOL    HW134106   3.841   3.039   7.922  0.3186 -0.1254  0.3484
 7549SOL    HW234107   3.864   3.020   7.775  0.0303  1.3688  0.0535
 7550SOL     OW34108   1.506   3.957   6.783 -0.1800 -0.2760 -0.4993
 7550SOL    HW134109   1.427   3.989   6.740 -0.4724 -1.6617 -0.9900
 7550SOL    HW234110   1.501   3.862   6.775 -2.7444 -0.0609 -1.2919
 7551SOL     OW34111   3.567   1.772   4.872 -0.0745 -0.1494 -0.2835
 7551SOL    HW134112   3.484   1.723   4.870 -0.0023 -0.3049  0.5107
 7551SOL    HW234113   3.542   1.864   4.873  0.0731 -0.1053 -0.8100
 7552SOL     OW34114   4.160   1.546   4.735  0.3424  0.5155 -0.2202
 7552SOL    HW134115   4.157   1.639   4.757 -1.9171  0.2725  0.4430
 7552SOL    HW234116   4.239   1.532   4.682  1.0667 -1.7175  1.4305
 7553SOL     OW34117   0.629   4.478   7.415 -0.5111 -0.2601  0.0840
 7553SOL    HW134118   0.716   4.497   7.378 -0.6222 -0.3038 -0.2002
 7553SOL    HW234119   0.609   4.562   7.456  1.2115  0.9630 -1.5762
 7554SOL     OW34120   1.500   0.997   5.602  0.3385  0.4167  0.1450
 7554SOL    HW134121   1.437   0.930   5.630  1.1518 -0.1889  0.5464
 7554SOL    HW234122   1.587   0.971   5.632  0.7127 -0.0623 -1.3609
 7555SOL     OW34123   2.446   3.980   6.111 -0.2997 -0.0775 -0.1057
 7555SOL    HW134124   2.533   4.021   6.109 -0.6151  0.6451  0.9560
 7555SOL    HW234125   2.406   4.017   6.032 -0.1540 -0.3327 -0.2996
 7556SOL     OW34126   4.359   3.006  13.244 -0.1301 -0.3005  0.4653
 7556SOL    HW134127   4.306   3.084  13.260 -2.4888 -1.3847 -2.0924
 7556SOL    HW234128   4.365   3.007  13.149 -0.3516 -2.1753  0.4185
 7557SOL     OW34129   1.349   2.484   5.738 -0.2807  0.8732 -0.5127
 7557SOL    HW134130   1.316   2.395   5.722 -0.2307  0.6681  0.5288
 7557SOL    HW234131   1.440   2.472   5.764  0.4996  0.6310 -3.3580
 7558SOL     OW34132   3.154   3.301   2.285  0.4344 -0.1128 -0.0930
 7558SOL    HW134133   3.213   3.332   2.353  0.1806  0.2067 -0.0191
 7558SOL    HW234134   3.195   3.345   2.210 -0.1102  0.1330 -0.2432
 7559SOL     OW34135   1.919   3.853   9.856 -0.3737 -0.2981  0.0584
 7559SOL    HW134136   1.930   3.942   9.891 -1.4418 -0.9613  2.1224
 7559SOL    HW234137   1.916   3.805   9.939 -0.5210  0.2998  0.3991
 7560SOL     OW34138   4.090   1.453   7.336 -0.7217  0.6519 -0.2422
 7560SOL    HW134139   4.082   1.360   7.319 -1.4832  0.8468 -0.9486
 7560SOL    HW234140   4.184   1.458   7.319 -1.0522  0.1800 -2.2104
 7561SOL     OW34141   0.183   3.208   6.210 -0.4131 -0.1491 -0.1915
 7561SOL    HW134142   0.089   3.215   6.227 -0.2256  1.1475  0.3127
 7561SOL    HW234143   0.177   3.173   6.121 -1.3421  0.5194 -0.3936
 7562SOL     OW34144   2.110   4.058   2.161  0.3921  0.9849  0.0682
 7562SOL    HW134145   2.107   4.119   2.087 -1.8449 -1.6161 -1.9639
 7562SOL    HW234146   2.204   4.058   2.181 -0.0086  0.7415  1.9690
 7563SOL     OW34147   3.836   3.912   5.126 -0.4948  0.0995  0.0634
 7563SOL    HW134148   3.821   3.864   5.208  1.3719 -0.5887  0.0046
 7563SOL    HW234149   3.744   3.923   5.099 -0.0000  1.4774 -1.0565
 7564SOL     OW34150   1.896   1.174  15.451 -0.0522  0.1064 -0.1582
 7564SOL    HW134151   1.826   1.109  15.439  1.1569 -0.6455 -3.0981
 7564SOL    HW234152   1.885   1.246  15.389 -1.9923 -0.3123 -0.3103
 7565SOL     OW34153   2.371   0.984   5.345 -0.2869 -0.6040  0.0172
 7565SOL    HW134154   2.436   1.019   5.405  0.1103 -0.7803 -0.3102
 7565SOL    HW234155   2.339   0.917   5.406 -0.3845  0.4903  1.1527
 7566SOL     OW34156   3.324   2.961  16.515  0.0376 -0.5299 -0.3836
 7566SOL    HW134157   3.255   2.998  16.460 -1.3769  0.3371  1.9963
 7566SOL    HW234158   3.273   2.900  16.569 -0.9257  1.0772  0.4927
 7567SOL     OW34159   1.782   0.025  11.988  0.2294 -1.1122  0.0277
 7567SOL    HW134160   1.865   0.001  12.028 -0.2651 -0.5075  1.4088
 7567SOL    HW234161   1.814   0.029  11.898  0.3911 -0.8377  0.0981
 7568SOL     OW34162   3.293   2.945  16.912  0.2411 -0.1192 -0.0741
 7568SOL    HW134163   3.296   2.944  17.007 -1.4101  1.5724  0.0093
 7568SOL    HW234164   3.296   2.851  16.891 -1.0557 -0.3484  0.7577
 7569SOL     OW34165   3.999   0.178  14.383 -0.1033  0.4434  0.0786
 7569SOL    HW134166   4.078   0.177  14.329  0.1339 -0.1608  0.4475
 7569SOL    HW234167   3.932   0.209  14.323 -0.6662  0.4689  0.7231
 7570SOL     OW34168   2.225   1.883   2.776  0.1142 -0.0556 -0.1309
 7570SOL    HW134169   2.200   1.976   2.774 -1.6819 -0.5476 -0.7033
 7570SOL    HW234170   2.278   1.884   2.696  3.4841  0.4113  2.1210
 7571SOL     OW34171   1.251   4.544   3.685  0.0863 -0.5778 -0.4594
 7571SOL    HW134172   1.332   4.586   3.717 -1.1653  1.2475  0.3051
 7571SOL    HW234173   1.265   4.453   3.712 -0.1849 -0.4110  0.2413
 7572SOL     OW34174   2.921   1.653   7.552 -0.1169 -0.5304  0.2681
 7572SOL    HW134175   2.863   1.712   7.504  0.2085  0.6692  1.3478
 7572SOL    HW234176   2.918   1.703   7.634  0.9551 -0.5424  0.3197
 7573SOL     OW34177   1.939   1.519   6.869  0.2466  0.3996 -0.2954
 7573SOL    HW134178   1.905   1.446   6.921 -0.2595  0.9349  0.1354
 7573SOL    HW234179   1.909   1.491   6.782 -2.6266  1.5934  0.3117
 7574SOL     OW34180   0.049   2.134   2.512  0.5086  0.5901 -0.4711
 7574SOL    HW134181   0.020   2.167   2.597  1.0651  1.0154 -0.4487
 7574SOL    HW234182   0.061   2.041   2.529  1.4625  0.4258 -2.1051
 7575SOL     OW34183   4.662   2.424   8.076 -0.0677 -0.0653  0.3230
 7575SOL    HW134184   4.599   2.419   8.005  1.2505  1.2731 -0.9498
 7575SOL    HW234185   0.016   2.435   8.021 -0.6351  0.9608 -0.2742
 7576SOL     OW34186   4.456   3.927  15.141  0.0369  0.3804 -0.3532
 7576SOL    HW134187   4.380   3.878  15.111 -0.0547 -0.2671  0.9483
 7576SOL    HW234188   4.473   3.871  15.216  0.2572  2.6130  1.2651
 7577SOL     OW34189   2.278   3.386   4.536  0.4975  0.0086  0.2493
 7577SOL    HW134190   2.327   3.380   4.619  0.8854 -1.0097 -0.0497
 7577SOL    HW234191   2.189   3.376   4.571  0.6683 -1.5668  0.2421
 7578SOL     OW34192   0.315   3.196  13.710 -0.0034  0.0051 -0.2875
 7578SOL    HW134193   0.300   3.188  13.804  3.9658 -1.1887  0.2736
 7578SOL    HW234194   0.224   3.193  13.681 -0.5077  0.1377  1.2819
 7579SOL     OW34195   1.410   1.710  10.305 -0.0112 -0.5244  0.1212
 7579SOL    HW134196   1.388   1.751  10.221 -1.2141 -0.3010  0.5471
 7579SOL    HW234197   1.505   1.722  10.296  0.1932 -1.6525  0.7778
 7580SOL     OW34198   3.521   3.812   9.726  0.0671 -0.0917  0.3096
 7580SOL    HW134199   3.442   3.863   9.711  0.9712  0.9286 -0.9494
 7580SOL    HW234200   3.499   3.776   9.812 -0.7531 -2.9236 -1.0801
 7581SOL     OW34201   1.714   1.445   8.646 -0.1825 -1.2178 -0.2617
 7581SOL    HW134202   1.706   1.533   8.682 -0.2894 -1.4026  0.1575
 7581SOL    HW234203   1.627   1.410   8.667 -0.7613  0.7630  0.5659
 7582SOL     OW34204   2.652   0.229   5.871  0.4116 -0.4106  0.4080
 7582SOL    HW134205   2.582   0.265   5.926  1.3947  0.4139  1.1138
 7582SOL    HW234206   2.692   0.169   5.934  2.0897 -0.9572 -1.1740
 7583SOL     OW34207   3.603   2.260   3.473 -0.0572  0.1220 -0.3429
 7583SOL    HW134208   3.634   2.193   3.534  0.9408  1.0588  0.1647
 7583SOL    HW234209   3.520   2.288   3.512 -0.1697 -1.5611  0.6052
 7584SOL     OW34210   0.056   4.008  11.911  0.0544 -0.3405 -0.2136
 7584SOL    HW134211   0.095   4.030  11.827 -1.5954  2.0933 -0.3654
 7584SOL    HW234212   0.112   4.067  11.963 -1.6929  0.6143  0.6144
 7585SOL     OW34213   1.011   1.245   5.235 -0.3013 -0.5287 -0.1551
 7585SOL    HW134214   0.962   1.257   5.317 -1.7402  0.2471 -1.1347
 7585SOL    HW234215   1.099   1.240   5.274  0.0527  1.5502 -0.6865
 7586SOL     OW34216   1.417   2.273   4.856 -0.2166  0.2664  0.2118
 7586SOL    HW134217   1.370   2.247   4.935  0.2566 -1.8916 -0.2182
 7586SOL    HW234218   1.413   2.369   4.851 -0.1588  0.4733  3.7850
 7587SOL     OW34219   2.145   4.020   6.500 -0.0763  0.1412  0.0666
 7587SOL    HW134220   2.091   3.993   6.426 -0.5345  0.2546  0.3632
 7587SOL    HW234221   2.078   3.998   6.564 -1.2333  0.8113 -0.9078
 7588SOL     OW34222   0.214   2.834   5.047 -0.4526 -0.2941  0.3143
 7588SOL    HW134223   0.200   2.788   4.965  0.0547 -0.1578  0.1486
 7588SOL    HW234224   0.193   2.923   5.018  0.8268  0.1316  0.6912
 7589SOL     OW34225   1.364   0.901   7.822  0.1242  0.0952 -0.0878
 7589SOL    HW134226   1.389   0.832   7.884  1.2570 -0.3209 -1.0228
 7589SOL    HW234227   1.278   0.868   7.797  0.4690 -0.5452 -0.4242
 7590SOL     OW34228   1.559   2.210   8.885 -0.0376 -0.1983  0.1320
 7590SOL    HW134229   1.604   2.137   8.927  0.6977  0.7168  0.9517
 7590SOL    HW234230   1.550   2.264   8.964 -0.3335 -0.9668  0.6230
 7591SOL     OW34231   0.469   3.940  15.044 -0.2801  0.0709  0.1211
 7591SOL    HW134232   0.469   3.998  14.968 -2.4379 -0.6714 -0.4536
 7591SOL    HW234233   0.380   3.907  15.033 -0.3789 -0.3285  2.1724
 7592SOL     OW34234   1.427   3.101  10.271 -0.3659 -0.1758 -0.4307
 7592SOL    HW134235   1.337   3.083  10.243 -0.2364  2.1452 -2.3236
 7592SOL    HW234236   1.469   3.021  10.241 -0.9855 -0.9021  0.6475
 7593SOL     OW34237   1.379   0.781   9.437 -0.6123 -0.0901 -0.3101
 7593SOL    HW134238   1.461   0.769   9.483 -1.0557 -0.7900  0.2869
 7593SOL    HW234239   1.405   0.747   9.351  1.4283  0.0452  0.2596
 7594SOL     OW34240   3.721   3.422   4.399  0.0116  0.3719 -0.0191
 7594SOL    HW134241   3.770   3.477   4.460 -1.0837 -0.4449  1.5703
 7594SOL    HW234242   3.797   3.363   4.391  0.5147  0.8794  0.9729
 7595SOL     OW34243   3.742   3.164   1.889 -0.3095  0.1547 -0.0271
 7595SOL    HW134244   3.758   3.103   1.817 -2.3952 -0.2911 -0.1239
 7595SOL    HW234245   3.676   3.221   1.849 -0.6051 -1.1650 -1.4193
 7596SOL     OW34246   3.451   1.288  15.757  0.4757  0.2591 -0.3927
 7596SOL    HW134247   3.455   1.193  15.746 -0.7566  0.5387 -3.2590
 7596SOL    HW234248   3.390   1.311  15.687  0.9905  1.6833 -0.3732
 7597SOL     OW34249   1.786   1.140   2.249  0.1361 -0.6157  0.0711
 7597SOL    HW134250   1.726   1.192   2.303  1.4635  1.0754 -0.1218
 7597SOL    HW234251   1.870   1.171   2.282  0.0503  1.1858 -1.3914
 7598SOL     OW34252   3.351   2.376  16.078  0.2531 -0.1257 -0.6472
 7598SOL    HW134253   3.283   2.344  16.137 -0.4648  1.7912 -0.4405
 7598SOL    HW234254   3.348   2.471  16.091  1.0514 -0.0570 -0.9615
 7599SOL     OW34255   3.841   0.855   4.632 -0.4961  0.3822  0.3093
 7599SOL    HW134256   3.865   0.765   4.609  2.2517  1.4733 -1.1906
 7599SOL    HW234257   3.925   0.874   4.672 -0.3838  1.3143 -0.3616
 7600SOL     OW34258   2.034   3.380   5.192 -0.1851 -0.6300  0.2334
 7600SOL    HW134259   2.109   3.350   5.141  0.1574 -1.7440  1.3842
 7600SOL    HW234260   2.071   3.401   5.278 -1.9385  0.4873  0.7187
 7601SOL     OW34261   0.227   0.064   4.947 -0.0027  0.2063  0.6961
 7601SOL    HW134262   0.186   0.094   5.029 -0.2401 -1.2699  1.1226
 7601SOL    HW234263   0.258   0.135   4.890 -1.7459 -0.3431 -0.9003
 7602SOL     OW34264   4.354   1.712  10.416  0.3783  0.4527  0.1700
 7602SOL    HW134265   4.362   1.632  10.468  1.6754  0.6027  0.1904
 7602SOL    HW234266   4.436   1.724  10.369 -0.4411  1.8180 -0.8856
 7603SOL     OW34267   4.524   3.517  15.881  0.7132  0.7878  0.4453
 7603SOL    HW134268   4.511   3.526  15.976 -1.1119 -1.5190  0.4125
 7603SOL    HW234269   4.573   3.435  15.871 -2.6908 -1.2127  0.3903
 7604SOL     OW34270   0.906   2.690   3.021  0.5922  0.0665 -0.2577
 7604SOL    HW134271   0.959   2.759   3.061 -1.2359  1.4899 -0.3062
 7604SOL    HW234272   0.849   2.730   2.956 -0.4398  0.4004  0.8336
 7605SOL     OW34273   0.743   4.520   8.109  0.5970  0.2757  0.6967
 7605SOL    HW134274   0.778   4.431   8.112  0.4637  0.1956 -0.0044
 7605SOL    HW234275   0.723   4.547   8.019 -3.0821  2.1966  2.0657
 7606SOL     OW34276   3.781   2.008   6.004 -0.6392  0.7016  0.3021
 7606SOL    HW134277   3.745   2.048   6.083  2.4478 -0.1070  2.1085
 7606SOL    HW234278   3.869   2.044   5.996 -0.1181 -0.2172  1.8518
 7607SOL     OW34279   1.468   3.448   8.691 -0.3345  0.2283  0.2701
 7607SOL    HW134280   1.398   3.428   8.628 -2.0437  3.6066  1.0668
 7607SOL    HW234281   1.487   3.363   8.730  0.0731  0.0152 -0.3841
 7608SOL     OW34282   1.539   0.606   8.206  0.3558 -0.0282 -0.1221
 7608SOL    HW134283   1.570   0.522   8.240  0.0295  0.5921  1.7082
 7608SOL    HW234284   1.467   0.620   8.267  0.7162  0.4397  0.1975
 7609SOL     OW34285   2.924   3.611   8.515  0.3210 -0.1062 -0.0500
 7609SOL    HW134286   2.874   3.677   8.469 -0.3744 -1.9054 -1.8778
 7609SOL    HW234287   2.945   3.659   8.595  3.1673  0.4959 -1.1725
 7610SOL     OW34288   0.098   0.047   8.286 -0.2516 -0.1183  0.2030
 7610SOL    HW134289   0.148   0.129   8.288 -0.3606 -0.0213 -1.1256
 7610SOL    HW234290   0.171   4.709   8.286 -0.0946  0.0718 -0.5946
 7611SOL     OW34291   0.444   1.213   7.428 -0.5073 -0.1423  0.2365
 7611SOL    HW134292   0.487   1.188   7.347  0.4216 -0.5534  0.8545
 7611SOL    HW234293   0.481   1.300   7.445 -0.4909 -0.2083  0.5384
 7612SOL     OW34294   3.529   3.942   3.698 -0.5473  0.0615 -0.0236
 7612SOL    HW134295   3.485   3.951   3.783  0.7021  1.5285  0.4760
 7612SOL    HW234296   3.512   4.029   3.662  0.1876  1.2508  2.4935
 7613SOL     OW34297   1.868   0.374   3.228 -0.3064  0.5821  0.5096
 7613SOL    HW134298   1.961   0.363   3.208 -1.2696 -1.6308 -2.6496
 7613SOL    HW234299   1.838   0.317   3.157  1.7038  1.8410 -1.3375
 7614SOL     OW34300   4.140   0.231  15.190 -0.0660  0.4704 -0.1151
 7614SOL    HW134301   4.171   0.172  15.122  0.4779 -0.9459  1.3504
 7614SOL    HW234302   4.066   0.180  15.222  0.3780  0.8726  1.6087
 7615SOL     OW34303   1.861   1.647   7.682 -0.5178  0.0199  0.0118
 7615SOL    HW134304   1.813   1.622   7.603 -0.2699  0.9569 -0.4301
 7615SOL    HW234305   1.789   1.660   7.744  1.5536 -0.0405  2.4220
 7616SOL     OW34306   3.810   2.812   8.749  0.2179 -0.3681 -0.1583
 7616SOL    HW134307   3.863   2.783   8.823  0.0497 -0.2077  0.0243
 7616SOL    HW234308   3.778   2.724   8.726 -1.5067 -0.2003  1.6087
 7617SOL     OW34309   3.771   2.935  16.306 -0.4964 -0.1218  0.1407
 7617SOL    HW134310   3.738   2.846  16.308  1.8070 -1.0139 -1.3260
 7617SOL    HW234311   3.690   2.986  16.315 -0.0443  0.7637 -0.8235
 7618SOL     OW34312   2.189   3.667   2.288 -0.1344 -0.4605  0.7065
 7618SOL    HW134313   2.176   3.719   2.367  1.3864 -0.0843  0.7026
 7618SOL    HW234314   2.101   3.629   2.289 -0.3793  0.0942 -0.0843
 7619SOL     OW34315   4.703   3.407   2.433 -0.3214 -0.2773  0.3360
 7619SOL    HW134316   4.632   3.411   2.497  0.4856  0.2944  1.1936
 7619SOL    HW234317   0.011   3.318   2.449 -1.4396 -0.6531  0.4887
 7620SOL     OW34318   2.982   3.708   7.953  0.5242  0.2777  0.2755
 7620SOL    HW134319   3.021   3.760   8.024  1.5547 -0.6511  0.3941
 7620SOL    HW234320   3.007   3.619   7.977  0.8994  0.1666 -0.5411
 7621SOL     OW34321   1.201   0.523   8.613 -0.1600  0.2527  0.2924
 7621SOL    HW134322   1.176   0.433   8.634  0.8493  0.1330  1.0041
 7621SOL    HW234323   1.285   0.524   8.659 -0.1350 -0.7261  0.2634
 7622SOL     OW34324   3.611   3.377   2.337 -0.2811 -0.1313 -0.5197
 7622SOL    HW134325   3.635   3.287   2.360  0.9099  0.4308  0.4554
 7622SOL    HW234326   3.623   3.424   2.419  0.5735  0.3231 -0.9031
 7623SOL     OW34327   2.570   3.674   9.441  0.4740  0.4796 -0.1610
 7623SOL    HW134328   2.478   3.645   9.438  0.1597  1.2438  1.6971
 7623SOL    HW234329   2.615   3.592   9.421  0.3906  0.2345  0.6588
 7624SOL     OW34330   0.589   2.961  13.845  0.4305 -0.1620 -0.0664
 7624SOL    HW134331   0.514   2.999  13.799 -0.5457 -1.8645  0.1572
 7624SOL    HW234332   0.626   3.045  13.874 -0.7843  0.4004 -0.1206
 7625SOL     OW34333   1.161   1.794   4.357 -0.4696  0.0510  0.3609
 7625SOL    HW134334   1.251   1.771   4.334 -1.2943 -1.3465 -1.4802
 7625SOL    HW234335   1.165   1.882   4.321  4.4302  0.3262  1.6399
 7626SOL     OW34336   0.788   0.253   7.096 -0.4632 -0.3568  0.0850
 7626SOL    HW134337   0.788   0.158   7.108  1.9760 -0.1727  1.5556
 7626SOL    HW234338   0.776   0.267   7.002  0.7020 -0.4306 -0.0833
 7627SOL     OW34339   1.777   4.232   2.410 -0.0245  0.1197  0.0547
 7627SOL    HW134340   1.868   4.224   2.382  0.1140  1.0956  0.2269
 7627SOL    HW234341   1.766   4.326   2.393 -1.3438 -0.0919 -0.2644
 7628SOL     OW34342   2.360   4.092   4.970  0.4492  0.3633 -0.1582
 7628SOL    HW134343   2.451   4.112   4.995  0.1331  1.0998  0.4055
 7628SOL    HW234344   2.353   4.154   4.898 -1.3630  0.7278  0.3493
 7629SOL     OW34345   2.811   0.300  15.132 -0.1910 -0.7768 -0.7443
 7629SOL    HW134346   2.747   0.330  15.197  2.2141  0.3916  1.1062
 7629SOL    HW234347   2.832   0.220  15.180  1.9063  0.5492  0.5235
 7630SOL     OW34348   2.805   0.776   7.452 -0.3834  0.1480  0.2365
 7630SOL    HW134349   2.803   0.723   7.532 -0.9671 -1.1490 -0.6471
 7630SOL    HW234350   2.801   0.865   7.486 -4.4988  0.1578 -0.3555
 7631SOL     OW34351   3.513   3.511   8.707  1.0791 -0.1061  0.5865
 7631SOL    HW134352   3.490   3.554   8.625 -0.0872 -0.6256  0.6458
 7631SOL    HW234353   3.569   3.578   8.746  0.2327  0.9940 -0.1088
 7632SOL     OW34354   3.924   4.489  15.345  0.4859  0.0942 -0.1257
 7632SOL    HW134355   3.955   4.551  15.411  1.9493  1.3451 -1.9914
 7632SOL    HW234356   3.929   4.541  15.265  0.2513 -1.6894 -1.3078
 7633SOL     OW34357   0.663   1.369   2.466  0.3642 -0.1959  0.4721
 7633SOL    HW134358   0.635   1.436   2.403  1.1461 -1.2272 -0.9763
 7633SOL    HW234359   0.576   1.331   2.479  0.0754 -0.0260 -0.9389
 7634SOL     OW34360   1.220   1.680   2.604  0.3568 -0.6600  0.5719
 7634SOL    HW134361   1.310   1.650   2.612  0.6501  0.2743  0.8338
 7634SOL    HW234362   1.174   1.602   2.572  0.4467 -0.3333 -0.3385
 7635SOL     OW34363   3.431   1.329   9.013 -0.0968  0.5865 -0.2765
 7635SOL    HW134364   3.361   1.313   8.950 -0.7188 -1.4203  0.9338
 7635SOL    HW234365   3.515   1.331   8.968  0.4539  0.3551  0.7413
 7636SOL     OW34366   2.827   3.085  16.112  0.1108  0.4755  0.2019
 7636SOL    HW134367   2.840   3.027  16.187 -1.1643  0.5836  0.5052
 7636SOL    HW234368   2.869   3.042  16.037 -0.4268 -0.2792  0.3338
 7637SOL     OW34369   0.425   3.980  14.233 -0.4109 -0.3316 -0.0984
 7637SOL    HW134370   0.425   3.990  14.328 -1.1201  0.6740 -0.1967
 7637SOL    HW234371   0.489   4.049  14.215 -0.9457 -0.3197 -2.0267
 7638SOL     OW34372   2.849   1.995   3.891  0.2452  0.5421 -0.5563
 7638SOL    HW134373   2.927   2.034   3.850  0.1264  0.4575 -0.8655
 7638SOL    HW234374   2.870   2.015   3.982  3.0018  2.4080 -1.5830
 7639SOL     OW34375   2.787   1.939  14.103 -0.2466  0.4728  0.2584
 7639SOL    HW134376   2.830   1.905  14.182  0.0472 -2.0414 -0.9630
 7639SOL    HW234377   2.699   1.967  14.129 -0.9495 -3.1883  1.9063
 7640SOL     OW34378   3.403   1.019  12.126 -0.1821 -0.2415 -0.3475
 7640SOL    HW134379   3.458   0.941  12.133  0.5113  0.3301  0.6580
 7640SOL    HW234380   3.343   1.005  12.053 -1.5116 -0.1125  0.7194
 7641SOL     OW34381   0.719   1.105   3.012  0.0861  0.1342  0.3298
 7641SOL    HW134382   0.717   1.022   3.060  0.2291  0.2903  0.6131
 7641SOL    HW234383   0.683   1.080   2.928  0.0647 -3.5416  1.4579
 7642SOL     OW34384   0.330   2.579   3.454  0.0051  0.0177  0.1914
 7642SOL    HW134385   0.338   2.631   3.374 -2.6430  0.9038  0.5031
 7642SOL    HW234386   0.409   2.526   3.442 -1.7859 -2.2112 -1.6548
 7643SOL     OW34387   3.918   0.739  12.339 -0.1769 -0.0735 -0.3227
 7643SOL    HW134388   3.964   0.713  12.418  0.3986  0.6525 -0.4164
 7643SOL    HW234389   3.985   0.739  12.271 -0.6648 -2.9946 -0.8020
 7644SOL     OW34390   3.297   4.048  11.010 -0.4437  0.1753  0.2365
 7644SOL    HW134391   3.352   3.995  10.952 -0.7666 -3.4007  3.2083
 7644SOL    HW234392   3.241   4.081  10.940  2.2247  2.2424 -0.9511
 7645SOL     OW34393   4.660   3.743   3.591  0.0821  0.3955 -0.2673
 7645SOL    HW134394   4.662   3.833   3.624 -4.9390  0.5999 -0.5036
 7645SOL    HW234395   4.583   3.758   3.536 -0.8080 -0.7296  0.6566
 7646SOL     OW34396   1.240   3.923   8.204 -0.1407 -0.2477  0.7896
 7646SOL    HW134397   1.224   3.882   8.289 -1.3188 -1.4442 -0.0165
 7646SOL    HW234398   1.321   3.968   8.230  0.3384 -0.4190 -0.3954
 7647SOL     OW34399   0.004   0.892   7.609  0.4951 -0.1508  0.0501
 7647SOL    HW134400   4.699   0.981   7.589 -0.6909  0.0256  2.4785
 7647SOL    HW234401   4.651   0.853   7.651 -1.3996  1.6149 -1.7794
 7648SOL     OW34402   1.772   1.615   5.215 -0.0642  0.0487 -0.0007
 7648SOL    HW134403   1.700   1.666   5.253 -1.8993 -1.0384 -2.0120
 7648SOL    HW234404   1.842   1.635   5.277 -1.9228  1.3641  1.6947
 7649SOL     OW34405   3.944   2.976   1.535  0.2143  0.0279  0.0810
 7649SOL    HW134406   3.997   2.905   1.572  1.1508  0.5136 -0.3151
 7649SOL    HW234407   3.857   2.954   1.568 -0.2920 -0.3089 -1.4561
 7650SOL     OW34408   3.847   1.522   3.200 -0.5438  0.6501 -0.0399
 7650SOL    HW134409   3.834   1.535   3.106  0.3504  0.2577 -0.2168
 7650SOL    HW234410   3.842   1.613   3.230 -0.6206 -0.0670  2.0871
 7651SOL     OW34411   1.598   1.262  15.990 -0.0246  0.3150  0.1551
 7651SOL    HW134412   1.580   1.208  16.067 -0.2690  0.3392  0.1157
 7651SOL    HW234413   1.671   1.315  16.021  0.5136 -0.6657  0.5919
 7652SOL     OW34414   0.525   0.514   5.167 -0.5744 -0.2502 -0.3068
 7652SOL    HW134415   0.605   0.553   5.132 -0.8899  1.8200  1.2872
 7652SOL    HW234416   0.568   0.487   5.249 -0.4043 -1.5368 -0.8192
 7653SOL     OW34417   2.042   3.878   7.915  0.1191 -0.6761 -0.3408
 7653SOL    HW134418   2.059   3.815   7.845 -0.3965  1.1526 -2.0753
 7653SOL    HW234419   1.996   3.830   7.984 -2.5114  1.3084 -0.7599
 7654SOL     OW34420   4.420   2.577   7.777  0.4146  0.0894 -0.1500
 7654SOL    HW134421   4.448   2.645   7.717 -0.9359 -0.8670 -1.8893
 7654SOL    HW234422   4.493   2.519   7.756  0.7401  0.2173  0.6285
 7655SOL     OW34423   3.505   1.227  15.128  0.2740 -0.4346 -0.5032
 7655SOL    HW134424   3.497   1.132  15.117 -0.4595 -0.5740  1.3295
 7655SOL    HW234425   3.514   1.253  15.036  0.6469  0.7187 -0.1392
 7656SOL     OW34426   3.647   1.521   6.041  0.2602 -0.1571  0.1313
 7656SOL    HW134427   3.693   1.581   5.982  0.9869 -1.6965 -0.8716
 7656SOL    HW234428   3.601   1.577   6.104 -0.0843  0.8034 -0.9601
 7657SOL     OW34429   0.374   0.543   7.188  0.5453 -0.4382  0.5528
 7657SOL    HW134430   0.400   0.587   7.269  1.1332 -1.4023  0.8912
 7657SOL    HW234431   0.369   0.454   7.222 -1.4218  1.1052  4.2739
 7658SOL     OW34432   1.189   4.422   7.963  0.6967 -0.0876 -0.4736
 7658SOL    HW134433   1.242   4.427   8.043  2.5646 -1.4777 -1.6170
 7658SOL    HW234434   1.139   4.502   7.978  1.4204  0.3143 -0.2287
 7659SOL     OW34435   3.508   4.261   6.070 -0.2069  0.1047  0.2258
 7659SOL    HW134436   3.579   4.290   6.129  0.0744  1.2209 -0.6567
 7659SOL    HW234437   3.488   4.337   6.015 -0.4241 -0.8897 -1.0447
 7660SOL     OW34438   1.772   0.512   0.667 -0.6039 -0.0175  0.1357
 7660SOL    HW134439   1.814   0.459   0.600 -1.0466 -1.7825  1.2550
 7660SOL    HW234440   1.796   0.464   0.746  1.6772 -0.9911 -1.1674
 7661SOL     OW34441   0.804   4.410   6.964  0.3968  0.0503 -0.3529
 7661SOL    HW134442   0.781   4.436   6.874 -1.9280 -0.7654  0.0081
 7661SOL    HW234443   0.731   4.350   6.977  0.8615 -0.5239 -0.4038
 7662SOL     OW34444   2.395   3.879   7.188 -0.0145 -0.4997  0.0616
 7662SOL    HW134445   2.329   3.882   7.119 -0.9543  0.6461  1.0253
 7662SOL    HW234446   2.473   3.896   7.135  0.0291 -2.2604 -0.4529
 7663SOL     OW34447   2.171   3.220  14.288 -0.1270  0.1295 -0.1850
 7663SOL    HW134448   2.196   3.135  14.324  0.3305 -0.1707 -1.2149
 7663SOL    HW234449   2.202   3.217  14.197  1.7248  0.8246  0.4203
 7664SOL     OW34450   3.910   3.128  14.795 -0.1143  0.3740  0.3535
 7664SOL    HW134451   3.880   3.166  14.712  0.6511 -1.9918 -1.0177
 7664SOL    HW234452   3.883   3.188  14.864 -0.0780 -0.1467  0.8175
 7665SOL     OW34453   3.370   0.249  12.806 -0.0705 -0.0320  0.0278
 7665SOL    HW134454   3.406   0.166  12.776 -0.0706  0.0985 -0.3321
 7665SOL    HW234455   3.277   0.231  12.819 -0.1110 -0.5146 -0.9041
 7666SOL     OW34456   2.216   4.596   5.820  0.1030 -0.6318 -0.2092
 7666SOL    HW134457   2.139   4.576   5.875  1.9481 -0.8054  2.3250
 7666SOL    HW234458   2.290   4.555   5.865 -0.0577 -0.2980  0.3684
 7667SOL     OW34459   4.503   0.211   5.197  0.4963 -0.5144 -0.1149
 7667SOL    HW134460   4.572   0.235   5.259  0.6732  0.1589 -0.5772
 7667SOL    HW234461   4.427   0.202   5.255  0.5777  2.1988  0.3853
 7668SOL     OW34462   3.360   2.037   8.530 -0.0008 -0.1102  0.2440
 7668SOL    HW134463   3.386   2.118   8.485 -1.1459 -0.5682 -1.2479
 7668SOL    HW234464   3.327   1.979   8.461 -0.7821 -2.4004  2.5587
 7669SOL     OW34465   3.522   1.867  12.428  0.3854 -0.1362 -0.1640
 7669SOL    HW134466   3.486   1.779  12.429 -1.1533  0.4854 -1.2063
 7669SOL    HW234467   3.615   1.854  12.447  0.2900  0.1300  0.5059
 7670SOL     OW34468   2.387   2.226   7.057  0.6415 -0.1555 -0.4853
 7670SOL    HW134469   2.417   2.219   6.967 -1.0375 -2.4891 -0.8628
 7670SOL    HW234470   2.353   2.136   7.059  0.6528 -0.1794 -1.6968
 7671SOL     OW34471   4.170   3.233  16.750 -0.4654  0.0280  0.7428
 7671SOL    HW134472   4.170   3.196  16.662  4.1179 -2.0996  1.5922
 7671SOL    HW234473   4.262   3.259  16.743 -0.6105  0.5078  0.6663
 7672SOL     OW34474   3.537   4.357   1.640  0.2646  0.0205  1.0005
 7672SOL    HW134475   3.589   4.428   1.677 -0.0939  0.6522  0.2719
 7672SOL    HW234476   3.608   4.327   1.583 -1.8180  0.5321 -1.8941
 7673SOL     OW34477   3.598   3.021   6.778 -0.7782 -0.2167  0.4062
 7673SOL    HW134478   3.563   3.095   6.828  1.0058  1.1797 -0.4289
 7673SOL    HW234479   3.563   2.952   6.834 -3.4288  1.7472  1.1816
 7674SOL     OW34480   4.308   1.379   2.432 -0.0632 -0.8414  0.1327
 7674SOL    HW134481   4.217   1.354   2.415 -0.1617  0.0443 -0.6411
 7674SOL    HW234482   4.294   1.465   2.472 -1.9362 -1.3269  0.5348
 7675SOL     OW34483   1.266   2.430   7.571 -0.4116 -0.8467  0.1679
 7675SOL    HW134484   1.299   2.514   7.542  0.1242 -1.9680 -2.4467
 7675SOL    HW234485   1.344   2.375   7.573 -0.7760 -1.3653  0.4302
 7676SOL     OW34486   1.506   1.211   5.191 -0.0899  0.9092 -0.6416
 7676SOL    HW134487   1.518   1.127   5.235 -0.8366  0.6629 -0.9109
 7676SOL    HW234488   1.585   1.256   5.221  0.5663 -2.1054  2.1271
 7677SOL     OW34489   4.447   2.130  11.162 -0.8796 -0.0687  0.2046
 7677SOL    HW134490   4.506   2.075  11.213 -2.0654 -0.0321  1.6036
 7677SOL    HW234491   4.434   2.205  11.220  0.1067  0.0961  0.2195
 7678SOL     OW34492   1.413   3.310   2.528  0.2347  0.4215 -0.1722
 7678SOL    HW134493   1.472   3.383   2.546  1.7299 -0.6337 -0.8906
 7678SOL    HW234494   1.371   3.349   2.451 -0.6700  0.8632  0.5383
 7679SOL     OW34495   2.088   4.099   3.740 -0.0970 -0.5539  0.1123
 7679SOL    HW134496   2.047   4.131   3.660 -0.6106 -1.3889  0.0373
 7679SOL    HW234497   2.104   4.183   3.782 -0.5678 -0.1509 -0.5158
 7680SOL     OW34498   3.320   4.486   3.119  0.1115 -0.0784  0.3273
 7680SOL    HW134499   3.347   4.575   3.094  0.0849 -0.9275 -2.6513
 7680SOL    HW234500   3.407   4.452   3.141  0.5387  0.6670 -0.2003
 7681SOL     OW34501   3.135   4.278   4.995 -0.2277  0.0872  0.2879
 7681SOL    HW134502   3.093   4.342   4.938 -0.5982  0.9897  1.5684
 7681SOL    HW234503   3.090   4.197   4.970 -2.0655  1.4115 -0.6570
 7682SOL     OW34504   0.114   2.509   2.840  0.9443 -0.0747 -0.4135
 7682SOL    HW134505   0.199   2.471   2.861 -0.3554 -2.4162  0.5038
 7682SOL    HW234506   0.145   2.586   2.792  0.7530  0.2344 -0.0371
 7683SOL     OW34507   1.634   1.467  10.081 -0.1249 -0.6199  0.1145
 7683SOL    HW134508   1.704   1.418  10.125  0.2119 -1.5344 -1.4304
 7683SOL    HW234509   1.661   1.557  10.099 -1.0443 -0.7807  2.2683
 7684SOL     OW34510   3.293   0.211   2.246  0.2467 -0.4344 -0.0503
 7684SOL    HW134511   3.250   0.286   2.289  1.2816  0.3420 -0.3670
 7684SOL    HW234512   3.224   0.150   2.273 -2.7393  2.4294 -1.1674
 7685SOL     OW34513   2.527   4.533   8.147  0.0125 -0.2144  0.2909
 7685SOL    HW134514   2.618   4.557   8.129 -0.5585  2.6433  1.2748
 7685SOL    HW234515   2.483   4.546   8.062 -0.3537 -2.4403  0.1275
 7686SOL     OW34516   3.459   4.198   0.528 -0.3047  0.1548  0.7910
 7686SOL    HW134517   3.477   4.292   0.536  0.7338  0.0604 -0.4327
 7686SOL    HW234518   3.494   4.181   0.441  1.3533 -3.1161  2.1238
 7687SOL     OW34519   1.562   0.054  14.478  0.0299 -0.0420  0.5643
 7687SOL    HW134520   1.640   0.018  14.520  0.8810  0.6747 -0.4215
 7687SOL    HW234521   1.567   4.712  14.408 -1.5832  2.4905 -1.9630
 7688SOL     OW34522   0.621   0.010   7.563  0.1870  0.1831  0.1358
 7688SOL    HW134523   0.531   0.015   7.529  0.3672 -1.4696 -0.5713
 7688SOL    HW234524   0.667   0.078   7.514  0.4138 -0.1621 -0.1266
 7689SOL     OW34525   4.456   2.195  14.216 -0.1778  0.0442  0.4689
 7689SOL    HW134526   4.453   2.288  14.194  1.1562 -0.2517 -0.8864
 7689SOL    HW234527   4.532   2.154  14.176 -1.5728 -0.7019 -1.3827
 7690SOL     OW34528   0.919   0.849   3.216  0.1018 -0.3156 -0.5603
 7690SOL    HW134529   0.867   0.820   3.142 -2.8927 -0.9248  1.7981
 7690SOL    HW234530   0.882   0.788   3.280 -0.2021 -1.3012 -1.6962
 7691SOL     OW34531   1.970   0.351   1.870  0.4528  0.7132 -0.3968
 7691SOL    HW134532   2.060   0.382   1.872  0.0537  1.6693  2.8188
 7691SOL    HW234533   1.984   0.257   1.880  0.5180  0.6303 -1.3159
 7692SOL     OW34534   3.937   3.023   4.451 -0.1442  0.2037  0.3668
 7692SOL    HW134535   3.976   2.936   4.455 -1.7184 -0.6480 -2.0623
 7692SOL    HW234536   3.963   3.050   4.539  2.6342  1.2314 -0.7603
 7693SOL     OW34537   3.156   3.427  10.785 -0.5453  0.0613  0.0845
 7693SOL    HW134538   3.091   3.454  10.719  0.7376  0.3343 -1.0566
 7693SOL    HW234539   3.232   3.470  10.746 -1.1564  1.0185 -0.0531
 7694SOL     OW34540   1.643   3.248   0.120 -0.0932 -0.1344  0.6018
 7694SOL    HW134541   1.582   3.318   0.141 -0.0822 -0.3813  1.4632
 7694SOL    HW234542   1.710   3.300   0.076  0.1989 -1.5775 -0.6612
 7695SOL     OW34543   3.064   2.794   5.285  0.0514  0.0275  0.2732
 7695SOL    HW134544   3.069   2.874   5.338 -0.7243  0.9887 -1.0912
 7695SOL    HW234545   3.086   2.825   5.197 -0.4353 -0.0743  0.1168
 7696SOL     OW34546   4.203   1.811   2.407 -0.4737  0.2218  0.3067
 7696SOL    HW134547   4.156   1.823   2.325  1.7773 -2.5687 -1.4024
 7696SOL    HW234548   4.140   1.816   2.479 -0.0067 -2.9323  0.9273
 7697SOL     OW34549   1.611   3.945   7.730 -0.4773  0.4316  0.3805
 7697SOL    HW134550   1.689   3.909   7.687 -0.2215  0.5565  0.7400
 7697SOL    HW234551   1.577   3.876   7.786  1.1737 -1.8850 -1.4905
 7698SOL     OW34552   1.340   1.820   7.511  0.2330 -0.6263 -0.1739
 7698SOL    HW134553   1.390   1.853   7.437  0.3878 -0.1389  0.1490
 7698SOL    HW234554   1.282   1.758   7.466 -0.3608  0.1203 -0.4321
 7699SOL     OW34555   0.824   2.830  14.000  0.4530  0.3672  0.1094
 7699SOL    HW134556   0.781   2.892  13.941  0.7797 -0.5443 -1.0908
 7699SOL    HW234557   0.758   2.762  13.994 -0.1353  0.8489  1.1867
 7700SOL     OW34558   3.769   4.194   1.920  0.2278  0.3555 -0.5163
 7700SOL    HW134559   3.814   4.172   1.838  0.7368  2.2834 -0.7790
 7700SOL    HW234560   3.794   4.287   1.915 -0.1297  0.5048  0.5557
 7701SOL     OW34561   3.399   0.933  14.516  0.0427  0.1327  0.0455
 7701SOL    HW134562   3.454   0.967  14.587 -0.5373  0.0513  0.5353
 7701SOL    HW234563   3.329   0.893  14.568  0.0895 -1.0106 -0.7914
 7702SOL     OW34564   4.574   0.566   7.702 -0.2952  0.0380 -0.1966
 7702SOL    HW134565   4.552   0.473   7.697 -0.6502  0.1611 -0.9539
 7702SOL    HW234566   4.628   0.568   7.623 -1.1859  1.4088 -0.7754
 7703SOL     OW34567   1.660   3.788   5.726  0.2687  0.4530 -0.4861
 7703SOL    HW134568   1.598   3.717   5.746  0.6502  0.2724  0.0525
 7703SOL    HW234569   1.653   3.834   5.810  1.4756 -1.8324  0.8994
 7704SOL     OW34570   4.036   3.818   5.932  0.1719  0.0371 -0.1997
 7704SOL    HW134571   4.075   3.885   5.989  3.0352 -0.6921 -1.2675
 7704SOL    HW234572   3.956   3.795   5.979  0.1212  2.5309  0.9359
 7705SOL     OW34573   1.736   2.865   6.728  0.4684  1.0164  0.1761
 7705SOL    HW134574   1.693   2.884   6.812 -0.1444  1.6688 -0.2772
 7705SOL    HW234575   1.682   2.795   6.691  0.1874  0.5637  1.4348
 7706SOL     OW34576   1.811   1.797   1.540  0.1925  0.0254 -0.6496
 7706SOL    HW134577   1.731   1.745   1.550  0.0633  0.5529  1.0825
 7706SOL    HW234578   1.779   1.887   1.538  0.5491  0.1379 -1.4704
 7707SOL     OW34579   1.896   0.704   7.933 -0.4184 -0.0772 -0.2575
 7707SOL    HW134580   1.977   0.657   7.913  0.2127  0.9733 -0.2290
 7707SOL    HW234581   1.858   0.646   7.999  2.0241 -1.4769 -0.1005
 7708SOL     OW34582   3.346   0.075   6.270 -0.1396  0.2192 -0.4836
 7708SOL    HW134583   3.415   0.011   6.254  1.5558  1.6427  1.1879
 7708SOL    HW234584   3.300   0.066   6.187 -1.2437  0.8475  0.0527
 7709SOL     OW34585   4.458   2.787   0.945  0.2259  0.4680 -0.4803
 7709SOL    HW134586   4.531   2.848   0.954  0.4037  0.1873  0.0208
 7709SOL    HW234587   4.485   2.733   0.870 -0.7775  0.9230 -1.1714
 7710SOL     OW34588   1.716   3.036  15.307 -0.3221 -0.0074  0.5769
 7710SOL    HW134589   1.802   3.051  15.346 -0.0326 -0.4262  0.1136
 7710SOL    HW234590   1.733   3.047  15.213 -2.2243  3.5398  0.6314
 7711SOL     OW34591   0.326   1.437   4.260 -0.2542  0.0305  0.2869
 7711SOL    HW134592   0.419   1.450   4.280  0.5420 -2.8247 -1.5696
 7711SOL    HW234593   0.331   1.376   4.186 -0.8346 -0.5281  0.7114
 7712SOL     OW34594   3.857   1.570   1.985  0.2306 -0.0261 -0.4308
 7712SOL    HW134595   3.859   1.640   1.920  0.8149  0.2959 -0.0651
 7712SOL    HW234596   3.919   1.593   2.053 -1.1159  0.1142  0.7468
 7713SOL     OW34597   1.726   3.456  14.899  0.4667 -0.0228 -0.2370
 7713SOL    HW134598   1.702   3.365  14.916 -2.9295  0.5663 -1.8552
 7713SOL    HW234599   1.782   3.454  14.822  2.6833 -0.6199  1.3682
 7714SOL     OW34600   2.211   1.957   9.164  0.0271 -0.0194  0.3244
 7714SOL    HW134601   2.155   1.998   9.230  0.7179 -0.8782  1.4616
 7714SOL    HW234602   2.240   2.039   9.123 -0.9145  0.5626  0.8300
 7715SOL     OW34603   1.270   0.181   3.534 -0.1995 -0.0723  0.7097
 7715SOL    HW134604   1.249   0.091   3.506  0.0779 -0.1530  0.7667
 7715SOL    HW234605   1.351   0.155   3.578  0.0910  0.3115  0.4000
 7716SOL     OW34606   2.042   2.386   2.685 -0.1882  0.7829 -0.5118
 7716SOL    HW134607   1.985   2.463   2.690  0.2286  0.9683  1.2213
 7716SOL    HW234608   2.123   2.428   2.656  0.3512 -1.4180 -2.1645
 7717SOL     OW34609   2.653   0.166   4.337  0.0005  0.1852  0.3134
 7717SOL    HW134610   2.648   0.261   4.351 -1.1972 -0.1041  1.8786
 7717SOL    HW234611   2.651   0.129   4.425 -0.4270 -1.4393 -0.3695
 7718SOL     OW34612   4.245   2.377   7.006 -0.0711 -0.4489 -0.0964
 7718SOL    HW134613   4.158   2.346   7.031 -0.7327  1.7899  0.3608
 7718SOL    HW234614   4.297   2.299   7.025 -1.7643 -1.4203  0.6171
 7719SOL     OW34615   0.262   2.177   3.818 -0.0020 -0.5902  0.3153
 7719SOL    HW134616   0.262   2.260   3.866  1.5617 -0.9916  0.9892
 7719SOL    HW234617   0.346   2.137   3.838 -0.6272 -1.3625  1.3792
 7720SOL     OW34618   2.253   2.763   8.935  0.3855  0.5837 -0.0254
 7720SOL    HW134619   2.175   2.767   8.991  1.3676 -1.8051  1.5098
 7720SOL    HW234620   2.321   2.796   8.993  0.7422  2.0462 -1.2770
 7721SOL     OW34621   2.294   4.447  10.841  0.5187 -0.2615 -0.0904
 7721SOL    HW134622   2.222   4.494  10.883  1.9195  2.5887 -0.8057
 7721SOL    HW234623   2.301   4.372  10.900  3.0100  1.3832  1.7282
 7722SOL     OW34624   0.132   0.433  12.884  0.3130  0.7783 -0.4469
 7722SOL    HW134625   0.053   0.414  12.835  1.5146 -1.4510 -1.5355
 7722SOL    HW234626   0.202   0.405  12.824 -0.2779 -1.7810  0.0822
 7723SOL     OW34627   0.265   2.945   0.408  0.3867 -0.2073 -0.1873
 7723SOL    HW134628   0.254   2.902   0.492 -0.4348 -0.5807 -0.4885
 7723SOL    HW234629   0.226   2.872   0.360  1.5056 -0.0734 -1.3162
 7724SOL     OW34630   4.096   4.181  10.567  0.6614 -0.0977  0.4680
 7724SOL    HW134631   4.172   4.182  10.625  1.2642  2.9771 -0.3620
 7724SOL    HW234632   4.023   4.167  10.627 -1.1879  1.5965 -1.4043
 7725SOL     OW34633   1.435   1.233   5.526  0.2301 -0.1538  0.3198
 7725SOL    HW134634   1.452   1.143   5.556  1.6263 -0.6585 -1.9490
 7725SOL    HW234635   1.519   1.247   5.482  0.2989  2.5829  1.3660
 7726SOL     OW34636   2.601   4.572   6.953 -0.3762  0.1706  0.2496
 7726SOL    HW134637   2.643   4.548   6.871  2.7199 -1.5009  2.3340
 7726SOL    HW234638   2.512   4.541   6.937 -1.0674  0.2917  3.6919
 7727SOL     OW34639   1.738   2.093   9.297 -0.2792 -0.1184  0.5296
 7727SOL    HW134640   1.734   1.998   9.310 -3.4746 -0.1424 -0.6026
 7727SOL    HW234641   1.655   2.122   9.335 -0.9904 -3.2272  1.3355
 7728SOL     OW34642   0.554   1.089   5.087  0.5985  0.1380  0.4429
 7728SOL    HW134643   0.541   1.006   5.042  1.3410  1.1293 -1.6122
 7728SOL    HW234644   0.648   1.070   5.094  1.1070  1.7718 -2.0279
 7729SOL     OW34645   2.451   2.068   4.217  0.4085 -0.1706 -0.3278
 7729SOL    HW134646   2.436   2.061   4.123  0.0415 -0.6603 -0.2354
 7729SOL    HW234647   2.424   1.981   4.246  0.1436  0.0639  0.1523
 7730SOL     OW34648   1.154   1.961   4.106 -0.2438  0.0078 -0.2496
 7730SOL    HW134649   1.240   1.962   4.065 -0.0445  0.4618  0.1739
 7730SOL    HW234650   1.102   1.908   4.045  0.8900  0.2949 -1.4407
 7731SOL     OW34651   0.437   1.355  13.850  0.0026 -0.0915  0.1465
 7731SOL    HW134652   0.387   1.337  13.929 -1.6040 -0.8186 -1.0480
 7731SOL    HW234653   0.515   1.407  13.871  1.6092 -2.5789  0.3812
 7732SOL     OW34654   3.929   0.524  15.914  0.5552  0.0239  0.0732
 7732SOL    HW134655   3.998   0.586  15.889  1.0723 -0.0944  1.2134
 7732SOL    HW234656   3.851   0.580  15.911  2.0598  2.0225 -2.3058
 7733SOL     OW34657   3.525   2.915   5.185 -0.4983  0.2347 -0.0636
 7733SOL    HW134658   3.559   3.005   5.187  3.3365 -1.1151 -3.0088
 7733SOL    HW234659   3.576   2.881   5.258 -1.8170 -2.0553 -0.2262
 7734SOL     OW34660   4.691   0.746   6.387 -0.5261 -0.1417  0.6993
 7734SOL    HW134661   0.030   0.689   6.344  0.1599  0.6924  0.5868
 7734SOL    HW234662   4.696   0.715   6.478  0.7699  2.6597  1.6030
 7735SOL     OW34663   1.043   2.718   8.359  0.2631  0.0649 -0.5329
 7735SOL    HW134664   0.962   2.759   8.390  0.4135  0.1959 -0.3109
 7735SOL    HW234665   1.004   2.667   8.289  0.2843 -0.4687 -0.1532
 7736SOL     OW34666   0.191   2.083  10.061 -0.2130 -0.5020  0.4257
 7736SOL    HW134667   0.125   2.055  10.124 -1.8337 -0.2883 -1.1843
 7736SOL    HW234668   0.210   2.000  10.017  2.3546  0.2891  0.0221
 7737SOL     OW34669   2.304   4.505   1.259 -0.1589  0.1441 -0.3824
 7737SOL    HW134670   2.218   4.533   1.291 -0.6150 -0.9354 -0.6413
 7737SOL    HW234671   2.282   4.413   1.245  3.6213 -0.8575  0.5312
 7738SOL     OW34672   4.536   0.161   3.768  0.6275 -0.8023 -0.5961
 7738SOL    HW134673   4.563   0.189   3.855 -1.7344 -0.3921 -0.0014
 7738SOL    HW234674   4.447   0.129   3.780  0.3181  0.4156  0.2470
 7739SOL     OW34675   0.738   0.563   0.469  0.5735  0.2749  0.3414
 7739SOL    HW134676   0.793   0.500   0.516  0.0692 -1.6063 -1.5927
 7739SOL    HW234677   0.747   0.638   0.527  1.6070 -0.3258  0.9508
 7740SOL     OW34678   3.900   2.167   4.151 -0.1767 -0.8005  0.0278
 7740SOL    HW134679   3.861   2.084   4.123 -1.3963 -0.8026  1.7295
 7740SOL    HW234680   3.983   2.131   4.182 -0.1792  1.2044  2.3238
 7741SOL     OW34681   1.988   1.400   7.467 -0.1732 -0.3138 -0.2214
 7741SOL    HW134682   1.928   1.358   7.405  0.2480 -0.8149 -0.2840
 7741SOL    HW234683   1.930   1.471   7.496 -0.7292 -0.9583  0.2292
 7742SOL     OW34684   4.498   4.360   7.497  0.1063 -0.0607  0.0876
 7742SOL    HW134685   4.562   4.292   7.518  0.0713  0.2438  1.2105
 7742SOL    HW234686   4.546   4.426   7.448  0.9094  0.5039  1.6245
 7743SOL     OW34687   1.454   0.954   6.366  0.0308 -0.2365 -0.3284
 7743SOL    HW134688   1.454   0.865   6.401 -1.6997  0.5060  1.5738
 7743SOL    HW234689   1.410   1.008   6.432 -0.0235 -0.7729  0.0718
 7744SOL     OW34690   1.583   2.877   4.134 -0.2283 -0.5467 -0.6322
 7744SOL    HW134691   1.495   2.879   4.097  0.1113  0.8050 -1.3745
 7744SOL    HW234692   1.580   2.791   4.175 -0.1871  0.2252  0.9689
 7745SOL     OW34693   0.627   4.232  16.384 -0.1409  0.1241  0.0993
 7745SOL    HW134694   0.696   4.165  16.376 -0.7143 -0.4505 -0.0384
 7745SOL    HW234695   0.684   4.298  16.423 -1.8830  0.0974  2.7323
 7746SOL     OW34696   3.331   1.555   5.875 -0.0812 -0.3817 -0.0632
 7746SOL    HW134697   3.364   1.485   5.932 -0.3103 -0.2313  0.2506
 7746SOL    HW234698   3.248   1.520   5.843 -0.8847  2.9978 -1.6172
 7747SOL     OW34699   1.149   4.133   3.326  0.1318  0.1513  0.0016
 7747SOL    HW134700   1.183   4.082   3.400  0.0531  1.2498  0.7911
 7747SOL    HW234701   1.173   4.067   3.261 -0.7840 -0.8026  0.6262
 7748SOL     OW34702   0.065   1.656   6.108  0.0674 -0.2421  0.0206
 7748SOL    HW134703   0.159   1.645   6.098  0.0405  1.6444 -2.3782
 7748SOL    HW234704   0.051   1.562   6.100  0.4571 -0.1857 -1.2555
 7749SOL     OW34705   0.843   4.515  13.504 -0.3852 -0.3916  0.0053
 7749SOL    HW134706   0.765   4.498  13.557  0.2993 -1.0694  0.7958
 7749SOL    HW234707   0.815   4.559  13.424 -1.3695 -0.6312  0.2219
 7750SOL     OW34708   2.627   1.217  15.224  0.5450  0.1264  0.0520
 7750SOL    HW134709   2.642   1.272  15.147  0.2751 -0.6014 -0.5182
 7750SOL    HW234710   2.688   1.253  15.290  2.3276 -0.7777 -1.0964
 7751SOL     OW34711   2.130   0.838   0.347 -0.3546 -0.7261  0.2563
 7751SOL    HW134712   2.150   0.803   0.260  0.4830  0.1716  0.0884
 7751SOL    HW234713   2.183   0.777   0.399  2.0409  1.8031  0.8239
 7752SOL     OW34714   1.115   0.990   1.414 -0.0095 -0.1527 -0.1872
 7752SOL    HW134715   1.141   0.999   1.323 -0.0774 -2.5400 -0.4280
 7752SOL    HW234716   1.026   1.026   1.419  0.2694  0.5062  0.1367
 7753SOL     OW34717   2.393   3.424  11.512 -0.1708 -0.0252  0.6033
 7753SOL    HW134718   2.372   3.342  11.466 -1.6641 -0.2360  1.6760
 7753SOL    HW234719   2.316   3.478  11.495  1.1072  1.7057  0.3001
 7754SOL     OW34720   0.257   0.444  10.827 -0.5349  0.2205  0.3351
 7754SOL    HW134721   0.303   0.417  10.907 -0.3014 -1.3958 -0.3402
 7754SOL    HW234722   0.232   0.355  10.804 -0.8020  0.0757  1.1625
 7755SOL     OW34723   2.588   4.550   1.744  0.1105 -0.0156 -0.0597
 7755SOL    HW134724   2.554   4.478   1.692 -1.7627  0.7362  0.1278
 7755SOL    HW234725   2.621   4.600   1.669 -0.6381 -2.7503 -2.1767
 7756SOL     OW34726   1.731   0.037   3.883 -0.0506 -0.1401 -0.4151
 7756SOL    HW134727   1.787   4.685   3.900 -1.3326 -0.7972  0.8589
 7756SOL    HW234728   1.672   0.029   3.958  1.9951 -0.1678  1.1885
 7757SOL     OW34729   3.831   2.381   3.959 -0.6557 -0.4611 -0.4797
 7757SOL    HW134730   3.853   2.469   3.990  2.9924 -1.4443 -0.2365
 7757SOL    HW234731   3.855   2.325   4.033 -2.3127 -1.2162 -0.5170
 7758SOL     OW34732   2.403   0.220   8.415  0.1565 -0.0477  0.0538
 7758SOL    HW134733   2.414   0.126   8.399  2.3308  0.0231  1.1450
 7758SOL    HW234734   2.398   0.244   8.322 -1.2517  0.6407  0.3158
 7759SOL     OW34735   1.784   4.283   6.968  0.0516 -0.3429 -0.1610
 7759SOL    HW134736   1.869   4.324   6.953 -0.0750 -0.0703 -0.1166
 7759SOL    HW234737   1.790   4.282   7.063 -0.5183  0.2926 -0.1231
 7760SOL     OW34738   4.569   4.451   6.174  0.0337  0.1237 -0.4618
 7760SOL    HW134739   4.520   4.375   6.206 -0.8031  0.2607 -1.4085
 7760SOL    HW234740   4.487   4.498   6.157 -0.6141 -0.8820 -0.1668
 7761SOL     OW34741   2.683   0.868   4.033  0.2796 -0.1288  0.0969
 7761SOL    HW134742   2.646   0.814   4.104 -1.2318 -1.6715 -1.8559
 7761SOL    HW234743   2.747   0.807   3.998  0.5961 -0.9248  2.0659
 7762SOL     OW34744   4.077   2.946   1.895  0.5643  0.1775  0.3194
 7762SOL    HW134745   4.158   2.995   1.883  1.8720 -1.6304  1.7189
 7762SOL    HW234746   4.033   3.017   1.943 -0.1520  0.1898 -0.3619
 7763SOL     OW34747   1.822   2.680  12.814 -0.3418  0.0186 -0.0052
 7763SOL    HW134748   1.760   2.743  12.777  0.2431  0.0694 -0.9158
 7763SOL    HW234749   1.756   2.623  12.856 -0.2615 -0.8867 -1.0954
 7764SOL     OW34750   3.065   1.496  16.952 -0.2590 -0.1091  0.2902
 7764SOL    HW134751   3.141   1.511  16.895 -1.9291  1.7501 -1.4430
 7764SOL    HW234752   2.994   1.517  16.891 -0.3417 -0.9930  0.0876
 7765SOL     OW34753   3.171   3.829   2.480 -0.3007 -0.3202 -0.3267
 7765SOL    HW134754   3.104   3.872   2.533 -0.3800  0.3194 -0.9397
 7765SOL    HW234755   3.114   3.768   2.435 -0.6889  0.1918 -0.5340
 7766SOL     OW34756   0.424   0.275   7.765 -0.1081  0.2564 -0.0438
 7766SOL    HW134757   0.492   0.212   7.789  0.0222  1.4916  2.8333
 7766SOL    HW234758   0.427   0.339   7.836 -1.9191  1.7250 -1.3133
 7767SOL     OW34759   2.791   3.912   8.009 -0.1805 -0.3852  0.3854
 7767SOL    HW134760   2.848   3.845   7.972 -0.6206  0.1993 -1.3538
 7767SOL    HW234761   2.810   3.906   8.103 -0.1814  1.0080  0.4681
 7768SOL     OW34762   0.689   2.298   8.989 -0.5287 -0.2821  0.3311
 7768SOL    HW134763   0.706   2.371   9.048 -0.3259 -1.8754  2.2316
 7768SOL    HW234764   0.781   2.289   8.962 -0.1501  0.8572  1.2308
 7769SOL     OW34765   3.363   2.747   6.789  0.2960  0.6336  0.2495
 7769SOL    HW134766   3.374   2.653   6.772 -3.4076  0.0915  1.0261
 7769SOL    HW234767   3.358   2.786   6.701  1.2329  1.6051  0.6278
 7770SOL     OW34768   3.344   3.186  15.855 -0.2553  0.0656  0.3141
 7770SOL    HW134769   3.433   3.157  15.834 -0.9352 -1.8432  0.1101
 7770SOL    HW234770   3.338   3.260  15.794 -2.3296 -2.0735 -2.0968
 7771SOL     OW34771   3.256   3.816   1.977 -0.2844  0.2610  0.2786
 7771SOL    HW134772   3.312   3.853   2.045 -0.4028 -1.9696  1.6202
 7771SOL    HW234773   3.315   3.744   1.956 -0.5524  0.8498 -2.4165
 7772SOL     OW34774   0.634   2.266  16.961 -0.2455 -0.2648 -0.1827
 7772SOL    HW134775   0.664   2.274  16.870 -1.1258 -0.1144 -0.4615
 7772SOL    HW234776   0.641   2.172  16.974  2.5321 -0.2424 -1.5648
 7773SOL     OW34777   3.491   3.266   7.565 -0.2717  0.2289 -0.6194
 7773SOL    HW134778   3.519   3.228   7.649  1.0845 -1.0307 -1.6540
 7773SOL    HW234779   3.395   3.258   7.569 -0.0781 -1.3055  1.2986
 7774SOL     OW34780   1.847   4.588  11.033 -0.2665 -0.2908  0.3416
 7774SOL    HW134781   1.809   4.501  11.040 -0.7103 -0.0343  1.1493
 7774SOL    HW234782   1.785   4.645  11.079  0.1112  1.6538 -1.5796
 7775SOL     OW34783   3.506   0.071  12.123 -0.1423 -0.0560 -0.1141
 7775SOL    HW134784   3.435   0.135  12.124  2.2752  2.6507 -0.0210
 7775SOL    HW234785   3.480   4.723  12.181  0.9518  1.5151  2.3662
 7776SOL     OW34786   1.864   1.563   1.724  0.2935 -0.6187  0.0968
 7776SOL    HW134787   1.848   1.649   1.763  1.0970 -0.8274  0.9003
 7776SOL    HW234788   1.845   1.501   1.795  0.1673  1.4290  1.8500
 7777SOL     OW34789   4.347   4.170   8.878  0.3134  0.3316  0.0103
 7777SOL    HW134790   4.345   4.146   8.970  0.7032 -0.9467 -0.3071
 7777SOL    HW234791   4.351   4.265   8.885 -1.6284  0.4736 -0.7503
 7778SOL     OW34792   3.844   3.826   1.111  0.1536 -0.0510  0.1578
 7778SOL    HW134793   3.831   3.737   1.142 -3.4853  0.1993 -0.7323
 7778SOL    HW234794   3.934   3.816   1.079  0.0741  0.7080 -0.2861
 7779SOL     OW34795   2.302   0.850  10.650  0.3445  0.6602  0.3592
 7779SOL    HW134796   2.226   0.795  10.668  0.1976  1.0872  1.0750
 7779SOL    HW234797   2.323   0.834  10.558 -3.0673 -1.1591 -0.1107
 7780SOL     OW34798   0.949   1.634  13.878 -0.0684 -0.3973 -0.4005
 7780SOL    HW134799   1.002   1.681  13.942  0.3914  0.3452 -1.3349
 7780SOL    HW234800   1.015   1.624  13.810 -0.0966  0.1160 -0.5007
 7781SOL     OW34801   4.334   4.680   4.607 -0.2112 -0.2314 -0.1200
 7781SOL    HW134802   4.407   4.620   4.589  0.3773  0.6010 -0.5075
 7781SOL    HW234803   4.309   4.662   4.698  3.6459 -0.5768  0.8992
 7782SOL     OW34804   4.637   2.597   2.568 -0.3043 -0.2620 -0.2131
 7782SOL    HW134805   4.674   2.679   2.601  0.4379 -1.4895  1.9757
 7782SOL    HW234806   4.645   2.607   2.473 -0.4088 -1.9435 -0.3966
 7783SOL     OW34807   2.765   1.039   4.248  0.5479 -0.0141 -0.3630
 7783SOL    HW134808   2.732   1.013   4.162  1.1781  1.1087 -0.9462
 7783SOL    HW234809   2.700   0.993   4.301  1.4230 -0.2862  0.4822
 7784SOL     OW34810   0.044   3.868   2.093  0.6237  0.0847  0.0948
 7784SOL    HW134811   0.116   3.832   2.144  0.6838 -2.5636 -1.8522
 7784SOL    HW234812   0.049   3.953   2.135 -1.7709  0.1270  0.3146
 7785SOL     OW34813   0.151   4.447   6.598 -0.1234 -0.0383 -0.6304
 7785SOL    HW134814   0.192   4.366   6.568  2.6278  0.7635  0.9744
 7785SOL    HW234815   0.115   4.468   6.512  0.3792  3.4930  0.0073
 7786SOL     OW34816   0.861   2.410  12.318 -0.2634 -0.7445 -0.0903
 7786SOL    HW134817   0.898   2.352  12.252 -0.8105 -0.7362 -0.4076
 7786SOL    HW234818   0.823   2.483  12.270  0.6622  1.6756  2.8076
 7787SOL     OW34819   0.297   3.103   0.785 -0.2498 -0.0993 -0.4967
 7787SOL    HW134820   0.241   3.044   0.735 -0.5395  0.6796 -1.0950
 7787SOL    HW234821   0.274   3.185   0.740  2.0560  2.1835  2.5143
 7788SOL     OW34822   4.006   2.860  15.685  0.0249  0.5537 -0.4467
 7788SOL    HW134823   4.020   2.878  15.592 -1.4597 -3.2988 -1.3962
 7788SOL    HW234824   4.083   2.906  15.719  0.6607 -1.3010  0.5832
 7789SOL     OW34825   3.538   2.831   0.419 -0.2785 -0.2639 -0.1864
 7789SOL    HW134826   3.623   2.809   0.457 -0.9976 -0.1790  1.4864
 7789SOL    HW234827   3.527   2.926   0.428  2.6352  0.0277  0.0839
 7790SOL     OW34828   4.616   2.694  11.679  0.1709 -0.4596 -0.0371
 7790SOL    HW134829   4.636   2.634  11.751 -0.0825 -2.0693 -1.3109
 7790SOL    HW234830   4.655   2.639  11.610  0.1220 -0.7969  0.2050
 7791SOL     OW34831   0.492   1.732   2.532 -0.1889  0.3768 -0.0268
 7791SOL    HW134832   0.582   1.700   2.537 -1.2644 -2.9152 -1.8048
 7791SOL    HW234833   0.490   1.746   2.437 -2.6906 -3.1967 -0.5036
 7792SOL     OW34834   3.643   0.722   2.594 -0.5554  0.2261 -0.0429
 7792SOL    HW134835   3.641   0.729   2.498  0.5909  0.7066 -0.0247
 7792SOL    HW234836   3.605   0.809   2.608 -1.4675 -0.2469  0.4633
 7793SOL     OW34837   2.267   3.898  14.503 -0.1707 -0.2949  0.3132
 7793SOL    HW134838   2.224   3.970  14.548  1.0123  0.2302  0.6021
 7793SOL    HW234839   2.241   3.921  14.413 -0.0095 -0.3332  0.2559
 7794SOL     OW34840   3.756   2.941  13.587 -0.1284 -0.7467  0.2450
 7794SOL    HW134841   3.788   2.874  13.647  2.2579  1.7718  1.7956
 7794SOL    HW234842   3.832   2.999  13.580 -0.8687  0.2912  0.8534
 7795SOL     OW34843   1.558   3.520   7.205  0.0410  0.7018 -0.4693
 7795SOL    HW134844   1.464   3.529   7.194 -0.0913 -0.9591 -0.6447
 7795SOL    HW234845   1.577   3.471   7.125  0.8124  1.6579 -0.8835
 7796SOL     OW34846   1.351   1.101  15.951  0.1287  0.9535  0.2241
 7796SOL    HW134847   1.420   1.166  15.939  0.0753  0.8849 -0.4312
 7796SOL    HW234848   1.297   1.138  15.881 -0.1477  2.1544  1.0636
 7797SOL     OW34849   3.451   4.203  16.856  0.1874  0.3716 -0.1545
 7797SOL    HW134850   3.476   4.235  16.770 -1.5872  1.3329 -0.3209
 7797SOL    HW234851   3.370   4.156  16.837  0.8870 -1.5142  1.4902
 7798SOL     OW34852   2.923   1.990   4.714 -0.3255 -0.4101  0.3067
 7798SOL    HW134853   2.901   1.914   4.768  2.4282 -0.9143  0.7291
 7798SOL    HW234854   2.840   2.038   4.712  0.2105  0.6792  3.0898
 7799SOL     OW34855   0.107   2.602   8.478  0.0623 -0.3153  0.5966
 7799SOL    HW134856   0.052   2.669   8.518 -0.6198  0.0762 -0.9913
 7799SOL    HW234857   0.143   2.558   8.556 -0.2909 -0.2676  0.7839
 7800SOL     OW34858   4.300   0.638  12.105  0.5663 -0.2436  0.4050
 7800SOL    HW134859   4.223   0.686  12.074  0.2989 -0.2144  1.1257
 7800SOL    HW234860   4.263   0.551  12.115 -0.5586  0.0994 -0.6934
 7801SOL     OW34861   3.785   1.969   1.358  0.0233  0.3105 -0.7642
 7801SOL    HW134862   3.839   2.032   1.405 -1.6257  1.1710 -0.0171
 7801SOL    HW234863   3.705   1.969   1.410  0.1274  0.9506 -0.6007
 7802SOL     OW34864   4.646   1.280   3.991  0.2452  0.7919  0.4940
 7802SOL    HW134865   0.001   1.255   3.942 -1.5543  0.1844 -2.0948
 7802SOL    HW234866   4.657   1.239   4.077  0.9988 -2.3370 -1.0730
 7803SOL     OW34867   0.901   1.016   6.698  0.8680 -0.6164  0.0496
 7803SOL    HW134868   0.887   0.969   6.615 -2.0399  0.0430  0.1793
 7803SOL    HW234869   0.821   1.069   6.694  0.9616 -0.5097 -0.4556
 7804SOL     OW34870   3.394   2.939  17.423 -0.3377  0.3130 -0.3439
 7804SOL    HW134871   3.339   2.991  17.481  2.1533  1.0412  1.3500
 7804SOL    HW234872   3.425   2.866  17.478  0.7583  0.8111 -0.3047
 7805SOL     OW34873   2.741   2.576   5.638 -0.4713  0.4134  0.0767
 7805SOL    HW134874   2.660   2.526   5.635  0.4562 -0.9667 -1.7393
 7805SOL    HW234875   2.757   2.587   5.544 -2.0568 -0.3271 -0.2742
 7806SOL     OW34876   0.588   3.564   7.699 -0.7878  0.3806  0.1564
 7806SOL    HW134877   0.637   3.523   7.770  0.2280 -1.7588 -1.7554
 7806SOL    HW234878   0.523   3.608   7.753 -1.4421 -0.3661 -0.0165
 7807SOL     OW34879   4.286   3.696   9.821  0.2758  0.1216  0.4334
 7807SOL    HW134880   4.242   3.770   9.862 -1.2548 -2.2191  3.1023
 7807SOL    HW234881   4.311   3.737   9.739  0.6186 -2.7169 -0.8750
 7808SOL     OW34882   1.846   1.074   1.128  0.3126  0.5267  0.3129
 7808SOL    HW134883   1.756   1.045   1.141  0.6426 -0.6979 -0.1689
 7808SOL    HW234884   1.894   0.992   1.137  1.0375  0.8696 -0.3883
 7809SOL     OW34885   3.121   3.888   5.390  0.0211  0.2551 -0.4063
 7809SOL    HW134886   3.042   3.908   5.340  0.7290 -0.5162 -1.8336
 7809SOL    HW234887   3.187   3.877   5.321  0.3581 -1.5410  0.2047
 7810SOL     OW34888   2.029   0.880  11.023 -0.4873 -0.3352 -0.3167
 7810SOL    HW134889   1.935   0.875  11.006 -0.2251  0.6066 -2.0194
 7810SOL    HW234890   2.027   0.899  11.117  0.8709  2.4614 -0.8605
 7811SOL     OW34891   2.931   0.972  10.927  0.6740  0.3353 -0.0303
 7811SOL    HW134892   2.917   0.880  10.905  1.6670  0.2627 -0.3677
 7811SOL    HW234893   2.893   0.984  11.013 -0.1956  0.9100 -0.4984
 7812SOL     OW34894   3.462   2.714   5.016  0.1779 -0.0558 -0.6337
 7812SOL    HW134895   3.538   2.720   4.958 -0.4315 -0.8961 -1.5315
 7812SOL    HW234896   3.499   2.776   5.078  0.0299 -1.3684  0.7645
 7813SOL     OW34897   1.985   4.402   8.767  0.5646 -0.3509  0.3992
 7813SOL    HW134898   1.941   4.323   8.799  0.7258 -0.7819 -0.4282
 7813SOL    HW234899   1.923   4.471   8.788 -0.8314 -1.1821 -1.0125
 7814SOL     OW34900   4.404   2.216   2.108  0.3890  0.0219 -0.0516
 7814SOL    HW134901   4.432   2.237   2.197 -2.5161 -1.5982  1.2500
 7814SOL    HW234902   4.351   2.293   2.087 -0.7350 -1.1560 -1.5485
 7815SOL     OW34903   1.034   4.411  12.224  0.2385  0.1538  0.0930
 7815SOL    HW134904   0.939   4.420  12.229  0.0828 -0.5793 -1.3759
 7815SOL    HW234905   1.050   4.338  12.284  0.0219 -0.5277 -0.6637
 7816SOL     OW34906   2.658   3.465   8.265  0.2687  0.1522  0.1701
 7816SOL    HW134907   2.601   3.462   8.341 -1.6084  0.9843 -1.2089
 7816SOL    HW234908   2.681   3.373   8.248  4.8367  1.3173  0.1043
 7817SOL     OW34909   2.551   3.952   8.216  0.7423 -0.4168  0.4305
 7817SOL    HW134910   2.477   3.911   8.171  0.0662  0.3635  0.8345
 7817SOL    HW234911   2.581   4.003   8.140  0.2357 -2.1853 -0.9577
 7818SOL     OW34912   2.085   0.609   3.990  0.0252  0.5670 -0.2122
 7818SOL    HW134913   2.058   0.544   3.926  1.3997 -2.4880  2.3427
 7818SOL    HW234914   2.180   0.611   3.974  0.1902  1.1338  0.8205
 7819SOL     OW34915   1.737   2.339   4.388  0.2633  0.0564  0.0481
 7819SOL    HW134916   1.670   2.345   4.455  0.0019  0.1105 -0.2171
 7819SOL    HW234917   1.799   2.401   4.427  1.6226 -0.0908 -1.8589
 7820SOL     OW34918   2.775   0.513  12.665 -0.5808 -0.3944  0.0537
 7820SOL    HW134919   2.705   0.454  12.635 -3.1741  1.8501  1.7014
 7820SOL    HW234920   2.717   0.580  12.701 -0.0909  0.1664 -0.2080
 7821SOL     OW34921   2.625   3.422   8.760  0.1786 -0.0470 -0.2909
 7821SOL    HW134922   2.554   3.359   8.766 -0.3761  0.7997  2.0192
 7821SOL    HW234923   2.694   3.372   8.804 -1.0652 -0.9390  0.6373
 7822SOL     OW34924   3.223   1.980   3.434 -0.0366  0.2426  0.3319
 7822SOL    HW134925   3.312   1.966   3.466 -0.7306 -0.6623  1.8601
 7822SOL    HW234926   3.191   2.060   3.475 -0.9991 -1.6823  3.2846
 7823SOL     OW34927   1.731   1.380   2.722  0.2617 -0.0534 -0.9316
 7823SOL    HW134928   1.792   1.309   2.701 -0.2062 -0.4598 -0.9253
 7823SOL    HW234929   1.748   1.441   2.650  0.6139  0.4001 -0.4629
 7824SOL     OW34930   0.933   3.398  14.650 -0.2718  0.5564  0.1508
 7824SOL    HW134931   0.957   3.490  14.662 -1.1906  0.9087 -0.7561
 7824SOL    HW234932   0.875   3.389  14.726  0.2001  2.9965  0.7850
 7825SOL     OW34933   1.498   0.330   1.822  0.1624  0.2522  0.2349
 7825SOL    HW134934   1.523   0.239   1.837 -2.1225 -0.3586  0.3167
 7825SOL    HW234935   1.578   0.373   1.790  1.0283 -1.1031  0.5945
 7826SOL     OW34936   3.438   1.114   3.219  0.6706 -0.2930  0.4297
 7826SOL    HW134937   3.445   1.128   3.124  0.5523  3.7657  1.0117
 7826SOL    HW234938   3.518   1.157   3.250  0.5785  0.1670  0.0467
 7827SOL     OW34939   4.034   2.806   3.605  0.5417  0.0626  0.0100
 7827SOL    HW134940   3.952   2.838   3.567  0.1730 -2.0822 -1.0685
 7827SOL    HW234941   4.046   2.723   3.558  0.0200 -0.5770  1.0172
 7828SOL     OW34942   0.971   2.251   9.231 -0.3116  0.1373 -0.0753
 7828SOL    HW134943   1.003   2.336   9.262  1.5833 -1.2588  1.8498
 7828SOL    HW234944   1.045   2.197   9.258  1.1362  1.6365 -0.9882
 7829SOL     OW34945   0.660   4.531   6.207  0.2360  0.1948 -0.0526
 7829SOL    HW134946   0.701   4.616   6.192  1.0527 -0.4987 -1.7059
 7829SOL    HW234947   0.733   4.483   6.167  1.1615 -0.7285  2.7297
 7830SOL     OW34948   2.156   0.675  13.961  0.5387 -0.4443  0.0570
 7830SOL    HW134949   2.149   0.644  13.871  1.6599 -0.5189 -0.0110
 7830SOL    HW234950   2.193   0.763  13.951  1.9852 -1.0214  0.2757
 7831SOL     OW34951   0.287   3.565   5.531  0.6718  0.1411 -0.2312
 7831SOL    HW134952   0.240   3.631   5.582  0.9397 -0.1253  0.3582
 7831SOL    HW234953   0.347   3.625   5.486  0.2691  1.2348  0.6882
 7832SOL     OW34954   3.479   1.740   0.817 -0.4142 -0.1433  0.0593
 7832SOL    HW134955   3.403   1.798   0.822 -1.0142 -1.0547  1.4542
 7832SOL    HW234956   3.542   1.804   0.851 -0.0279  0.5380 -1.9239
 7833SOL     OW34957   3.549   2.491   0.242  0.0617 -0.5117 -1.0441
 7833SOL    HW134958   3.517   2.471   0.330  1.4857  1.1087 -0.1318
 7833SOL    HW234959   3.488   2.458   0.177  0.0041 -2.1523 -0.1497
 7834SOL     OW34960   1.788   4.693   2.530  0.2432 -0.0371 -0.6907
 7834SOL    HW134961   1.857   0.008   2.477  0.4597  1.2225  0.5251
 7834SOL    HW234962   1.757   4.619   2.477 -2.3049 -1.7580  3.1588
 7835SOL     OW34963   2.732   1.202   3.393 -0.0020  0.9188  0.0914
 7835SOL    HW134964   2.716   1.270   3.458  0.5444  0.3324  0.8355
 7835SOL    HW234965   2.825   1.223   3.386  0.5060 -2.6692 -4.0780
 7836SOL     OW34966   2.662   1.856  17.497 -0.0954 -0.8423 -0.6977
 7836SOL    HW134967   2.609   1.789  17.541 -1.3898  0.4647 -0.2665
 7836SOL    HW234968   2.631   1.825  17.412  2.1906 -0.3210 -1.7052
 7837SOL     OW34969   1.922   0.721   3.092 -0.0450 -0.7731 -1.3290
 7837SOL    HW134970   1.972   0.680   3.162  0.4320 -0.6552 -1.5970
 7837SOL    HW234971   1.853   0.766   3.140 -0.1301 -0.9950 -1.2444
 7838SOL     OW34972   4.130   4.533   7.679 -0.0524 -0.1076 -0.2502
 7838SOL    HW134973   4.113   4.499   7.592 -0.0680  1.6491 -0.9381
 7838SOL    HW234974   4.210   4.486   7.703 -0.3554  0.8209  2.6116
 7839SOL     OW34975   0.502   4.333  14.442  0.4115  0.3303  0.0045
 7839SOL    HW134976   0.528   4.355  14.531  1.4760  1.7734 -0.6513
 7839SOL    HW234977   0.505   4.238  14.449  0.6472  0.4772  1.8264
 7840SOL     OW34978   1.694   4.204  10.230 -0.3070 -0.2309  0.6276
 7840SOL    HW134979   1.700   4.151  10.150  1.0394  0.8587 -0.0046
 7840SOL    HW234980   1.601   4.224  10.218 -0.3683 -2.0500 -1.9306
 7841SOL     OW34981   3.649   1.131   7.594  0.1674  0.1872  0.8893
 7841SOL    HW134982   3.614   1.047   7.564 -0.7045  0.2909  1.6090
 7841SOL    HW234983   3.572   1.146   7.649  0.5722 -1.1552  1.8432
 7842SOL     OW34984   0.738   4.619  12.017 -0.2057  0.0365  0.1308
 7842SOL    HW134985   0.829   4.601  11.995 -0.3881 -0.3422 -0.3120
 7842SOL    HW234986   0.725   4.559  12.090 -1.1753 -0.1364 -0.1859
 7843SOL     OW34987   3.874   0.983  17.225 -0.7452 -0.6232 -0.5022
 7843SOL    HW134988   3.830   0.898  17.226 -0.2885 -0.8527 -0.3291
 7843SOL    HW234989   3.907   0.975  17.136 -1.5233 -0.2274 -0.8310
 7844SOL     OW34990   1.997   0.006   3.554 -0.6710  0.3850 -0.0575
 7844SOL    HW134991   1.981   0.014   3.460  0.5626 -0.4602 -0.3461
 7844SOL    HW234992   1.978   4.637   3.560 -1.4969  0.6695  1.7508
 7845SOL     OW34993   4.046   3.007   5.022  0.0452  0.1848  0.1996
 7845SOL    HW134994   4.024   2.925   5.067 -1.5233 -0.0840 -1.0600
 7845SOL    HW234995   4.135   2.993   4.990 -0.2531  1.2108 -1.1007
 7846SOL     OW34996   2.709   0.771   6.954 -0.0388  0.0254 -0.3890
 7846SOL    HW134997   2.638   0.710   6.976  1.9463 -2.3218 -0.5254
 7846SOL    HW234998   2.743   0.787   7.042 -0.8285  0.2914 -0.1278
 7847SOL     OW34999   4.259   4.366   7.174  0.1579 -0.1476  0.4887
 7847SOL    HW135000   4.259   4.272   7.155 -1.1057 -0.3298  1.4127
 7847SOL    HW235001   4.338   4.401   7.132 -0.9848  1.0645 -0.6422
 7848SOL     OW35002   3.272   2.092   9.318  1.1578 -0.2356  0.0373
 7848SOL    HW135003   3.323   2.171   9.336 -0.5207  0.0843  3.5586
 7848SOL    HW235004   3.279   2.055   9.406  1.7657  0.5938  0.3362
 7849SOL     OW35005   1.131   1.437   7.459 -0.5497 -0.5656  0.1470
 7849SOL    HW135006   1.115   1.526   7.427 -0.5065 -0.4386  0.4765
 7849SOL    HW235007   1.086   1.450   7.542 -1.1249  2.7669 -0.6982
 7850SOL     OW35008   3.286   1.763   9.165  0.0774 -0.0308  0.7597
 7850SOL    HW135009   3.205   1.730   9.204 -0.0324 -0.4212  0.2018
 7850SOL    HW235010   3.249   1.834   9.113  0.1902 -0.1037  0.5806
 7851SOL     OW35011   2.566   2.300  10.457  0.1432  0.3709  0.1706
 7851SOL    HW135012   2.629   2.233  10.484 -0.2386 -0.1771 -0.2796
 7851SOL    HW235013   2.626   2.369  10.485  0.1050  1.2334 -1.8426
 7852SOL     OW35014   2.966   2.092   7.775  0.1810  0.2438  0.4659
 7852SOL    HW135015   2.931   2.126   7.858 -0.6836 -0.2419  0.3035
 7852SOL    HW235016   3.053   2.132   7.784  0.4142 -0.8147  3.1044
 7853SOL     OW35017   3.063   4.680   8.006  0.1533 -0.2233  0.3911
 7853SOL    HW135018   3.125   4.641   7.944 -1.6866 -0.4182 -1.3117
 7853SOL    HW235019   3.012   4.720   7.936 -0.8595  2.3276  2.6017
 7854SOL     OW35020   1.132   3.924   3.139 -0.1347  0.1269  0.0567
 7854SOL    HW135021   1.175   3.880   3.213 -3.3926 -0.4545  1.5817
 7854SOL    HW235022   1.127   3.844   3.086  1.0552 -0.1679  0.3739
 7855SOL     OW35023   0.648   1.548  13.877 -0.3283  0.0786 -0.7046
 7855SOL    HW135024   0.664   1.535  13.971  3.8746  0.8486 -1.3135
 7855SOL    HW235025   0.709   1.621  13.867 -0.9167  0.9409  1.9600
 7856SOL     OW35026   4.236   4.622   5.530  0.1036  0.6976 -0.2288
 7856SOL    HW135027   4.327   4.651   5.530 -0.4003  2.2442  2.6590
 7856SOL    HW235028   4.248   4.530   5.555 -0.7746  0.0740 -2.0728
 7857SOL     OW35029   3.288   2.922   1.784  0.4209  0.0554 -0.2397
 7857SOL    HW135030   3.341   2.872   1.722 -1.1250 -2.6401  0.5737
 7857SOL    HW235031   3.351   2.961   1.845  0.7662 -1.2183  0.2399
 7858SOL     OW35032   0.282   3.670  16.430  0.2369 -0.5397 -0.1720
 7858SOL    HW135033   0.303   3.756  16.466 -1.2886  0.4125 -1.5718
 7858SOL    HW235034   0.193   3.652  16.461  0.4935 -0.3235  0.6871
 7859SOL     OW35035   2.074   2.329   4.568  0.6237  0.0513 -0.0868
 7859SOL    HW135036   2.049   2.251   4.618  0.8080  0.6706  0.9645
 7859SOL    HW235037   2.138   2.290   4.509 -0.0437 -0.0647 -0.7313
 7860SOL     OW35038   3.644   0.367   8.670 -0.2590  0.3520  0.2793
 7860SOL    HW135039   3.733   0.343   8.695 -0.3052 -1.4073 -1.2161
 7860SOL    HW235040   3.606   0.281   8.649 -1.0900  0.6356  0.6118
 7861SOL     OW35041   4.569   1.505   4.727  0.4256 -0.3278 -0.3109
 7861SOL    HW135042   4.591   1.584   4.777 -1.3544  1.4379 -2.3086
 7861SOL    HW235043   4.627   1.520   4.653 -0.1722 -0.0499 -0.7201
 7862SOL     OW35044   1.833   0.780   8.576  0.4755 -0.1174 -0.1149
 7862SOL    HW135045   1.915   0.770   8.528 -0.2197  1.6423 -1.6470
 7862SOL    HW235046   1.795   0.847   8.520 -0.6588 -1.7992 -1.3410
 7863SOL     OW35047   1.402   1.553   8.088 -0.3684 -0.6677 -0.3365
 7863SOL    HW135048   1.325   1.506   8.119  1.3178 -0.6317  3.8912
 7863SOL    HW235049   1.464   1.481   8.099 -0.6860 -0.6757  1.5162
 7864SOL     OW35050   3.796   3.207  17.098  0.1093 -0.2476 -0.2421
 7864SOL    HW135051   3.873   3.251  17.135 -0.0514 -0.9966  0.9733
 7864SOL    HW235052   3.796   3.233  17.006 -0.0276 -1.5929 -0.6135
 7865SOL     OW35053   3.131   2.275  16.228  0.3450  0.1030  0.6789
 7865SOL    HW135054   3.073   2.316  16.292 -1.1025 -1.9791  0.7101
 7865SOL    HW235055   3.143   2.198  16.285 -1.4187  0.1389  1.1080
 7866SOL     OW35056   0.527   3.386   5.263  1.2258  0.7091  0.2440
 7866SOL    HW135057   0.575   3.469   5.258  2.0818  0.0895 -1.6495
 7866SOL    HW235058   0.486   3.371   5.178  2.6170  1.5287 -0.5585
 7867SOL     OW35059   1.977   0.339  15.754 -0.5347 -0.2717  0.1660
 7867SOL    HW135060   1.951   0.388  15.832  2.4393 -0.1172  1.0514
 7867SOL    HW235061   2.068   0.363  15.738 -0.3588  0.3079  2.1165
 7868SOL     OW35062   4.711   0.595   6.663 -0.1707 -0.0344 -0.0950
 7868SOL    HW135063   4.683   0.505   6.679 -1.5351  0.4513  0.2783
 7868SOL    HW235064   4.685   0.634   6.746 -1.1196 -3.1588  1.0840
 7869SOL     OW35065   0.116   4.466   3.505  0.0851 -0.4456 -0.0010
 7869SOL    HW135066   0.164   4.434   3.582 -2.1994 -0.5233  1.3658
 7869SOL    HW235067   0.108   4.561   3.516 -1.1266 -0.5530  0.0500
 7870SOL     OW35068   3.926   2.423   5.983  0.6193  0.0787 -0.3782
 7870SOL    HW135069   3.835   2.446   5.960  1.0779  1.3610 -0.9412
 7870SOL    HW235070   3.945   2.498   6.039 -0.6805 -0.5636  0.9110
 7871SOL     OW35071   2.254   0.767   1.195  0.3484 -0.2478 -0.3756
 7871SOL    HW135072   2.198   0.737   1.123  0.6472  1.2919 -1.2458
 7871SOL    HW235073   2.273   0.692   1.252 -1.0355 -1.1855 -1.1418
 7872SOL     OW35074   4.501   2.861   6.366 -0.2825  0.0351  0.0998
 7872SOL    HW135075   4.588   2.880   6.400 -0.5059  1.4015 -0.0937
 7872SOL    HW235076   4.451   2.814   6.433 -0.4536  1.4238  0.9601
 7873SOL     OW35077   3.743   0.571  16.953  0.1305 -0.4335  0.0864
 7873SOL    HW135078   3.830   0.546  16.920 -0.1180  1.1733 -1.7935
 7873SOL    HW235079   3.720   0.625  16.877 -1.2802 -0.9308  0.1739
 7874SOL     OW35080   3.401   2.312   9.356  0.2490  0.2288 -0.2914
 7874SOL    HW135081   3.459   2.306   9.432  0.3269 -2.0477 -0.5280
 7874SOL    HW235082   3.338   2.378   9.384  0.6055  0.4087  0.0971
 7875SOL     OW35083   4.579   0.318   7.251  0.2288 -0.4887 -0.0994
 7875SOL    HW135084   4.531   0.241   7.280 -2.1467  1.6751  1.6945
 7875SOL    HW235085   4.509   0.384   7.254  0.0095 -0.8176  1.9856
 7876SOL     OW35086   4.655   3.767   0.271 -0.6305 -0.5294 -0.1877
 7876SOL    HW135087   4.664   3.741   0.362 -1.4015  0.8987  0.3051
 7876SOL    HW235088   0.013   3.733   0.236 -0.9459  0.0563 -1.5014
 7877SOL     OW35089   3.645   3.770   2.396 -0.0748  0.2586 -0.4963
 7877SOL    HW135090   3.696   3.846   2.421  1.0786 -1.2735  1.8270
 7877SOL    HW235091   3.720   3.711   2.386 -0.5017 -0.5400  0.9029
 7878SOL     OW35092   1.539   4.607   2.891  0.2254 -0.0638  0.1938
 7878SOL    HW135093   1.599   4.681   2.900  1.7621 -1.2382 -0.4196
 7878SOL    HW235094   1.453   4.648   2.885 -0.2015 -0.8066  1.1334
 7879SOL     OW35095   0.399   2.824   6.854 -0.1885 -0.5833 -0.7346
 7879SOL    HW135096   0.374   2.903   6.805 -1.4028  0.5436  1.6778
 7879SOL    HW235097   0.315   2.777   6.858 -0.6642  0.3754  0.7046
 7880SOL     OW35098   0.252   3.311   4.681 -0.5439 -0.4871  0.1812
 7880SOL    HW135099   0.177   3.299   4.740  0.6329 -1.7921  1.3970
 7880SOL    HW235100   0.318   3.253   4.718 -2.5057 -0.1813  4.2355
 7881SOL     OW35101   0.982   0.518   6.950 -0.4415 -0.2605 -0.1632
 7881SOL    HW135102   1.068   0.493   6.918 -0.0703 -1.3312  1.6104
 7881SOL    HW235103   0.981   0.487   7.041  2.1572 -0.0912 -0.0931
 7882SOL     OW35104   1.104   3.594   6.139 -0.3009  0.6944  0.8341
 7882SOL    HW135105   1.108   3.678   6.185 -0.4045  2.0761 -1.6962
 7882SOL    HW235106   1.177   3.611   6.079 -0.2853 -1.5547  0.2036
 7883SOL     OW35107   3.249   4.056  12.708 -0.3129 -0.3829  0.3220
 7883SOL    HW135108   3.212   4.031  12.792  0.7452  0.4280  1.0308
 7883SOL    HW235109   3.178   4.110  12.673 -1.5598 -0.7175  2.3364
 7884SOL     OW35110   4.525   1.372  16.144  0.2168  0.1975 -0.5667
 7884SOL    HW135111   4.580   1.368  16.222 -0.3205  1.3600 -0.1305
 7884SOL    HW235112   4.526   1.466  16.124  2.8848  0.3791  0.4199
 7885SOL     OW35113   3.545   0.824  11.878  0.2160  0.2990  0.1225
 7885SOL    HW135114   3.558   0.916  11.853 -2.8738  0.1913 -1.9528
 7885SOL    HW235115   3.576   0.775  11.802  1.4404  0.1134  0.7436
 7886SOL     OW35116   0.573   3.892  16.429  0.3536 -0.3025 -0.0010
 7886SOL    HW135117   0.478   3.885  16.420  0.2471 -0.0828  0.8883
 7886SOL    HW235118   0.593   3.821  16.490  0.2914 -1.9331 -1.8633
 7887SOL     OW35119   1.823   3.543   4.869 -0.1491 -0.1142 -0.1967
 7887SOL    HW135120   1.782   3.457   4.879  2.5428 -1.4624 -0.7898
 7887SOL    HW235121   1.758   3.592   4.918 -1.6196 -2.0028 -0.2535
 7888SOL     OW35122   2.213   3.557   6.751 -0.1995  0.4612  0.6240
 7888SOL    HW135123   2.168   3.536   6.833 -1.3333  0.8549  0.0956
 7888SOL    HW235124   2.153   3.627   6.724 -0.6811 -1.5309 -3.4554
 7889SOL     OW35125   2.606   4.248   4.833 -0.0272 -0.2404 -0.0400
 7889SOL    HW135126   2.544   4.307   4.876 -1.2924 -0.9066 -0.9442
 7889SOL    HW235127   2.662   4.310   4.787  2.2828 -2.2738  0.0429
 7890SOL     OW35128   1.577   1.024   3.735 -0.6172 -0.8763 -0.1590
 7890SOL    HW135129   1.521   1.071   3.674  2.3801  1.2718 -1.2855
 7890SOL    HW235130   1.612   1.105   3.773  2.1041 -2.0345 -0.1612
 7891SOL     OW35131   3.224   2.768   0.641  0.0227  0.0166 -0.1340
 7891SOL    HW135132   3.297   2.777   0.703  0.0956 -3.2458  0.2754
 7891SOL    HW235133   3.177   2.851   0.644 -1.4412 -0.8685  1.8236
 7892SOL     OW35134   3.850   1.164  15.092  0.0127 -0.0580  0.6692
 7892SOL    HW135135   3.914   1.235  15.100  0.2783 -0.1128 -1.0318
 7892SOL    HW235136   3.910   1.092  15.115  0.8421  0.2953 -0.4195
 7893SOL     OW35137   3.616   2.238   2.539  0.4213 -0.7496  0.4176
 7893SOL    HW135138   3.578   2.322   2.513  0.0539 -1.5366 -1.5401
 7893SOL    HW235139   3.543   2.191   2.579  0.1976 -1.2422 -0.5806
 7894SOL     OW35140   2.995   1.290   3.370  0.7726 -0.0117  0.2606
 7894SOL    HW135141   3.078   1.304   3.416  0.2576  2.0334  0.5788
 7894SOL    HW235142   3.024   1.240   3.294  0.3782  0.4398 -0.1806
 7895SOL     OW35143   4.165   1.975   8.105  0.0432 -0.0489 -0.4763
 7895SOL    HW135144   4.080   1.948   8.138 -0.3608 -0.4156 -1.8318
 7895SOL    HW235145   4.221   1.972   8.183  2.6874 -2.0230 -2.4551
 7896SOL     OW35146   2.167   0.356   1.168 -0.4055 -0.1694  0.2812
 7896SOL    HW135147   2.168   0.274   1.217  0.7020  0.3663  1.1521
 7896SOL    HW235148   2.233   0.332   1.103 -0.5748 -1.3463  0.5515
 7897SOL     OW35149   1.556   0.214   6.902 -0.8069 -0.4024 -0.0735
 7897SOL    HW135150   1.650   0.198   6.905 -0.9144 -1.8150 -5.0782
 7897SOL    HW235151   1.548   0.300   6.944  0.9307  0.4770 -1.5360
 7898SOL     OW35152   3.678   1.490  11.236  0.0809  0.1768  0.0698
 7898SOL    HW135153   3.683   1.506  11.142 -0.9867 -0.2536 -0.0617
 7898SOL    HW235154   3.625   1.565  11.265 -1.4290 -0.5829 -0.7247
 7899SOL     OW35155   2.004   1.491   8.912 -0.0420  0.2984 -0.5248
 7899SOL    HW135156   1.920   1.487   8.958  0.0587  0.2447 -0.3489
 7899SOL    HW235157   2.038   1.576   8.940  1.1207 -0.7225  1.1760
 7900SOL     OW35158   0.108   2.012   9.730 -0.2899 -0.2185 -1.0204
 7900SOL    HW135159   0.133   1.967   9.649  0.1209 -1.2927 -0.2847
 7900SOL    HW235160   0.194   2.045   9.754  0.3885 -0.5709 -2.9706
 7901SOL     OW35161   0.490   4.344  13.112 -0.0772  0.6256  0.2153
 7901SOL    HW135162   0.574   4.323  13.070  0.0954 -1.9781  1.9064
 7901SOL    HW235163   0.506   4.426  13.158  0.6897  0.5225  0.1323
 7902SOL     OW35164   2.400   3.060   9.083 -0.0992 -0.4282 -0.0777
 7902SOL    HW135165   2.404   3.149   9.117  2.6002 -0.7468  0.4497
 7902SOL    HW235166   2.331   3.065   9.017 -1.1948 -0.9181  1.0159
 7903SOL     OW35167   0.378   2.265   4.237 -0.3280 -0.1849 -0.3501
 7903SOL    HW135168   0.410   2.198   4.177  0.0752  0.2503 -0.6146
 7903SOL    HW235169   0.430   2.340   4.210 -0.1190 -0.1906  0.0300
 7904SOL     OW35170   4.649   3.070   7.548  0.4064 -0.3811  0.3667
 7904SOL    HW135171   4.587   3.001   7.524  0.1291 -0.4442  1.2410
 7904SOL    HW235172   0.006   3.031   7.514  1.4616  1.7532  0.4296
 7905SOL     OW35173   1.451   0.873   7.148 -0.3460  0.9770 -0.1074
 7905SOL    HW135174   1.519   0.924   7.104  1.7101 -2.2983 -0.6525
 7905SOL    HW235175   1.433   0.936   7.218  1.9632 -1.0458  2.2991
 7906SOL     OW35176   1.454   1.397   2.783 -0.0873  0.0406 -0.5379
 7906SOL    HW135177   1.447   1.476   2.728 -1.6874  1.6563  1.9780
 7906SOL    HW235178   1.538   1.356   2.762  0.7439  1.9005 -0.8913
 7907SOL     OW35179   2.450   0.653   6.715  0.1852  0.2366  0.4209
 7907SOL    HW135180   2.489   0.740   6.707 -0.2388  0.3869 -0.0455
 7907SOL    HW235181   2.366   0.668   6.673  0.9451 -0.2090 -1.2883
 7908SOL     OW35182   2.601   0.471   6.376  0.2136  0.3215  0.4385
 7908SOL    HW135183   2.632   0.423   6.299 -1.4045 -0.7945  0.4580
 7908SOL    HW235184   2.584   0.394   6.431  0.1329  2.3052  3.1699
 7909SOL     OW35185   1.515   3.674  16.583 -0.2019 -0.8210  0.2389
 7909SOL    HW135186   1.560   3.605  16.632 -0.8390 -1.2299  0.2390
 7909SOL    HW235187   1.512   3.629  16.499  2.0332 -0.0108 -0.2778
 7910SOL     OW35188   4.008   3.040   6.283 -0.2206  0.0897  0.1468
 7910SOL    HW135189   4.004   2.945   6.292 -1.6462  0.3088  1.9361
 7910SOL    HW235190   4.099   3.057   6.305  0.1484  0.2324 -1.5516
 7911SOL     OW35191   0.748   0.933   9.020 -0.3673  0.1700  0.7341
 7911SOL    HW135192   0.752   0.914   8.926 -0.0500 -0.5639  0.8993
 7911SOL    HW235193   0.681   0.871   9.050 -0.9268  0.0539 -0.7534
 7912SOL     OW35194   0.420   1.407   7.727 -0.0854  0.1013 -0.8340
 7912SOL    HW135195   0.464   1.324   7.744  0.5783  0.7973  0.8153
 7912SOL    HW235196   0.415   1.405   7.632 -0.4478 -1.6544 -0.7632
 7913SOL     OW35197   3.714   2.547   8.668 -0.0678  0.6950  0.4795
 7913SOL    HW135198   3.643   2.520   8.727  0.6298 -0.3159  0.8574
 7913SOL    HW235199   3.690   2.497   8.590 -0.3305 -0.7374  1.4664
 7914SOL     OW35200   4.305   3.602   5.970  0.5898  0.5036  0.2971
 7914SOL    HW135201   4.308   3.654   5.889 -1.0633 -1.1479 -0.8276
 7914SOL    HW235202   4.237   3.539   5.944  0.3431  1.3777 -1.2181
 7915SOL     OW35203   2.678   3.517   0.818 -0.0369 -0.8142  0.1217
 7915SOL    HW135204   2.595   3.534   0.862 -0.0369 -1.9682  0.5664
 7915SOL    HW235205   2.734   3.484   0.889  1.5480  0.4849 -0.5243
 7916SOL     OW35206   1.950   4.203  13.143  0.0381  0.0904  0.4728
 7916SOL    HW135207   1.996   4.187  13.061  0.4960  2.6611  0.2301
 7916SOL    HW235208   1.983   4.290  13.166  0.1463  0.6071 -1.6669
 7917SOL     OW35209   3.508   3.005   3.173  0.7135  0.5270 -0.2532
 7917SOL    HW135210   3.477   3.080   3.123 -0.0055  1.6571  1.8969
 7917SOL    HW235211   3.435   2.988   3.234  0.0995 -2.0469 -1.6968
 7918SOL     OW35212   2.021   2.534   9.382  0.0312  0.6900  0.2470
 7918SOL    HW135213   2.015   2.606   9.445  2.9580 -0.9029  2.3307
 7918SOL    HW235214   1.928   2.512   9.373 -0.1423  1.9052 -1.0302
 7919SOL     OW35215   1.740   2.667   8.547 -0.4582  0.6078  0.0107
 7919SOL    HW135216   1.664   2.723   8.558 -2.5705 -2.0556 -1.0210
 7919SOL    HW235217   1.707   2.605   8.482 -1.3519 -0.1542  1.1900
 7920SOL     OW35218   4.201   4.278   4.766  0.8112 -0.0424  0.1746
 7920SOL    HW135219   4.293   4.269   4.740  0.7617  0.2289 -0.1011
 7920SOL    HW235220   4.202   4.236   4.852 -0.6141  0.7611  0.5725
 7921SOL     OW35221   0.415   3.426  16.537  0.0556 -1.0202  0.5389
 7921SOL    HW135222   0.453   3.396  16.454  2.2069 -1.2673  1.6224
 7921SOL    HW235223   0.365   3.499  16.501  2.9458  0.7225  0.0222
 7922SOL     OW35224   3.438   1.027  15.681  0.1673  0.4296  0.1000
 7922SOL    HW135225   3.491   1.047  15.604  1.1678  0.7776  0.8842
 7922SOL    HW235226   3.488   0.951  15.711  0.8711  0.0700 -1.9752
 7923SOL     OW35227   1.425   2.891   8.864 -0.4368 -0.5858 -0.1425
 7923SOL    HW135228   1.510   2.933   8.848 -0.1864 -0.9024  0.3506
 7923SOL    HW235229   1.387   2.952   8.927  1.9892  0.9831 -0.1798
 7924SOL     OW35230   1.481   3.909   7.403  0.2310  0.0940 -0.4344
 7924SOL    HW135231   1.412   3.848   7.380 -0.2919  1.2586 -1.9390
 7924SOL    HW235232   1.463   3.987   7.350 -0.0691  0.4407  0.1693
 7925SOL     OW35233   2.929   1.304   3.105  0.1521  0.1781 -0.3208
 7925SOL    HW135234   3.020   1.279   3.123 -0.2775 -1.1544 -0.0545
 7925SOL    HW235235   2.905   1.344   3.188  0.6145 -0.1073 -0.0527
 7926SOL     OW35236   0.042   1.515  11.597 -0.3867  0.8229 -0.5938
 7926SOL    HW135237   4.715   1.552  11.669  0.2962  0.2891  0.1667
 7926SOL    HW235238   4.710   1.458  11.544  0.9033 -0.5278 -0.5334
 7927SOL     OW35239   2.279   3.197   2.812 -0.5446 -0.1900  0.2137
 7927SOL    HW135240   2.347   3.201   2.745  0.4761 -0.3496  1.2497
 7927SOL    HW235241   2.311   3.267   2.869 -1.2420  1.2024 -1.0892
 7928SOL     OW35242   4.182   3.758   7.913 -0.0968  0.2041 -0.3296
 7928SOL    HW135243   4.185   3.845   7.954 -1.0122 -0.3045  0.8417
 7928SOL    HW235244   4.201   3.785   7.824 -1.3856 -2.5676 -1.4337
 7929SOL     OW35245   3.891   1.418   6.118 -0.4793  0.0282  0.0547
 7929SOL    HW135246   3.813   1.462   6.085 -1.6204  0.0506  2.7805
 7929SOL    HW235247   3.969   1.469   6.096  1.2523 -2.9673 -0.7793
 7930SOL     OW35248   3.639   3.587   4.192  0.5941 -0.0227  0.1181
 7930SOL    HW135249   3.574   3.523   4.163  0.1991 -0.0288  0.9983
 7930SOL    HW235250   3.652   3.565   4.284  2.8822  0.8682  0.0052
 7931SOL     OW35251   3.004   4.272   3.197  0.3120 -0.5635  0.2400
 7931SOL    HW135252   2.916   4.250   3.167  0.8255 -1.4599 -0.6028
 7931SOL    HW235253   3.042   4.326   3.128  0.4904 -3.2693 -1.7636
 7932SOL     OW35254   0.895   1.069   0.653  0.2138 -0.0308 -0.6733
 7932SOL    HW135255   0.965   1.120   0.694 -1.7514  0.1899  2.4154
 7932SOL    HW235256   0.813   1.110   0.683  0.7998  1.5998 -1.2749
 7933SOL     OW35257   2.380   4.105   9.419  0.4872 -0.4198 -0.5170
 7933SOL    HW135258   2.465   4.089   9.459  0.0715 -0.4149  0.3861
 7933SOL    HW235259   2.349   4.016   9.400  2.5371 -0.7230 -2.3439
 7934SOL     OW35260   4.367   4.123   3.759 -0.1920  0.5772  0.5726
 7934SOL    HW135261   4.348   4.119   3.665  0.7507  0.9187  0.3689
 7934SOL    HW235262   4.354   4.031   3.784  0.4562  0.1470 -0.6485
 7935SOL     OW35263   0.262   1.679   3.472 -0.1353  0.3491 -0.3953
 7935SOL    HW135264   0.184   1.671   3.417  1.2638 -4.3313 -1.6875
 7935SOL    HW235265   0.336   1.674   3.411 -0.7253 -1.4887 -0.9521
 7936SOL     OW35266   4.452   0.052   4.199  0.0037 -0.2647 -0.2355
 7936SOL    HW135267   4.387   4.713   4.231  0.4798  0.5215  2.3292
 7936SOL    HW235268   4.509   0.061   4.276  0.1604 -1.4903 -0.2051
 7937SOL     OW35269   3.811   0.279  14.195 -0.4436  0.0510  0.5649
 7937SOL    HW135270   3.755   0.201  14.186 -2.3069  1.4696 -0.2304
 7937SOL    HW235271   3.747   0.350  14.189 -1.6868 -0.9607  1.6271
 7938SOL     OW35272   0.272   3.343   2.583 -0.1762 -0.1115 -0.0812
 7938SOL    HW135273   0.339   3.338   2.515  2.3619 -2.7977  2.6246
 7938SOL    HW235274   0.194   3.308   2.539  1.0987 -0.4688 -2.0746
 7939SOL     OW35275   1.126   4.230  12.644 -0.2995 -0.0219 -0.1692
 7939SOL    HW135276   1.145   4.218  12.550 -2.1970  0.3682 -0.6021
 7939SOL    HW235277   1.210   4.255  12.681 -0.7738  0.4850  0.5487
 7940SOL     OW35278   3.292   1.479   2.457  0.0267 -0.5138 -0.0988
 7940SOL    HW135279   3.291   1.394   2.412 -0.7653  0.6276 -2.2255
 7940SOL    HW235280   3.198   1.497   2.469 -0.0689  0.0775 -1.6600
 7941SOL     OW35281   3.142   3.457   0.748 -0.1081 -0.0605 -0.0394
 7941SOL    HW135282   3.066   3.403   0.727  0.5286 -0.3495 -1.6209
 7941SOL    HW235283   3.212   3.417   0.696  1.3851  2.9178 -0.3074
 7942SOL     OW35284   2.233   4.538  16.009  0.3956  1.0538  1.4307
 7942SOL    HW135285   2.273   4.622  15.988  1.0324  0.2472 -0.6144
 7942SOL    HW235286   2.190   4.521  15.925  0.8257  0.1471  1.3957
 7943SOL     OW35287   3.443   1.401   2.180 -0.3080  0.1483  0.2776
 7943SOL    HW135288   3.511   1.371   2.120 -1.2936  2.0876 -1.8203
 7943SOL    HW235289   3.407   1.314   2.199 -0.2613  0.0175 -0.2243
 7944SOL     OW35290   3.932   2.752  15.116 -0.3452  0.0312 -0.0320
 7944SOL    HW135291   3.935   2.846  15.133  0.8097 -0.2307  1.1467
 7944SOL    HW235292   3.844   2.732  15.148 -0.4201  0.1305 -0.1698
 7945SOL     OW35293   3.600   3.025   4.538 -0.0814  0.6599  0.1039
 7945SOL    HW135294   3.556   2.978   4.467 -0.4243  0.5993  0.3607
 7945SOL    HW235295   3.541   3.093   4.571  0.6994  1.9970 -1.2022
 7946SOL     OW35296   0.033   1.830   2.616 -0.2278 -0.4319  0.3195
 7946SOL    HW135297   4.712   1.834   2.701 -1.7057 -3.8253 -0.2830
 7946SOL    HW235298   4.694   1.777   2.568  1.0765  0.2556 -2.1561
 7947SOL     OW35299   4.103   3.956  10.858  0.8936 -0.0591 -0.3411
 7947SOL    HW135300   4.081   4.017  10.928 -1.8432 -2.5924  0.9978
 7947SOL    HW235301   4.183   3.989  10.817  0.8443  1.8870  1.0943
 7948SOL     OW35302   1.061   0.835   4.097  0.1958  0.0691  0.3201
 7948SOL    HW135303   1.138   0.811   4.046  0.5143 -0.5096  1.0576
 7948SOL    HW235304   1.083   0.928   4.096 -0.5046  0.2235 -0.3997
 7949SOL     OW35305   0.648   3.744  11.738  0.3722  0.3385 -0.7109
 7949SOL    HW135306   0.652   3.674  11.673  0.5651  1.2034 -1.6243
 7949SOL    HW235307   0.737   3.778  11.744 -0.4145  1.9450  1.8740
 7950SOL     OW35308   3.682   4.233   0.763  0.6202  0.0631  0.4125
 7950SOL    HW135309   3.632   4.236   0.845 -0.5346  0.5797 -0.2946
 7950SOL    HW235310   3.614   4.244   0.697  0.6542  0.2593  0.4106
 7951SOL     OW35311   2.347   4.471   1.554 -0.6274 -0.2284  0.0086
 7951SOL    HW135312   2.397   4.534   1.503  1.2792 -2.1158 -0.4740
 7951SOL    HW235313   2.273   4.510   1.601  0.9260  1.8992  0.6389
 7952SOL     OW35314   3.036   2.280   8.711  0.2589  0.2553  0.2643
 7952SOL    HW135315   2.945   2.272   8.681  0.5701  0.7119 -0.7955
 7952SOL    HW235316   3.018   2.277   8.805  0.7355 -1.6527  0.2791
 7953SOL     OW35317   2.456   0.181   2.205  0.5178  0.4290  0.0493
 7953SOL    HW135318   2.428   0.102   2.158 -0.7962  0.6346  0.4886
 7953SOL    HW235319   2.540   0.215   2.175  0.0323 -1.0854 -3.0526
 7954SOL     OW35320   1.676   4.249   7.555 -0.3004 -0.2316  0.3998
 7954SOL    HW135321   1.596   4.222   7.600 -0.0298 -2.4400 -0.4205
 7954SOL    HW235322   1.693   4.160   7.522 -2.3673  0.3598 -2.2011
 7955SOL     OW35323   0.197   1.063   2.353  0.1512  0.3506  0.0035
 7955SOL    HW135324   0.142   1.137   2.328  2.2815  2.5934  1.9867
 7955SOL    HW235325   0.159   1.027   2.433 -1.6343 -0.4880 -1.2181
 7956SOL     OW35326   2.901   1.372   7.072  0.1394 -0.1588  0.2401
 7956SOL    HW135327   2.890   1.428   7.149  0.4814 -0.8523  0.8008
 7956SOL    HW235328   2.989   1.334   7.080  0.6430  1.0503  0.4085
 7957SOL     OW35329   3.964   3.035  10.816  0.9300 -0.0225 -0.3227
 7957SOL    HW135330   3.919   3.073  10.892  0.4761 -2.9891  0.9207
 7957SOL    HW235331   4.006   2.964  10.865 -1.4627 -3.1544 -2.8183
 7958SOL     OW35332   1.256   0.912   5.383  0.0081  0.0295  0.1586
 7958SOL    HW135333   1.198   0.985   5.406 -0.8399 -0.5265 -0.1706
 7958SOL    HW235334   1.339   0.951   5.357  1.7010 -3.7832 -0.2001
 7959SOL     OW35335   1.105   3.798   7.976  0.4453 -0.3843 -0.3050
 7959SOL    HW135336   1.119   3.866   8.041 -0.1023  0.9380 -1.5510
 7959SOL    HW235337   1.182   3.746   7.995  0.2627 -1.2042 -1.8153
 7960SOL     OW35338   0.154   0.538  16.644  0.0619 -0.4725 -0.0915
 7960SOL    HW135339   0.060   0.529  16.634  0.3240 -0.5313 -2.3700
 7960SOL    HW235340   0.158   0.592  16.723  0.2309 -0.4063 -0.1441
 7961SOL     OW35341   2.597   3.168  16.863 -1.0127  0.0622 -0.4788
 7961SOL    HW135342   2.550   3.249  16.880 -1.5763 -0.2218 -0.6567
 7961SOL    HW235343   2.647   3.155  16.943  0.7555 -0.2562 -1.6259
 7962SOL     OW35344   3.183   1.711  13.374 -0.0861  0.0836 -0.4040
 7962SOL    HW135345   3.178   1.641  13.439 -0.6283  0.0279 -0.5029
 7962SOL    HW235346   3.187   1.787  13.431 -1.5982 -0.1406 -0.0051
 7963SOL     OW35347   3.546   1.939   1.499  0.6047  0.6693  0.0434
 7963SOL    HW135348   3.458   1.923   1.532  0.7470 -0.7499 -0.2851
 7963SOL    HW235349   3.567   1.857   1.454  3.0421  0.8105  0.8964
 7964SOL     OW35350   3.096   4.659   6.893 -0.4754  0.0080 -0.0032
 7964SOL    HW135351   3.101   0.028   6.872  0.9453 -0.5279 -2.1189
 7964SOL    HW235352   3.068   4.624   6.808  2.2828 -2.3862  0.0789
 7965SOL     OW35353   4.598   4.043  17.479  0.0628  0.0555 -0.6451
 7965SOL    HW135354   4.613   4.137  17.470 -0.0539  0.0962 -0.3835
 7965SOL    HW235355   4.504   4.027  17.482  0.0006  0.2598 -1.3002
 7966SOL     OW35356   1.139   0.916  16.303  0.2445  0.2048 -1.1333
 7966SOL    HW135357   1.207   0.861  16.341 -1.1313 -1.1975 -0.7081
 7966SOL    HW235358   1.080   0.846  16.276 -0.3412 -0.5417  2.1274
 7967SOL     OW35359   3.875   3.136  14.006  0.0223  0.3791 -0.2307
 7967SOL    HW135360   3.885   3.043  14.026  2.2203  1.2568  2.7556
 7967SOL    HW235361   3.969   3.157  14.013  0.0830  0.0584 -0.0827
 7968SOL     OW35362   2.125   1.731   9.033 -0.3837  0.0590 -1.0701
 7968SOL    HW135363   2.155   1.815   9.067 -1.3010 -0.2325  0.4848
 7968SOL    HW235364   2.183   1.718   8.958  0.9838 -0.5549  0.0912
 7969SOL     OW35365   4.132   2.499   8.444 -0.2109 -0.3740  0.4009
 7969SOL    HW135366   4.110   2.453   8.525 -2.3745  0.4597  0.2779
 7969SOL    HW235367   4.227   2.504   8.453 -0.2307 -1.0596  1.0161
 7970SOL     OW35368   4.074   0.961   2.836  0.4070  0.4091 -0.0677
 7970SOL    HW135369   4.007   0.894   2.836 -0.2770  1.0798 -1.9597
 7970SOL    HW235370   4.119   0.950   2.752 -0.5517  0.4014 -0.5768
 7971SOL     OW35371   0.381   4.307  10.185 -0.3716 -0.2969 -0.1951
 7971SOL    HW135372   0.309   4.350  10.140  0.6468  0.5887 -0.9838
 7971SOL    HW235373   0.356   4.216  10.168 -0.1911  0.4975 -4.7128
 7972SOL     OW35374   1.598   0.589   6.642  0.1634  0.5047  0.0515
 7972SOL    HW135375   1.669   0.600   6.705  0.3418 -0.5661  0.0369
 7972SOL    HW235376   1.553   0.517   6.686 -0.6469  1.4131  0.7343
 7973SOL     OW35377   1.691   2.215   2.618 -0.3380 -0.4712 -0.1399
 7973SOL    HW135378   1.713   2.300   2.655  0.3559 -0.5316 -0.4222
 7973SOL    HW235379   1.600   2.234   2.593 -0.1594 -2.7031 -2.3998
 7974SOL     OW35380   2.302   1.094   4.903  0.2710  0.2800  0.4630
 7974SOL    HW135381   2.387   1.054   4.887  0.2993  1.0565 -1.4027
 7974SOL    HW235382   2.274   1.043   4.979 -1.4494 -2.7438 -2.2083
 7975SOL     OW35383   2.053   3.214   8.498  0.8241 -0.3525 -0.6426
 7975SOL    HW135384   2.101   3.149   8.549  1.7435  0.6040 -0.3030
 7975SOL    HW235385   2.076   3.192   8.408 -1.2947  2.2509 -1.7993
 7976SOL     OW35386   3.441   1.835  13.363  0.0356  0.7495 -0.5917
 7976SOL    HW135387   3.481   1.777  13.427  0.9759 -0.6676 -2.4696
 7976SOL    HW235388   3.361   1.788  13.340  0.5984 -1.1866  1.4112
 7977SOL     OW35389   0.771   2.813   2.817 -0.3701 -0.3484 -0.3871
 7977SOL    HW135390   0.700   2.750   2.809 -2.3957  1.5768  2.2059
 7977SOL    HW235391   0.823   2.781   2.744  2.3223 -0.2913  1.5101
 7978SOL     OW35392   2.435   3.479   9.012  0.3555 -0.5041 -0.9178
 7978SOL    HW135393   2.381   3.418   8.961  1.5534 -1.3994 -1.1058
 7978SOL    HW235394   2.444   3.426   9.091  0.3363  0.0338 -0.5521
 7979SOL     OW35395   2.307   1.587   7.712 -0.0646 -0.2923 -0.0525
 7979SOL    HW135396   2.398   1.615   7.710 -0.3503  0.7010  0.6535
 7979SOL    HW235397   2.287   1.571   7.620  0.2250 -0.5434 -0.0728
 7980SOL     OW35398   2.420   4.017   1.569  0.3832  0.3859  0.1116
 7980SOL    HW135399   2.417   4.108   1.601  1.9860 -0.3351  2.2429
 7980SOL    HW235400   2.417   3.962   1.647 -2.2472  0.1664 -0.1281
 7981SOL     OW35401   3.051   4.588   6.616 -0.0370  0.7547  0.4322
 7981SOL    HW135402   3.126   4.641   6.591  0.5614  0.7561  2.2288
 7981SOL    HW235403   2.991   4.605   6.543 -1.3611 -2.4050  0.7920
 7982SOL     OW35404   0.037   1.393   8.518  0.5931 -0.3148 -0.0418
 7982SOL    HW135405   4.719   1.342   8.586 -0.7553  0.3525 -0.3890
 7982SOL    HW235406   0.086   1.458   8.568  0.1509 -1.2398  1.5703
 7983SOL     OW35407   1.411   0.738  13.031 -0.1361 -0.1099  0.2198
 7983SOL    HW135408   1.442   0.828  13.045 -0.0016  0.1452 -1.7613
 7983SOL    HW235409   1.398   0.717  13.124  1.0507  2.4277  0.9605
 7984SOL     OW35410   2.566   2.259  14.726  0.7549 -0.2447 -0.0568
 7984SOL    HW135411   2.588   2.205  14.802 -0.6075  0.4251  0.8100
 7984SOL    HW235412   2.635   2.241  14.662  1.3014  0.4255  0.3475
 7985SOL     OW35413   4.140   3.940   6.182  0.3253 -0.2349  0.1717
 7985SOL    HW135414   4.180   4.027   6.178 -3.3845  1.4129 -1.0691
 7985SOL    HW235415   4.102   3.928   6.269  0.4989  0.0932  0.2930
 7986SOL     OW35416   2.045   0.055  10.878 -0.2300 -0.4780 -0.0496
 7986SOL    HW135417   1.952   0.032  10.885  0.1282 -1.7699  0.3751
 7986SOL    HW235418   2.084   4.711  10.932 -0.0547  0.8150  1.4340
 7987SOL     OW35419   0.606   4.703   8.257  0.5174 -0.3657 -0.2183
 7987SOL    HW135420   0.566   0.035   8.191  0.4932  0.3014  0.3749
 7987SOL    HW235421   0.602   4.620   8.208  2.1193 -0.1010 -0.7987
 7988SOL     OW35422   0.883   2.064   6.175  0.1122  0.1972  0.7075
 7988SOL    HW135423   0.949   2.117   6.220  0.1818 -0.6645  1.6217
 7988SOL    HW235424   0.843   2.024   6.251 -1.2988 -0.9844 -0.6648
 7989SOL     OW35425   1.323   3.629   8.039  0.1937  0.2093 -0.1942
 7989SOL    HW135426   1.365   3.550   8.005 -2.1348 -1.4057  0.6248
 7989SOL    HW235427   1.376   3.641   8.118  1.0362  0.0251 -0.7379
 7990SOL     OW35428   2.837   0.814   7.188 -0.0516 -0.6056  0.3930
 7990SOL    HW135429   2.904   0.882   7.195 -1.1819  0.4767  0.7776
 7990SOL    HW235430   2.831   0.782   7.278 -0.7111 -2.1922 -0.2180
 7991SOL     OW35431   1.374   2.316   9.537 -0.1980  0.0656 -0.1639
 7991SOL    HW135432   1.464   2.340   9.559  0.6897 -1.4125 -2.2009
 7991SOL    HW235433   1.365   2.227   9.570  0.7984 -0.6408 -1.8070
 7992SOL     OW35434   3.366   1.597   3.010 -0.5334 -0.6636 -0.4580
 7992SOL    HW135435   3.446   1.644   2.989 -0.7038 -0.0156  0.3371
 7992SOL    HW235436   3.324   1.599   2.924  0.6343  3.0800 -0.9141
 7993SOL     OW35437   3.768   1.891   7.231 -0.5841  0.6063  0.0249
 7993SOL    HW135438   3.695   1.952   7.228 -1.8519 -0.8423  1.1837
 7993SOL    HW235439   3.785   1.876   7.325  0.5780  2.8703  0.1654
 7994SOL     OW35440   0.065   4.124   4.776 -0.0843  0.2836 -0.4159
 7994SOL    HW135441   0.135   4.061   4.760  0.8304  0.9833  0.8386
 7994SOL    HW235442   4.721   4.073   4.731  0.8964 -3.2980  2.1395
 7995SOL     OW35443   3.176   3.894   9.349  0.5849  0.5449  0.1853
 7995SOL    HW135444   3.187   3.939   9.433 -0.0628 -0.1205  0.6282
 7995SOL    HW235445   3.197   3.959   9.282 -0.1310  2.9132  2.2470
 7996SOL     OW35446   3.993   0.979  12.558  0.1926  0.1700 -0.0858
 7996SOL    HW135447   3.991   0.888  12.588 -1.9874 -0.1605 -1.2543
 7996SOL    HW235448   3.909   0.979  12.513  0.0353 -2.5904  0.2163
 7997SOL     OW35449   2.352   3.585   7.304 -0.1153 -0.4023 -0.2317
 7997SOL    HW135450   2.399   3.659   7.344 -0.0510  0.6821 -2.2991
 7997SOL    HW235451   2.373   3.518   7.369 -2.1876 -0.7105  0.1158
 7998SOL     OW35452   2.275   1.612   9.733  0.2237 -0.1866 -0.0683
 7998SOL    HW135453   2.253   1.534   9.783  0.6645 -1.0995 -1.3070
 7998SOL    HW235454   2.255   1.681   9.796 -1.5114 -0.8417  0.0786
 7999SOL     OW35455   4.361   2.777   4.078 -0.3247 -0.0080  0.9121
 7999SOL    HW135456   4.350   2.682   4.070 -2.4582  0.3256 -0.0431
 7999SOL    HW235457   4.300   2.812   4.013 -2.5343 -3.8102  0.8830
 8000SOL     OW35458   3.881   1.131   6.022 -0.6982  0.0442 -0.2653
 8000SOL    HW135459   3.929   1.198   6.071 -0.1132 -0.0250 -0.7428
 8000SOL    HW235460   3.928   1.056   6.058 -1.0592 -0.9868 -1.9437
 8001SOL     OW35461   1.510   0.488   5.936  0.3862  0.4083 -0.4127
 8001SOL    HW135462   1.545   0.481   5.847 -0.6666 -0.5170 -0.7506
 8001SOL    HW235463   1.592   0.475   5.984  0.0445 -1.6673 -0.3928
 8002SOL     OW35464   1.261   1.217   5.331 -0.3889  0.5106 -0.6172
 8002SOL    HW135465   1.331   1.239   5.269  0.4855 -1.4885 -0.3330
 8002SOL    HW235466   1.297   1.230   5.419  2.3035 -1.9262 -1.3614
 8003SOL     OW35467   2.541   4.062   6.673 -0.5627  0.3174  0.0599
 8003SOL    HW135468   2.511   3.995   6.734  0.3043 -1.4242 -1.4246
 8003SOL    HW235469   2.633   4.035   6.679 -0.4073  0.9596  0.5235
 8004SOL     OW35470   1.413   4.131   7.672 -0.0715 -0.3747 -0.2311
 8004SOL    HW135471   1.357   4.087   7.609 -0.0423  1.3319 -1.4604
 8004SOL    HW235472   1.474   4.063   7.701 -0.5266 -0.8297 -0.3480
 8005SOL     OW35473   4.719   0.164   1.067  0.0824 -0.2072 -0.2774
 8005SOL    HW135474   0.075   0.197   1.108 -0.3206 -1.5842  1.6028
 8005SOL    HW235475   0.011   0.150   0.974 -0.9606 -0.3019 -0.4378
 8006SOL     OW35476   1.591   2.960   2.017 -0.0630 -0.0812 -0.7013
 8006SOL    HW135477   1.563   3.002   1.936 -0.6125  0.7455 -0.0817
 8006SOL    HW235478   1.526   2.889   2.013 -0.1705  0.0274 -0.8750
 8007SOL     OW35479   2.023   3.240   6.631 -0.1996  0.4316  0.1555
 8007SOL    HW135480   2.034   3.207   6.720 -0.3779  0.8858  0.3473
 8007SOL    HW235481   1.942   3.194   6.607 -0.0253  0.4572 -0.4857
 8008SOL     OW35482   3.154   2.012  12.825  0.1165 -0.1966  0.3831
 8008SOL    HW135483   3.121   2.098  12.797  0.1072  0.2313  1.7246
 8008SOL    HW235484   3.139   1.946  12.757  2.3726 -0.3861  0.0864
 8009SOL     OW35485   4.575   2.742   9.175 -0.2749 -0.4636 -0.2865
 8009SOL    HW135486   4.500   2.799   9.194 -0.4220 -1.4536  2.2382
 8009SOL    HW235487   4.645   2.807   9.177  0.2014 -1.0000  0.9323
 8010SOL     OW35488   0.713   0.419   6.066  0.3540  0.4853 -0.6752
 8010SOL    HW135489   0.714   0.392   5.974  1.6889 -1.4632 -0.1145
 8010SOL    HW235490   0.633   0.368   6.079 -0.1232  1.5145  0.3182
 8011SOL     OW35491   0.776   1.601   3.183  0.1439  0.3402  0.6336
 8011SOL    HW135492   0.738   1.516   3.160  1.4945 -0.1917  0.3464
 8011SOL    HW235493   0.807   1.638   3.100  2.1938 -1.6379  0.5172
 8012SOL     OW35494   4.020   0.452   2.600  0.2851  0.5636  0.3773
 8012SOL    HW135495   4.098   0.497   2.567 -0.6337  2.6593  1.1180
 8012SOL    HW235496   3.959   0.479   2.532 -0.3062 -1.9225 -0.0677
 8013SOL     OW35497   2.505   1.699   1.343 -0.4380  0.1016 -0.3219
 8013SOL    HW135498   2.417   1.702   1.382 -0.5013  1.6270 -0.5594
 8013SOL    HW235499   2.556   1.646   1.404 -1.2642  0.5432  0.7516
 8014SOL     OW35500   3.095   4.497  11.834  0.1601  0.1168  0.5077
 8014SOL    HW135501   3.185   4.477  11.806 -0.4120 -1.7306  0.0071
 8014SOL    HW235502   3.103   4.591  11.849 -1.1922  0.3183 -0.0330
 8015SOL     OW35503   4.346   0.350  14.497 -0.9859 -0.2337  0.4950
 8015SOL    HW135504   4.299   0.427  14.529 -0.2506  0.4336 -0.0434
 8015SOL    HW235505   4.412   0.392  14.442 -1.7855  1.2374  0.6777
 8016SOL     OW35506   3.445   2.475   5.375  0.2438  0.6801  0.0221
 8016SOL    HW135507   3.380   2.540   5.401  0.1070  0.1777  0.9390
 8016SOL    HW235508   3.398   2.409   5.426  0.6695  1.1195  0.9750
 8017SOL     OW35509   3.614   2.964   7.288  0.0659  0.5484  0.3405
 8017SOL    HW135510   3.686   2.958   7.351  0.7522 -0.9801 -0.6049
 8017SOL    HW235511   3.554   2.892   7.304  1.0845 -0.0322  1.5960
 8018SOL     OW35512   2.512   1.182  11.386  0.3926  0.2431  0.2869
 8018SOL    HW135513   2.572   1.139  11.324 -3.1723 -0.1771 -2.8577
 8018SOL    HW235514   2.555   1.262  11.417 -2.5781  1.3883  1.3984
 8019SOL     OW35515   0.002   3.367   8.369  0.3111  0.3773 -0.6214
 8019SOL    HW135516   4.714   3.286   8.319  0.4490 -0.0184 -0.0107
 8019SOL    HW235517   0.052   3.342   8.446  0.3633  0.7396 -0.5390
 8020SOL     OW35518   2.395   1.603   6.796 -1.1071 -0.0435 -0.2533
 8020SOL    HW135519   2.340   1.567   6.865  0.6956 -0.5131  0.9136
 8020SOL    HW235520   2.339   1.659   6.742  1.7415  1.6215 -1.5176
 8021SOL     OW35521   1.165   3.337   3.733 -0.1145 -0.2522  0.1106
 8021SOL    HW135522   1.071   3.335   3.713  0.1773  1.1584 -1.3932
 8021SOL    HW235523   1.193   3.292   3.653  0.3679 -0.5916  0.4684
 8022SOL     OW35524   0.369   2.392   1.292 -0.1369 -0.1847 -0.7621
 8022SOL    HW135525   0.289   2.421   1.335 -0.8224 -1.2194 -1.3393
 8022SOL    HW235526   0.350   2.299   1.281 -1.4802 -0.2776  2.3470
 8023SOL     OW35527   3.693   2.578   4.556 -0.1232 -0.1470 -0.4972
 8023SOL    HW135528   3.682   2.491   4.593  1.1666  0.0954  0.4816
 8023SOL    HW235529   3.604   2.610   4.544 -0.5660 -1.6917 -1.2596
 8024SOL     OW35530   4.161   3.557  15.401  0.2748  0.5027  0.2912
 8024SOL    HW135531   4.215   3.518  15.332  0.4543  0.1937  0.6063
 8024SOL    HW235532   4.078   3.541  15.355 -0.0266  1.8245  0.3789
 8025SOL     OW35533   4.599   2.954   4.744 -0.1360  0.3219  0.4553
 8025SOL    HW135534   4.545   3.033   4.743  0.8123  0.9618 -1.3717
 8025SOL    HW235535   4.538   2.888   4.711 -1.8893  1.9411  0.4689
 8026SOL     OW35536   4.452   3.397   2.598  0.1892  0.5079 -0.5760
 8026SOL    HW135537   4.374   3.377   2.547  1.4140 -1.3670 -1.6890
 8026SOL    HW235538   4.437   3.348   2.679 -1.1283  0.5563 -0.7918
 8027SOL     OW35539   2.232   4.285   8.322 -0.4180  0.2121  0.4580
 8027SOL    HW135540   2.313   4.238   8.344 -0.0290  0.0973 -1.2080
 8027SOL    HW235541   2.179   4.244   8.389 -0.3366 -1.4069 -0.4605
 8028SOL     OW35542   1.203   3.520  10.198  0.2629  0.1578 -0.2287
 8028SOL    HW135543   1.119   3.508  10.155 -0.0312 -1.4053  0.8029
 8028SOL    HW235544   1.233   3.604  10.163 -3.0200  1.0353 -0.8637
 8029SOL     OW35545   3.113   1.905   5.716  0.4064  0.5260  0.3197
 8029SOL    HW135546   3.148   1.832   5.666 -1.0174  0.4146 -0.4993
 8029SOL    HW235547   3.039   1.864   5.761  0.6628  1.6568  1.7890
 8030SOL     OW35548   1.127   0.456   2.502 -0.4719 -0.0614 -0.1675
 8030SOL    HW135549   1.187   0.411   2.442  0.0769 -0.9438  1.0420
 8030SOL    HW235550   1.189   0.512   2.548 -1.1838  0.8313 -0.2885
 8031SOL     OW35551   0.182   2.771  14.206 -0.2219  0.4979  0.3423
 8031SOL    HW135552   0.155   2.805  14.291 -2.9209 -0.9409  0.0486
 8031SOL    HW235553   0.097   2.767  14.162 -0.1521  4.9434 -0.2478
 8032SOL     OW35554   3.670   2.260   4.969 -0.4056  0.0438 -0.1038
 8032SOL    HW135555   3.683   2.351   4.946  1.5802 -0.1161  0.3853
 8032SOL    HW235556   3.624   2.276   5.051 -3.2963  0.1469 -1.7309
 8033SOL     OW35557   2.170   4.259  15.011 -0.1720  0.2914 -0.1485
 8033SOL    HW135558   2.240   4.215  15.060  0.5268 -1.7517 -3.0066
 8033SOL    HW235559   2.229   4.288  14.941  3.0907 -0.2623  2.3619
 8034SOL     OW35560   2.892   0.482  12.422  0.3848 -0.3642 -0.8315
 8034SOL    HW135561   2.837   0.537  12.366 -0.9365 -1.6410 -0.8074
 8034SOL    HW235562   2.858   0.507  12.509  1.8649  0.9280 -0.6166
 8035SOL     OW35563   1.964   2.411  10.608 -0.2109  0.2427 -0.0919
 8035SOL    HW135564   1.875   2.423  10.574 -0.0914  1.2602 -0.0589
 8035SOL    HW235565   1.980   2.332  10.556 -0.1267 -0.5549  1.1701
 8036SOL     OW35566   2.469   1.540   1.140  0.2873  0.9645  0.4656
 8036SOL    HW135567   2.522   1.465   1.165 -0.5657  1.0281  2.4870
 8036SOL    HW235568   2.486   1.603   1.209 -2.0691  0.6247  1.3555
 8037SOL     OW35569   1.313   0.809  11.120 -0.4126 -0.1026 -0.2325
 8037SOL    HW135570   1.229   0.796  11.166  1.2820 -2.6535  2.1061
 8037SOL    HW235571   1.321   0.728  11.070  1.0255  0.4932 -0.9464
 8038SOL     OW35572   2.879   2.269  17.697 -0.3254 -0.2280 -0.1089
 8038SOL    HW135573   2.826   2.192   0.019 -2.2172  0.9954 -0.4990
 8038SOL    HW235574   2.936   2.282   0.075 -1.4190  2.8167  0.1610
 8039SOL     OW35575   2.071   1.377   8.173  0.3185 -0.3705  0.0695
 8039SOL    HW135576   2.108   1.464   8.154 -1.2243  0.4067  0.6716
 8039SOL    HW235577   2.127   1.350   8.245  2.9313  3.1268 -0.6214
 8040SOL     OW35578   0.126   0.109  12.510  0.2233  0.4114 -0.5356
 8040SOL    HW135579   0.123   0.159  12.428 -0.4101  0.5907 -0.4031
 8040SOL    HW235580   0.054   0.139  12.565  0.6291 -0.5991  0.5485
 8041SOL     OW35581   3.156   1.059  11.501 -0.3399  0.4295  0.3076
 8041SOL    HW135582   3.159   1.011  11.417  1.9153 -1.7441  1.6102
 8041SOL    HW235583   3.176   0.986  11.559  1.0027 -0.4415 -1.2257
 8042SOL     OW35584   1.756   0.075  10.814  0.0734 -0.6629 -0.1498
 8042SOL    HW135585   1.777   0.009  10.748  1.9394  0.0042 -0.2227
 8042SOL    HW235586   1.666   0.053  10.838 -0.6275  3.2093  0.7991
 8043SOL     OW35587   1.850   2.052   2.252 -0.2148 -0.2700 -0.1105
 8043SOL    HW135588   1.779   2.040   2.315 -1.1255 -0.0954 -1.1164
 8043SOL    HW235589   1.797   2.040   2.173 -0.0210 -1.4004 -0.0637
 8044SOL     OW35590   4.314   3.335  15.878 -0.5532  0.3957  0.1977
 8044SOL    HW135591   4.383   3.396  15.903  2.4438 -1.7043 -2.9458
 8044SOL    HW235592   4.318   3.354  15.785 -1.5417  0.0412  0.0784
 8045SOL     OW35593   3.536   2.547   6.998  0.2656  0.0342 -0.4396
 8045SOL    HW135594   3.461   2.590   7.038 -0.2838  2.3121 -3.9291
 8045SOL    HW235595   3.597   2.621   6.996  0.8839 -0.4106  1.9566
 8046SOL     OW35596   3.859   2.345   2.679  0.0447  0.2615  0.9198
 8046SOL    HW135597   3.781   2.308   2.637  1.2059 -1.2796  0.1280
 8046SOL    HW235598   3.897   2.270   2.726 -0.4479  0.0614  0.9991
 8047SOL     OW35599   4.095   0.516   8.887 -0.7936  0.0085 -0.5618
 8047SOL    HW135600   4.063   0.449   8.826 -0.0576 -0.6446 -0.2290
 8047SOL    HW235601   4.190   0.515   8.878 -0.8847  0.4895 -1.5725
 8048SOL     OW35602   2.909   0.314   2.663  0.1263  0.0048 -0.0887
 8048SOL    HW135603   2.864   0.350   2.586 -1.0884 -1.3038  0.0084
 8048SOL    HW235604   2.963   0.386   2.695  0.3994 -0.5357  0.6594
 8049SOL     OW35605   3.084   4.066   4.292  0.1234 -0.3181  0.2054
 8049SOL    HW135606   3.118   4.086   4.204  1.1947 -0.3132  0.6194
 8049SOL    HW235607   3.163   4.031   4.332 -0.4457 -1.9644 -0.1342
 8050SOL     OW35608   2.874   3.222   9.964  0.0370 -0.2490 -0.6096
 8050SOL    HW135609   2.897   3.222   9.871 -1.0053  1.8742 -0.8684
 8050SOL    HW235610   2.957   3.202  10.006  0.2679 -1.8433 -1.8082
 8051SOL     OW35611   1.370   1.811   6.968 -0.6058 -0.1154  0.1968
 8051SOL    HW135612   1.427   1.889   6.967 -0.4939 -0.1979  0.0751
 8051SOL    HW235613   1.322   1.816   6.885  0.2232 -1.2743 -0.3524
 8052SOL     OW35614   4.081   4.389   8.621 -0.4199 -0.6482 -0.5478
 8052SOL    HW135615   4.024   4.312   8.621 -0.9267 -0.2712 -1.6000
 8052SOL    HW235616   4.029   4.447   8.676  0.7265 -1.4146  1.3465
 8053SOL     OW35617   1.501   2.627   2.532  0.4168 -0.1475 -0.1147
 8053SOL    HW135618   1.435   2.646   2.465 -0.7305  2.0962  1.6689
 8053SOL    HW235619   1.558   2.703   2.529  1.3304 -0.8527 -0.5370
 8054SOL     OW35620   2.636   3.183   3.415 -0.0340 -0.3669 -0.2979
 8054SOL    HW135621   2.581   3.183   3.493 -0.2638 -2.1095 -0.4764
 8054SOL    HW235622   2.666   3.092   3.410  1.5695  0.0282  1.6284
 8055SOL     OW35623   2.536   1.557   8.229 -0.3377  0.6532 -0.3310
 8055SOL    HW135624   2.539   1.572   8.323 -3.3200  3.3326 -0.6567
 8055SOL    HW235625   2.625   1.530   8.207 -0.4182  0.5830 -0.5733
 8056SOL     OW35626   0.150   0.458  13.317  0.0235 -0.1050 -0.1237
 8056SOL    HW135627   0.123   0.508  13.394 -0.1736 -0.0106 -0.2536
 8056SOL    HW235628   0.156   0.534  13.258  0.8988 -0.4674 -0.4987
 8057SOL     OW35629   0.619   3.335   5.547 -0.5447 -0.3239  0.2715
 8057SOL    HW135630   0.708   3.369   5.545 -0.8707  0.3748 -2.3884
 8057SOL    HW235631   0.586   3.344   5.458  0.3222 -0.6731 -0.0845
 8058SOL     OW35632   1.822   1.191   8.623 -0.5507  0.5215 -0.0874
 8058SOL    HW135633   1.865   1.209   8.539 -2.0769  3.2768 -0.2955
 8058SOL    HW235634   1.793   1.281   8.638  0.8005  1.4402 -3.0195
 8059SOL     OW35635   0.902   0.526   5.518 -0.0398  0.4602 -0.2844
 8059SOL    HW135636   0.995   0.504   5.512  0.4279  2.4271 -0.2362
 8059SOL    HW235637   0.903   0.617   5.546  2.2120  0.7891 -1.4105
 8060SOL     OW35638   3.349   1.736   9.533 -0.0480  0.6903 -0.0570
 8060SOL    HW135639   3.372   1.761   9.443  0.7424  1.0994  0.2649
 8060SOL    HW235640   3.334   1.642   9.524 -1.4089  0.9140 -0.1682
 8061SOL     OW35641   4.366   4.361   7.757 -0.5049  0.0755  0.4107
 8061SOL    HW135642   4.399   4.356   7.667  0.7516 -1.7306  0.9690
 8061SOL    HW235643   4.443   4.397   7.801  0.2600 -2.0845  0.8160
 8062SOL     OW35644   2.981   3.514   3.275 -0.2721 -0.2982  1.0299
 8062SOL    HW135645   3.032   3.595   3.284  0.1372 -0.4559  0.2006
 8062SOL    HW235646   3.005   3.478   3.190 -0.1980  0.4114  0.7421
 8063SOL     OW35647   4.296   2.580  14.590 -0.5720 -0.3025 -0.5661
 8063SOL    HW135648   4.226   2.519  14.570 -2.0862  1.8687 -1.8789
 8063SOL    HW235649   4.274   2.599  14.681  1.3718  3.1600 -0.7928
 8064SOL     OW35650   3.179   0.799   2.271  0.1885  0.0894  0.1514
 8064SOL    HW135651   3.228   0.870   2.313 -1.1041  1.8751 -1.3376
 8064SOL    HW235652   3.111   0.790   2.338  0.4986  0.2363  0.4847
 8065SOL     OW35653   3.111   2.499   9.588 -0.3487  0.0198 -0.5345
 8065SOL    HW135654   3.039   2.543   9.634 -0.0428 -0.3162  0.2735
 8065SOL    HW235655   3.071   2.413   9.577  0.1493 -0.3211  0.3418
 8066SOL     OW35656   1.365   2.722   4.059  0.3197  0.0261  0.2483
 8066SOL    HW135657   1.311   2.673   4.121 -1.6999  2.2840  0.3098
 8066SOL    HW235658   1.296   2.778   4.022 -2.6826 -2.3426  2.2442
 8067SOL     OW35659   3.798   3.978   3.190  0.2434 -0.6644  0.4489
 8067SOL    HW135660   3.769   4.033   3.263  3.0853 -0.4537  1.4122
 8067SOL    HW235661   3.714   3.948   3.155  0.4584 -0.4909 -0.2102
 8068SOL     OW35662   1.620   1.221   9.438  0.6346 -0.2471 -0.2430
 8068SOL    HW135663   1.598   1.245   9.528  1.1229 -1.0663  0.0941
 8068SOL    HW235664   1.709   1.255   9.441  1.5042 -2.2126 -3.5795
 8069SOL     OW35665   0.805   2.732   7.352  0.3241 -0.1488 -0.0157
 8069SOL    HW135666   0.756   2.746   7.433  1.4508  1.4366  0.4041
 8069SOL    HW235667   0.765   2.795   7.291  0.9613  2.2018  1.9624
 8070SOL     OW35668   1.287   3.690   3.580  1.1817  0.0322  0.0681
 8070SOL    HW135669   1.230   3.718   3.651 -1.4992 -0.6215 -1.8467
 8070SOL    HW235670   1.364   3.670   3.634  1.6363  0.5885 -0.3744
 8071SOL     OW35671   0.234   4.083   8.429  0.3180 -0.1653  0.3422
 8071SOL    HW135672   0.252   4.052   8.518 -0.9919 -1.8876  0.0161
 8071SOL    HW235673   0.154   4.132   8.448  0.8810  0.3775  1.3405
 8072SOL     OW35674   0.784   2.504   8.475  0.0636  0.0401  0.3241
 8072SOL    HW135675   0.800   2.599   8.480  3.4773 -0.5841  0.7564
 8072SOL    HW235676   0.817   2.485   8.562  0.4448 -1.1152 -0.0788
 8073SOL     OW35677   2.482   3.851   6.848 -0.1486 -0.7103 -0.0832
 8073SOL    HW135678   2.500   3.800   6.769  1.5559 -0.1220 -0.0828
 8073SOL    HW235679   2.466   3.780   6.910  0.2897  0.1954  1.0613
 8074SOL     OW35680   0.241   0.837   1.879 -0.1639  0.3842 -0.2233
 8074SOL    HW135681   0.207   0.822   1.968 -4.4080 -0.2589 -1.9374
 8074SOL    HW235682   0.156   0.845   1.834 -0.2454 -0.8126 -0.2791
 8075SOL     OW35683   2.497   2.453   2.442 -0.2604  0.3330 -0.6784
 8075SOL    HW135684   2.466   2.475   2.354  0.0154 -0.1514 -0.8904
 8075SOL    HW235685   2.416   2.416   2.479 -0.6185 -0.3844 -2.2210
 8076SOL     OW35686   0.063   0.730   5.474 -0.5091  0.4347 -0.0318
 8076SOL    HW135687   4.713   0.675   5.499 -0.6822  0.8019  0.2616
 8076SOL    HW235688   0.125   0.659   5.491 -0.3128  0.6217  0.0171
 8077SOL     OW35689   1.766   1.614   8.196 -0.1544 -0.4415  0.0712
 8077SOL    HW135690   1.797   1.617   8.287 -0.9995  3.7333  0.2245
 8077SOL    HW235691   1.842   1.648   8.149  0.5618  0.8811  2.1851
 8078SOL     OW35692   2.746   1.958   2.616  0.8771 -0.5569 -0.0537
 8078SOL    HW135693   2.677   2.007   2.571 -0.4862  0.0544  2.7028
 8078SOL    HW235694   2.694   1.916   2.685 -0.5489  0.2114 -0.6476
 8079SOL     OW35695   0.621   4.359   2.213 -0.2620  0.0181 -0.0011
 8079SOL    HW135696   0.677   4.348   2.291 -2.0111  0.6570  1.3420
 8079SOL    HW235697   0.685   4.345   2.143  1.4544  1.4703  1.2560
 8080SOL     OW35698   4.262   3.305   8.133  0.2945  0.1964  0.1556
 8080SOL    HW135699   4.253   3.245   8.206 -1.1896 -0.3029 -0.4352
 8080SOL    HW235700   4.343   3.273   8.094  0.5173  1.6661 -0.6277
 8081SOL     OW35701   1.940   4.228   3.526  0.3892 -0.8991 -0.6923
 8081SOL    HW135702   2.019   4.257   3.482 -0.0253  1.3489  0.0470
 8081SOL    HW235703   1.868   4.247   3.465  0.5014  1.1667 -0.1734
 8082SOL     OW35704   2.425   2.362  13.537  0.5556  0.8942  0.1776
 8082SOL    HW135705   2.363   2.425  13.576  0.1991  0.9546 -0.4843
 8082SOL    HW235706   2.393   2.348  13.447 -2.8659  0.0497  1.5090
 8083SOL     OW35707   0.624   3.146   4.053 -0.2061 -0.4713 -0.1561
 8083SOL    HW135708   0.669   3.127   3.971  0.0029 -2.6358  0.4591
 8083SOL    HW235709   0.667   3.077   4.103 -0.9905 -0.0291  1.1378
 8084SOL     OW35710   1.965   0.969   5.470  0.2613 -0.2205  0.4525
 8084SOL    HW135711   1.987   0.879   5.447  0.1136 -0.4858  1.3766
 8084SOL    HW235712   1.967   0.962   5.565 -2.5586 -1.6279  0.3767
 8085SOL     OW35713   3.451   0.916   6.121  0.2354 -0.2997 -0.1801
 8085SOL    HW135714   3.525   0.861   6.095  0.9312  0.9642 -0.8850
 8085SOL    HW235715   3.392   0.860   6.171 -0.5483  2.3052  1.7544
 8086SOL     OW35716   3.946   3.064   6.772 -0.6662  0.1160  0.4532
 8086SOL    HW135717   3.939   3.030   6.861 -2.9606 -0.6717 -0.0172
 8086SOL    HW235718   3.913   3.150   6.797  1.3157  0.4455  1.9098
 8087SOL     OW35719   4.620   1.466   3.200 -0.4074 -0.8029  0.2940
 8087SOL    HW135720   4.622   1.372   3.218 -0.8946 -0.6903  0.8930
 8087SOL    HW235721   4.537   1.473   3.153 -1.1561 -0.7338  1.6391
 8088SOL     OW35722   3.100   3.126   2.550 -0.4902 -0.1554 -0.2282
 8088SOL    HW135723   3.066   3.098   2.465 -0.3876  0.0185 -0.3254
 8088SOL    HW235724   3.021   3.166   2.588  0.8691 -0.5908  3.0191
 8089SOL     OW35725   1.397   1.186   9.969 -0.2853  0.1090  0.3902
 8089SOL    HW135726   1.385   1.110   9.912 -1.4707 -0.0911  0.9151
 8089SOL    HW235727   1.479   1.166  10.014 -1.2451  0.8170  2.4222
 8090SOL     OW35728   4.014   2.209   1.838  0.5193  0.8850 -0.4350
 8090SOL    HW135729   4.045   2.219   1.928 -0.7138  1.3325 -0.0542
 8090SOL    HW235730   3.987   2.117   1.833  3.5763  0.0396 -1.0064
 8091SOL     OW35731   3.315   3.620   4.067 -0.4578  0.5644  0.4257
 8091SOL    HW135732   3.323   3.533   4.027  1.1628  0.6028  0.6491
 8091SOL    HW235733   3.270   3.590   4.146 -1.5354  4.9857  1.4898
 8092SOL     OW35734   3.635   3.315   3.722 -0.1029  0.0652  0.0252
 8092SOL    HW135735   3.726   3.346   3.718 -0.3322  0.9159  1.4272
 8092SOL    HW235736   3.614   3.310   3.815 -3.2108  0.7509 -0.6473
 8093SOL     OW35737   2.989   3.271   3.950  0.5133  0.2481  0.2460
 8093SOL    HW135738   2.924   3.201   3.957 -1.1810  1.5876 -2.0528
 8093SOL    HW235739   2.953   3.324   3.879 -0.1402  0.8365  1.0134
 8094SOL     OW35740   1.239   2.891   7.494  0.2115  0.2931  0.2507
 8094SOL    HW135741   1.223   2.931   7.580 -1.6193  1.1804 -0.5016
 8094SOL    HW235742   1.262   2.960   7.432  0.7009  0.1993  0.3294
 8095SOL     OW35743   3.056   1.213   9.074 -0.0362  0.8505 -0.1758
 8095SOL    HW135744   3.100   1.171   9.148  0.1290  0.5172 -0.4622
 8095SOL    HW235745   3.111   1.176   9.005 -1.7694 -0.2437 -0.9706
 8096SOL     OW35746   0.897   2.568   6.823 -0.1110  0.1521  0.5354
 8096SOL    HW135747   0.872   2.644   6.876 -1.9720 -1.3034  1.7590
 8096SOL    HW235748   0.832   2.508   6.860 -0.1966  1.9700  3.3953
 8097SOL     OW35749   1.667   3.012   8.722  0.3279 -0.8403  0.2164
 8097SOL    HW135750   1.635   2.932   8.678  0.2154 -1.6165  1.6969
 8097SOL    HW235751   1.605   3.074   8.683  0.7760  0.3496  1.4132
 8098SOL     OW35752   1.619   0.360   5.331  0.5924  0.1866  0.4964
 8098SOL    HW135753   1.533   0.393   5.304  0.8754  1.8649  1.6210
 8098SOL    HW235754   1.585   0.292   5.389  0.3760 -0.6782 -0.6421
 8099SOL     OW35755   0.776   4.573   1.405 -0.3103 -0.1757  0.0126
 8099SOL    HW135756   0.707   4.577   1.471 -1.6261  0.2239 -1.3686
 8099SOL    HW235757   0.845   4.570   1.471  1.1845  2.7395 -1.4081
 8100SOL     OW35758   1.311   1.230   7.393 -0.4138 -0.5373 -0.1963
 8100SOL    HW135759   1.253   1.306   7.394 -0.5343 -0.6341 -0.0316
 8100SOL    HW235760   1.307   1.212   7.486 -0.8646  2.0893  0.3042
 8101SOL     OW35761   3.430   4.200   8.190 -0.6567  0.1839  0.3789
 8101SOL    HW135762   3.517   4.163   8.175 -0.2916  1.0607  0.3545
 8101SOL    HW235763   3.389   4.121   8.228 -2.6086  1.0633  0.1242
 8102SOL     OW35764   1.936   2.409   4.174 -0.3053  0.1776 -0.1048
 8102SOL    HW135765   2.004   2.432   4.112 -0.8949 -2.4441 -1.6956
 8102SOL    HW235766   1.876   2.483   4.161  0.4963  0.2295 -3.3734
 8103SOL     OW35767   3.260   4.022   8.561  0.2267 -0.2917 -0.1566
 8103SOL    HW135768   3.314   4.067   8.626 -0.0641 -0.9675  0.5383
 8103SOL    HW235769   3.264   3.936   8.603 -0.1610 -0.4921 -0.5341
 8104SOL     OW35770   2.960   0.518  16.170  0.6327  0.7044  0.8983
 8104SOL    HW135771   2.948   0.514  16.075  0.3425  0.3705  0.9507
 8104SOL    HW235772   2.936   0.606  16.199  1.5448  1.1299  0.3927
 8105SOL     OW35773   4.684   0.035  13.334 -0.4864  0.4403 -0.4365
 8105SOL    HW135774   4.589   0.043  13.327 -0.5223  1.3432  0.9445
 8105SOL    HW235775   4.685   4.698  13.408  0.4562  0.5591 -0.3521
 8106SOL     OW35776   3.775   4.479   0.482  0.4552  0.4792 -0.2761
 8106SOL    HW135777   3.784   4.519   0.396  1.1262  0.0678 -0.3960
 8106SOL    HW235778   3.680   4.471   0.491  0.4061  1.9688  0.4761
 8107SOL     OW35779   3.967   4.108   4.993  0.4266  0.0352  0.1433
 8107SOL    HW135780   3.965   4.191   5.041 -0.8272 -1.4513  2.6685
 8107SOL    HW235781   3.913   4.058   5.054 -1.0022 -1.8981 -2.7155
 8108SOL     OW35782   0.790   2.940   6.708 -0.4062 -0.4437  0.2273
 8108SOL    HW135783   0.726   3.010   6.714  1.3543  1.1725 -0.0880
 8108SOL    HW235784   0.828   2.937   6.795  2.8366 -0.3144 -1.1791
 8109SOL     OW35785   0.363   4.428  10.855 -0.0959  0.1006  0.7293
 8109SOL    HW135786   0.305   4.448  10.928 -2.3785  0.7455 -1.2669
 8109SOL    HW235787   0.341   4.337  10.835  1.1315 -0.3547  1.4134
 8110SOL     OW35788   2.424   4.412   4.979  0.4643 -0.2650 -0.2482
 8110SOL    HW135789   2.428   4.505   4.957  2.4530 -0.4258 -0.5429
 8110SOL    HW235790   2.329   4.402   4.970  0.4435 -0.3874  0.1070
 8111SOL     OW35791   1.213   4.514   1.606 -0.4187  0.5108  0.2061
 8111SOL    HW135792   1.249   4.511   1.517  0.0390 -0.6567  0.4355
 8111SOL    HW235793   1.256   4.596   1.633  0.2731  0.3634 -0.4559
 8112SOL     OW35794   2.043   2.893   4.903  0.0794  0.1159  0.7167
 8112SOL    HW135795   2.055   2.813   4.955  0.2656  0.2712  0.9147
 8112SOL    HW235796   2.094   2.960   4.949  2.0047 -0.0487 -1.2044
 8113SOL     OW35797   3.246   0.599   7.618  0.2813 -0.0890 -0.6402
 8113SOL    HW135798   3.257   0.694   7.623  2.4593 -0.4052  0.6888
 8113SOL    HW235799   3.235   0.577   7.710  0.4775 -1.2716 -0.9023
 8114SOL     OW35800   0.744   0.002   2.991  0.0751 -0.1877 -0.1427
 8114SOL    HW135801   0.735   4.696   2.901 -2.0348  0.0287  0.0025
 8114SOL    HW235802   0.817   0.063   2.983 -0.5536  0.5498 -0.1652
 8115SOL     OW35803   2.388   1.330   3.588  0.3747  0.3936  0.5441
 8115SOL    HW135804   2.341   1.247   3.596  0.7689  0.0464 -0.7823
 8115SOL    HW235805   2.383   1.367   3.676 -2.9894  1.6963 -0.1829
 8116SOL     OW35806   2.133   4.404   7.638 -0.1416  0.3559  0.2759
 8116SOL    HW135807   2.153   4.340   7.706 -0.7356  3.1336  3.0570
 8116SOL    HW235808   2.079   4.352   7.578 -0.9800 -0.2347  1.5488
 8117SOL     OW35809   3.903   4.096   7.974 -0.4649 -0.3941 -0.2368
 8117SOL    HW135810   3.991   4.074   8.003  0.0433 -0.0291 -1.5110
 8117SOL    HW235811   3.856   4.013   7.964 -0.2991 -0.7337  1.7273
 8118SOL     OW35812   3.349   1.569   3.749 -0.2893 -0.2821  0.1195
 8118SOL    HW135813   3.302   1.501   3.701 -0.2170 -0.1957 -0.0732
 8118SOL    HW235814   3.366   1.513   3.825  0.8538  0.0645  0.1220
 8119SOL     OW35815   4.587   1.477   5.989 -0.0675 -0.1787 -0.2845
 8119SOL    HW135816   4.643   1.400   5.983  1.0099  0.5387  0.5095
 8119SOL    HW235817   4.591   1.496   6.082  0.3483 -1.6235 -0.0106
 8120SOL     OW35818   4.509   3.567  15.407 -0.3132  0.0395 -0.5349
 8120SOL    HW135819   4.556   3.486  15.384 -1.4129 -0.6802 -0.2107
 8120SOL    HW235820   4.568   3.629  15.363 -0.0950  0.4593  0.3521
 8121SOL     OW35821   2.990   1.672   6.695 -0.2145 -0.2555 -0.2481
 8121SOL    HW135822   2.999   1.638   6.607  0.1265  1.7665 -1.0063
 8121SOL    HW235823   2.976   1.585   6.733 -0.9134 -0.7061 -1.5417
 8122SOL     OW35824   2.257   0.734  10.899  0.1006 -0.2506 -0.1197
 8122SOL    HW135825   2.169   0.747  10.934  0.0193  1.8086 -1.0761
 8122SOL    HW235826   2.244   0.643  10.872 -0.5135 -0.6547  1.5646
 8123SOL     OW35827   2.627   1.789  13.880 -0.3927  0.1705 -0.2184
 8123SOL    HW135828   2.607   1.883  13.885 -1.6174 -0.1276  0.4265
 8123SOL    HW235829   2.562   1.761  13.816  0.6920 -1.2140 -0.7044
 8124SOL     OW35830   1.797   3.749   1.544  0.5274  0.1224  0.5259
 8124SOL    HW135831   1.860   3.764   1.614 -1.5597 -1.2895  2.6994
 8124SOL    HW235832   1.770   3.841   1.548  3.1524  0.7762  3.1226
 8125SOL     OW35833   1.806   2.112   7.770  0.1635  0.2675  0.8437
 8125SOL    HW135834   1.734   2.070   7.819 -1.2392 -0.0643 -1.4892
 8125SOL    HW235835   1.887   2.080   7.808  1.2558 -0.0185 -1.7854
 8126SOL     OW35836   2.555   4.317   5.518 -0.4411 -0.0167 -0.2604
 8126SOL    HW135837   2.578   4.383   5.583  0.7008 -1.6153  0.9699
 8126SOL    HW235838   2.605   4.345   5.442 -1.4171  2.3992  0.0038
 8127SOL     OW35839   2.305   3.505   1.850 -0.2806  0.4622 -0.2471
 8127SOL    HW135840   2.251   3.583   1.856 -0.2428  0.5321 -0.8042
 8127SOL    HW235841   2.242   3.454   1.901 -1.4054  1.6519 -0.4611
 8128SOL     OW35842   0.799   1.354  13.696 -0.1403  0.2313  0.0291
 8128SOL    HW135843   0.803   1.423  13.761  0.4162 -0.3513  0.6105
 8128SOL    HW235844   0.892   1.339  13.681  0.3516  0.9936  2.3612
 8129SOL     OW35845   2.836   2.619   5.383 -0.1339 -0.1441 -0.7807
 8129SOL    HW135846   2.921   2.661   5.371 -0.1614 -0.5778 -2.4668
 8129SOL    HW235847   2.845   2.561   5.308 -0.7190  0.3784 -1.2633
 8130SOL     OW35848   0.924   4.140   4.186  0.1889  0.3452  0.5966
 8130SOL    HW135849   0.918   4.208   4.119  1.2269  0.3550  0.5214
 8130SOL    HW235850   0.834   4.148   4.217 -0.3588  3.1112 -1.6750
 8131SOL     OW35851   0.679   0.991   8.164 -0.5437 -0.1827  0.1148
 8131SOL    HW135852   0.628   1.065   8.132 -0.3103  0.8643  2.1410
 8131SOL    HW235853   0.758   1.042   8.183  0.3011 -0.8847 -1.5588
 8132SOL     OW35854   1.523   2.423  13.543 -0.4437 -0.4007  0.3712
 8132SOL    HW135855   1.601   2.464  13.580 -1.1584  1.5659 -0.2806
 8132SOL    HW235856   1.451   2.467  13.590  0.5881 -0.3642  1.9256
 8133SOL     OW35857   3.827   0.131   5.269 -0.2484 -0.1017 -0.2969
 8133SOL    HW135858   3.884   0.091   5.334  0.7276  0.3527 -0.8622
 8133SOL    HW235859   3.825   0.070   5.195 -1.7193  1.9960 -1.9868
 8134SOL     OW35860   4.695   0.253  13.663  0.9773  0.0747  0.2077
 8134SOL    HW135861   4.608   0.280  13.633  0.0098  0.2152  3.1241
 8134SOL    HW235862   4.682   0.160  13.643 -0.5062  0.7634 -2.0039
 8135SOL     OW35863   0.908   3.297   3.662 -0.7553  0.1257  0.4969
 8135SOL    HW135864   0.870   3.296   3.574 -0.6569  1.5370  0.4398
 8135SOL    HW235865   0.837   3.326   3.719 -1.6762 -1.9806  0.4352
 8136SOL     OW35866   4.042   0.102   7.092 -0.2464  0.3962 -0.2199
 8136SOL    HW135867   4.040   0.164   7.165 -0.7374 -0.8192  0.8081
 8136SOL    HW235868   4.032   0.016   7.134  2.6681  0.3381  0.3603
 8137SOL     OW35869   1.864   3.968   2.452  0.8400  0.0139  0.2521
 8137SOL    HW135870   1.859   3.954   2.547 -2.3842  1.2123  0.2500
 8137SOL    HW235871   1.823   4.055   2.450 -2.7459 -1.6759 -0.0575
 8138SOL     OW35872   0.902   2.964   4.527 -0.1447  0.0907  0.1556
 8138SOL    HW135873   0.902   3.027   4.599  0.1974  1.2583 -0.8733
 8138SOL    HW235874   0.856   3.016   4.462 -1.6894 -0.6825  0.6253
 8139SOL     OW35875   0.672   0.095   6.197 -0.1652  0.1303 -0.0617
 8139SOL    HW135876   0.709   0.152   6.265  0.5394  0.5316 -0.7869
 8139SOL    HW235877   0.592   0.146   6.185 -0.6417 -0.7456 -0.5857
 8140SOL     OW35878   3.051   3.739   6.008  0.1586 -0.3864 -0.7769
 8140SOL    HW135879   3.117   3.770   6.070  0.5351  1.7164 -2.2504
 8140SOL    HW235880   3.104   3.677   5.959  1.4115 -0.9181  1.2271
 8141SOL     OW35881   3.739   3.120   4.198  0.1580 -0.4105  0.2003
 8141SOL    HW135882   3.734   3.040   4.250 -0.3735 -0.9909 -0.7369
 8141SOL    HW235883   3.787   3.181   4.253  0.7948 -0.4332 -0.3326
 8142SOL     OW35884   2.728   4.386   7.240  0.1636 -0.1803 -0.0795
 8142SOL    HW135885   2.783   4.314   7.271 -0.6806  0.8258  3.6667
 8142SOL    HW235886   2.752   4.389   7.147 -1.0193 -1.2589 -0.4199
 8143SOL     OW35887   3.138   4.182   7.893 -0.8693 -0.1488 -0.2959
 8143SOL    HW135888   3.116   4.187   7.986  0.6365  1.0236 -0.0021
 8143SOL    HW235889   3.165   4.271   7.869 -0.0122 -0.0673  0.9674
 8144SOL     OW35890   0.121   2.631   6.580 -0.1674 -0.2616 -0.1653
 8144SOL    HW135891   0.114   2.718   6.619 -0.4608  0.1360 -1.0887
 8144SOL    HW235892   0.033   2.614   6.544 -0.9967  2.0635  0.7389
 8145SOL     OW35893   4.137   1.489   2.667  0.0836  0.2395 -0.4233
 8145SOL    HW135894   4.147   1.523   2.756 -0.1861  1.9894 -1.0551
 8145SOL    HW235895   4.121   1.396   2.681  1.0704  0.3890  1.6505
 8146SOL     OW35896   1.315   2.813  12.929  0.5805  0.3938 -0.2763
 8146SOL    HW135897   1.316   2.907  12.949 -1.4589  0.4461 -0.4000
 8146SOL    HW235898   1.247   2.779  12.987  1.5162 -1.6148 -0.3467
 8147SOL     OW35899   4.697   4.175  11.468  0.0850  0.0797  0.3775
 8147SOL    HW135900   4.674   4.268  11.470  0.8749  0.2858 -0.0373
 8147SOL    HW235901   4.621   4.138  11.424  1.1860 -0.9812 -0.6189
 8148SOL     OW35902   1.827   3.846   2.696  0.3122  0.0786 -0.1297
 8148SOL    HW135903   1.861   3.774   2.749 -0.1970 -0.9826 -1.2665
 8148SOL    HW235904   1.771   3.875   2.768  0.1657  2.8775 -1.3444
 8149SOL     OW35905   3.583   1.574   3.594 -0.2060 -0.3106 -0.2589
 8149SOL    HW135906   3.495   1.560   3.629  0.4692 -1.4275  0.9887
 8149SOL    HW235907   3.579   1.556   3.500 -0.5854 -2.8570  0.2444
 8150SOL     OW35908   3.089   2.880   8.898  0.1901 -0.4526 -0.2246
 8150SOL    HW135909   3.038   2.856   8.821  0.9589  0.6434 -1.0729
 8150SOL    HW235910   3.037   2.954   8.931  0.3045 -0.4346 -0.0857
 8151SOL     OW35911   4.243   3.110   3.244 -0.7007 -0.1870  0.5435
 8151SOL    HW135912   4.171   3.151   3.292 -1.6585  0.1226 -1.1882
 8151SOL    HW235913   4.213   3.023   3.220 -0.5467  0.2882 -1.3709
 8152SOL     OW35914   1.124   0.542   4.795 -0.5535 -0.2050  0.0280
 8152SOL    HW135915   1.059   0.473   4.803 -1.3838  0.5925  0.2674
 8152SOL    HW235916   1.204   0.490   4.800 -2.8399 -3.8867 -2.5180
 8153SOL     OW35917   3.676   4.607   4.341 -0.0283  0.2905 -0.3170
 8153SOL    HW135918   3.744   4.548   4.373 -0.1148 -0.5439 -1.6689
 8153SOL    HW235919   3.716   4.694   4.349  0.7026 -0.1147  0.2957
 8154SOL     OW35920   3.643   3.243   7.301  0.4685 -0.1185  0.1751
 8154SOL    HW135921   3.630   3.151   7.280  0.9376 -0.2944  0.6719
 8154SOL    HW235922   3.633   3.240   7.396  0.8947  1.3521  0.2676
 8155SOL     OW35923   3.605   0.696   4.531 -1.1667  0.1294  0.1478
 8155SOL    HW135924   3.628   0.678   4.440 -2.0343 -2.2226  0.4093
 8155SOL    HW235925   3.684   0.743   4.561 -0.3619 -0.6697 -0.7496
 8156SOL     OW35926   3.669   1.557   8.224 -0.0300  0.2177  0.2857
 8156SOL    HW135927   3.658   1.482   8.283  2.6289  0.8219  1.5579
 8156SOL    HW235928   3.618   1.619   8.275 -0.1364  1.7831 -1.7565
 8157SOL     OW35929   3.506   1.140   4.091 -0.5036  0.1706  0.0705
 8157SOL    HW135930   3.593   1.127   4.127 -0.6786 -4.2852 -1.1026
 8157SOL    HW235931   3.455   1.125   4.171 -0.7517  1.7962  0.2169
 8158SOL     OW35932   1.334   3.461   6.736 -0.2424  0.4769 -0.3257
 8158SOL    HW135933   1.390   3.402   6.687  0.1325  0.6857 -0.1499
 8158SOL    HW235934   1.390   3.539   6.737 -0.3581  0.5567  1.7603
 8159SOL     OW35935   1.628   3.404   6.605  0.1570 -0.0654  0.2052
 8159SOL    HW135936   1.662   3.336   6.663 -1.5435 -0.3357  0.8732
 8159SOL    HW235937   1.649   3.366   6.520 -4.0620 -2.4803  0.2755
 8160SOL     OW35938   3.699   3.464   6.083  0.1268  0.4752 -0.2752
 8160SOL    HW135939   3.718   3.384   6.132 -2.0422  0.2859  0.2611
 8160SOL    HW235940   3.675   3.521   6.157 -3.8424 -0.3862 -0.9230
 8161SOL     OW35941   1.277   2.695   8.841  0.0186  0.4945  0.2113
 8161SOL    HW135942   1.213   2.731   8.904 -1.2474  1.0364 -1.3853
 8161SOL    HW235943   1.346   2.760   8.844  3.5796 -3.3094  0.3355
 8162SOL     OW35944   3.550   4.498  15.481 -0.3130 -0.2854 -0.1054
 8162SOL    HW135945   3.552   4.417  15.429  2.6626 -0.3599  0.1418
 8162SOL    HW235946   3.483   4.473  15.545 -1.6046 -0.7766 -1.6622
 8163SOL     OW35947   4.248   1.238   5.178 -0.4071 -0.3294 -0.4016
 8163SOL    HW135948   4.240   1.143   5.172 -1.7647 -0.2143 -0.2847
 8163SOL    HW235949   4.179   1.255   5.241 -1.1002 -2.6955 -0.5033
 8164SOL     OW35950   1.901   3.943   4.746  0.5513  0.9961  0.0356
 8164SOL    HW135951   1.904   3.907   4.835  1.1196 -2.4738 -1.3731
 8164SOL    HW235952   1.858   3.871   4.700  0.0591  0.8001  0.7968
 8165SOL     OW35953   3.990   1.992   9.698 -0.0868 -0.2552  0.1520
 8165SOL    HW135954   4.001   1.918   9.759 -0.2089 -0.1564  0.2915
 8165SOL    HW235955   4.082   2.013   9.681 -0.2772 -0.6665 -1.3227
 8166SOL     OW35956   1.847   1.977   1.169 -0.4631 -0.0151  0.1855
 8166SOL    HW135957   1.847   1.895   1.120 -0.8623 -1.0766  1.9728
 8166SOL    HW235958   1.875   1.956   1.258 -2.0910 -2.0761  0.1770
 8167SOL     OW35959   2.031   1.021  15.202  0.1249  0.4702 -0.2269
 8167SOL    HW135960   2.074   1.022  15.287 -1.5663  0.9335  0.6236
 8167SOL    HW235961   2.057   1.109  15.174  2.2127  0.0895  0.5312
 8168SOL     OW35962   3.987   3.259   8.620  0.4130 -0.2819 -0.2562
 8168SOL    HW135963   3.966   3.178   8.574 -1.1151 -0.1398  0.1954
 8168SOL    HW235964   3.894   3.273   8.638  0.3907  2.5379 -2.5537
 8169SOL     OW35965   3.747   3.665   5.296 -0.6009  0.6825 -0.2017
 8169SOL    HW135966   3.748   3.604   5.369 -0.7712  1.6550  0.6011
 8169SOL    HW235967   3.736   3.596   5.230 -1.3312  0.1361  0.5050
 8170SOL     OW35968   3.527   3.770   1.857  0.3389  0.0839 -0.2126
 8170SOL    HW135969   3.560   3.799   1.942 -2.1171  3.0888 -0.2532
 8170SOL    HW235970   3.588   3.815   1.798  0.7152  1.4255  1.1847
 8171SOL     OW35971   0.478   0.445  14.431 -0.0400 -0.3121 -0.2036
 8171SOL    HW135972   0.450   0.396  14.354 -1.7111 -0.1735  0.3129
 8171SOL    HW235973   0.454   0.379  14.496 -1.7186  1.6246  1.1487
 8172SOL     OW35974   3.280   3.734  17.162  0.0991 -0.6845 -0.0274
 8172SOL    HW135975   3.320   3.717  17.076  0.0147  1.4820 -0.4766
 8172SOL    HW235976   3.205   3.791  17.147  1.9212  1.3643 -1.3980
 8173SOL     OW35977   0.750   1.929  13.042  0.1798 -0.0932 -0.3822
 8173SOL    HW135978   0.713   1.847  13.074 -0.6945 -0.7457 -3.0040
 8173SOL    HW235979   0.839   1.906  13.070  0.1638 -2.1859 -2.0096
 8174SOL     OW35980   2.808   0.393   5.267 -0.1138 -0.0511 -0.0544
 8174SOL    HW135981   2.785   0.315   5.318 -2.1291 -0.1945 -1.1569
 8174SOL    HW235982   2.771   0.369   5.182  0.4147 -0.6499 -0.1118
 8175SOL     OW35983   2.317   1.616   8.838  0.6635 -0.3966  0.0159
 8175SOL    HW135984   2.406   1.593   8.865  0.8062 -2.0817 -1.9071
 8175SOL    HW235985   2.280   1.530   8.815 -0.5725  0.0098  0.4876
 8176SOL     OW35986   3.091   3.489  15.772  0.4121 -0.2524 -0.2688
 8176SOL    HW135987   3.071   3.565  15.718 -3.4889 -0.8801  0.3261
 8176SOL    HW235988   3.133   3.531  15.847 -1.3456  0.7563  0.1323
 8177SOL     OW35989   1.647   0.321  15.401  0.2535 -0.0728 -0.2175
 8177SOL    HW135990   1.735   0.339  15.368  0.1697  1.0410  0.1354
 8177SOL    HW235991   1.603   0.322  15.316 -0.6089  0.3455  0.2387
 8178SOL     OW35992   4.267   2.941  12.163 -0.0125 -0.0648  0.2321
 8178SOL    HW135993   4.325   2.909  12.232  0.9513 -1.2530 -1.1237
 8178SOL    HW235994   4.301   2.909  12.079  3.0683  1.3621  0.9585
 8179SOL     OW35995   1.607   3.579   6.311 -0.0482 -0.0416  0.5343
 8179SOL    HW135996   1.522   3.567   6.354  0.0578  0.2867  0.8441
 8179SOL    HW235997   1.649   3.497   6.335  1.2198  0.7729  1.1126
 8180SOL     OW35998   0.315   4.230   3.149 -0.1589 -0.2893  0.3297
 8180SOL    HW135999   0.341   4.321   3.165 -0.7864 -0.0930  0.2249
 8180SOL    HW236000   0.226   4.234   3.114 -0.6894  0.5609  1.7643
 8181SOL     OW36001   3.229   1.615  15.288 -0.1580  0.1154 -0.1845
 8181SOL    HW136002   3.185   1.548  15.341  0.4004 -0.8625 -0.9698
 8181SOL    HW236003   3.178   1.694  15.306  0.6401  0.3293  1.1248
 8182SOL     OW36004   2.455   4.447   7.221  0.1834  0.1453  0.0843
 8182SOL    HW136005   2.550   4.442   7.226  0.1785 -0.4010 -0.3049
 8182SOL    HW236006   2.430   4.453   7.313  0.5948 -1.6542  0.3138
 8183SOL     OW36007   3.349   3.670   9.370 -0.4744 -0.2203  0.6956
 8183SOL    HW136008   3.275   3.666   9.430 -0.2623 -1.3521  0.8874
 8183SOL    HW236009   3.327   3.757   9.337  0.6551 -0.7514 -1.4871
 8184SOL     OW36010   2.474   4.540   9.617  0.2581 -0.4023  0.2615
 8184SOL    HW136011   2.413   4.473   9.646 -0.8496 -0.0303 -1.2154
 8184SOL    HW236012   2.476   4.546   9.521  0.0310 -0.0554  0.2779
 8185SOL     OW36013   4.513   3.595   2.075  0.0833 -0.5437  0.1052
 8185SOL    HW136014   4.457   3.557   2.007 -0.7774  1.0884 -0.0901
 8185SOL    HW236015   4.546   3.527   2.134  0.1825 -0.3682  0.2508
 8186SOL     OW36016   1.187   1.892   9.774  0.0166  0.1703  0.5730
 8186SOL    HW136017   1.093   1.881   9.787 -0.3766  1.9642 -0.6622
 8186SOL    HW236018   1.218   1.818   9.827 -0.4129 -0.2409  0.2504
 8187SOL     OW36019   3.902   2.917   2.562 -0.2527  0.0654  0.2156
 8187SOL    HW136020   3.809   2.895   2.562 -0.4533  0.9551 -2.9390
 8187SOL    HW236021   3.940   2.829   2.561  1.0239  0.6165  0.4252
 8188SOL     OW36022   1.367   4.308  15.485 -0.3841 -0.1219 -0.3479
 8188SOL    HW136023   1.410   4.323  15.569 -0.4366  3.1893 -0.8881
 8188SOL    HW236024   1.277   4.310  15.518  0.6357 -0.6758  2.4416
 8189SOL     OW36025   3.855   0.457   1.937  0.8078 -0.1739  0.0546
 8189SOL    HW136026   3.805   0.523   1.986  2.0632 -0.0495  1.1883
 8189SOL    HW236027   3.804   0.379   1.958 -0.9570  0.9091 -0.2514
 8190SOL     OW36028   4.533   1.993   6.872 -0.0694 -0.5099 -0.0348
 8190SOL    HW136029   4.557   1.901   6.883 -1.8134 -1.2887 -2.6181
 8190SOL    HW236030   4.570   2.003   6.784 -0.5438 -0.2299 -0.1981
 8191SOL     OW36031   4.587   0.139   6.531 -0.2739  0.4578 -0.1660
 8191SOL    HW136032   4.619   0.195   6.602 -0.0335  1.6014 -1.1681
 8191SOL    HW236033   4.580   0.055   6.575  0.6062  0.6506  0.3389
 8192SOL     OW36034   1.991   4.625   3.831  0.1300  0.3761  0.1060
 8192SOL    HW136035   2.014   4.700   3.776  0.4201  0.8442  0.8616
 8192SOL    HW236036   1.991   4.553   3.769  0.7432 -0.6275  1.2798
 8193SOL     OW36037   0.065   2.487   4.984 -0.3647 -0.2496  0.0472
 8193SOL    HW136038   0.153   2.451   4.996  0.5578  1.5842 -1.1864
 8193SOL    HW236039   0.031   2.505   5.072 -0.3024  1.5246 -0.2894
 8194SOL     OW36040   3.906   4.624   5.094  0.2434 -0.0702  0.2830
 8194SOL    HW136041   3.885   4.577   5.013  1.3011 -0.9478  0.5226
 8194SOL    HW236042   3.869   4.564   5.159 -1.6362 -0.4251 -1.0850
 8195SOL     OW36043   0.378   0.333  12.744 -0.7185 -0.3725  0.2455
 8195SOL    HW136044   0.460   0.317  12.696  0.8092  0.0572  2.7518
 8195SOL    HW236045   0.404   0.288  12.824  3.0236  1.5567  0.1069
 8196SOL     OW36046   3.832   3.600   4.553  0.1366 -0.3335 -0.6978
 8196SOL    HW136047   3.778   3.679   4.543 -0.4474 -0.7630 -0.9711
 8196SOL    HW236048   3.800   3.569   4.638  1.2277 -0.0577 -0.1894
 8197SOL     OW36049   1.382   1.827  13.595  0.1914  0.3606 -0.3399
 8197SOL    HW136050   1.286   1.832  13.597  0.0860 -1.8721  0.3093
 8197SOL    HW236051   1.408   1.851  13.506  0.2094 -1.6161 -0.8579
 8198SOL     OW36052   1.188   3.688  11.833 -0.1502 -0.4990 -0.2813
 8198SOL    HW136053   1.197   3.642  11.750  3.7463  2.6865 -1.6319
 8198SOL    HW236054   1.149   3.773  11.811  0.8293  0.0844  0.2019
 8199SOL     OW36055   2.853   2.137   4.396 -0.0721 -0.0636  0.0537
 8199SOL    HW136056   2.768   2.159   4.433  0.6410 -1.6429  2.6060
 8199SOL    HW236057   2.913   2.157   4.468  0.9859 -2.8472 -0.0490
 8200SOL     OW36058   2.339   2.305  17.665  0.5771  0.1724 -0.3766
 8200SOL    HW136059   2.275   2.246  17.626 -1.8011  1.9347  0.8537
 8200SOL    HW236060   2.331   2.262   0.053  2.6564 -0.2311 -0.3781
 8201SOL     OW36061   2.910   4.660   7.326  0.0951 -0.3014  0.0078
 8201SOL    HW136062   2.969   4.602   7.278 -0.5104  0.0424 -1.1483
 8201SOL    HW236063   2.970   0.006   7.351 -0.6586  1.1119 -2.1949
 8202SOL     OW36064   3.505   0.229   1.553  0.1406 -0.4039  0.3863
 8202SOL    HW136065   3.476   0.215   1.463  0.0463 -0.2646  0.3965
 8202SOL    HW236066   3.441   0.185   1.609 -2.1131 -0.4519 -2.2878
 8203SOL     OW36067   3.224   3.103   3.137 -0.6307 -0.3903  0.1933
 8203SOL    HW136068   3.189   3.033   3.083 -1.4638 -0.7657  1.2211
 8203SOL    HW236069   3.161   3.115   3.208  0.7736 -1.6332  1.6478
 8204SOL     OW36070   3.986   3.027  15.110  0.1842  0.1512 -0.0410
 8204SOL    HW136071   3.988   3.029  15.205 -0.4306  1.0701 -0.0537
 8204SOL    HW236072   3.963   3.118  15.094 -1.2182 -0.3979 -1.1272
 8205SOL     OW36073   3.380   3.116   0.628  0.2616  0.2861  0.6337
 8205SOL    HW136074   3.436   3.093   0.554  1.2554  0.7869  1.2324
 8205SOL    HW236075   3.443   3.094   0.696 -0.9310  0.4478  1.7911
 8206SOL     OW36076   3.770   0.884   6.638  0.5382 -0.1656  0.0613
 8206SOL    HW136077   3.751   0.912   6.549 -3.3358 -0.0389  0.9466
 8206SOL    HW236078   3.713   0.811   6.661  0.0415  0.6500  1.4685
 8207SOL     OW36079   1.503   0.093   6.634  0.4310  0.2252 -0.2691
 8207SOL    HW136080   1.531   0.109   6.724 -1.0098 -0.2310  0.2553
 8207SOL    HW236081   1.418   0.052   6.654 -0.0440  1.5295  0.4089
 8208SOL     OW36082   4.625   3.764   3.910 -0.7160 -0.4903  0.1105
 8208SOL    HW136083   4.652   3.839   3.962  3.1459 -0.5193 -1.8509
 8208SOL    HW236084   4.583   3.796   3.830  0.8799  2.6691  0.5614
 8209SOL     OW36085   2.812   2.137   6.426 -0.9149 -0.4634 -0.3481
 8209SOL    HW136086   2.759   2.065   6.391 -1.8012  0.1116 -0.1976
 8209SOL    HW236087   2.778   2.209   6.372 -0.4971 -1.1499 -1.5251
 8210SOL     OW36088   3.155   2.000   4.511 -0.6764  0.3289 -0.2572
 8210SOL    HW136089   3.243   2.009   4.549  0.2607  1.6197 -2.6928
 8210SOL    HW236090   3.093   2.004   4.583 -2.0595  0.1717 -1.4405
 8211SOL     OW36091   2.009   4.416   9.597  0.1280  0.0696  0.0779
 8211SOL    HW136092   2.010   4.510   9.617 -1.2401  0.2694 -0.8002
 8211SOL    HW236093   1.970   4.409   9.511  2.1662 -1.5112 -0.7173
 8212SOL     OW36094   1.219   3.943   0.358  0.2376  0.5597 -0.7428
 8212SOL    HW136095   1.212   4.038   0.363  0.3092  0.5475 -0.4097
 8212SOL    HW236096   1.201   3.936   0.264 -1.3446 -0.2592 -0.3840
 8213SOL     OW36097   0.499   2.144   5.785 -0.6216  0.1837 -0.0526
 8213SOL    HW136098   0.447   2.116   5.861  1.3367 -2.0254  0.4768
 8213SOL    HW236099   0.519   2.070   5.728  2.1803  1.6028 -0.9042
 8214SOL     OW36100   1.493   1.945   7.791 -0.9553 -0.8326  0.6855
 8214SOL    HW136101   1.433   1.871   7.796  1.0205 -2.4665  0.2297
 8214SOL    HW236102   1.555   1.927   7.861  2.0532  0.8332 -1.5317
 8215SOL     OW36103   1.464   0.403   9.214 -0.3147  0.3955 -0.0888
 8215SOL    HW136104   1.375   0.428   9.190  0.1441  0.7058 -1.4319
 8215SOL    HW236105   1.502   0.489   9.227 -0.6104  0.3849  0.8975
 8216SOL     OW36106   1.094   3.397   6.299  0.0129  0.0334  0.1835
 8216SOL    HW136107   1.008   3.356   6.286  0.2714 -0.2005 -0.7350
 8216SOL    HW236108   1.079   3.467   6.237 -0.6949  0.1562  0.4866
 8217SOL     OW36109   0.224   3.666   0.748  0.2688 -0.3196  0.1524
 8217SOL    HW136110   0.306   3.641   0.791  1.5732 -0.4472 -2.4092
 8217SOL    HW236111   0.226   3.762   0.748 -1.3943 -0.2874 -0.6682
 8218SOL     OW36112   0.096   2.871   5.486  0.0426 -0.4960 -0.8320
 8218SOL    HW136113   0.143   2.871   5.569 -1.6658  1.1086  0.1215
 8218SOL    HW236114   0.141   2.805   5.432  0.0023 -0.5167 -0.8407
 8219SOL     OW36115   2.731   4.525   0.416  0.2510  0.0645  0.2063
 8219SOL    HW136116   2.753   4.447   0.468 -2.4211 -2.0497 -1.8623
 8219SOL    HW236117   2.699   4.489   0.334 -0.2115 -0.6264  0.6830
 8220SOL     OW36118   0.435   2.802  15.454  0.2702  0.3258  0.3386
 8220SOL    HW136119   0.526   2.829  15.441  0.3037 -0.2216 -0.5729
 8220SOL    HW236120   0.426   2.727  15.394  0.4063  0.2302  0.4383
 8221SOL     OW36121   2.359   0.051   5.699 -0.0014 -0.2594  0.3223
 8221SOL    HW136122   2.339   4.705   5.761  2.5794 -0.9167  0.3775
 8221SOL    HW236123   2.325   0.133   5.735  1.1431  0.5725 -0.5179
 8222SOL     OW36124   1.991   0.703   5.525  0.0628 -0.2717 -0.3117
 8222SOL    HW136125   1.923   0.648   5.486  2.0483 -1.2820 -2.3832
 8222SOL    HW236126   1.951   0.719   5.610  0.0379 -0.6813 -0.2427
 8223SOL     OW36127   0.499   1.639   6.649  0.3036  0.7724  0.6897
 8223SOL    HW136128   0.428   1.656   6.587 -0.1331 -2.2158  0.3768
 8223SOL    HW236129   0.483   1.709   6.711 -2.6881  0.2770  0.4756
 8224SOL     OW36130   1.699   3.490   8.545  0.2708 -0.2590 -0.6266
 8224SOL    HW136131   1.612   3.467   8.576 -0.0123  0.3542 -0.9462
 8224SOL    HW236132   1.746   3.412   8.574 -1.1596 -0.6197  0.7066
 8225SOL     OW36133   2.779   4.037   0.851  0.7211 -0.1123  0.0055
 8225SOL    HW136134   2.747   3.986   0.776 -0.4751 -0.8275  1.0199
 8225SOL    HW236135   2.787   3.965   0.913  0.3587  0.6795  0.9563
 8226SOL     OW36136   1.790   3.741   0.641 -0.3042 -0.0152 -0.2871
 8226SOL    HW136137   1.857   3.688   0.684 -1.9005 -0.6372  1.4290
 8226SOL    HW236138   1.735   3.773   0.712 -2.2024  1.9653 -2.6271
 8227SOL     OW36139   2.287   2.567   8.327  0.0491  0.2730 -0.5022
 8227SOL    HW136140   2.316   2.558   8.236  1.8032  1.1237 -0.0209
 8227SOL    HW236141   2.328   2.488   8.361 -0.9507 -0.4068 -0.8485
 8228SOL     OW36142   2.988   2.272   5.891  0.0326 -0.3295 -0.2616
 8228SOL    HW136143   2.977   2.206   5.823 -0.5425  0.6041 -1.0832
 8228SOL    HW236144   3.080   2.265   5.917  0.5795  1.1512 -1.7970
 8229SOL     OW36145   3.834   1.937  17.517 -0.0023  0.5152 -0.3584
 8229SOL    HW136146   3.799   1.921  17.604 -1.4623 -0.6446 -1.1589
 8229SOL    HW236147   3.785   1.877  17.461  1.4401 -1.1769  0.2080
 8230SOL     OW36148   4.468   1.309   2.167 -0.3223  0.3755  0.5068
 8230SOL    HW136149   4.400   1.333   2.229 -1.7606  0.0953 -0.9707
 8230SOL    HW236150   4.527   1.384   2.161  2.9029 -2.5104 -4.1701
 8231SOL     OW36151   3.733   2.940   1.722 -0.1911  0.1687  0.0367
 8231SOL    HW136152   3.667   2.973   1.661 -2.7981 -1.5731  1.9489
 8231SOL    HW236153   3.695   2.854   1.741 -1.5255  0.8136  0.2289
 8232SOL     OW36154   1.561   4.035   6.411 -0.1690 -0.0532  0.2931
 8232SOL    HW136155   1.612   3.956   6.430  0.4123  0.5935  1.3676
 8232SOL    HW236156   1.607   4.101   6.462 -0.9336 -0.2903  1.2890
 8233SOL     OW36157   1.308   2.060   2.076 -0.3970 -0.1187  0.0877
 8233SOL    HW136158   1.356   1.985   2.109  0.7836  1.2319  1.4213
 8233SOL    HW236159   1.275   2.113   2.148 -0.8038  0.3238 -0.4162
 8234SOL     OW36160   4.111   3.022  12.838 -0.2302  0.2259  0.7166
 8234SOL    HW136161   4.048   3.092  12.855 -1.5806 -1.3063  2.1173
 8234SOL    HW236162   4.129   3.029  12.745  2.8198  2.6684  1.4920
 8235SOL     OW36163   0.150   1.149   3.890  0.1883 -0.7060  0.1220
 8235SOL    HW136164   0.200   1.068   3.880 -1.8136 -2.0433  0.7673
 8235SOL    HW236165   0.117   1.154   3.800  1.7148  0.8354 -0.3424
 8236SOL     OW36166   3.930   2.867   4.110  0.4568 -0.3625 -0.0115
 8236SOL    HW136167   3.854   2.865   4.053  0.6415 -3.6455 -0.1267
 8236SOL    HW236168   3.889   2.868   4.196  2.0398 -3.2372  0.7895
 8237SOL     OW36169   2.960   3.198   9.236 -0.3278  0.0156  0.0932
 8237SOL    HW136170   2.880   3.247   9.214  0.4027  0.0441 -2.4770
 8237SOL    HW236171   3.014   3.264   9.280  0.1653 -0.6542  0.4941
 8238SOL     OW36172   0.419   3.699   8.153 -0.2969 -0.7442  0.2609
 8238SOL    HW136173   0.417   3.624   8.212  0.6725  1.5383  3.2105
 8238SOL    HW236174   0.326   3.696   8.130 -0.2029 -0.6443 -0.1325
 8239SOL     OW36175   1.049   1.327   4.287 -0.2246 -0.9576 -0.7521
 8239SOL    HW136176   0.964   1.369   4.302  0.2935 -0.1402 -0.1069
 8239SOL    HW236177   1.034   1.302   4.195 -1.5472  2.4039 -1.4408
 8240SOL     OW36178   1.112   0.502   8.318  0.1477 -0.0857 -0.4880
 8240SOL    HW136179   1.042   0.459   8.367  1.4916  0.1050  1.6298
 8240SOL    HW236180   1.084   0.473   8.232 -0.6406 -0.6935 -0.0303
 8241SOL     OW36181   0.342   1.903   9.026 -0.1742 -0.0131 -0.1879
 8241SOL    HW136182   0.282   1.930   8.957  0.2403 -0.4724 -0.7267
 8241SOL    HW236183   0.426   1.921   8.985 -0.3584  1.5757  0.1534
 8242SOL     OW36184   2.447   1.919  12.099  0.1242  0.0142 -0.4406
 8242SOL    HW136185   2.444   1.938  12.006 -2.8649  2.7752  0.2394
 8242SOL    HW236186   2.522   1.859  12.101  1.2461  1.4861  2.4080
 8243SOL     OW36187   2.912   2.911  10.190 -0.4888  0.1594 -0.7892
 8243SOL    HW136188   2.962   2.992  10.195  0.0329 -0.1765 -0.5478
 8243SOL    HW236189   2.871   2.914  10.104 -1.7988  2.1515 -0.0843
 8244SOL     OW36190   0.164   0.308   6.284  0.2583 -0.1021  0.0998
 8244SOL    HW136191   0.200   0.333   6.369  1.9997  3.5036 -1.7079
 8244SOL    HW236192   0.146   0.216   6.305  2.8881 -0.2965  1.5071
 8245SOL     OW36193   1.638   2.011   9.037 -0.2227  0.3964 -0.5017
 8245SOL    HW136194   1.591   1.939   8.995  0.0856  0.8227 -1.5714
 8245SOL    HW236195   1.707   1.959   9.079  1.7896  3.2089 -0.2888
 8246SOL     OW36196   3.399   0.169   2.753 -0.3155  0.5321 -0.0323
 8246SOL    HW136197   3.353   0.102   2.805 -2.0833  2.1042  0.4564
 8246SOL    HW236198   3.366   0.143   2.667 -3.4022  1.9107  0.7158
 8247SOL     OW36199   2.576   0.102   8.860 -0.8191  0.0713  0.0519
 8247SOL    HW136200   2.585   0.007   8.870  1.0391  0.2631  0.1649
 8247SOL    HW236201   2.646   0.104   8.795 -1.0843 -0.5547 -0.2594
 8248SOL     OW36202   0.834   0.624   5.944 -0.3642 -0.2098 -0.2828
 8248SOL    HW136203   0.862   0.547   5.895 -2.4259  0.4561 -2.5159
 8248SOL    HW236204   0.780   0.580   6.009 -1.1958 -1.1732 -1.6357
 8249SOL     OW36205   3.055   0.700  14.898  0.2483  0.4542  0.4885
 8249SOL    HW136206   3.055   0.735  14.988 -1.0695  1.4813  0.0953
 8249SOL    HW236207   3.062   0.607  14.918 -0.9746  0.5406  1.3209
 8250SOL     OW36208   1.774   3.088   2.949  0.1334  0.1339  0.2365
 8250SOL    HW136209   1.829   3.069   2.874 -2.9577  2.6137 -2.6719
 8250SOL    HW236210   1.686   3.079   2.914  0.2418 -3.1180  0.8213
 8251SOL     OW36211   3.080   0.850   5.506  0.1326  0.1747  0.0157
 8251SOL    HW136212   3.162   0.856   5.556 -0.3078  1.6299  0.5782
 8251SOL    HW236213   3.124   0.814   5.429 -0.3877 -0.4621  0.0259
 8252SOL     OW36214   3.841   4.507   5.342  0.2272 -0.3301  0.5465
 8252SOL    HW136215   3.891   4.585   5.367  0.6864 -0.4146 -0.1025
 8252SOL    HW236216   3.787   4.496   5.420  1.3713  1.9498  1.6615
 8253SOL     OW36217   4.295   4.388   1.177 -0.4550 -0.3221 -0.3581
 8253SOL    HW136218   4.325   4.457   1.118 -2.3588  0.7709 -0.0849
 8253SOL    HW236219   4.325   4.311   1.130 -1.5509 -1.7774  1.3443
 8254SOL     OW36220   1.680   4.464   5.646 -0.3651 -0.2387 -0.0979
 8254SOL    HW136221   1.642   4.428   5.726  1.1787 -0.6624  0.4433
 8254SOL    HW236222   1.739   4.391   5.631 -0.7169 -0.8621  1.6196
 8255SOL     OW36223   1.528   0.593   3.178  0.1112  0.2689 -0.5158
 8255SOL    HW136224   1.529   0.579   3.272  1.4755 -1.1050 -0.7459
 8255SOL    HW236225   1.568   0.680   3.178  0.9599 -0.1340  1.4993
 8256SOL     OW36226   1.301   2.410   3.532  0.1810 -0.4167 -0.8472
 8256SOL    HW136227   1.242   2.368   3.469 -0.8708 -1.4855  0.8731
 8256SOL    HW236228   1.251   2.491   3.535  0.7479 -0.1366  1.2273
 8257SOL     OW36229   3.296   1.219   8.671 -0.0567  0.4228 -0.1431
 8257SOL    HW136230   3.227   1.284   8.665 -2.5168 -2.2592 -0.9377
 8257SOL    HW236231   3.237   1.144   8.661  1.1625 -0.5819  0.1809
 8258SOL     OW36232   3.445   1.366   3.928  0.4432 -0.2637  0.7134
 8258SOL    HW136233   3.529   1.392   3.966  0.9185 -1.2187  0.3264
 8258SOL    HW236234   3.412   1.297   3.985 -0.5239  1.2443  1.9851
 8259SOL     OW36235   4.651   1.732  16.728 -0.8562 -0.6607  0.7186
 8259SOL    HW136236   4.665   1.726  16.822 -1.0477  1.7117  0.8837
 8259SOL    HW236237   4.610   1.649  16.702  1.8477 -1.3856 -1.2665
 8260SOL     OW36238   3.881   3.594  12.918 -0.0336 -0.3904 -0.2513
 8260SOL    HW136239   3.959   3.575  12.970 -0.9044  0.7371  1.4295
 8260SOL    HW236240   3.844   3.655  12.982  0.4556  0.2127 -0.5417
 8261SOL     OW36241   2.085   2.074   6.296  0.2937  0.2214 -0.3775
 8261SOL    HW136242   2.123   2.037   6.376  1.2524  0.3411 -0.7809
 8261SOL    HW236243   2.083   2.167   6.317 -2.4318 -0.1075  0.9533
 8262SOL     OW36244   0.337   3.497   9.927 -0.4101 -0.4792 -0.0320
 8262SOL    HW136245   0.313   3.472   9.838  0.6449  3.0904 -1.3252
 8262SOL    HW236246   0.430   3.472   9.924 -0.5028 -0.8409  0.2093
 8263SOL     OW36247   0.755   1.494   1.231  0.0614 -0.0331 -0.2797
 8263SOL    HW136248   0.689   1.467   1.295 -1.0448 -0.6375 -1.7011
 8263SOL    HW236249   0.772   1.581   1.266  1.2517  0.2963 -1.6863
 8264SOL     OW36250   1.280   0.684   3.444 -0.2204  0.1129 -0.2343
 8264SOL    HW136251   1.216   0.612   3.445  0.0280 -0.1084 -0.3621
 8264SOL    HW236252   1.222   0.759   3.460 -1.6657 -1.4280  1.7836
 8265SOL     OW36253   0.191   4.142   7.473  0.1384  0.3112  0.0263
 8265SOL    HW136254   0.246   4.064   7.473  0.9576  0.8917  0.3076
 8265SOL    HW236255   0.102   4.110   7.486 -0.9700  2.6719 -1.7884
 8266SOL     OW36256   0.798   2.916   5.253 -0.2453  0.5213  0.3119
 8266SOL    HW136257   0.820   2.984   5.317 -0.5062  0.7785  0.1316
 8266SOL    HW236258   0.727   2.962   5.207 -0.5573  0.3608  0.6427
 8267SOL     OW36259   0.317   2.023  11.165  0.3190  0.0679  0.3180
 8267SOL    HW136260   0.308   1.932  11.195 -1.4116  0.7568  1.8991
 8267SOL    HW236261   0.243   2.067  11.206  0.2110  1.4005 -1.3132
 8268SOL     OW36262   3.312   3.680   2.929  0.4677 -0.4519 -0.5653
 8268SOL    HW136263   3.299   3.637   3.013 -1.1262 -1.6004 -1.4045
 8268SOL    HW236264   3.255   3.631   2.870  1.0603 -1.2080 -0.4969
 8269SOL     OW36265   2.660   3.685   1.479 -0.4654  0.5932 -0.4900
 8269SOL    HW136266   2.716   3.763   1.480 -0.3934  0.5329  0.2666
 8269SOL    HW236267   2.626   3.672   1.391  1.7019  0.0185 -1.2421
 8270SOL     OW36268   3.905   4.255   1.176 -0.2890 -0.0263 -0.0529
 8270SOL    HW136269   3.898   4.346   1.206 -0.0424 -0.1973  0.5202
 8270SOL    HW236270   3.813   4.235   1.159 -0.3465  0.9325 -0.8727
 8271SOL     OW36271   3.081   2.859   3.975  0.9437  0.7848  0.0290
 8271SOL    HW136272   3.018   2.904   3.919  0.9319  0.1782 -0.4499
 8271SOL    HW236273   3.061   2.766   3.960  1.4007  1.0194 -1.9985
 8272SOL     OW36274   2.892   3.269  13.276 -0.0766 -0.0475 -0.1415
 8272SOL    HW136275   2.842   3.248  13.197 -0.4213 -0.0728  0.0842
 8272SOL    HW236276   2.982   3.259  13.243 -0.2987 -0.2069 -0.6957
 8273SOL     OW36277   0.795   3.653   9.596  0.7875 -0.4197  0.2958
 8273SOL    HW136278   0.883   3.636   9.627  0.2218  0.1706  2.2770
 8273SOL    HW236279   0.740   3.609   9.662  0.3072  0.6085  0.5849
 8274SOL     OW36280   2.955   2.865   5.985 -0.2422 -0.2853  0.6837
 8274SOL    HW136281   2.978   2.873   5.893 -1.5741 -0.1481  0.3744
 8274SOL    HW236282   2.882   2.804   5.984 -0.1640 -0.3181 -2.2891
 8275SOL     OW36283   3.700   4.654  16.462  0.4154  0.0381 -0.4223
 8275SOL    HW136284   3.605   4.642  16.457  0.5582 -2.0433  2.2932
 8275SOL    HW236285   3.725   4.600  16.387 -2.0468 -1.3314 -0.2562
 8276SOL     OW36286   4.618   2.704  12.661 -0.6497 -0.2240  0.3306
 8276SOL    HW136287   4.633   2.675  12.571 -3.5336 -2.2714  0.5194
 8276SOL    HW236288   4.664   2.643  12.720 -0.6513 -1.6224 -1.1030
 8277SOL     OW36289   0.538   1.576  17.235 -0.1491 -0.5967  0.0279
 8277SOL    HW136290   0.536   1.668  17.260  0.2205 -0.3024 -1.0120
 8277SOL    HW236291   0.483   1.569  17.157 -0.9684  1.3743  0.4351
 8278SOL     OW36292   1.100   1.185   6.166  0.3595 -0.3270 -0.1630
 8278SOL    HW136293   1.106   1.247   6.093 -0.7369 -1.9405 -1.6389
 8278SOL    HW236294   1.129   1.242   6.237 -0.5749 -0.6109  0.4441
 8279SOL     OW36295   1.874   1.915   4.820 -0.4187 -0.5027 -0.5162
 8279SOL    HW136296   1.805   1.981   4.823 -0.4186 -0.6483  2.1949
 8279SOL    HW236297   1.839   1.827   4.809 -0.3252 -0.6563  0.4975
 8280SOL     OW36298   4.205   0.046  16.881  0.6603 -0.5219 -0.0744
 8280SOL    HW136299   4.239   0.084  16.961  1.2327 -4.0509  1.3589
 8280SOL    HW236300   4.193   4.679  16.907 -0.4552 -0.9113 -1.9277
 8281SOL     OW36301   3.939   0.400  11.025  0.7739  0.0598 -0.4173
 8281SOL    HW136302   3.981   0.315  11.038 -1.2896 -1.0736 -1.0961
 8281SOL    HW236303   3.953   0.414  10.932  0.3178  0.1108 -0.4779
 8282SOL     OW36304   0.000   3.429   6.483  0.0698 -0.5896  0.7143
 8282SOL    HW136305   4.676   3.397   6.560  0.9047 -1.1050  1.0227
 8282SOL    HW236306   4.680   3.377   6.416 -0.9597  0.7135  0.3888
 8283SOL     OW36307   2.878   4.221  14.002  0.5886 -0.0208 -0.0973
 8283SOL    HW136308   2.920   4.182  14.079 -0.5530  0.6450  0.8610
 8283SOL    HW236309   2.877   4.311  14.034 -0.2767  0.2453 -0.8956
 8284SOL     OW36310   0.754   3.717  10.167 -0.2557  0.0242 -0.0213
 8284SOL    HW136311   0.675   3.673  10.198  0.6418 -2.0690 -0.7619
 8284SOL    HW236312   0.723   3.747  10.081 -0.6153 -1.0365 -0.2574
 8285SOL     OW36313   3.475   4.470   6.467  0.2067  0.0161 -0.2440
 8285SOL    HW136314   3.386   4.470   6.431  0.1891 -3.9410 -0.2780
 8285SOL    HW236315   3.477   4.377   6.493 -0.5252  0.1175  0.1878
 8286SOL     OW36316   0.920   1.000   6.157  0.4482  0.2271 -0.2219
 8286SOL    HW136317   0.866   1.008   6.236 -1.8465  0.8158 -1.8643
 8286SOL    HW236318   0.970   1.081   6.168 -0.5794  0.7312  0.7158
 8287SOL     OW36319   0.051   2.664   6.072 -0.5650 -0.0005  0.1520
 8287SOL    HW136320   0.050   2.746   6.122 -0.2247 -0.0488  0.2346
 8287SOL    HW236321   0.028   2.703   5.987 -0.5641  0.8334  0.5309
 8288SOL     OW36322   1.761   1.513  17.565  0.7833  0.5065  0.3460
 8288SOL    HW136323   1.783   1.428  17.529  0.4350  1.0703 -1.2142
 8288SOL    HW236324   1.726   1.486  17.650 -0.8248  0.8311 -0.2127
 8289SOL     OW36325   4.046   2.783   4.449  0.1435 -0.2490 -0.5794
 8289SOL    HW136326   4.135   2.754   4.470 -0.5454 -0.3122  2.1785
 8289SOL    HW236327   4.027   2.718   4.380  0.4235 -0.9111 -0.0332
 8290SOL     OW36328   4.686   3.602   0.735 -0.0359  0.6243 -0.5849
 8290SOL    HW136329   4.680   3.671   0.670 -2.9237  1.0157  0.1101
 8290SOL    HW236330   0.056   3.600   0.753 -0.3422  0.6326  1.0059
 8291SOL     OW36331   3.169   0.682   7.286  0.0243  0.5304 -0.2395
 8291SOL    HW136332   3.254   0.649   7.260  0.5571  1.4439  0.3328
 8291SOL    HW236333   3.191   0.774   7.296 -0.3767  0.6773 -0.6820
 8292SOL     OW36334   1.146   2.430   5.513 -0.0121 -0.4043  0.0102
 8292SOL    HW136335   1.174   2.475   5.593  1.3777  1.3464 -1.4560
 8292SOL    HW236336   1.110   2.346   5.543  0.9660 -0.2637  1.5747
 8293SOL     OW36337   2.035   1.566   0.811 -0.3174  0.2539  0.9329
 8293SOL    HW136338   2.045   1.498   0.877  0.9240  0.0192  0.4847
 8293SOL    HW236339   2.045   1.512   0.733 -2.3765 -1.4724  1.8638
 8294SOL     OW36340   2.978   1.760   3.796 -0.2996  0.5224 -0.0394
 8294SOL    HW136341   3.006   1.750   3.887 -0.3943 -0.2796 -0.0955
 8294SOL    HW236342   2.937   1.846   3.809  1.9433  1.8779 -2.0281
 8295SOL     OW36343   3.315   0.830  12.317 -0.0280 -0.0813 -0.7748
 8295SOL    HW136344   3.279   0.810  12.403 -0.7510  0.1361 -1.0306
 8295SOL    HW236345   3.410   0.824  12.330 -0.6853 -3.0642  2.4037
 8296SOL     OW36346   2.935   2.772   6.391 -0.4988 -0.1857 -0.9676
 8296SOL    HW136347   2.957   2.865   6.393  0.3304 -0.4044 -0.0767
 8296SOL    HW236348   2.992   2.751   6.465 -0.1993  0.2073 -1.0883
 8297SOL     OW36349   3.966   0.685  11.766  0.2716  0.3738 -0.0613
 8297SOL    HW136350   3.934   0.775  11.775 -4.5377 -1.2796 -0.8695
 8297SOL    HW236351   3.934   0.680  11.676  0.0347  1.4635 -0.0406
 8298SOL     OW36352   0.274   3.185   7.802 -0.5143 -0.2904  0.1780
 8298SOL    HW136353   0.299   3.260   7.747 -1.0625 -2.6902 -3.3268
 8298SOL    HW236354   0.350   3.182   7.860  0.2714 -1.8939 -0.9453
 8299SOL     OW36355   3.201   0.501  15.123 -0.0945  0.4468 -0.0061
 8299SOL    HW136356   3.286   0.481  15.083  0.9125  3.8979  0.3726
 8299SOL    HW236357   3.154   0.420  15.106  0.1636  0.3000 -0.0194
 8300SOL     OW36358   4.637   0.340   5.396 -0.0501 -0.3169 -0.2874
 8300SOL    HW136359   4.627   0.363   5.488 -1.1285 -0.3803 -0.3904
 8300SOL    HW236360   4.589   0.414   5.357  1.1035 -0.3498 -1.7694
 8301SOL     OW36361   0.956   0.294   2.061 -0.7308 -0.1306  0.0348
 8301SOL    HW136362   0.928   0.295   2.152  0.1062 -1.5348  0.3075
 8301SOL    HW236363   1.050   0.315   2.066  0.1666 -3.1107 -3.7783
 8302SOL     OW36364   0.791   0.688   3.953  0.5846 -0.0260 -0.7961
 8302SOL    HW136365   0.770   0.601   3.919 -2.2245  0.5661 -0.5315
 8302SOL    HW236366   0.883   0.667   3.971  0.6299  0.2258 -0.7275
 8303SOL     OW36367   0.863   4.385  14.936 -0.1716  0.0960  0.2195
 8303SOL    HW136368   0.807   4.312  14.963  0.1924 -0.6624 -1.0969
 8303SOL    HW236369   0.809   4.406  14.860 -0.3310  0.2564  0.3752
 8304SOL     OW36370   3.267   3.828  13.357  0.1987  0.1856  0.1928
 8304SOL    HW136371   3.344   3.883  13.370  0.1157  0.1851  0.6828
 8304SOL    HW236372   3.253   3.782  13.440 -0.7750 -1.5454 -0.9234
 8305SOL     OW36373   2.130   1.152   9.186 -0.1657 -0.4494  0.3919
 8305SOL    HW136374   2.216   1.112   9.176 -0.7467 -1.7875  0.7698
 8305SOL    HW236375   2.162   1.240   9.208  2.3835 -0.7892 -2.0168
 8306SOL     OW36376   2.980   2.775   7.868 -0.0762 -0.1853  0.1948
 8306SOL    HW136377   3.038   2.811   7.936 -0.9194  1.0531  0.2678
 8306SOL    HW236378   2.935   2.703   7.912 -1.6406  1.5534  1.4491
 8307SOL     OW36379   4.512   3.871   3.323  0.0660 -0.1607  0.3000
 8307SOL    HW136380   4.607   3.877   3.312 -0.1842  0.4224 -1.4240
 8307SOL    HW236381   4.489   3.870   3.230  0.6535 -0.6886  0.1599
 8308SOL     OW36382   4.223   3.770   6.967  0.4942 -0.6050  0.2929
 8308SOL    HW136383   4.212   3.863   6.990 -1.0784 -0.1911 -2.0536
 8308SOL    HW236384   4.308   3.750   7.006 -0.5818 -1.3657  2.2262
 8309SOL     OW36385   3.919   1.511   4.925  0.6382 -0.4054 -0.2772
 8309SOL    HW136386   3.962   1.570   4.987  0.3003  0.0443 -0.4702
 8309SOL    HW236387   4.000   1.473   4.889  0.9342  1.0231 -1.1086
 8310SOL     OW36388   3.726   1.255   2.950 -0.6636  0.0638  0.2056
 8310SOL    HW136389   3.726   1.242   2.855  0.5229 -2.7162  0.5787
 8310SOL    HW236390   3.778   1.335   2.955 -0.4405 -0.0712  0.0558
 8311SOL     OW36391   4.298   2.627   3.078 -0.2407 -0.5965 -0.3474
 8311SOL    HW136392   4.373   2.587   3.033 -1.5706 -0.7098 -2.4638
 8311SOL    HW236393   4.319   2.599   3.167  0.5211 -2.7716 -1.2055
 8312SOL     OW36394   1.727   3.844  14.977 -0.1467  0.7749  0.2506
 8312SOL    HW136395   1.677   3.922  15.003 -0.4316  0.7391 -0.1831
 8312SOL    HW236396   1.680   3.780  15.032  0.7113  0.6429  0.8295
 8313SOL     OW36397   1.290   0.647   5.942 -0.2282  0.4957 -0.0518
 8313SOL    HW136398   1.364   0.586   5.936 -1.1096 -0.4467 -1.2980
 8313SOL    HW236399   1.267   0.629   6.033  2.0539 -0.6624  0.2896
 8314SOL     OW36400   2.477   4.504   4.072 -0.2750 -0.0306 -0.1658
 8314SOL    HW136401   2.493   4.593   4.104  0.8040 -0.1310 -0.4369
 8314SOL    HW236402   2.523   4.464   4.145 -1.4103 -0.9965  0.0152
 8315SOL     OW36403   4.506   2.267  15.779  0.3756  0.2673  0.2532
 8315SOL    HW136404   4.455   2.277  15.698 -0.1259 -2.3216  0.2473
 8315SOL    HW236405   4.479   2.345  15.826 -0.0391 -1.4735  2.8810
 8316SOL     OW36406   4.400   2.370  15.511  0.0497 -0.1330 -0.3980
 8316SOL    HW136407   4.485   2.338  15.481  1.5099  2.5605  0.8160
 8316SOL    HW236408   4.346   2.303  15.470 -2.0751  0.0135  2.1604
 8317SOL     OW36409   2.467   3.546   4.226  0.2356  0.6190  0.2893
 8317SOL    HW136410   2.489   3.533   4.319 -0.5909 -0.2147  0.3633
 8317SOL    HW236411   2.538   3.495   4.187 -1.0808 -1.0677  0.1355
 8318SOL     OW36412   3.305   2.672   0.403 -0.6673 -0.6415  0.2316
 8318SOL    HW136413   3.280   2.702   0.490 -1.8605 -0.9467 -0.0009
 8318SOL    HW236414   3.394   2.707   0.398 -0.5594 -0.5513  2.6509
 8319SOL     OW36415   4.339   0.979  17.528 -0.2407 -0.1697  0.0379
 8319SOL    HW136416   4.369   0.941  17.610  0.8763  0.8176  0.0919
 8319SOL    HW236417   4.417   0.959  17.477  0.4157  3.8934 -0.5663
 8320SOL     OW36418   3.026   4.457   8.550  0.0123  0.6843 -0.2474
 8320SOL    HW136419   3.085   4.427   8.481 -0.2247 -1.4520  0.4772
 8320SOL    HW236420   3.020   4.549   8.526  0.9346  1.2803  1.8956
 8321SOL     OW36421   3.684   2.632   2.349 -0.4313  0.9222  0.1019
 8321SOL    HW136422   3.707   2.667   2.435  2.0790  0.1162 -0.2564
 8321SOL    HW236423   3.599   2.676   2.344 -1.0574 -0.1068  1.8523
 8322SOL     OW36424   0.844   3.105   8.808  0.3023  0.4262  0.3328
 8322SOL    HW136425   0.829   3.199   8.815  2.3005  0.7925 -0.1862
 8322SOL    HW236426   0.806   3.076   8.891 -0.0276  0.5269  0.2147
 8323SOL     OW36427   1.167   1.664   6.401 -0.1574 -0.2445  0.9281
 8323SOL    HW136428   1.241   1.673   6.460  0.5558 -1.6285  0.2565
 8323SOL    HW236429   1.217   1.615   6.336 -1.0951 -0.7140  0.5599
 8324SOL     OW36430   0.604   4.370   2.755 -0.5478 -0.3997  0.5752
 8324SOL    HW136431   0.514   4.401   2.747 -0.1795  0.4524 -0.2263
 8324SOL    HW236432   0.602   4.274   2.755 -2.7140 -0.3551  0.4924
 8325SOL     OW36433   2.988   3.827   0.528  0.2574  0.4946 -0.5627
 8325SOL    HW136434   3.045   3.798   0.457 -0.4863  1.2848 -1.4778
 8325SOL    HW236435   3.059   3.859   0.583  0.5950  0.4825 -0.9881
 8326SOL     OW36436   4.067   4.437   4.180  0.5918 -0.0815 -0.1256
 8326SOL    HW136437   4.032   4.505   4.122 -0.1798  2.1062  2.9026
 8326SOL    HW236438   4.081   4.358   4.128  0.5605  0.4055 -0.8814
 8327SOL     OW36439   3.596   3.951  11.395  0.0099  0.4112 -0.0231
 8327SOL    HW136440   3.616   3.987  11.481 -0.7724  2.8295 -0.8555
 8327SOL    HW236441   3.632   3.863  11.406  0.3446  0.6297  0.5997
 8328SOL     OW36442   2.883   3.323   8.827 -0.0685  0.0201 -0.5176
 8328SOL    HW136443   2.937   3.343   8.750 -1.5030  2.1475 -0.9724
 8328SOL    HW236444   2.904   3.401   8.879 -0.4085 -0.6235  0.5832
 8329SOL     OW36445   0.512   4.374   4.950  0.7596 -0.3561 -0.5125
 8329SOL    HW136446   0.542   4.392   4.861 -1.3074  0.3626 -1.0600
 8329SOL    HW236447   0.467   4.457   4.968  0.6772 -0.1531 -1.6988
 8330SOL     OW36448   0.004   2.562  10.512 -0.5293 -0.1748  0.1331
 8330SOL    HW136449   4.667   2.624  10.551  0.4011  1.5285 -1.1551
 8330SOL    HW236450   0.056   2.623  10.460 -2.6015  1.8186  0.3894
 8331SOL     OW36451   0.054   3.223  10.184  0.2378  0.8065  0.0857
 8331SOL    HW136452   0.131   3.256  10.229  1.2667  0.7451 -1.6423
 8331SOL    HW236453   0.077   3.234  10.092 -0.9950 -1.6025 -0.5346
 8332SOL     OW36454   1.861   3.772  12.399 -0.0442  0.4226  0.0972
 8332SOL    HW136455   1.833   3.812  12.316  0.4152  0.1344 -0.1966
 8332SOL    HW236456   1.929   3.831  12.432 -0.3245  0.6995  0.1720
 8333SOL     OW36457   2.849   3.727   6.476  0.0858 -0.3686  0.5308
 8333SOL    HW136458   2.868   3.655   6.417 -1.7931 -1.1490  0.8610
 8333SOL    HW236459   2.856   3.798   6.412 -1.5054  0.7586  1.5726
 8334SOL     OW36460   1.595   3.272   5.308  0.3136  0.5250  0.7142
 8334SOL    HW136461   1.593   3.338   5.378  2.1480  0.6424  0.6609
 8334SOL    HW236462   1.683   3.286   5.271 -0.7053  0.4322 -1.7075
 8335SOL     OW36463   4.151   0.669   4.268 -0.1297 -0.1430 -0.4866
 8335SOL    HW136464   4.142   0.753   4.223 -2.9967  0.3288  1.0092
 8335SOL    HW236465   4.169   0.701   4.356 -1.2703  2.1921 -1.1154
 8336SOL     OW36466   4.222   0.187   3.637  0.1299 -0.7546 -0.4459
 8336SOL    HW136467   4.233   0.093   3.624 -0.3120 -0.9800  0.7902
 8336SOL    HW236468   4.242   0.198   3.730  0.7147 -1.3197 -0.5095
 8337SOL     OW36469   3.718   3.264   1.510 -0.9110 -0.5462 -0.0252
 8337SOL    HW136470   3.716   3.323   1.435 -1.5970  0.2553  0.6300
 8337SOL    HW236471   3.711   3.325   1.583  1.9448  0.7336 -0.7988
 8338SOL     OW36472   2.283   2.273   8.627  0.4437 -0.2342 -0.4433
 8338SOL    HW136473   2.370   2.260   8.665  0.5810  1.5867 -0.1423
 8338SOL    HW236474   2.236   2.323   8.693  1.9888  1.4054 -0.5734
 8339SOL     OW36475   0.004   3.914   1.004 -0.5906 -0.7728 -0.2362
 8339SOL    HW136476   0.078   3.968   0.977 -2.9464  3.5393  1.8823
 8339SOL    HW236477   0.004   3.926   1.099 -0.4260  2.6488 -0.6832
 8340SOL     OW36478   1.903   2.535  13.301  0.8157 -0.1464  0.2975
 8340SOL    HW136479   1.853   2.466  13.256 -0.0405 -0.6623  2.0316
 8340SOL    HW236480   1.871   2.539  13.391 -4.4036 -2.7334 -1.4467
 8341SOL     OW36481   3.068   3.518   1.965  0.1009  0.3396  0.1277
 8341SOL    HW136482   3.092   3.554   2.050  0.5048 -1.8165  0.9254
 8341SOL    HW236483   3.151   3.516   1.917  0.2503  0.1996  0.3942
 8342SOL     OW36484   0.467   3.567   3.488 -0.3201  0.2315 -0.2704
 8342SOL    HW136485   0.501   3.488   3.529  1.4369  1.9511  1.5428
 8342SOL    HW236486   0.540   3.601   3.438 -0.8153 -0.6831 -1.6139
 8343SOL     OW36487   2.565   0.496   2.330 -0.4352 -0.6189 -0.3118
 8343SOL    HW136488   2.541   0.575   2.379 -0.2451 -0.0250 -1.1808
 8343SOL    HW236489   2.476   0.466   2.311  0.1700 -3.7255  1.7595
 8344SOL     OW36490   4.109   0.635   2.910 -0.2495 -0.2515  0.3319
 8344SOL    HW136491   4.164   0.618   2.833  1.0448  1.1273  0.9550
 8344SOL    HW236492   4.028   0.660   2.866 -0.5670 -0.2567  0.9132
 8345SOL     OW36493   1.381   1.519  10.717  0.3620 -0.5628 -0.2044
 8345SOL    HW136494   1.464   1.555  10.747 -0.0328  0.9272 -0.9018
 8345SOL    HW236495   1.315   1.564  10.771  0.3111  0.3932 -1.0630
 8346SOL     OW36496   3.528   3.544   0.144  0.2010  0.1953 -0.2540
 8346SOL    HW136497   3.542   3.473   0.206  0.4981 -1.2600 -1.9763
 8346SOL    HW236498   3.459   3.517   0.083  0.0807 -1.5757  0.6979
 8347SOL     OW36499   3.040   4.553   3.613  0.2284 -0.8159  0.2260
 8347SOL    HW136500   2.956   4.507   3.602  0.7556 -1.2550 -1.9553
 8347SOL    HW236501   3.078   4.518   3.532  0.8577  1.2137 -0.3379
 8348SOL     OW36502   0.646   0.444   2.104 -0.4219  0.2796  0.2114
 8348SOL    HW136503   0.693   0.519   2.068  1.4281 -1.0047 -0.0551
 8348SOL    HW236504   0.689   0.366   2.067 -0.0596 -1.1715  3.5865
 8349SOL     OW36505   0.145   1.908   3.887  0.6089 -0.3676  0.3231
 8349SOL    HW136506   0.184   1.996   3.891 -1.6541  0.6228  0.4222
 8349SOL    HW236507   0.133   1.899   3.792  1.9990 -1.0490  0.2069
 8350SOL     OW36508   3.915   4.670   7.537  0.3727 -0.2046  0.0036
 8350SOL    HW136509   3.991   4.689   7.592  1.0644  1.8441 -1.6575
 8350SOL    HW236510   3.851   0.012   7.565  0.0427 -0.3215 -0.4660
 8351SOL     OW36511   0.412   1.302   8.673 -0.4426 -0.7014 -0.2515
 8351SOL    HW136512   0.326   1.261   8.684 -0.6784  0.5233  2.5246
 8351SOL    HW236513   0.466   1.260   8.740 -0.1997  0.0331  0.0181
 8352SOL     OW36514   1.176   3.424   5.245  0.3469 -0.5108 -0.6759
 8352SOL    HW136515   1.255   3.412   5.296 -1.2355  1.9213  2.3126
 8352SOL    HW236516   1.209   3.411   5.156  0.1510  0.8599 -0.9351
 8353SOL     OW36517   4.172   3.282   2.439 -0.0951 -0.4740 -0.1032
 8353SOL    HW136518   4.093   3.264   2.389  0.3362 -0.5764 -0.7430
 8353SOL    HW236519   4.153   3.214   2.504  1.6425 -0.8336  0.0430
 8354SOL     OW36520   2.096   2.637  14.370 -0.0243  0.1182  0.4569
 8354SOL    HW136521   2.155   2.620  14.297  2.5446  1.8029  2.1419
 8354SOL    HW236522   2.061   2.720  14.337  2.0361  1.0413  0.6030
 8355SOL     OW36523   0.931   1.523  14.902  0.0242 -0.5489  0.0764
 8355SOL    HW136524   0.863   1.583  14.872 -0.2196  1.0596  3.8042
 8355SOL    HW236525   0.907   1.444  14.853 -0.0159  0.1967 -1.1085
 8356SOL     OW36526   1.924   4.624   6.351  0.3151 -0.4021  0.7968
 8356SOL    HW136527   1.981   4.700   6.362 -0.3979 -0.0829  2.3653
 8356SOL    HW236528   1.924   4.586   6.439  1.8119 -3.8066 -0.6439
 8357SOL     OW36529   3.036   0.698   8.526 -0.6126 -0.3599 -0.1207
 8357SOL    HW136530   3.100   0.768   8.515 -0.5688  0.1087  3.2111
 8357SOL    HW236531   3.096   0.623   8.525  1.5656  1.3632  1.6675
 8358SOL     OW36532   4.548   3.444   0.563 -0.2851  0.2377  0.0311
 8358SOL    HW136533   4.575   3.515   0.621  3.2314 -1.7766  0.8626
 8358SOL    HW236534   4.562   3.366   0.617  2.1561  0.9060  0.3350
 8359SOL     OW36535   1.158   4.119   9.073  0.0171 -0.0416 -0.1248
 8359SOL    HW136536   1.179   4.030   9.045 -0.0964 -0.4333  1.0046
 8359SOL    HW236537   1.115   4.160   8.999  0.3897  0.2316 -0.1867
 8360SOL     OW36538   3.856   2.841  12.894 -0.7479 -0.2790  0.0242
 8360SOL    HW136539   3.944   2.859  12.927  0.3333  0.2506 -3.1621
 8360SOL    HW236540   3.828   2.919  12.846 -0.7257 -0.4640 -0.2900
 8361SOL     OW36541   2.426   2.424   6.286 -0.3647 -0.3872 -0.4320
 8361SOL    HW136542   2.498   2.382   6.239  1.8576  4.2689 -1.1679
 8361SOL    HW236543   2.383   2.486   6.227  0.3704 -0.6350 -1.2372
 8362SOL     OW36544   3.310   2.641   1.953 -0.2005 -0.7247  0.4141
 8362SOL    HW136545   3.400   2.610   1.970 -0.4971 -0.7705  1.9790
 8362SOL    HW236546   3.263   2.605   2.028 -2.7504  3.4645  0.8260
 8363SOL     OW36547   3.928   3.446   8.411 -0.0573 -0.3788  0.1046
 8363SOL    HW136548   3.961   3.401   8.489 -0.5466  2.1381  1.7554
 8363SOL    HW236549   3.892   3.528   8.446 -0.4216 -0.1813 -0.7389
 8364SOL     OW36550   0.189   2.348  10.350  0.5388  0.8442  0.3504
 8364SOL    HW136551   0.125   2.389  10.409 -0.4062  0.1445 -0.1970
 8364SOL    HW236552   0.137   2.323  10.274  1.6138 -1.2335  0.3042
 8365SOL     OW36553   2.945   2.406   9.324  0.1942  0.6364  0.2273
 8365SOL    HW136554   2.941   2.378   9.415 -0.0471 -0.4929 -0.1421
 8365SOL    HW236555   2.879   2.353   9.279 -1.2593  2.3196  0.3780
 8366SOL     OW36556   2.113   3.786  10.712  0.4360 -0.2274 -0.5469
 8366SOL    HW136557   2.129   3.864  10.658  0.7202  0.8582  1.1022
 8366SOL    HW236558   2.200   3.775  10.751 -0.3145 -2.2379  0.5497
 8367SOL     OW36559   3.225   4.110   0.561  0.6431  0.8083  0.5401
 8367SOL    HW136560   3.166   4.183   0.580 -2.2777 -1.4638  0.2140
 8367SOL    HW236561   3.307   4.155   0.541  0.5765 -0.0121 -1.5079
 8368SOL     OW36562   1.539   0.683   9.224 -0.3257 -0.4331 -0.2476
 8368SOL    HW136563   1.624   0.710   9.257  0.3641 -0.0211 -2.3861
 8368SOL    HW236564   1.510   0.766   9.186  0.2217  1.4462  3.4693
 8369SOL     OW36565   3.459   2.389   8.578 -0.0606 -0.4637  0.3867
 8369SOL    HW136566   3.373   2.354   8.554 -0.4822  2.4066 -2.2467
 8369SOL    HW236567   3.435   2.406   8.669 -0.1443 -0.0404  0.2857
 8370SOL     OW36568   3.140   3.702   0.297  0.3308 -0.0733  0.2604
 8370SOL    HW136569   3.214   3.748   0.257  0.1819  2.1297  2.5246
 8370SOL    HW236570   3.171   3.618   0.263  1.9050  0.4921  0.2897
 8371SOL     OW36571   0.236   4.455   9.791  0.0123  0.3711 -0.1251
 8371SOL    HW136572   0.278   4.540   9.805  0.8318 -0.0548  0.0194
 8371SOL    HW236573   0.162   4.471   9.732  0.0332  1.7464  0.2456
 8372SOL     OW36574   1.985   2.767   7.929 -0.3493 -0.5864 -0.4376
 8372SOL    HW136575   1.979   2.799   8.019 -0.5317  0.9255 -0.9895
 8372SOL    HW236576   1.913   2.704   7.923 -0.1000 -0.9644  0.5613
 8373SOL     OW36577   4.426   1.925   2.654  0.3081  0.2131  0.1171
 8373SOL    HW136578   4.452   1.994   2.715 -0.3873 -0.3540  1.0583
 8373SOL    HW236579   4.460   1.847   2.698 -1.6495 -1.0976 -0.6748
 8374SOL     OW36580   3.039   4.716   8.474 -0.5847 -0.8610  0.2124
 8374SOL    HW136581   3.028   4.703   8.380  0.4526 -1.9131  0.2294
 8374SOL    HW236582   3.104   0.062   8.474 -0.0216 -1.3787  0.0177
 8375SOL     OW36583   2.649   2.496   5.171  0.1899  0.0377  0.5730
 8375SOL    HW136584   2.686   2.546   5.098 -0.3893 -0.4512 -0.0506
 8375SOL    HW236585   2.649   2.408   5.132  1.2516 -0.0467  0.7447
 8376SOL     OW36586   2.144   1.949   5.376  0.0774 -0.2594 -0.1626
 8376SOL    HW136587   2.130   1.861   5.340  0.7477 -0.3083 -0.3154
 8376SOL    HW236588   2.167   1.988   5.292  2.6067 -1.3884 -0.0037
 8377SOL     OW36589   1.432   1.405   6.778  0.1792 -0.1225 -1.0113
 8377SOL    HW136590   1.449   1.332   6.719  1.8209 -0.1215 -0.5379
 8377SOL    HW236591   1.522   1.433   6.795  0.7904 -1.5754 -1.8663
 8378SOL     OW36592   0.925   0.739   4.320  0.8526 -0.4206  0.2666
 8378SOL    HW136593   0.955   0.757   4.231 -0.3641 -0.9071 -0.2522
 8378SOL    HW236594   0.872   0.661   4.302  0.9004 -0.2901 -0.4610
 8379SOL     OW36595   0.827   3.330  14.416  0.4570 -0.2394 -0.0763
 8379SOL    HW136596   0.878   3.355  14.493 -0.2411  0.9262 -0.0034
 8379SOL    HW236597   0.751   3.292  14.460  1.0311 -0.7444  0.4800
 8380SOL     OW36598   3.069   4.634  16.948  0.1426 -0.5703 -0.0103
 8380SOL    HW136599   3.115   4.553  16.924  3.6993  1.0764  1.2218
 8380SOL    HW236600   2.988   4.599  16.986 -0.1652 -0.2539 -0.3804
 8381SOL     OW36601   0.242   1.915   4.820  0.0153  0.5718  0.4635
 8381SOL    HW136602   0.244   1.848   4.752 -1.2750  2.2853 -1.2756
 8381SOL    HW236603   0.180   1.979   4.786  1.1862  0.7945 -1.2776
 8382SOL     OW36604   0.997   2.563   8.150  0.0482  0.1042  0.1437
 8382SOL    HW136605   0.987   2.476   8.112  0.7089  0.0569  0.0739
 8382SOL    HW236606   0.987   2.619   8.073 -1.1118  1.4532  1.2775
 8383SOL     OW36607   4.640   2.428   3.328 -0.0779 -0.1568  0.0527
 8383SOL    HW136608   0.004   2.433   3.292 -0.8146 -0.8026 -1.9109
 8383SOL    HW236609   4.590   2.455   3.251 -2.1082 -0.7180  1.1655
 8384SOL     OW36610   2.475   3.166  14.484 -0.0840  0.1830 -0.3336
 8384SOL    HW136611   2.422   3.098  14.442  0.2899 -0.8879  0.9257
 8384SOL    HW236612   2.440   3.249  14.452  0.3022  2.3698  4.9400
 8385SOL     OW36613   3.030   1.073  12.102 -0.0880  0.1970 -0.3181
 8385SOL    HW136614   2.938   1.091  12.084 -0.1488  1.4257  1.2377
 8385SOL    HW236615   3.042   0.985  12.066 -1.3749 -1.6321  3.6940
 8386SOL     OW36616   2.428   1.283   8.252  0.4075  0.1739  0.2261
 8386SOL    HW136617   2.467   1.364   8.220  1.9701 -0.6312  0.0774
 8386SOL    HW236618   2.355   1.323   8.300 -0.1419 -1.1569  0.5129
 8387SOL     OW36619   2.698   3.404   1.055 -0.3182  0.2026 -0.2045
 8387SOL    HW136620   2.789   3.418   1.079 -0.0812 -2.8602  0.5981
 8387SOL    HW236621   2.649   3.463   1.113  1.6042  1.0832  0.4916
 8388SOL     OW36622   2.670   1.968   9.548  0.4806 -0.2864 -0.4497
 8388SOL    HW136623   2.643   1.884   9.508 -0.5037 -0.3483  0.3295
 8388SOL    HW236624   2.616   2.032   9.502 -1.4055 -0.8399  0.9912
 8389SOL     OW36625   2.474   2.453  12.959  0.4695  0.5172  0.3740
 8389SOL    HW136626   2.417   2.509  13.011  2.9160  2.0647  1.3718
 8389SOL    HW236627   2.442   2.473  12.871 -2.4488 -0.4633  1.2136
 8390SOL     OW36628   1.403   2.062   5.454  0.4893  0.6954  0.5613
 8390SOL    HW136629   1.463   1.992   5.480  0.0199  0.1332  0.0927
 8390SOL    HW236630   1.461   2.133   5.426  0.7733  0.4614  0.5556
 8391SOL     OW36631   1.038   3.652   5.814  0.0488  0.4888 -0.0348
 8391SOL    HW136632   1.083   3.680   5.734 -0.9908  0.8783 -0.4849
 8391SOL    HW236633   1.109   3.636   5.876  0.1165  0.6537 -0.0715
 8392SOL     OW36634   2.361   0.246   2.577  0.0355  0.3828 -0.2857
 8392SOL    HW136635   2.419   0.322   2.587  1.3044 -0.5551 -0.4216
 8392SOL    HW236636   2.279   0.291   2.595 -0.1321  0.1768 -0.5407
 8393SOL     OW36637   0.411   0.083   1.416 -0.2042  0.3003  0.3361
 8393SOL    HW136638   0.500   0.106   1.442  0.4449  0.8167 -2.3519
 8393SOL    HW236639   0.355   0.138   1.471 -1.2140 -1.3743  0.9780
 8394SOL     OW36640   4.255   1.364   6.230  0.0334 -0.3268 -0.4622
 8394SOL    HW136641   4.266   1.406   6.315 -0.3838  0.3844 -0.7621
 8394SOL    HW236642   4.336   1.316   6.210  0.5651 -0.5246  2.1798
 8395SOL     OW36643   0.442   4.626   5.026  0.4275 -0.4681  0.1486
 8395SOL    HW136644   0.473   4.690   5.090 -0.2662 -0.8011  0.8088
 8395SOL    HW236645   0.365   4.671   4.990 -0.6499 -2.5231 -0.1443
 8396SOL     OW36646   2.189   0.930  15.007  0.6132 -0.1459  0.7742
 8396SOL    HW136647   2.188   0.839  15.036 -0.2319 -0.9218 -1.6945
 8396SOL    HW236648   2.136   0.980  15.070  1.1758  0.4913  0.7429
 8397SOL     OW36649   2.115   1.529   9.532  0.3102 -0.8809  0.0733
 8397SOL    HW136650   2.166   1.568   9.603 -0.3042  0.9035 -0.4618
 8397SOL    HW236651   2.066   1.464   9.582 -0.3060  1.4764  2.5280
 8398SOL     OW36652   1.817   3.251   8.666  0.3290  0.6711  0.1404
 8398SOL    HW136653   1.788   3.165   8.696  0.5569  1.0955  1.5862
 8398SOL    HW236654   1.882   3.219   8.604  2.5992  1.1638  2.2566
 8399SOL     OW36655   0.161   4.189   2.495  0.4893 -0.0451 -0.5528
 8399SOL    HW136656   0.140   4.171   2.403  2.6796  0.7948 -1.2238
 8399SOL    HW236657   0.107   4.120   2.533 -1.6600  0.5318 -2.5431
 8400SOL     OW36658   4.623   0.693  15.814  0.1127 -0.3312 -0.5159
 8400SOL    HW136659   4.566   0.617  15.821  1.2473 -1.3391 -2.2891
 8400SOL    HW236660   4.588   0.751  15.747 -0.4931  0.6268  0.6281
 8401SOL     OW36661   3.657   0.828   9.974 -0.1615 -0.1600  0.6475
 8401SOL    HW136662   3.725   0.868  10.027 -1.0617  0.2521  1.5063
 8401SOL    HW236663   3.705   0.835   9.892  1.1195  0.7005  1.4669
 8402SOL     OW36664   2.367   1.166   7.414 -0.1157  0.2097 -0.3925
 8402SOL    HW136665   2.296   1.176   7.478  1.6005  1.0695  1.3724
 8402SOL    HW236666   2.313   1.113   7.355  0.6931 -1.9035  0.7979
 8403SOL     OW36667   0.108   1.417   6.524 -0.7835  0.5946  0.2665
 8403SOL    HW136668   0.188   1.431   6.575  0.1031 -1.1023 -0.6413
 8403SOL    HW236669   0.139   1.352   6.460 -0.5210  1.4924 -0.5171
 8404SOL     OW36670   1.857   3.637   3.127 -0.3326 -0.2674 -0.3553
 8404SOL    HW136671   1.842   3.547   3.097 -2.3288  0.4332 -1.4602
 8404SOL    HW236672   1.883   3.616   3.216 -0.6172 -0.9928 -0.4479
 8405SOL     OW36673   2.762   3.111  16.669  0.1691  0.4839 -0.5131
 8405SOL    HW136674   2.717   3.027  16.678  0.6744  0.2429 -0.2525
 8405SOL    HW236675   2.710   3.161  16.732  0.5082  0.9798 -0.6372
 8406SOL     OW36676   0.806   0.595   7.482  0.1692  0.4208  0.2048
 8406SOL    HW136677   0.734   0.533   7.492  2.3833 -2.5062 -2.0214
 8406SOL    HW236678   0.790   0.658   7.552 -0.5438  1.0278 -0.4942
 8407SOL     OW36679   0.323   3.881   7.481  0.2457  0.3881  0.2472
 8407SOL    HW136680   0.271   3.857   7.558  0.6113  0.0069  0.3726
 8407SOL    HW236681   0.286   3.821   7.416  0.5793  0.9589 -0.4537
 8408SOL     OW36682   0.880   1.769   4.345  0.4780  0.0440 -0.0145
 8408SOL    HW136683   0.861   1.680   4.374  0.4599  0.4531  1.2272
 8408SOL    HW236684   0.975   1.773   4.338  0.6277  0.4526  2.1601
 8409SOL     OW36685   4.605   2.544   6.482 -0.0716  0.2604 -0.0503
 8409SOL    HW136686   4.542   2.497   6.537  0.0426  0.5113  0.2982
 8409SOL    HW236687   4.565   2.539   6.395  0.9343  2.8617 -0.6503
 8410SOL     OW36688   2.455   0.245  10.550 -0.3353  0.3578 -0.1597
 8410SOL    HW136689   2.429   0.259  10.641  1.2641 -1.4510  0.5664
 8410SOL    HW236690   2.369   0.249  10.510  0.2087  3.1518 -1.0586
 8411SOL     OW36691   3.606   4.251   3.151  0.2517  0.4801  0.0789
 8411SOL    HW136692   3.668   4.208   3.093 -0.5594 -2.3609  1.3348
 8411SOL    HW236693   3.668   4.296   3.210  2.5465  0.5926 -2.4269
 8412SOL     OW36694   0.958   1.622  11.326  0.0518 -0.1881  0.3713
 8412SOL    HW136695   0.875   1.574  11.326  1.4182 -2.5622 -2.3322
 8412SOL    HW236696   0.976   1.628  11.419 -2.4520  1.8350  0.7327
 8413SOL     OW36697   4.615   0.418  12.762  0.7326 -0.2340 -0.7325
 8413SOL    HW136698   4.575   0.394  12.846 -0.3863 -3.0330 -2.1072
 8413SOL    HW236699   4.624   0.333  12.721 -1.5885 -1.8112  2.0261
 8414SOL     OW36700   4.496   3.033  15.728  0.3675 -0.7377 -0.3078
 8414SOL    HW136701   4.507   3.081  15.646 -0.9435 -1.7662 -1.0882
 8414SOL    HW236702   4.578   2.985  15.731  0.6284 -0.3539 -1.3613
 8415SOL     OW36703   0.308   3.445   8.820 -0.5462 -0.2339 -0.0649
 8415SOL    HW136704   0.355   3.403   8.892  1.9006 -1.2229 -2.2036
 8415SOL    HW236705   0.344   3.532   8.808  2.1086 -1.1691  1.1103
 8416SOL     OW36706   1.927   4.698  14.830  0.2565  0.7047  0.4886
 8416SOL    HW136707   1.877   4.616  14.826  0.8184  0.5353 -2.8923
 8416SOL    HW236708   2.013   4.659  14.847  0.4720  0.1191 -1.9755
 8417SOL     OW36709   0.608   2.451  14.700 -0.8915  0.2366 -0.4709
 8417SOL    HW136710   0.516   2.429  14.712 -0.9847  1.2286  0.6832
 8417SOL    HW236711   0.615   2.442  14.605 -0.2268  0.3789 -0.4386
 8418SOL     OW36712   0.458   3.051  16.491 -0.2343  0.3565 -0.0813
 8418SOL    HW136713   0.459   3.117  16.422 -1.7173  1.4866  0.9833
 8418SOL    HW236714   0.412   3.098  16.560 -1.1807 -1.8799  0.8103
 8419SOL     OW36715   4.441   1.572   8.502 -0.2068  0.1453  0.3351
 8419SOL    HW136716   4.525   1.539   8.471 -1.3451  1.4770 -4.1421
 8419SOL    HW236717   4.398   1.491   8.527  1.0642 -1.6489 -3.3328
 8420SOL     OW36718   0.919   1.607   0.663 -0.5158 -0.6125 -0.3592
 8420SOL    HW136719   1.003   1.603   0.708 -0.4303  1.5686 -0.3038
 8420SOL    HW236720   0.916   1.521   0.621  3.1316 -1.8778  2.0253
 8421SOL     OW36721   0.241   2.819   0.636  0.0020  0.0522  0.4863
 8421SOL    HW136722   0.169   2.767   0.670  1.9989 -2.4619  0.8478
 8421SOL    HW236723   0.306   2.750   0.629  0.7581  0.8461 -0.3801
 8422SOL     OW36724   2.852   4.346   6.982 -0.4677 -0.5373 -0.1791
 8422SOL    HW136725   2.844   4.273   6.920  2.0268  0.0099 -1.1383
 8422SOL    HW236726   2.838   4.418   6.920 -0.3568  0.2840  0.7495
 8423SOL     OW36727   2.784   1.111   7.025 -0.6133 -0.1377 -0.0721
 8423SOL    HW136728   2.807   1.195   7.067 -1.4346  0.4847 -0.8692
 8423SOL    HW236729   2.847   1.051   7.065 -0.7671 -0.4571 -0.3131
 8424SOL     OW36730   4.467   3.744   7.087  0.1181  0.5317 -0.4527
 8424SOL    HW136731   4.530   3.801   7.131  0.3812 -1.1107  1.3093
 8424SOL    HW236732   4.519   3.666   7.069 -1.2261 -0.5936  0.4390
 8425SOL     OW36733   2.095   0.147   9.924  0.4097 -0.2694  0.1381
 8425SOL    HW136734   2.001   0.146   9.910  0.3512  1.4799  0.3676
 8425SOL    HW236735   2.132   0.189   9.847  1.1767  0.7660  1.0630
 8426SOL     OW36736   0.648   1.305  11.228  0.5949 -0.2662 -0.1004
 8426SOL    HW136737   0.585   1.259  11.283  1.0538 -3.0674 -1.9349
 8426SOL    HW236738   0.694   1.353  11.296  1.1959 -1.3280  0.2430
 8427SOL     OW36739   1.752   4.350   3.997  0.3579  0.1465 -0.2545
 8427SOL    HW136740   1.764   4.269   3.948  2.6961 -0.6794  1.6726
 8427SOL    HW236741   1.803   4.346   4.078  3.0993 -1.4473 -2.1010
 8428SOL     OW36742   2.607   3.359   5.708 -0.0420  0.1686 -0.2103
 8428SOL    HW136743   2.579   3.292   5.646  0.8241 -0.0838 -0.3230
 8428SOL    HW236744   2.699   3.366   5.682 -0.4996 -1.8005 -2.3620
 8429SOL     OW36745   1.818   1.096   5.136  0.8687  0.2648  0.2783
 8429SOL    HW136746   1.763   1.121   5.061 -0.3974  0.6222  1.3257
 8429SOL    HW236747   1.831   1.004   5.114 -2.0299  0.3432 -1.8365
 8430SOL     OW36748   1.406   3.925   5.854  0.1054  0.0591 -0.3026
 8430SOL    HW136749   1.384   3.996   5.915  0.1005 -0.9719  0.8950
 8430SOL    HW236750   1.492   3.909   5.892 -0.4505 -0.7291  0.6253
 8431SOL     OW36751   2.987   2.395   6.576 -0.0218  0.5780 -0.2628
 8431SOL    HW136752   2.979   2.313   6.624  1.9378  1.3081  1.3165
 8431SOL    HW236753   3.067   2.371   6.530  0.3889  0.2735  0.6140
 8432SOL     OW36754   2.996   0.231  16.244  0.3926 -0.4042  0.1055
 8432SOL    HW136755   3.083   0.211  16.211  1.2828  1.3303  1.4248
 8432SOL    HW236756   3.000   0.320  16.210  2.4803 -0.5854 -0.1229
 8433SOL     OW36757   1.398   3.097  16.170  0.1368  0.3820 -0.1250
 8433SOL    HW136758   1.322   3.073  16.223 -0.6182  2.7009 -0.1388
 8433SOL    HW236759   1.453   3.019  16.167 -2.4147 -1.4314  0.9043
 8434SOL     OW36760   2.783   1.611   3.659 -0.3597 -0.1465  0.1119
 8434SOL    HW136761   2.853   1.649   3.711 -0.2207 -1.9895  1.2874
 8434SOL    HW236762   2.747   1.682   3.606 -0.5958  0.6098  1.2712
 8435SOL     OW36763   4.387   2.468   2.203  0.2829  0.0513 -0.2161
 8435SOL    HW136764   4.373   2.459   2.298  2.0194  1.0417  0.1309
 8435SOL    HW236765   4.481   2.453   2.211  0.3404  0.3431 -0.3573
 8436SOL     OW36766   3.521   1.879  16.152  0.0707 -0.7037  0.1449
 8436SOL    HW136767   3.523   1.809  16.218 -0.2556 -2.6571 -1.8957
 8436SOL    HW236768   3.567   1.950  16.196  1.0177 -0.4737 -1.2129
 8437SOL     OW36769   0.500   1.958   2.199  0.1155  0.0692 -0.0638
 8437SOL    HW136770   0.551   1.927   2.123 -1.9575 -0.8123 -1.0746
 8437SOL    HW236771   0.432   1.891   2.200  0.7307 -0.6385 -2.7914
 8438SOL     OW36772   1.388   4.450   8.786 -0.7137 -0.1971 -0.2996
 8438SOL    HW136773   1.417   4.359   8.787  1.4653  0.5017  1.3485
 8438SOL    HW236774   1.473   4.487   8.812 -0.0750 -2.0335  0.2277
 8439SOL     OW36775   3.417   2.860   4.388  0.2884 -0.0250 -0.3188
 8439SOL    HW136776   3.468   2.798   4.335  0.5885  0.4409 -0.5716
 8439SOL    HW236777   3.375   2.800   4.450  1.2017 -1.3762 -1.0150
 8440SOL     OW36778   1.432   0.119  15.385 -0.3539 -0.2115 -0.1523
 8440SOL    HW136779   1.487   0.179  15.435 -1.0632  0.4344 -0.1578
 8440SOL    HW236780   1.360   0.101  15.445  1.2080 -0.5432  1.6110
 8441SOL     OW36781   2.255   3.272   6.498  0.2983  0.2354 -0.2299
 8441SOL    HW136782   2.245   3.367   6.501  1.2619  0.3877 -1.8720
 8441SOL    HW236783   2.175   3.258   6.549  0.7685 -0.0948  0.4163
 8442SOL     OW36784   2.620   4.012   2.824  0.2194 -0.0667  0.1532
 8442SOL    HW136785   2.715   4.005   2.828  0.2196 -0.1172  0.0587
 8442SOL    HW236786   2.601   4.046   2.911 -1.1371  0.1285 -0.2165
 8443SOL     OW36787   0.023   2.875   6.959  0.3393  0.4782 -0.2793
 8443SOL    HW136788   4.653   2.890   6.948  0.6934 -0.1179 -4.1945
 8443SOL    HW236789   0.061   2.962   6.966  2.3436 -0.4953  0.7746
 8444SOL     OW36790   0.128   3.574  15.941  0.3637 -0.1635  0.7249
 8444SOL    HW136791   0.209   3.559  15.991  0.5425  1.8171  1.0178
 8444SOL    HW236792   0.117   3.486  15.905  1.1652 -0.9210  2.3327
 8445SOL     OW36793   4.178   2.645  11.728  0.0628  0.1119  0.2687
 8445SOL    HW136794   4.109   2.605  11.781  0.4976 -2.2706 -0.9396
 8445SOL    HW236795   4.262   2.610  11.760 -1.5546 -2.5954  1.6082
 8446SOL     OW36796   2.253   4.712   9.585  0.4155 -0.3293  0.2293
 8446SOL    HW136797   2.245   4.709   9.489 -0.9458 -1.0973  0.3679
 8446SOL    HW236798   2.348   4.707   9.601  0.4954 -0.0244 -0.1462
 8447SOL     OW36799   3.007   2.550   8.594 -0.2662 -0.0961 -0.7060
 8447SOL    HW136800   3.092   2.507   8.595  0.1277  0.6587 -1.2465
 8447SOL    HW236801   2.976   2.528   8.682 -0.5709 -0.2644 -0.8536
 8448SOL     OW36802   3.394   3.771   7.079 -0.1116 -0.2308  0.1615
 8448SOL    HW136803   3.326   3.705   7.090 -0.3757 -0.0973 -0.7201
 8448SOL    HW236804   3.381   3.832   7.152  0.5539  0.9969 -0.7509
 8449SOL     OW36805   0.881   3.605   4.176  0.3074  0.3406 -0.5535
 8449SOL    HW136806   0.819   3.654   4.230  0.9755  0.0485  0.4733
 8449SOL    HW236807   0.851   3.515   4.181  0.2625  0.3076 -1.3747
 8450SOL     OW36808   0.168   1.500   3.250  0.3483 -0.3718  0.3778
 8450SOL    HW136809   0.079   1.513   3.215  0.7854  2.4039  0.3523
 8450SOL    HW236810   0.172   1.405   3.240 -0.0756 -0.5212  1.6495
 8451SOL     OW36811   0.669   2.458  10.935  0.4141 -0.4855  0.4327
 8451SOL    HW136812   0.621   2.407  11.000  1.1359 -1.2497  0.3659
 8451SOL    HW236813   0.733   2.395  10.903  0.5663 -0.0820 -0.0553
 8452SOL     OW36814   0.006   0.915   6.782  0.5983  0.2749  0.1907
 8452SOL    HW136815   4.707   0.834   6.827 -0.1396  0.7974  0.7520
 8452SOL    HW236816   4.651   0.938   6.733 -0.8157  0.7753  2.7448
 8453SOL     OW36817   4.564   0.298   2.539 -0.4695  0.3002  0.1914
 8453SOL    HW136818   4.485   0.247   2.518  1.3198 -2.2663 -0.2726
 8453SOL    HW236819   4.599   0.315   2.452  1.8166  1.9617  1.4721
 8454SOL     OW36820   0.281   4.576   8.343 -0.2992 -0.4046 -0.2310
 8454SOL    HW136821   0.355   4.569   8.403  1.6225  1.6250 -2.3594
 8454SOL    HW236822   0.263   4.482   8.337  0.4379 -0.4254 -2.1254
 8455SOL     OW36823   3.423   3.868   8.019 -0.3684  0.2464  0.0582
 8455SOL    HW136824   3.411   3.894   8.110  1.8800 -1.7321  0.9134
 8455SOL    HW236825   3.432   3.773   8.022 -0.2353  0.2530 -0.1258
 8456SOL     OW36826   0.208   2.178   0.779 -0.2693 -0.2415 -0.3819
 8456SOL    HW136827   0.162   2.102   0.744  1.6035 -1.6610  0.2196
 8456SOL    HW236828   0.191   2.173   0.873  0.0446  0.7219 -0.2783
 8457SOL     OW36829   0.994   3.032   0.291  0.5309 -0.1399  0.0456
 8457SOL    HW136830   0.938   3.056   0.365 -0.4357 -3.3732  0.3320
 8457SOL    HW236831   0.936   3.062   0.221  0.5326 -1.1306 -0.3718
 8458SOL     OW36832   0.715   1.655   6.169 -0.5366 -0.2545 -0.1816
 8458SOL    HW136833   0.696   1.748   6.182  2.6259  0.3438  0.0477
 8458SOL    HW236834   0.716   1.631   6.261  0.9330 -1.6478 -0.5653
 8459SOL     OW36835   2.167   3.479  17.368  0.1042 -0.5773 -0.3013
 8459SOL    HW136836   2.082   3.434  17.372  0.0807 -0.4932  0.1633
 8459SOL    HW236837   2.165   3.510  17.459  0.2581 -0.4216 -0.3517
 8460SOL     OW36838   4.171   0.802   0.799  0.0264 -0.1240 -0.2802
 8460SOL    HW136839   4.146   0.763   0.883  1.3416 -1.0153 -0.3088
 8460SOL    HW236840   4.173   0.727   0.741 -0.7981  1.0142 -1.7832
 8461SOL     OW36841   2.263   0.519  15.341 -0.2144  0.0138  0.1792
 8461SOL    HW136842   2.233   0.433  15.314  0.8530 -0.9332  2.0367
 8461SOL    HW236843   2.284   0.503  15.433  0.9744  0.9998  0.0838
 8462SOL     OW36844   1.940   0.155   9.287  0.0394  0.0169  0.0409
 8462SOL    HW136845   1.931   0.178   9.195  1.0243  2.0373  0.4349
 8462SOL    HW236846   1.919   0.238   9.332 -3.2115 -1.7451  1.7824
 8463SOL     OW36847   0.215   3.932   0.736 -0.1080  0.5487 -0.3441
 8463SOL    HW136848   0.177   4.020   0.741  1.0605  1.0049  0.4928
 8463SOL    HW236849   0.309   3.951   0.747  0.0507 -0.0734 -0.6545
 8464SOL     OW36850   0.632   3.822   1.907 -0.3370 -0.1494  0.0625
 8464SOL    HW136851   0.543   3.791   1.926 -0.2200 -0.9077 -0.6270
 8464SOL    HW236852   0.633   3.800   1.814  2.6028  1.9746 -0.3680
 8465SOL     OW36853   0.835   0.262  16.734 -0.1825 -0.3225  0.3039
 8465SOL    HW136854   0.742   0.274  16.710  0.4081  3.3593 -0.1698
 8465SOL    HW236855   0.875   0.288  16.651 -1.8742 -1.1961 -0.7891
 8466SOL     OW36856   4.585   4.503   3.656 -0.7192  0.0381  0.0517
 8466SOL    HW136857   4.591   4.488   3.562  2.2377 -2.9974  0.7202
 8466SOL    HW236858   4.650   4.573   3.668 -0.3008 -0.4742  0.7808
 8467SOL     OW36859   0.356   1.980   6.545 -0.5838  0.2567  0.2987
 8467SOL    HW136860   0.426   2.045   6.534  0.5726 -1.1976 -0.8593
 8467SOL    HW236861   0.277   2.031   6.563  0.2265  1.6283  0.0026
 8468SOL     OW36862   3.349   3.562  10.654 -0.5370  0.2486 -0.2944
 8468SOL    HW136863   3.434   3.606  10.661 -0.9145  0.8555  0.4730
 8468SOL    HW236864   3.384   3.473  10.656 -1.9070 -0.2380  1.2971
 8469SOL     OW36865   3.309   1.862   3.695  0.2331 -0.0205 -0.3084
 8469SOL    HW136866   3.316   1.850   3.600  0.7287 -0.0376 -0.2708
 8469SOL    HW236867   3.292   1.769   3.708  0.4884 -0.0241 -0.0068
 8470SOL     OW36868   0.382   3.913  13.953  0.5570 -0.1621 -0.0230
 8470SOL    HW136869   0.459   3.864  13.927  1.5027 -0.2913  3.0737
 8470SOL    HW236870   0.411   3.933  14.042  0.5764  0.6157 -0.2029
 8471SOL     OW36871   1.180   0.669   9.587 -0.4672 -0.2377 -0.3122
 8471SOL    HW136872   1.263   0.666   9.540 -0.4024  0.4714 -0.2370
 8471SOL    HW236873   1.136   0.587   9.565 -1.8546  0.7072 -1.0947
 8472SOL     OW36874   3.472   1.169   5.306 -0.4831  0.0486 -0.4110
 8472SOL    HW136875   3.402   1.155   5.370  0.8991  1.7399  1.4531
 8472SOL    HW236876   3.427   1.210   5.232  2.1281  0.3108 -1.8433
 8473SOL     OW36877   1.985   0.998   0.013 -0.2796 -1.1319  0.0430
 8473SOL    HW136878   1.931   0.993  17.632 -0.6523  1.2930  0.1548
 8473SOL    HW236879   2.068   1.016  17.667 -1.5798  0.1898 -1.8912
 8474SOL     OW36880   3.722   3.095   8.377 -0.7289  0.4149 -0.3845
 8474SOL    HW136881   3.802   3.052   8.348 -0.8887 -0.2178  0.1176
 8474SOL    HW236882   3.691   3.038   8.448 -0.7333  2.1332  1.0028
 8475SOL     OW36883   2.767   4.376   6.283  0.2971  0.2406  0.3053
 8475SOL    HW136884   2.686   4.326   6.278 -0.4300  1.2389  1.9314
 8475SOL    HW236885   2.802   4.363   6.195 -1.2781 -3.6070  0.2352
 8476SOL     OW36886   0.420   2.722  12.932 -0.2754  0.2102  0.5535
 8476SOL    HW136887   0.505   2.717  12.976  0.3931 -2.3279 -1.0377
 8476SOL    HW236888   0.369   2.759  13.003  1.7131  2.2371  0.9215
 8477SOL     OW36889   2.649   1.123   1.727 -0.5084 -0.5246  0.2002
 8477SOL    HW136890   2.588   1.057   1.761  0.2076 -1.1995  0.1738
 8477SOL    HW236891   2.733   1.078   1.738 -1.4022 -2.3257 -0.2273
 8478SOL     OW36892   4.591   3.058  16.091 -0.8686 -0.2207  0.0824
 8478SOL    HW136893   4.662   2.994  16.088 -0.0678  0.6751 -0.4407
 8478SOL    HW236894   4.517   3.018  16.047  0.5103 -2.7760  0.0816
 8479SOL     OW36895   2.279   2.300   4.102 -0.4875  0.3477 -0.4141
 8479SOL    HW136896   2.213   2.347   4.052 -1.0870  0.0736  0.1147
 8479SOL    HW236897   2.350   2.284   4.040 -0.4182 -3.5446  0.6561
 8480SOL     OW36898   1.520   0.110  10.491  0.6955  0.0170  0.5209
 8480SOL    HW136899   1.442   0.112  10.436 -0.3208 -0.4124  1.9485
 8480SOL    HW236900   1.476   0.085  10.573 -2.3688  1.5069 -0.6537
 8481SOL     OW36901   4.533   0.321   5.672 -0.5617  0.4749  0.2937
 8481SOL    HW136902   4.576   0.258   5.729 -1.7259  1.3749  2.1861
 8481SOL    HW236903   4.443   0.287   5.677 -0.3117 -0.7431 -3.7958
 8482SOL     OW36904   1.885   1.115   4.050 -0.2211 -0.0916 -0.5125
 8482SOL    HW136905   1.824   1.165   3.996 -1.0075 -0.1525  0.3347
 8482SOL    HW236906   1.919   1.051   3.988  0.3850 -1.6532  1.4128
 8483SOL     OW36907   1.606   0.939   5.980 -0.1118  0.2866  0.0959
 8483SOL    HW136908   1.516   0.948   5.948 -0.7313 -1.3852  1.3849
 8483SOL    HW236909   1.608   0.859   6.032 -2.5045 -1.2057 -2.0754
 8484SOL     OW36910   3.676   4.656  12.554  0.2707 -0.2273  0.5388
 8484SOL    HW136911   3.757   4.647  12.605  0.6502  1.4621  0.2432
 8484SOL    HW236912   3.614   4.695  12.617  1.2033  2.8436 -0.4561
 8485SOL     OW36913   4.626   4.206   6.800 -0.1078 -0.1808 -0.2541
 8485SOL    HW136914   4.623   4.174   6.710 -0.4642  0.6953 -0.5463
 8485SOL    HW236915   4.693   4.149   6.839  1.1288  2.1130  0.9938
 8486SOL     OW36916   4.301   1.068   2.117 -0.8211 -0.2696  1.0693
 8486SOL    HW136917   4.223   1.118   2.094  0.2480  1.0988  0.4246
 8486SOL    HW236918   4.358   1.134   2.157 -1.9141  1.5551 -0.4289
 8487SOL     OW36919   3.570   2.677   7.398 -0.6832  0.7932  0.1368
 8487SOL    HW136920   3.538   2.593   7.364  0.6007  0.4383 -0.1846
 8487SOL    HW236921   3.659   2.657   7.425 -0.6504 -0.7091 -1.0453
 8488SOL     OW36922   2.112   0.879   4.093  0.3029  0.0122 -0.3380
 8488SOL    HW136923   2.086   0.930   4.016  1.3845  0.4588 -0.4098
 8488SOL    HW236924   2.095   0.787   4.073 -2.3826  0.6165 -0.8838
 8489SOL     OW36925   2.902   0.146   3.636  0.2035 -0.0040  0.2858
 8489SOL    HW136926   2.885   0.239   3.653 -0.1729  0.1389 -0.8773
 8489SOL    HW236927   2.868   0.102   3.713  2.3887  0.9140  1.7960
 8490SOL     OW36928   1.341   1.313   5.015 -0.0801 -0.2882  0.3896
 8490SOL    HW136929   1.412   1.273   5.065  0.7059  1.3542  0.5899
 8490SOL    HW236930   1.358   1.398   5.055  1.9537 -0.1834 -0.6911
 8491SOL     OW36931   0.033   0.693  13.851 -0.2966 -0.1679  0.2050
 8491SOL    HW136932   4.716   0.770  13.891 -0.8235 -0.4122  0.1343
 8491SOL    HW236933   0.121   0.731  13.840 -0.2633 -0.3171 -0.0556
 8492SOL     OW36934   2.349   4.702   7.072  0.2830  0.6773  0.6876
 8492SOL    HW136935   2.411   4.693   7.144  0.2110 -0.1278  0.6419
 8492SOL    HW236936   2.337   4.617   7.031  0.2551  1.0372 -0.0540
 8493SOL     OW36937   2.708   0.874  10.590  0.1891 -0.5437 -0.4511
 8493SOL    HW136938   2.628   0.901  10.545 -1.8537  0.0866  3.5424
 8493SOL    HW236939   2.669   0.835  10.669  1.6306 -1.2460 -0.0879
 8494SOL     OW36940   0.504   4.279  16.038  0.1057  0.6783  0.2544
 8494SOL    HW136941   0.501   4.276  16.134  2.1136  0.3591  0.3055
 8494SOL    HW236942   0.414   4.309  16.025  0.2131  0.5696 -0.6978
 8495SOL     OW36943   2.909   3.370   6.825  0.5647  0.2818 -0.8275
 8495SOL    HW136944   2.969   3.445   6.821  0.5389  0.4889  2.5056
 8495SOL    HW236945   2.843   3.408   6.767  1.5759 -0.7470 -2.6362
 8496SOL     OW36946   2.037   1.970   8.377 -0.3644 -0.1563 -0.0350
 8496SOL    HW136947   2.130   1.949   8.386 -0.5276 -1.5593 -1.6970
 8496SOL    HW236948   2.024   2.004   8.465  0.5599 -0.4808  0.2238
 8497SOL     OW36949   2.719   0.487  16.380  0.0621 -0.7406  0.0494
 8497SOL    HW136950   2.653   0.515  16.317  0.8443 -2.4486 -1.5040
 8497SOL    HW236951   2.782   0.446  16.321  2.1384  1.8572  0.4613
 8498SOL     OW36952   3.278   3.361   1.300 -0.2384  0.2921 -0.1476
 8498SOL    HW136953   3.227   3.437   1.327  0.2344  0.8541 -0.8582
 8498SOL    HW236954   3.344   3.398   1.242  0.7810 -0.0998  0.7490
 8499SOL     OW36955   3.459   1.634  15.988  0.2235  0.1995 -0.4757
 8499SOL    HW136956   3.522   1.578  15.943 -0.3735 -0.3268 -0.6467
 8499SOL    HW236957   3.383   1.613  15.934  0.4409  0.4023 -0.8576
 8500SOL     OW36958   0.924   2.714  11.628 -0.3102 -0.4225 -0.1097
 8500SOL    HW136959   0.991   2.768  11.585  1.2868 -0.0102  2.8975
 8500SOL    HW236960   0.880   2.673  11.554  3.6141 -1.9736 -1.6108
 8501SOL     OW36961   2.552   3.532   2.078  0.1768  0.5452 -0.1756
 8501SOL    HW136962   2.631   3.491   2.043 -0.8321 -1.5094 -0.1053
 8501SOL    HW236963   2.504   3.577   2.009  1.5978 -1.1530 -2.2810
 8502SOL     OW36964   1.189   0.873   2.438 -0.1976  0.0278  0.7437
 8502SOL    HW136965   1.129   0.930   2.486  0.1579  0.6008  0.5052
 8502SOL    HW236966   1.275   0.913   2.423 -0.4370  1.1014  2.1789
 8503SOL     OW36967   2.770   0.765   3.645 -0.8682 -0.5637 -0.4709
 8503SOL    HW136968   2.756   0.825   3.572  1.3543 -0.5174 -0.8611
 8503SOL    HW236969   2.794   0.694   3.586 -1.3723 -0.5811 -0.6518
 8504SOL     OW36970   3.230   3.431  16.303  0.7724 -0.0718  0.6132
 8504SOL    HW136971   3.138   3.408  16.317  0.5563 -0.1114 -0.8674
 8504SOL    HW236972   3.240   3.513  16.351 -0.4827 -0.1687  1.0430
 8505SOL     OW36973   1.057   2.796   7.220  0.3760  0.3859  0.8844
 8505SOL    HW136974   1.007   2.726   7.263 -0.5290  0.5753  0.1463
 8505SOL    HW236975   1.027   2.881   7.252 -1.4422 -0.4195  1.2929
 8506SOL     OW36976   2.627   4.090   9.135 -0.0917  0.2638  0.0504
 8506SOL    HW136977   2.615   4.021   9.201 -0.4374  1.1825  0.9487
 8506SOL    HW236978   2.682   4.046   9.070 -1.1502 -1.6599  0.4542
 8507SOL     OW36979   1.883   2.405  12.203 -0.6627 -0.8066  0.6077
 8507SOL    HW136980   1.866   2.311  12.216 -0.0968 -1.0253 -0.2625
 8507SOL    HW236981   1.852   2.405  12.113  1.5637 -2.6785 -0.1599
 8508SOL     OW36982   0.056   0.389  15.934 -0.1175 -0.9686  0.2298
 8508SOL    HW136983   4.724   0.408  15.859  0.6338  1.9033  0.3927
 8508SOL    HW236984   0.050   0.469  15.986 -1.2612 -0.4159 -0.7486
 8509SOL     OW36985   2.947   4.385   1.136  0.0406 -0.1007 -0.7131
 8509SOL    HW136986   3.014   4.437   1.092  1.8159 -0.0387  2.0836
 8509SOL    HW236987   2.917   4.327   1.066  1.6586  0.2166 -1.6674
 8510SOL     OW36988   2.584   1.935   7.662 -0.1022  0.0732 -1.0454
 8510SOL    HW136989   2.491   1.928   7.684 -0.1227  0.4452 -1.0105
 8510SOL    HW236990   2.579   1.998   7.590 -1.8150  0.9114 -0.2010
 8511SOL     OW36991   3.077   1.763   9.505  0.3984 -0.7621 -0.3325
 8511SOL    HW136992   3.064   1.715   9.587  0.1945 -0.0773  0.0354
 8511SOL    HW236993   3.173   1.758   9.505  0.3403 -1.8220  0.1600
 8512SOL     OW36994   3.932   3.940   6.679 -0.1641 -0.3106 -0.2036
 8512SOL    HW136995   3.906   3.918   6.768  2.9933 -0.9476  0.5575
 8512SOL    HW236996   3.849   3.912   6.640 -0.9180  0.8202  0.5850
 8513SOL     OW36997   1.176   0.769   9.156  0.0852 -0.1880  0.0039
 8513SOL    HW136998   1.238   0.838   9.178  1.1480 -1.1824  0.1583
 8513SOL    HW236999   1.094   0.814   9.137  0.1889  0.1337  0.3295
 8514SOL     OW37000   2.141   0.103   4.910  0.1116 -0.1872  0.1637
 8514SOL    HW137001   2.053   0.075   4.885  0.0269  0.0608  0.1796
 8514SOL    HW237002   2.126   0.109   5.004 -1.0950  0.1054 -0.0451
 8515SOL     OW37003   0.975   1.337   0.714 -0.0127  0.0237 -0.5042
 8515SOL    HW137004   1.039   1.287   0.765  1.2327  2.7461  0.6264
 8515SOL    HW237005   0.911   1.343   0.785 -0.2161 -0.0389 -0.6830
 8516SOL     OW37006   1.660   1.992   6.138 -0.0666 -0.0575  0.2499
 8516SOL    HW137007   1.605   2.057   6.182 -1.4383 -0.3693 -1.0078
 8516SOL    HW237008   1.608   1.915   6.117  0.3693 -0.4042  0.4403
 8517SOL     OW37009   0.111   0.568   6.209  0.4130  0.0531  0.0721
 8517SOL    HW137010   0.052   0.572   6.133 -0.1163  0.2058  0.4946
 8517SOL    HW237011   0.125   0.475   6.227 -4.1209 -0.6181  0.0322
 8518SOL     OW37012   2.497   3.118   7.088 -0.0696  0.3435 -0.5467
 8518SOL    HW137013   2.504   3.211   7.069  0.2634  0.4312  0.0022
 8518SOL    HW237014   2.471   3.126   7.180 -1.4185 -0.1351 -0.8842
 8519SOL     OW37015   1.296   3.949   4.652 -0.2830 -0.1843 -0.0981
 8519SOL    HW137016   1.223   3.961   4.591  0.6361 -0.2874 -1.2167
 8519SOL    HW237017   1.371   3.956   4.594  0.1553  0.4082  0.5385
 8520SOL     OW37018   1.974   4.435  16.800 -1.0844  0.0519 -0.5487
 8520SOL    HW137019   2.064   4.407  16.815 -1.3447 -0.6083 -0.1870
 8520SOL    HW237020   1.985   4.510  16.741  1.6262  0.0131 -0.0885
 8521SOL     OW37021   3.230   4.215   4.007  0.2125 -0.1220 -0.6406
 8521SOL    HW137022   3.142   4.235   3.975 -0.4214  1.2154  1.9792
 8521SOL    HW237023   3.230   4.120   3.999 -0.7686 -0.3951  2.8729
 8522SOL     OW37024   1.133   1.210   6.909  0.6101 -0.2647 -0.1017
 8522SOL    HW137025   1.122   1.115   6.900  0.1299 -0.0013 -2.3068
 8522SOL    HW237026   1.195   1.224   6.980 -0.3240 -1.3395  0.9263
 8523SOL     OW37027   1.011   1.222   8.322  0.2917  0.0550 -0.9268
 8523SOL    HW137028   1.056   1.138   8.315 -2.3249 -1.0790 -4.2842
 8523SOL    HW237029   1.091   1.273   8.321  1.2066 -1.3742 -1.0640
 8524SOL     OW37030   3.576   4.671  15.271  0.0078  0.2412 -0.0816
 8524SOL    HW137031   3.609   0.026  15.314 -1.5827 -0.0590  1.6932
 8524SOL    HW237032   3.574   4.604  15.340 -0.6601  0.9728  0.6151
 8525SOL     OW37033   2.457   1.151   4.269 -0.1840 -0.1517 -0.7023
 8525SOL    HW137034   2.375   1.103   4.267  0.0228 -0.6258  1.7808
 8525SOL    HW237035   2.459   1.172   4.363 -0.1434 -0.5947 -0.6047
 8526SOL     OW37036   4.477   4.069   2.854 -0.1723 -0.1819  0.3873
 8526SOL    HW137037   4.474   4.127   2.778  1.3840  0.3258  0.7105
 8526SOL    HW237038   4.471   4.132   2.925 -0.2266 -0.3341  0.5167
 8527SOL     OW37039   0.746   3.372   0.262  0.5399  0.1559  0.0525
 8527SOL    HW137040   0.749   3.289   0.216 -0.4544  0.5771 -0.7668
 8527SOL    HW237041   0.831   3.404   0.231 -0.5423  1.5149 -1.5163
 8528SOL     OW37042   0.072   1.380  16.279 -0.1802  0.2556  0.4063
 8528SOL    HW137043   0.149   1.427  16.311  1.1409 -0.3588 -1.9403
 8528SOL    HW237044   0.060   1.409  16.188 -2.4658 -0.8437  0.3576
 8529SOL     OW37045   0.502   3.317   7.522  0.3588 -0.0681  0.2217
 8529SOL    HW137046   0.422   3.320   7.574 -0.8407 -2.1392 -1.5529
 8529SOL    HW237047   0.534   3.404   7.547 -2.3574  0.5529  1.5236
 8530SOL     OW37048   2.358   3.047   6.372 -0.1462 -1.1256 -0.0855
 8530SOL    HW137049   2.306   3.124   6.394  0.1331 -0.5314 -1.5101
 8530SOL    HW237050   2.288   2.986   6.352 -1.4296  0.1569  0.4690
 8531SOL     OW37051   2.729   4.004   5.491  0.1730 -0.7140 -0.1789
 8531SOL    HW137052   2.777   4.069   5.440 -0.3865  1.2093  1.7822
 8531SOL    HW237053   2.781   3.993   5.571  2.2045 -0.6873 -1.4982
 8532SOL     OW37054   2.441   3.289   3.253  0.2456 -0.3491 -0.4501
 8532SOL    HW137055   2.471   3.271   3.164 -0.4708 -0.1587 -0.7312
 8532SOL    HW237056   2.508   3.252   3.310 -0.4637  0.2212  0.7656
 8533SOL     OW37057   4.151   3.020   4.142  0.7958  0.2170 -0.0897
 8533SOL    HW137058   4.110   3.098   4.104  3.3513  0.5465 -2.1752
 8533SOL    HW237059   4.079   2.960   4.123 -0.4661  0.9904  2.1955
 8534SOL     OW37060   2.715   4.713   3.851 -0.1727 -0.0425 -0.1390
 8534SOL    HW137061   2.749   4.704   3.940  1.1354  0.3441 -0.5915
 8534SOL    HW237062   2.662   0.068   3.858 -0.7980 -0.4572 -0.2361
 8535SOL     OW37063   1.693   3.434   6.048  0.0691  0.5455  0.3678
 8535SOL    HW137064   1.657   3.489   6.118 -1.5074  0.6981 -0.5834
 8535SOL    HW237065   1.628   3.365   6.059  2.1008 -1.4688 -0.0705
 8536SOL     OW37066   0.707   4.420   8.804 -0.2362  0.3240  0.0466
 8536SOL    HW137067   0.644   4.348   8.796  0.4015 -0.0589 -1.6880
 8536SOL    HW237068   0.748   4.428   8.717  0.5835  1.4278  0.5341
 8537SOL     OW37069   2.360   3.839   1.807 -0.5627 -0.0463 -0.0313
 8537SOL    HW137070   2.407   3.846   1.889  0.5847  0.4193 -0.7370
 8537SOL    HW237071   2.272   3.840   1.845 -0.1385 -1.4469  0.9583
 8538SOL     OW37072   4.613   3.266  15.916  0.1646  0.3072 -0.5558
 8538SOL    HW137073   4.612   3.208  15.992 -0.3217 -0.0712 -0.8511
 8538SOL    HW237074   4.598   3.211  15.839  0.3353 -0.1600 -0.2549
 8539SOL     OW37075   0.395   4.510  16.325  0.7886  0.2064 -0.1695
 8539SOL    HW137076   0.459   4.496  16.394 -0.9619  0.0378  1.4270
 8539SOL    HW237077   0.335   4.564  16.377 -0.5007 -1.2989 -0.1101
 8540SOL     OW37078   2.002   2.888   6.774 -0.1804 -0.0744 -0.2154
 8540SOL    HW137079   2.013   2.802   6.814  0.1349 -0.6419 -1.5181
 8540SOL    HW237080   1.907   2.884   6.766 -0.0930 -1.8888 -0.3721
 8541SOL     OW37081   1.613   1.962   3.925  0.1367 -0.1080 -0.1716
 8541SOL    HW137082   1.583   1.898   3.989  2.6954 -0.4256  0.7054
 8541SOL    HW237083   1.532   2.011   3.909 -0.7866 -1.4795  0.3111
 8542SOL     OW37084   2.974   3.336  10.981 -0.3409  0.6986 -0.3090
 8542SOL    HW137085   3.057   3.293  10.962 -0.0031  1.6194 -0.9031
 8542SOL    HW237086   2.986   3.413  10.926 -0.4225  0.3555 -0.8051
 8543SOL     OW37087   0.303   3.450   2.823  0.4773  0.8163 -1.0135
 8543SOL    HW137088   0.295   3.406   2.738  2.3650  0.6606 -1.1010
 8543SOL    HW237089   0.355   3.391   2.877  1.0822  1.1124 -1.2729
 8544SOL     OW37090   0.346   0.629   6.626  0.0712 -0.2924  0.0298
 8544SOL    HW137091   0.305   0.714   6.640  1.9793  0.5216  0.7217
 8544SOL    HW237092   0.375   0.593   6.710  0.1456  1.3525  0.7065
 8545SOL     OW37093   3.862   3.876   6.943 -0.0610 -0.0023 -0.3706
 8545SOL    HW137094   3.809   3.802   6.973 -0.4637  1.3266  2.2260
 8545SOL    HW237095   3.894   3.905   7.028 -2.0358  1.2823 -0.0543
 8546SOL     OW37096   3.078   4.450  15.139 -0.2352  0.1563  0.4096
 8546SOL    HW137097   3.013   4.453  15.209 -1.5727 -0.5675 -0.8172
 8546SOL    HW237098   3.134   4.376  15.162 -1.3792 -0.8568 -0.1062
 8547SOL     OW37099   3.222   0.093  11.434  0.3657 -0.6122 -0.2164
 8547SOL    HW137100   3.285   0.045  11.380 -0.4494 -0.9702 -0.8574
 8547SOL    HW237101   3.149   0.090  11.372 -0.7095  0.0961  1.0089
 8548SOL     OW37102   2.000   3.577   3.387 -0.4475  0.6452 -0.2441
 8548SOL    HW137103   2.067   3.515   3.357 -3.0352 -2.4528  0.4617
 8548SOL    HW237104   2.055   3.648   3.420  0.5117 -1.2341  2.1914
 8549SOL     OW37105   3.085   1.555  16.586 -0.2498 -0.4029 -0.1469
 8549SOL    HW137106   3.047   1.585  16.503  0.2909 -0.6302 -0.4757
 8549SOL    HW237107   3.164   1.515  16.549 -1.7310 -0.6575 -3.0860
 8550SOL     OW37108   0.622   1.893   2.895 -0.7077  0.5902  0.4657
 8550SOL    HW137109   0.611   1.932   2.809  0.9205 -0.9550 -0.4424
 8550SOL    HW237110   0.717   1.886   2.886 -0.5352  0.8466  2.1537
 8551SOL     OW37111   3.772   0.013   2.651 -0.6086  0.0101 -0.0018
 8551SOL    HW137112   3.791   0.105   2.671  0.1691 -0.2045  0.2370
 8551SOL    HW237113   3.709   4.713   2.719 -0.7169  0.8855  0.2021
 8552SOL     OW37114   4.548   4.218   3.286  0.4792 -0.0785 -0.2961
 8552SOL    HW137115   4.479   4.173   3.334  0.2196  0.0842 -0.5228
 8552SOL    HW237116   4.627   4.177   3.322 -0.4027 -0.9043  0.6909
 8553SOL     OW37117   1.400   0.643  12.422 -0.8828  0.2059 -0.1236
 8553SOL    HW137118   1.305   0.631  12.431 -0.8810  0.7029  0.5779
 8553SOL    HW237119   1.440   0.592  12.492 -3.3527  0.9453  1.8235
 8554SOL     OW37120   3.972   4.212  14.858  0.2076  0.0372  0.0057
 8554SOL    HW137121   3.985   4.244  14.769  0.3233 -1.1117 -0.3885
 8554SOL    HW237122   3.960   4.121  14.831  0.3836  0.5597 -1.8402
 8555SOL     OW37123   0.675   1.669   7.084  0.0268 -0.0023 -0.4281
 8555SOL    HW137124   0.603   1.689   7.143  0.3399  0.0144 -0.0530
 8555SOL    HW237125   0.733   1.745   7.097  0.4756 -0.0897 -1.9218
 8556SOL     OW37126   0.009   3.692  13.351 -0.1586  0.2881  0.6261
 8556SOL    HW137127   0.041   3.618  13.402 -3.9791 -0.8743  1.3294
 8556SOL    HW237128   4.685   3.743  13.416 -0.9159 -0.7969  0.9277
 8557SOL     OW37129   4.268   0.291   8.402  0.0339 -0.2740 -0.2181
 8557SOL    HW137130   4.342   0.351   8.405  0.2779 -0.6543  1.6093
 8557SOL    HW237131   4.308   0.205   8.389  3.6781  1.0597  2.2031
 8558SOL     OW37132   3.170   2.820  17.611 -0.0200 -0.5474 -0.7833
 8558SOL    HW137133   3.195   2.844   0.002 -2.3866  1.1723 -0.5721
 8558SOL    HW237134   3.117   2.745  17.639  0.8698 -0.6993  0.4905
 8559SOL     OW37135   3.914   1.957   5.005 -0.2210 -0.8131 -0.2866
 8559SOL    HW137136   3.951   1.984   5.089 -0.8656 -1.3446  0.1708
 8559SOL    HW237137   3.838   1.908   5.037 -1.1236  1.4810  1.1374
 8560SOL     OW37138   0.666   4.124   7.971 -0.5298  0.2727 -0.7027
 8560SOL    HW137139   0.690   4.066   7.899 -1.7590 -0.5967 -0.4039
 8560SOL    HW237140   0.750   4.166   7.990 -0.2190 -2.2196  3.4036
 8561SOL     OW37141   3.688   4.037   1.185  0.4716 -0.0929 -0.2179
 8561SOL    HW137142   3.710   4.050   1.278 -1.2740  0.2596  0.1347
 8561SOL    HW237143   3.746   3.964   1.165 -2.8893 -2.7421 -0.2623
 8562SOL     OW37144   0.978   0.853   0.873  0.1724 -0.3298  0.1337
 8562SOL    HW137145   0.915   0.828   0.806 -0.4584 -1.7737  1.2597
 8562SOL    HW237146   1.057   0.822   0.828 -0.9601 -0.6899 -1.5993
 8563SOL     OW37147   0.248   0.997   6.320  0.6589  0.1107  0.1464
 8563SOL    HW137148   0.338   0.980   6.292  1.4090 -2.1804  3.9248
 8563SOL    HW237149   0.233   0.928   6.384  0.7940 -0.1168 -0.0697
 8564SOL     OW37150   1.837   0.974   1.872  0.0787  0.2564 -0.0991
 8564SOL    HW137151   1.851   0.880   1.883  0.7798  0.3721 -0.0493
 8564SOL    HW237152   1.865   0.980   1.781 -2.3234  1.3502 -0.7819
 8565SOL     OW37153   2.952   1.685   8.608  0.2437 -0.1644 -0.2878
 8565SOL    HW137154   2.948   1.645   8.521  0.8624  1.9802 -1.2944
 8565SOL    HW237155   2.889   1.635   8.660 -0.5000  0.8701 -0.1992
 8566SOL     OW37156   2.508   4.594   2.992  0.2924  0.3500 -0.2917
 8566SOL    HW137157   2.473   4.670   2.945 -0.1616  0.3281  0.0096
 8566SOL    HW237158   2.457   4.517   2.967  2.8943 -1.8082  1.0271
 8567SOL     OW37159   2.548   1.488  12.586  0.2367  0.1789  0.0101
 8567SOL    HW137160   2.586   1.429  12.651  0.9823  0.5501 -0.0921
 8567SOL    HW237161   2.555   1.578  12.617 -1.6280 -0.2334  1.6247
 8568SOL     OW37162   0.431   3.912   4.288 -0.3509 -0.0494 -0.9685
 8568SOL    HW137163   0.370   3.891   4.218  1.7318  0.0594 -2.8229
 8568SOL    HW237164   0.377   3.885   4.363  0.3565 -0.2498 -0.5290
 8569SOL     OW37165   3.809   4.226  14.152 -0.2271  0.8357 -0.4797
 8569SOL    HW137166   3.892   4.182  14.172 -1.2050 -1.4240 -1.3873
 8569SOL    HW237167   3.814   4.298  14.215  0.4423 -0.7833  1.3121
 8570SOL     OW37168   4.363   2.873   3.450  0.1882 -0.4231 -0.0741
 8570SOL    HW137169   4.371   2.888   3.544  1.0749  0.2964 -0.2652
 8570SOL    HW237170   4.384   2.959   3.413 -0.0702 -0.9036 -1.3689
 8571SOL     OW37171   1.833   0.865   2.274 -0.0102 -0.2609  0.2789
 8571SOL    HW137172   1.843   0.871   2.369  2.0532 -0.5595  0.0908
 8571SOL    HW237173   1.840   0.954   2.240 -1.0927 -0.1830  0.2650
 8572SOL     OW37174   2.486   2.096  12.301  0.3501  0.5105  0.9537
 8572SOL    HW137175   2.581   2.085  12.308  0.2598 -3.2652 -3.7550
 8572SOL    HW237176   2.462   2.021  12.246 -0.7320 -0.7694  3.1483
 8573SOL     OW37177   2.694   4.347   9.226 -0.5797 -0.1184  0.2040
 8573SOL    HW137178   2.627   4.412   9.249 -0.7338 -0.1571 -0.1437
 8573SOL    HW237179   2.644   4.268   9.205 -1.7485  0.9062 -0.7980
 8574SOL     OW37180   1.080   1.261   4.982  0.1134 -0.6777  0.2245
 8574SOL    HW137181   1.048   1.257   5.072  0.8966 -0.7113  0.4980
 8574SOL    HW237182   1.173   1.265   5.004  0.2516  0.4372 -0.5857
 8575SOL     OW37183   0.976   4.604  15.744 -0.6051 -0.1200  0.2577
 8575SOL    HW137184   1.002   4.667  15.677 -1.4905  1.2150  1.1735
 8575SOL    HW237185   0.897   4.571  15.701 -0.2829  0.9147 -1.1467
 8576SOL     OW37186   2.331   2.247   1.802 -0.2523  0.4421 -0.5135
 8576SOL    HW137187   2.248   2.200   1.809 -0.4804  0.8333 -0.6088
 8576SOL    HW237188   2.349   2.275   1.891  0.1064  0.6325 -0.6454
 8577SOL     OW37189   2.820   4.367   3.598  0.0627  0.2146 -0.5993
 8577SOL    HW137190   2.773   4.328   3.524  0.4204 -1.5424  0.1210
 8577SOL    HW237191   2.748   4.420   3.633  2.0352  2.0491  0.6918
 8578SOL     OW37192   3.720   0.803  16.794  0.6826 -0.1079  0.2571
 8578SOL    HW137193   3.632   0.837  16.780  0.7814 -0.1659 -0.4925
 8578SOL    HW237194   3.771   0.882  16.816  0.2033  0.8255 -2.0416
 8579SOL     OW37195   4.555   0.384   6.377 -0.0987  0.2292 -0.1490
 8579SOL    HW137196   4.531   0.300   6.416 -0.2201 -0.5715 -1.9513
 8579SOL    HW237197   4.615   0.406   6.448 -1.1502  2.2000  0.1438
 8580SOL     OW37198   3.587   3.394  14.682  0.4458 -0.1110 -0.2142
 8580SOL    HW137199   3.566   3.433  14.767 -0.2969  1.2704 -1.0305
 8580SOL    HW237200   3.617   3.471  14.634  0.5014  0.5114  0.8182
 8581SOL     OW37201   2.133   3.836   5.908 -0.4581  0.4504  0.0171
 8581SOL    HW137202   2.070   3.791   5.852  1.5967 -1.6974 -0.5796
 8581SOL    HW237203   2.219   3.827   5.868 -0.5816 -1.6400  0.1754
 8582SOL     OW37204   3.980   3.235   1.616  0.5419  0.5991  0.9277
 8582SOL    HW137205   3.989   3.142   1.600 -0.6819  0.4124  1.2592
 8582SOL    HW237206   3.891   3.250   1.584  0.1314  0.9064  2.1966
 8583SOL     OW37207   3.340   1.321   2.778  0.3018 -0.3529  0.2125
 8583SOL    HW137208   3.258   1.285   2.811  1.5107 -3.6851 -0.4109
 8583SOL    HW237209   3.316   1.413   2.787 -1.8787 -1.1683  2.7325
 8584SOL     OW37210   2.940   0.499   1.675  0.1140  0.2482  0.4605
 8584SOL    HW137211   2.855   0.534   1.700 -0.8591 -1.3131 -0.7141
 8584SOL    HW237212   2.916   0.410   1.649  2.2055  0.2512 -1.5141
 8585SOL     OW37213   4.237   3.730   2.428 -0.2057  0.6056  0.2661
 8585SOL    HW137214   4.179   3.782   2.371  0.5212  2.2076  0.9880
 8585SOL    HW237215   4.325   3.755   2.402  0.2507  0.7304  1.9437
 8586SOL     OW37216   1.886   1.358   5.135 -0.2521 -0.1744  0.5027
 8586SOL    HW137217   1.866   1.400   5.218 -0.7054  3.6864 -1.5604
 8586SOL    HW237218   1.868   1.266   5.157 -1.6005  0.1287  0.7108
 8587SOL     OW37219   0.810   0.298   5.151  0.2212 -0.3410 -0.2959
 8587SOL    HW137220   0.758   0.347   5.216 -1.0059 -1.5539 -0.3674
 8587SOL    HW237221   0.889   0.351   5.140 -0.1632 -0.0449 -1.6214
 8588SOL     OW37222   3.696   1.060   4.501 -0.2129  0.0431  0.3715
 8588SOL    HW137223   3.655   1.092   4.582 -2.4549  0.2245 -0.8529
 8588SOL    HW237224   3.757   0.991   4.527  2.9063  2.1498 -1.4195
 8589SOL     OW37225   4.566   1.294  11.692  0.7974 -0.3206  0.0418
 8589SOL    HW137226   4.544   1.387  11.689  1.9352 -0.0969 -1.4305
 8589SOL    HW237227   4.561   1.296  11.596 -0.9733 -0.6280  0.1386
 8590SOL     OW37228   3.496   3.119   9.183  0.4573 -0.2630 -0.4730
 8590SOL    HW137229   3.514   3.041   9.235  0.5983 -0.9851 -1.5862
 8590SOL    HW237230   3.406   3.103   9.154  0.3899  2.5762 -1.9194
 8591SOL     OW37231   3.639   0.624   2.062 -0.1509  0.2364  0.0260
 8591SOL    HW137232   3.609   0.536   2.086 -0.6939 -0.2094 -2.3279
 8591SOL    HW237233   3.591   0.635   1.980  0.1605  1.1999 -0.0253
 8592SOL     OW37234   2.610   0.066   2.490 -0.0579 -0.1859  0.1327
 8592SOL    HW137235   2.603   0.044   2.397 -3.2451 -0.7562  0.4972
 8592SOL    HW237236   2.577   0.156   2.485 -0.1200 -0.2464 -0.5937
 8593SOL     OW37237   2.681   3.212   8.591 -0.9197  0.6227  0.0594
 8593SOL    HW137238   2.594   3.180   8.617  0.2876 -2.7702 -0.1296
 8593SOL    HW237239   2.697   3.296   8.633 -0.3675  0.8256 -0.5578
 8594SOL     OW37240   2.608   3.173   5.003  0.2654  0.5609 -0.4702
 8594SOL    HW137241   2.590   3.267   5.003 -1.7967  0.1666 -0.8372
 8594SOL    HW237242   2.564   3.146   4.923  0.1011  1.1233 -0.5688
 8595SOL     OW37243   1.885   0.234   4.235 -0.1086 -0.2327  0.4063
 8595SOL    HW137244   1.797   0.202   4.216 -0.6032  0.3714  1.7088
 8595SOL    HW237245   1.868   0.326   4.255 -0.7446 -0.2441 -0.0980
 8596SOL     OW37246   2.041   1.510  13.743 -0.0605 -1.3181  0.2772
 8596SOL    HW137247   2.011   1.557  13.820 -2.8410 -2.2954 -0.2059
 8596SOL    HW237248   1.957   1.482  13.706 -0.1625 -0.6459  0.0047
 8597SOL     OW37249   0.181   1.807   8.118  0.1146 -0.8524  0.1033
 8597SOL    HW137250   0.159   1.782   8.028  3.0609 -1.9624 -0.3171
 8597SOL    HW237251   0.096   1.800   8.162 -0.0270 -1.7225 -0.3067
 8598SOL     OW37252   4.642   3.019   2.676  0.3272 -0.5614  0.0188
 8598SOL    HW137253   4.549   3.017   2.653  0.2557  1.0675  0.2033
 8598SOL    HW237254   4.640   2.960   2.751  0.0075  1.0052  1.2495
 8599SOL     OW37255   0.205   0.757   4.694 -1.0767 -0.5048  0.3976
 8599SOL    HW137256   0.196   0.768   4.599  1.7287  0.0008  0.1959
 8599SOL    HW237257   0.114   0.762   4.724 -0.4218 -0.5834  2.3608
 8600SOL     OW37258   2.626   1.233   2.713  0.0080  0.2353  0.3423
 8600SOL    HW137259   2.565   1.278   2.772 -0.6391 -0.9273  0.5576
 8600SOL    HW237260   2.696   1.224   2.777  0.1981 -1.0604 -0.0367
 8601SOL     OW37261   1.721   3.071   8.980 -0.1152  0.1457  0.0832
 8601SOL    HW137262   1.716   3.041   8.889  1.4902 -1.1593  0.4268
 8601SOL    HW237263   1.814   3.067   9.002  0.1849 -1.3937 -1.4894
 8602SOL     OW37264   2.859   0.270  13.125 -0.3178  0.0125 -0.0798
 8602SOL    HW137265   2.951   0.258  13.104 -0.6012 -0.4188 -1.1040
 8602SOL    HW237266   2.826   0.191  13.081 -0.2870 -0.5304  0.8676
 8603SOL     OW37267   1.878   2.748  10.392 -0.1348  0.0347  0.2934
 8603SOL    HW137268   1.865   2.825  10.448 -1.2519 -2.5487  3.6142
 8603SOL    HW237269   1.859   2.676  10.453 -0.5021 -1.5771 -1.7243
 8604SOL     OW37270   1.408   0.493   1.322  0.4557 -0.1093 -0.2462
 8604SOL    HW137271   1.441   0.581   1.304  0.8875  0.2096  2.1283
 8604SOL    HW237272   1.379   0.487   1.413 -0.5006  1.0563 -0.4757
 8605SOL     OW37273   2.716   2.740  17.446  0.0576  0.8461  0.1661
 8605SOL    HW137274   2.708   2.774  17.535 -2.8631 -1.6126  0.8193
 8605SOL    HW237275   2.719   2.647  17.466  0.9788  0.5810 -1.1366
 8606SOL     OW37276   2.484   1.384   2.112 -0.1348  0.4053  0.5305
 8606SOL    HW137277   2.478   1.440   2.035 -0.1141  0.3455  0.4859
 8606SOL    HW237278   2.453   1.438   2.185  0.0703  0.7058  0.3901
 8607SOL     OW37279   3.023   3.647   2.319 -0.0028 -0.2131 -0.0895
 8607SOL    HW137280   2.965   3.721   2.302  1.0545  0.4250 -0.9491
 8607SOL    HW237281   2.965   3.606   2.383  1.2434 -3.1770 -0.8900
 8608SOL     OW37282   0.168   2.472   7.928  0.0206  0.1414 -0.3065
 8608SOL    HW137283   0.160   2.544   7.865  0.9760  0.2550 -0.2979
 8608SOL    HW237284   0.260   2.469   7.951  0.0270 -0.4229 -0.4098
 8609SOL     OW37285   1.068   1.940  17.297  0.2952  0.5269 -0.3989
 8609SOL    HW137286   0.988   1.974  17.259  1.1125  1.4944 -1.2520
 8609SOL    HW237287   1.126   2.015  17.292 -0.4098  1.0118 -1.1374
 8610SOL     OW37288   3.513   1.041  11.676 -0.6610  0.1922 -0.3580
 8610SOL    HW137289   3.440   1.056  11.737  0.4860  2.4129  0.4613
 8610SOL    HW237290   3.490   1.120  11.626  0.1752  0.7905  0.1897
 8611SOL     OW37291   2.374   0.119   6.041  0.2999  0.0121  0.0221
 8611SOL    HW137292   2.396   0.179   6.112  0.3099 -1.3920  1.2098
 8611SOL    HW237293   2.302   0.068   6.077 -1.3789  1.1256 -1.7364
 8612SOL     OW37294   1.272   0.301   3.290 -0.2808  0.3550 -0.4136
 8612SOL    HW137295   1.270   0.240   3.364  0.8806 -0.0056 -0.6819
 8612SOL    HW237296   1.340   0.362   3.319 -1.4232  0.3666  2.2010
 8613SOL     OW37297   3.212   2.206  13.055 -0.2618 -0.6132  0.3793
 8613SOL    HW137298   3.249   2.164  12.977  2.4696  1.2106  0.6854
 8613SOL    HW237299   3.215   2.131  13.114 -0.2085 -1.1871 -0.3387
 8614SOL     OW37300   1.483   1.626   2.624  0.3554 -0.1975  0.4077
 8614SOL    HW137301   1.563   1.624   2.571 -0.5418  0.6955 -0.9778
 8614SOL    HW237302   1.515   1.682   2.694 -1.2418  2.0123 -0.6434
 8615SOL     OW37303   3.744   1.709  10.723 -0.2510 -0.3097  0.3824
 8615SOL    HW137304   3.822   1.695  10.669 -0.1048 -1.1760  0.8362
 8615SOL    HW237305   3.784   1.743  10.803 -1.0773 -0.7375  0.9790
 8616SOL     OW37306   3.625   4.389   3.794 -0.1497  0.2718  0.3020
 8616SOL    HW137307   3.614   4.453   3.865  1.4996  0.1119  0.7045
 8616SOL    HW237308   3.593   4.310   3.836 -0.9571  0.1300 -0.5863
 8617SOL     OW37309   0.560   2.390  11.314 -0.3646 -0.3283 -0.2734
 8617SOL    HW137310   0.655   2.395  11.311 -0.5378  2.0027 -1.7252
 8617SOL    HW237311   0.540   2.325  11.247 -4.3848 -0.4505  1.0377
 8618SOL     OW37312   3.467   0.930   1.965  0.9164 -0.3192 -0.1117
 8618SOL    HW137313   3.395   0.965   1.913  0.9814  1.9601  1.3648
 8618SOL    HW237314   3.501   0.866   1.902 -0.1717 -0.3170 -0.7081
 8619SOL     OW37315   4.289   4.457   3.192  0.3832 -0.4126  0.0035
 8619SOL    HW137316   4.324   4.442   3.280  1.2019  0.6370 -0.1438
 8619SOL    HW237317   4.198   4.472   3.219  0.1619 -0.1974 -0.8543
 8620SOL     OW37318   1.567   1.032   8.764  0.1681  0.4606 -0.5088
 8620SOL    HW137319   1.540   1.077   8.683  1.1170  1.4240 -0.2849
 8620SOL    HW237320   1.593   1.107   8.817  1.2345 -1.1162  1.2053
 8621SOL     OW37321   2.127   2.643   4.383  0.0210  0.2036  0.1418
 8621SOL    HW137322   2.097   2.553   4.387  0.6831  0.0237  1.2856
 8621SOL    HW237323   2.216   2.628   4.352 -0.9558 -2.2321 -1.4526
 8622SOL     OW37324   0.048   3.274   8.021  0.9448  0.3381 -0.1612
 8622SOL    HW137325   0.033   3.242   7.932  1.5230  0.5810 -0.3432
 8622SOL    HW237326   4.690   3.321   8.035 -0.2572 -2.2307  1.4666
 8623SOL     OW37327   2.972   4.371   0.191  0.0688  0.3826 -0.1482
 8623SOL    HW137328   2.964   4.276   0.179  3.3591  0.2672 -1.5733
 8623SOL    HW237329   2.886   4.404   0.165 -0.3166  1.4364  2.4735
 8624SOL     OW37330   0.984   3.416  15.788 -0.7528  0.4353 -0.0151
 8624SOL    HW137331   1.072   3.445  15.812 -0.9142  0.9939 -0.1014
 8624SOL    HW237332   1.006   3.357  15.717 -1.6455 -1.5937  1.3975
 8625SOL     OW37333   2.996   2.290   2.932 -0.4674 -0.1473 -0.0397
 8625SOL    HW137334   2.983   2.309   3.025  2.0111 -0.3180  0.3392
 8625SOL    HW237335   2.914   2.242   2.918  1.3612 -2.7914 -1.5371
 8626SOL     OW37336   1.172   0.219   8.456  0.0810  0.2238 -0.4126
 8626SOL    HW137337   1.234   0.213   8.529  1.8754  0.2386 -1.9397
 8626SOL    HW237338   1.095   0.259   8.497 -0.3396 -1.3092  0.2864
 8627SOL     OW37339   1.802   2.741   9.342 -0.0452  0.1404  0.6542
 8627SOL    HW137340   1.742   2.815   9.338  0.4752  0.5692  0.9197
 8627SOL    HW237341   1.872   2.780   9.394  0.4251  0.1714 -0.0155
 8628SOL     OW37342   3.581   3.064   8.117  0.0309  0.4218 -0.1900
 8628SOL    HW137343   3.614   2.975   8.106 -1.7637 -0.1412 -1.1568
 8628SOL    HW237344   3.623   3.090   8.198  0.5555  2.0502 -0.9826
 8629SOL     OW37345   0.670   0.903   0.215  0.2721 -0.3890  0.1235
 8629SOL    HW137346   0.744   0.902   0.154  1.2784 -0.2373  1.3480
 8629SOL    HW237347   0.698   0.957   0.289  1.8804  0.6653 -1.2904
 8630SOL     OW37348   4.304   0.947  13.850 -0.5137  0.2319  0.0538
 8630SOL    HW137349   4.267   1.025  13.889  0.1045  0.7658 -0.4165
 8630SOL    HW237350   4.228   0.891  13.835 -0.1094  0.1081 -1.5034
 8631SOL     OW37351   4.079   0.383   8.580 -0.1350 -0.2373 -0.2040
 8631SOL    HW137352   4.026   0.304   8.591  1.1378 -1.3503 -1.9366
 8631SOL    HW237353   4.152   0.347   8.529 -0.1237  1.2475 -1.2582
 8632SOL     OW37354   2.413   1.782  10.240 -0.4401 -0.5261  0.1011
 8632SOL    HW137355   2.488   1.817  10.288 -2.2942  0.3426  2.3484
 8632SOL    HW237356   2.450   1.724  10.173  1.2470 -1.2485  1.6930
 8633SOL     OW37357   2.754   2.055  15.293  0.0645  0.1540 -0.0499
 8633SOL    HW137358   2.850   2.050  15.295 -0.0918 -3.5211 -1.1821
 8633SOL    HW237359   2.729   2.146  15.311 -1.8608 -0.3109 -0.4226
 8634SOL     OW37360   4.203   0.384  11.191  0.1138 -0.1959 -0.1187
 8634SOL    HW137361   4.181   0.303  11.145 -0.4424  0.5534 -1.1745
 8634SOL    HW237362   4.147   0.445  11.143 -2.0740 -1.2978  1.0506
 8635SOL     OW37363   1.561   2.230   3.052 -0.0164  0.5487  0.4426
 8635SOL    HW137364   1.470   2.207   3.071  0.5303 -2.6593 -0.7451
 8635SOL    HW237365   1.588   2.155   2.998  1.1689 -0.1489  1.9684
 8636SOL     OW37366   1.651   0.343   3.597 -0.1571  0.2643  0.3562
 8636SOL    HW137367   1.661   0.366   3.689 -0.1980  0.8502  0.2181
 8636SOL    HW237368   1.610   0.257   3.599 -0.1795  0.2385 -1.4735
 8637SOL     OW37369   2.402   3.725  10.855  0.2176  0.0612  0.0916
 8637SOL    HW137370   2.434   3.791  10.795 -0.4273  0.7617  0.5219
 8637SOL    HW237371   2.474   3.710  10.916  0.3286 -0.5836 -0.1949
 8638SOL     OW37372   2.166   1.117   5.810  0.0247  0.0210  0.0747
 8638SOL    HW137373   2.120   1.172   5.873  1.0391  0.9639 -0.0115
 8638SOL    HW237374   2.246   1.170   5.801 -0.0436  0.1956  0.4997
 8639SOL     OW37375   1.066   0.795   6.274  0.1772  0.0747 -0.3323
 8639SOL    HW137376   1.035   0.848   6.202  1.4298 -1.4266 -1.9892
 8639SOL    HW237377   1.120   0.727   6.234 -0.4263  0.1221 -1.2088
 8640SOL     OW37378   4.279   0.233   3.897 -0.4340  0.0691 -0.4484
 8640SOL    HW137379   4.346   0.277   3.949  1.5062 -0.8742 -2.1242
 8640SOL    HW237380   4.210   0.298   3.912  0.9003  1.2363  0.5862
 8641SOL     OW37381   4.143   2.324   4.281  0.5773  0.2648  0.3750
 8641SOL    HW137382   4.197   2.247   4.265  0.5876  0.7726 -2.0215
 8641SOL    HW237383   4.149   2.347   4.189 -0.2500 -1.1843 -0.0288
 8642SOL     OW37384   0.925   0.189   2.962 -0.3257  0.3278 -0.1717
 8642SOL    HW137385   1.003   0.207   3.014 -1.1477  0.9122  0.8578
 8642SOL    HW237386   0.939   0.248   2.888  0.9462 -1.1309 -1.1010
 8643SOL     OW37387   3.295   1.467  11.395 -0.0595  0.0191 -0.1650
 8643SOL    HW137388   3.333   1.387  11.359  0.1263 -0.9973  2.2942
 8643SOL    HW237389   3.241   1.434  11.466 -0.2153  0.1249 -0.2361
 8644SOL     OW37390   0.983   4.138   0.177 -0.1155  0.3984  0.4365
 8644SOL    HW137391   0.889   4.152   0.173  0.1759  2.2326 -0.0923
 8644SOL    HW237392   1.019   4.226   0.179  0.4543  0.0720  4.5966
 8645SOL     OW37393   1.208   2.220   2.278 -0.0506 -0.2290  1.2360
 8645SOL    HW137394   1.147   2.290   2.301  0.6551  0.9135 -0.3726
 8645SOL    HW237395   1.217   2.186   2.367 -1.3343 -0.4419  1.2755
 8646SOL     OW37396   2.808   4.518   4.186 -0.0778 -0.2882 -0.0324
 8646SOL    HW137397   2.781   4.601   4.147 -1.8264 -0.6980  0.2921
 8646SOL    HW237398   2.766   4.533   4.271 -2.3317  0.2345 -1.2474
 8647SOL     OW37399   3.477   3.584   5.460  0.1693 -0.1866 -0.3602
 8647SOL    HW137400   3.429   3.647   5.406 -0.8066  0.4626  1.2585
 8647SOL    HW237401   3.488   3.631   5.542  0.1664 -1.1220  0.1848
 8648SOL     OW37402   2.796   2.344   4.824  0.7304 -0.1129  0.0296
 8648SOL    HW137403   2.793   2.258   4.784 -3.5183  0.9363 -1.8833
 8648SOL    HW237404   2.765   2.318   4.911  1.0611  0.5772  0.3547
 8649SOL     OW37405   0.708   3.172  16.151 -0.2538 -0.0660  0.1617
 8649SOL    HW137406   0.796   3.142  16.127 -0.9819 -1.9826 -0.1048
 8649SOL    HW237407   0.698   3.259  16.112  2.8260  0.2795  0.0864
 8650SOL     OW37408   0.034   0.854  10.484 -0.3156 -0.4864  0.1095
 8650SOL    HW137409   0.114   0.835  10.534  0.4277  1.1509 -0.4448
 8650SOL    HW237410   0.030   0.949  10.480  0.1925 -0.4146  1.3472
 8651SOL     OW37411   1.149   2.847   9.060  0.1707  0.3690  0.3340
 8651SOL    HW137412   1.082   2.860   9.127  1.3403  0.3811  1.5018
 8651SOL    HW237413   1.207   2.923   9.062 -1.2814  1.4874 -0.2607
 8652SOL     OW37414   2.041   2.627   5.002  0.5109  0.5734 -0.4658
 8652SOL    HW137415   2.022   2.629   5.096 -1.9247  0.5039 -0.9485
 8652SOL    HW237416   2.096   2.549   4.993 -1.0411 -0.7686  1.7388
 8653SOL     OW37417   4.194   2.969   3.762 -0.1269 -0.2396 -0.6251
 8653SOL    HW137418   4.289   2.968   3.747 -0.1651 -0.8072 -0.8592
 8653SOL    HW237419   4.151   2.904   3.707  1.6950 -1.4881 -0.5998
 8654SOL     OW37420   0.797   4.419  16.558  0.4389 -0.2499  0.0459
 8654SOL    HW137421   0.804   4.511  16.582 -4.0936  0.2450 -0.5486
 8654SOL    HW237422   0.784   4.375  16.642 -1.4885 -0.4572 -0.3496
 8655SOL     OW37423   0.899   2.510   0.857 -0.4923 -0.2730 -0.0497
 8655SOL    HW137424   0.916   2.416   0.858 -2.5406 -0.6395 -0.2351
 8655SOL    HW237425   0.895   2.530   0.950 -1.4133  1.0142 -0.3607
 8656SOL     OW37426   1.121   3.088   6.544  0.0953  0.5242  0.5882
 8656SOL    HW137427   1.077   3.094   6.459  0.7764 -1.5330  0.0815
 8656SOL    HW237428   1.121   3.180   6.571  1.3357  2.2922 -5.3267
 8657SOL     OW37429   1.739   4.099   6.760  0.5169 -0.6074  0.2800
 8657SOL    HW137430   1.657   4.051   6.772 -0.5721  1.5051  1.2818
 8657SOL    HW237431   1.750   4.147   6.842  1.3979  1.3269 -0.9590
 8658SOL     OW37432   3.512   4.491   0.487  0.2437 -0.1756  0.5204
 8658SOL    HW137433   3.475   4.521   0.404  1.3080  1.0692  0.4937
 8658SOL    HW237434   3.439   4.512   0.544  0.0539 -1.0097  0.5876
 8659SOL     OW37435   0.417   3.673   8.477 -0.2283  0.1387  0.0184
 8659SOL    HW137436   0.372   3.590   8.489 -0.9730  0.2092 -2.1940
 8659SOL    HW237437   0.351   3.741   8.493  1.2820  1.0447  2.3781
 8660SOL     OW37438   0.501   3.254  16.326 -0.0543 -0.0018  0.3297
 8660SOL    HW137439   0.597   3.263  16.321  0.0951 -1.1695  1.1378
 8660SOL    HW237440   0.484   3.276  16.234 -1.1263 -0.0690  0.5168
 8661SOL     OW37441   4.585   2.102  14.949 -0.2187  0.2659 -0.2837
 8661SOL    HW137442   4.539   2.130  14.869 -1.5541  0.9962  0.7404
 8661SOL    HW237443   4.594   2.186  14.994 -0.1094  0.1730 -0.1342
 8662SOL     OW37444   2.992   3.959   2.648 -0.5402 -0.8643 -0.1784
 8662SOL    HW137445   2.921   4.006   2.692  2.0398  2.6215  0.3048
 8662SOL    HW237446   3.025   4.039   2.606 -3.6150  0.8240  0.5865
 8663SOL     OW37447   4.588   2.113   8.386  0.0175  0.1551  0.1505
 8663SOL    HW137448   4.537   2.104   8.467 -2.1722  2.6231 -0.9552
 8663SOL    HW237449   4.669   2.150   8.422  1.1182 -3.5429  1.4810
 8664SOL     OW37450   0.857   2.981   7.748 -0.1282 -0.1133  0.0287
 8664SOL    HW137451   0.818   2.911   7.801  2.8672  0.8232  3.3947
 8664SOL    HW237452   0.780   2.996   7.692  0.7853  1.6195 -0.7547
 8665SOL     OW37453   0.856   1.981   9.102  0.7682 -0.0517 -0.9287
 8665SOL    HW137454   0.890   1.993   9.014  0.4601 -0.3112 -1.0820
 8665SOL    HW237455   0.910   2.033   9.162 -0.0818 -0.2674  0.0346
 8666SOL     OW37456   1.243   2.256   9.010  0.6610 -0.1407  0.1572
 8666SOL    HW137457   1.315   2.309   8.976  2.3248 -0.7417  2.7104
 8666SOL    HW237458   1.253   2.277   9.102 -0.3640 -1.9052  0.6624
 8667SOL     OW37459   1.925   3.076   9.593  0.1756 -0.2296  0.6387
 8667SOL    HW137460   1.970   2.992   9.593 -1.7837 -1.2597 -0.8047
 8667SOL    HW237461   1.965   3.118   9.669 -0.2768 -0.6901  1.1266
 8668SOL     OW37462   2.460   3.487  14.747 -0.2103 -0.0800 -0.5467
 8668SOL    HW137463   2.517   3.556  14.712  0.6024 -0.7693 -0.5860
 8668SOL    HW237464   2.382   3.508  14.696  1.3215 -2.3684 -3.8779
 8669SOL     OW37465   2.337   3.468   2.871 -0.1062 -0.0248  0.0045
 8669SOL    HW137466   2.299   3.540   2.920  0.5742  0.1603  0.2570
 8669SOL    HW237467   2.424   3.464   2.910  0.3005  2.5908 -0.6174
 8670SOL     OW37468   2.458   2.700   9.998  0.0517  0.0275  0.4114
 8670SOL    HW137469   2.549   2.724  10.015 -0.7172  2.1150  1.5447
 8670SOL    HW237470   2.416   2.779  10.033 -1.0085 -0.1757 -0.4037
 8671SOL     OW37471   1.170   2.137  11.425 -0.0661  0.0124 -0.5765
 8671SOL    HW137472   1.113   2.079  11.375  0.0183 -0.8752  0.3657
 8671SOL    HW237473   1.150   2.222  11.386 -3.8410 -0.4826  0.3483
 8672SOL     OW37474   4.250   0.876   2.317  0.2994 -0.4442 -0.3027
 8672SOL    HW137475   4.214   0.930   2.388  0.4707  0.0686 -0.6066
 8672SOL    HW237476   4.263   0.943   2.250  0.6774  0.6832  0.9049
 8673SOL     OW37477   2.586   0.222   3.931 -0.4634  1.0063 -0.5311
 8673SOL    HW137478   2.633   0.304   3.944  1.1434  0.1056 -0.6018
 8673SOL    HW237479   2.522   0.241   3.863  1.6532  0.6083 -2.6411
 8674SOL     OW37480   0.234   0.358   1.922 -0.3880 -0.5148  0.0482
 8674SOL    HW137481   0.273   0.296   1.984 -0.2968 -0.0376  0.4741
 8674SOL    HW237482   0.276   0.443   1.937  0.7060 -0.4772 -3.3579
 8675SOL     OW37483   1.412   0.406   8.765 -0.3378  0.1910 -0.2098
 8675SOL    HW137484   1.336   0.408   8.823  0.3152  0.2563  0.6442
 8675SOL    HW237485   1.480   0.369   8.822 -1.5877  1.6741  2.2560
 8676SOL     OW37486   4.493   0.413  17.323  0.4098 -0.0510 -0.7423
 8676SOL    HW137487   4.492   0.498  17.279  0.9306  0.5072  0.3331
 8676SOL    HW237488   4.577   0.376  17.294 -0.0600 -0.9997 -0.8784
 8677SOL     OW37489   2.845   0.516  14.995  0.2505  0.3144 -0.4874
 8677SOL    HW137490   2.853   0.576  15.069 -0.6767 -0.1352 -0.0230
 8677SOL    HW237491   2.834   0.429  15.033  0.6703  0.1786 -0.6805
 8678SOL     OW37492   3.511   0.799  11.044  0.1091  1.0077  0.2903
 8678SOL    HW137493   3.461   0.730  11.089 -1.1476  2.6482  1.3885
 8678SOL    HW237494   3.585   0.751  11.006 -0.8444 -0.9123  0.8378
 8679SOL     OW37495   3.200   3.106   9.088 -0.5878 -0.2123 -0.1477
 8679SOL    HW137496   3.218   3.020   9.126  0.4474 -0.3924 -1.0529
 8679SOL    HW237497   3.119   3.139   9.127  0.0700  1.4353 -0.1828
 8680SOL     OW37498   2.907   3.766   4.055 -0.8055  0.6006  0.3035
 8680SOL    HW137499   2.969   3.696   4.073 -1.7604 -0.1362  0.7681
 8680SOL    HW237500   2.877   3.752   3.965  2.1351  2.2809 -0.9479
 8681SOL     OW37501   3.118   0.438   7.429  0.5663  0.4735 -0.1703
 8681SOL    HW137502   3.161   0.487   7.499  0.6694 -1.2711  0.9797
 8681SOL    HW237503   3.120   0.510   7.366  0.0655 -0.1400 -0.8960
 8682SOL     OW37504   0.101   1.992  13.003 -0.6119  0.4171 -0.4795
 8682SOL    HW137505   0.119   2.066  13.060 -0.4386  0.0917 -0.1117
 8682SOL    HW237506   0.018   2.026  12.970 -0.1195 -0.7878 -2.9384
 8683SOL     OW37507   0.457   0.238  17.404 -0.1632  0.2216  0.0523
 8683SOL    HW137508   0.539   0.213  17.363 -0.2904 -0.7938  0.4021
 8683SOL    HW237509   0.464   0.331  17.422 -1.9003  0.7849 -2.1996
 8684SOL     OW37510   1.508   3.712   1.365 -0.3633  0.0875  0.1461
 8684SOL    HW137511   1.466   3.639   1.411  0.7366 -0.2952  0.5417
 8684SOL    HW237512   1.498   3.780   1.431 -1.4207  0.6063 -0.5412
 8685SOL     OW37513   4.046   4.242   8.235  0.0233 -0.0394  0.0932
 8685SOL    HW137514   3.998   4.293   8.170  0.2305  0.5788  0.4321
 8685SOL    HW237515   3.978   4.236   8.302  0.1416 -0.4456  0.1775
 8686SOL     OW37516   1.938   0.234   8.519  0.5261  0.4098  0.2893
 8686SOL    HW137517   2.010   0.285   8.558  2.0805 -1.4566 -0.1365
 8686SOL    HW237518   1.862   0.284   8.549  1.2514  1.5406  0.2547
 8687SOL     OW37519   3.314   1.066   1.291  0.4802 -0.1386  0.3385
 8687SOL    HW137520   3.256   1.066   1.214 -0.2261  0.7888  0.8776
 8687SOL    HW237521   3.322   0.971   1.299  1.2853 -0.1157 -0.1787
 8688SOL     OW37522   0.723   3.964   7.735 -0.4331  0.2387  0.3427
 8688SOL    HW137523   0.726   3.870   7.719 -0.4514  0.2281  0.4025
 8688SOL    HW237524   0.643   3.997   7.693 -1.1303 -1.8777 -0.0085
 8689SOL     OW37525   0.300   3.787   6.643  0.3167 -0.4385 -0.1893
 8689SOL    HW137526   0.213   3.772   6.608  0.9495  0.9427 -2.3331
 8689SOL    HW237527   0.286   3.810   6.735  0.6684  0.7598 -0.4243
 8690SOL     OW37528   4.263   1.527   3.512 -0.0496  1.1163  0.5346
 8690SOL    HW137529   4.346   1.563   3.482 -0.8854  2.3016 -0.3479
 8690SOL    HW237530   4.260   1.439   3.473  0.5866  1.5342 -0.4431
 8691SOL     OW37531   2.799   1.371   1.998 -0.1927  0.2681  0.1574
 8691SOL    HW137532   2.816   1.388   2.091 -0.1492  1.5704 -0.0939
 8691SOL    HW237533   2.716   1.324   2.006 -0.8522  1.4304  0.0023
 8692SOL     OW37534   4.521   4.661   6.677 -0.2335 -0.2681 -0.3469
 8692SOL    HW137535   4.544   4.570   6.696  1.2729  0.5897  1.9290
 8692SOL    HW237536   4.435   4.649   6.636  0.6622  1.3047 -2.6779
 8693SOL     OW37537   3.820   0.645   3.709  0.2272  0.3061 -0.0919
 8693SOL    HW137538   3.795   0.709   3.776 -1.0461  0.8947 -1.1484
 8693SOL    HW237539   3.908   0.683   3.703 -0.1205  1.3412  1.3595
 8694SOL     OW37540   0.907   1.978   2.229  0.9905  0.3598 -0.2216
 8694SOL    HW137541   0.843   2.017   2.170  0.0496 -0.6465  0.1344
 8694SOL    HW237542   0.914   2.037   2.304  1.8382  1.3828 -1.1279
 8695SOL     OW37543   2.237   3.017   7.111 -0.2160 -0.7521  0.2502
 8695SOL    HW137544   2.306   3.049   7.054 -0.2687 -0.0229  0.5904
 8695SOL    HW237545   2.274   3.016   7.199 -0.7770  0.9977  0.5135
 8696SOL     OW37546   2.946   2.004   9.583 -0.2042 -0.3217 -0.7331
 8696SOL    HW137547   2.852   1.996   9.565 -0.2385  1.0336 -1.1503
 8696SOL    HW237548   2.971   1.922   9.540 -1.3812 -1.1792  0.2254
 8697SOL     OW37549   0.235   2.534  12.344 -0.1224  0.4807  0.1080
 8697SOL    HW137550   0.316   2.484  12.333  0.4177  1.5860 -0.9240
 8697SOL    HW237551   0.188   2.468  12.394 -1.0889  0.2649 -1.1015
 8698SOL     OW37552   4.378   3.157   0.500 -0.4753 -0.2081  0.4194
 8698SOL    HW137553   4.366   3.239   0.547  0.0738  1.4958 -2.3766
 8698SOL    HW237554   4.378   3.100   0.577  0.4591  1.0746  1.3684
 8699SOL     OW37555   0.594   2.264   3.683 -0.3512  0.4215  0.4301
 8699SOL    HW137556   0.564   2.299   3.598 -0.8521  1.7575  1.1526
 8699SOL    HW237557   0.570   2.336   3.741 -0.7442  0.5470  0.1180
 8700SOL     OW37558   1.822   3.615  13.974  0.5600 -0.3735 -0.5380
 8700SOL    HW137559   1.741   3.644  14.017 -0.7672 -2.6485 -1.4997
 8700SOL    HW237560   1.822   3.682  13.906 -1.4174  1.0913  0.9043
 8701SOL     OW37561   0.479   1.262   3.350 -0.4897  0.2508 -1.3535
 8701SOL    HW137562   0.414   1.310   3.401  0.6901  0.3315  0.0876
 8701SOL    HW237563   0.449   1.177   3.382  2.0132 -0.6485 -1.3464
 8702SOL     OW37564   4.534   2.865  14.416 -0.1494  0.1641  0.0619
 8702SOL    HW137565   4.525   2.924  14.491 -0.3691  0.3405 -0.1023
 8702SOL    HW237566   4.537   2.781  14.461 -0.1630 -0.4942 -1.1691
 8703SOL     OW37567   3.572   4.090   1.494 -1.1074 -0.3135  0.0295
 8703SOL    HW137568   3.580   4.008   1.542  1.6794 -0.3490 -0.5397
 8703SOL    HW237569   3.651   4.132   1.527 -0.8742  0.2832 -1.2910
 8704SOL     OW37570   0.234   0.501   1.648  0.9339 -0.4364  0.0664
 8704SOL    HW137571   0.151   0.546   1.636  0.3137 -1.3599  0.9240
 8704SOL    HW237572   0.266   0.528   1.733 -0.3800  0.7318  0.1810
 8705SOL     OW37573   2.067   1.807   0.741 -0.2122 -0.4692 -0.0959
 8705SOL    HW137574   2.066   1.872   0.811  0.0902 -1.3797  0.7589
 8705SOL    HW237575   2.059   1.720   0.781 -1.0236 -0.8628 -1.1300
 8706SOL     OW37576   2.770   0.602   6.037  0.2964 -0.0850  0.0855
 8706SOL    HW137577   2.837   0.579   5.972 -0.8538 -0.5104 -0.9474
 8706SOL    HW237578   2.751   0.694   6.016  2.0735 -0.2515 -2.3287
 8707SOL     OW37579   0.128   4.066  11.655 -0.0685  0.1315 -0.1416
 8707SOL    HW137580   0.207   4.045  11.605 -0.2710  0.9963 -0.8162
 8707SOL    HW237581   0.067   4.118  11.603 -1.1959 -1.6074 -0.5644
 8708SOL     OW37582   3.295   0.930   1.732 -0.1822 -0.4135  0.1781
 8708SOL    HW137583   3.252   0.848   1.707 -0.1410 -0.5022  0.3914
 8708SOL    HW237584   3.215   0.972   1.761 -0.8371 -0.6041 -1.3592
 8709SOL     OW37585   2.100   4.010  14.757  0.1864  0.4101 -0.3360
 8709SOL    HW137586   2.151   4.072  14.706 -0.0469 -0.8074 -2.0406
 8709SOL    HW237587   2.171   3.962  14.800 -0.4701 -0.3100 -0.0407
 8710SOL     OW37588   4.021   3.337   7.991 -0.6885  0.2543 -0.3878
 8710SOL    HW137589   4.106   3.318   8.032 -0.4461 -0.6252 -1.2828
 8710SOL    HW237590   4.031   3.302   7.903 -2.7815 -0.5407 -0.3097
 8711SOL     OW37591   3.564   3.086   6.501 -0.3965  0.1921 -0.0946
 8711SOL    HW137592   3.539   3.179   6.497 -0.2027  0.1350 -2.2059
 8711SOL    HW237593   3.589   3.070   6.592  2.4587 -4.0177 -1.6979
 8712SOL     OW37594   0.309   0.748   4.165  0.3389  0.2859  0.3341
 8712SOL    HW137595   0.347   0.691   4.098  0.8378  1.7217 -0.6027
 8712SOL    HW237596   0.294   0.688   4.238  1.2021  0.4323  0.6354
 8713SOL     OW37597   2.234   3.362   2.309 -0.6672 -0.1012  0.5032
 8713SOL    HW137598   2.325   3.377   2.284  0.0237 -1.8065  2.0566
 8713SOL    HW237599   2.218   3.424   2.380 -1.2231  0.2244  0.0982
 8714SOL     OW37600   1.020   2.804   5.120  0.3066  0.0594  0.2941
 8714SOL    HW137601   0.939   2.845   5.148 -0.5015 -1.0549 -0.4293
 8714SOL    HW237602   1.088   2.867   5.144 -0.4681  0.6902  0.8233
 8715SOL     OW37603   0.329   1.736   2.208  0.2571 -0.2273 -0.2005
 8715SOL    HW137604   0.335   1.643   2.232 -1.0888 -0.5438 -1.0733
 8715SOL    HW237605   0.237   1.750   2.233  0.8959 -2.6035  3.5598
 8716SOL     OW37606   4.561   2.081   2.816  0.1617  0.3749  0.3748
 8716SOL    HW137607   4.627   2.150   2.818  0.0188  0.5490 -1.1693
 8716SOL    HW237608   4.556   2.061   2.910  1.4972 -0.5978  0.2467
 8717SOL     OW37609   3.696   1.436   4.021  0.0285 -0.6242 -0.5684
 8717SOL    HW137610   3.769   1.425   3.961 -0.6516 -3.4431 -0.8807
 8717SOL    HW237611   3.723   1.391   4.101 -1.9137  4.0412  2.7151
 8718SOL     OW37612   3.247   4.199   9.801 -0.1055  0.5118 -0.0956
 8718SOL    HW137613   3.281   4.147   9.874 -0.7785  1.5589  0.9529
 8718SOL    HW237614   3.266   4.287   9.833 -0.5625  0.3619  0.5957
 8719SOL     OW37615   2.231   2.381   9.429  0.3247 -0.2461  0.0492
 8719SOL    HW137616   2.163   2.433   9.387  0.9932  0.6900  0.1168
 8719SOL    HW237617   2.298   2.443   9.456  0.8325 -0.4615 -0.6958
 8720SOL     OW37618   2.145   4.309   0.121 -0.1749  0.3001 -0.0533
 8720SOL    HW137619   2.101   4.322   0.205  0.3473 -1.0794  0.4363
 8720SOL    HW237620   2.201   4.235   0.143 -0.2827  0.8846  2.1830
 8721SOL     OW37621   2.774   3.097   0.593  0.2479 -0.3204  0.0828
 8721SOL    HW137622   2.723   3.140   0.524 -0.1850 -0.1939  0.4797
 8721SOL    HW237623   2.821   3.173   0.627  3.0164 -2.5687  1.2921
 8722SOL     OW37624   4.062   2.254   7.205  0.3397  0.1525 -0.4654
 8722SOL    HW137625   4.127   2.272   7.273  0.7827 -3.2395 -0.0029
 8722SOL    HW237626   4.052   2.159   7.207 -2.1300  0.4392  0.5080
 8723SOL     OW37627   3.509   2.880   7.614  0.2613  0.5735  0.6038
 8723SOL    HW137628   3.534   2.808   7.557  1.1407  1.2757  0.0882
 8723SOL    HW237629   3.570   2.948   7.584 -0.1739  1.1054  0.9221
 8724SOL     OW37630   4.191   3.244   4.858  0.0686  0.2375 -0.1063
 8724SOL    HW137631   4.256   3.282   4.917 -0.4830  0.5430  0.3124
 8724SOL    HW237632   4.142   3.325   4.843 -1.1081 -0.3464  0.5485
 8725SOL     OW37633   1.669   0.682   0.941 -0.3890  0.9611  0.1673
 8725SOL    HW137634   1.754   0.717   0.915 -0.3041  0.9388  0.4132
 8725SOL    HW237635   1.683   0.681   1.036  2.0796  1.3814 -0.1948
 8726SOL     OW37636   3.132   1.990   9.114  0.1111 -0.0390 -0.2431
 8726SOL    HW137637   3.062   1.944   9.161  0.2082  0.0004 -0.0611
 8726SOL    HW237638   3.175   2.027   9.191 -1.6178 -1.0931  1.2489
 8727SOL     OW37639   1.241   1.841   9.496  0.5100 -0.0777 -0.3009
 8727SOL    HW137640   1.336   1.852   9.500  0.2627  1.0647  2.2769
 8727SOL    HW237641   1.216   1.859   9.586 -0.7806 -3.2643 -0.0505
 8728SOL     OW37642   2.484   1.761  10.516  0.1747 -0.1875 -0.3741
 8728SOL    HW137643   2.481   1.764  10.611 -0.7795  0.8342 -0.4374
 8728SOL    HW237644   2.530   1.844  10.502  0.3815 -0.5094 -1.6703
 8729SOL     OW37645   3.866   4.402  10.826 -0.8927 -0.3855  0.4992
 8729SOL    HW137646   3.952   4.423  10.862  0.7170 -0.3760 -3.3404
 8729SOL    HW237647   3.876   4.313  10.792  1.2169 -0.4880  1.4058
 8730SOL     OW37648   3.992   0.247  10.512  0.5092 -0.2687  0.4280
 8730SOL    HW137649   4.084   0.276  10.508  0.2280  0.4676 -0.6395
 8730SOL    HW237650   3.988   0.162  10.468 -1.5082  0.0302  0.0647
 8731SOL     OW37651   1.964   4.500   2.714 -0.3421 -0.1263  0.0517
 8731SOL    HW137652   2.046   4.513   2.666 -0.2386  0.7237  0.4731
 8731SOL    HW237653   1.900   4.521   2.646  1.5602  1.6685 -1.1753
 8732SOL     OW37654   4.618   4.079   0.394 -0.4049 -0.2855 -0.1410
 8732SOL    HW137655   4.585   4.088   0.483 -0.9600 -0.2893 -0.3431
 8732SOL    HW237656   4.575   4.003   0.355 -0.1904  0.0217 -0.9823
 8733SOL     OW37657   0.630   0.921   4.036  0.1866  0.4806 -1.0248
 8733SOL    HW137658   0.595   0.848   3.985  0.0611  0.0669 -0.3435
 8733SOL    HW237659   0.705   0.880   4.079 -0.3680  0.5855  0.0441
 8734SOL     OW37660   4.074   4.209   3.570 -0.5076  0.1262  0.5810
 8734SOL    HW137661   4.046   4.212   3.479  0.9073  0.4901  0.1490
 8734SOL    HW237662   4.098   4.300   3.590 -0.9106  0.5514 -0.8547
 8735SOL     OW37663   2.281   2.873  14.620 -0.1326  0.4514 -0.3809
 8735SOL    HW137664   2.330   2.870  14.703 -1.0909 -0.6136  0.1507
 8735SOL    HW237665   2.196   2.850  14.657 -1.5014  2.8047 -2.1354
 8736SOL     OW37666   0.446   1.183   1.951 -0.2465 -0.5480  0.4341
 8736SOL    HW137667   0.480   1.150   2.034 -1.2604  0.0629  1.0850
 8736SOL    HW237668   0.493   1.266   1.937  0.1615 -0.7070  0.8788
 8737SOL     OW37669   4.604   2.111   7.752 -0.4160  0.0500 -0.5066
 8737SOL    HW137670   4.676   2.051   7.734 -1.6252 -1.0482 -1.6197
 8737SOL    HW237671   4.532   2.049   7.739 -0.3655  0.0189 -0.6369
 8738SOL     OW37672   2.406   1.762   3.781  0.1883 -0.2628  0.4000
 8738SOL    HW137673   2.420   1.812   3.701  0.2057 -1.7573 -0.5419
 8738SOL    HW237674   2.324   1.716   3.760  0.5954 -1.2776  1.0369
 8739SOL     OW37675   3.845   1.542   3.687  0.5817  0.2432  0.9752
 8739SOL    HW137676   3.762   1.551   3.642  1.4613  0.7052 -0.5469
 8739SOL    HW237677   3.902   1.561   3.613  3.1641 -4.5126  1.7451
 8740SOL     OW37678   2.618   1.746  15.338  0.3508  0.3090 -0.2597
 8740SOL    HW137679   2.675   1.823  15.337  0.1098  0.4837 -0.3731
 8740SOL    HW237680   2.681   1.680  15.308 -1.7167 -1.6136 -0.4263
 8741SOL     OW37681   1.693   3.866  15.895 -0.8689 -0.2780  0.3900
 8741SOL    HW137682   1.598   3.870  15.895 -0.9694 -2.6380 -2.5362
 8741SOL    HW237683   1.710   3.788  15.842  0.4897  0.2155  0.0755
 8742SOL     OW37684   2.723   0.973   2.719 -0.1323  0.3317 -0.5359
 8742SOL    HW137685   2.780   1.007   2.788  0.4923 -3.1954  0.7051
 8742SOL    HW237686   2.673   1.051   2.695 -1.1391 -1.0172 -2.8682
 8743SOL     OW37687   3.744   3.857   0.085  0.3787 -0.3721 -0.7126
 8743SOL    HW137688   3.678   3.906   0.037  0.1974 -2.7717 -2.9060
 8743SOL    HW237689   3.824   3.880   0.038  1.0540 -0.2776  0.4889
 8744SOL     OW37690   2.023   3.739   6.806 -0.1549 -0.1174  0.1487
 8744SOL    HW137691   1.971   3.791   6.744 -0.8218 -0.2806  0.5668
 8744SOL    HW237692   1.959   3.728   6.876 -1.7469 -2.3237 -1.6362
 8745SOL     OW37693   3.383   3.799   6.583 -0.2607  0.7694 -0.0514
 8745SOL    HW137694   3.328   3.756   6.649  0.2160  2.0285  1.1697
 8745SOL    HW237695   3.334   3.879   6.569  0.9079  1.6385  0.8066
 8746SOL     OW37696   3.109   3.724  16.252 -0.1419 -0.4185 -0.0805
 8746SOL    HW137697   3.041   3.766  16.305 -0.7939 -1.1215 -0.3665
 8746SOL    HW237698   3.182   3.781  16.277  1.0694 -0.6490 -3.0456
 8747SOL     OW37699   0.365   2.258   3.086 -1.1974  0.4244  0.0201
 8747SOL    HW137700   0.395   2.316   3.017 -1.8287  1.6347  0.7659
 8747SOL    HW237701   0.347   2.177   3.038  0.0939 -0.1378  0.4783
 8748SOL     OW37702   4.442   0.671  17.223  0.6321 -0.1423 -0.7155
 8748SOL    HW137703   4.363   0.639  17.266  0.6458  1.8511  0.7528
 8748SOL    HW237704   4.406   0.759  17.214 -0.7443 -0.6217  0.1629
 8749SOL     OW37705   0.618   1.270   6.101 -0.3382  0.3622 -0.7298
 8749SOL    HW137706   0.615   1.192   6.045 -0.5425  0.5978 -1.0477
 8749SOL    HW237707   0.650   1.243   6.186 -1.2520 -0.8399 -0.7809
 8750SOL     OW37708   4.653   2.340   5.802  0.3545  0.0526 -0.3302
 8750SOL    HW137709   4.573   2.391   5.814 -0.6747 -1.8242  0.6709
 8750SOL    HW237710   4.704   2.346   5.883 -0.2216 -0.4783  0.0695
 8751SOL     OW37711   2.081   2.913  15.092  0.1367  0.0885 -0.4642
 8751SOL    HW137712   2.146   2.982  15.106 -1.1103  1.5647 -1.9163
 8751SOL    HW237713   2.045   2.928  15.004  0.2729 -1.5740 -0.8134
 8752SOL     OW37714   1.230   4.620   5.468  0.6208 -0.0960 -0.0771
 8752SOL    HW137715   1.317   4.636   5.505  0.2661 -2.8785  1.9556
 8752SOL    HW237716   1.217   4.706   5.428  0.6541  0.1425  0.4243
 8753SOL     OW37717   1.364   0.336   4.831  0.1358 -0.0183 -0.2226
 8753SOL    HW137718   1.430   0.333   4.762 -1.2783  1.6190 -1.6503
 8753SOL    HW237719   1.427   0.324   4.902  0.8518  2.7966 -0.3846
 8754SOL     OW37720   0.801   0.202   6.414 -0.1089  0.4387  0.1496
 8754SOL    HW137721   0.835   0.260   6.483 -0.0567 -0.1928  0.6568
 8754SOL    HW237722   0.885   0.156   6.405 -1.6051 -2.3401  0.5198
 8755SOL     OW37723   1.616   3.239   4.274  0.0317  0.2472 -0.2683
 8755SOL    HW137724   1.531   3.208   4.243 -0.7921 -1.3629  3.6518
 8755SOL    HW237725   1.669   3.209   4.200 -0.5018  0.4362 -0.7207
 8756SOL     OW37726   1.883   0.523  17.412 -0.0542 -0.5743 -0.7336
 8756SOL    HW137727   1.919   0.528  17.323  1.3466  1.5021 -0.0414
 8756SOL    HW237728   1.831   0.442  17.408 -1.3902  0.2535  0.0917
 8757SOL     OW37729   3.178   4.613   8.779  0.1942 -0.2018 -0.2201
 8757SOL    HW137730   3.145   4.638   8.693 -0.4466 -2.9707 -0.7705
 8757SOL    HW237731   3.105   4.557   8.809  0.2939 -1.2066 -1.8811
 8758SOL     OW37732   3.735   4.667   6.465  0.2226  0.1926 -0.0462
 8758SOL    HW137733   3.792   4.683   6.390 -1.5775  3.3366 -0.7375
 8758SOL    HW237734   3.732   4.572   6.455  1.4969  0.0126  1.2043
 8759SOL     OW37735   0.507   1.261  14.768  0.3266  0.8181 -0.4325
 8759SOL    HW137736   0.486   1.204  14.694 -0.0318  2.7257 -1.7944
 8759SOL    HW237737   0.602   1.257  14.757  0.4720  0.9250  0.7152
 8760SOL     OW37738   1.057   0.576   7.598 -0.3632  0.3236 -0.1137
 8760SOL    HW137739   0.967   0.556   7.569  0.7107 -1.6417 -2.1067
 8760SOL    HW237740   1.076   0.497   7.649 -2.3817 -0.4490 -0.5336
 8761SOL     OW37741   0.681   2.164   3.213 -0.1432  0.0366  0.1699
 8761SOL    HW137742   0.683   2.077   3.174  1.0101  0.0546  0.1792
 8761SOL    HW237743   0.774   2.163   3.238  0.1786  0.7973 -1.0355
 8762SOL     OW37744   2.236   3.919   9.088 -0.0381 -0.1979 -0.1768
 8762SOL    HW137745   2.300   3.985   9.116  0.2964  0.3756 -2.2960
 8762SOL    HW237746   2.288   3.842   9.110  2.9055  1.7219 -0.4004
 8763SOL     OW37747   3.828   1.405   5.360 -0.2959 -0.5075 -0.3627
 8763SOL    HW137748   3.907   1.356   5.384  0.1574 -1.0911 -3.0878
 8763SOL    HW237749   3.763   1.376   5.423  0.0410 -2.1902 -0.7939
 8764SOL     OW37750   4.479   1.952   5.734 -0.2794  0.1285 -0.1860
 8764SOL    HW137751   4.453   1.893   5.805  2.3647 -2.9415 -1.8088
 8764SOL    HW237752   4.425   2.028   5.755 -0.3940 -0.4164  1.5173
 8765SOL     OW37753   3.998   0.857   3.644 -0.2081  0.2184  0.9644
 8765SOL    HW137754   3.930   0.900   3.592  1.6641 -1.1341 -2.5600
 8765SOL    HW237755   4.017   0.923   3.711 -0.7746  0.6533  0.6985
 8766SOL     OW37756   4.484   3.773   1.297 -0.2424  0.3438 -0.6246
 8766SOL    HW137757   4.466   3.679   1.298  2.5520 -0.2025 -1.0062
 8766SOL    HW237758   4.443   3.773   1.210  0.5636  1.7387 -0.9933
 8767SOL     OW37759   2.297   3.659  14.371  0.1728 -0.5221  0.1113
 8767SOL    HW137760   2.213   3.617  14.349  0.0064 -0.3877  0.4866
 8767SOL    HW237761   2.271   3.750  14.387 -0.8276 -0.9042  0.6751
 8768SOL     OW37762   0.074   0.023   4.168  0.1726  0.2313 -0.6662
 8768SOL    HW137763   0.057   0.094   4.230 -0.8056 -2.5070  2.2038
 8768SOL    HW237764   4.724   4.688   4.170  0.2293  0.1498 -1.0676
 8769SOL     OW37765   3.182   1.608   7.034 -0.6173 -1.2799  0.0542
 8769SOL    HW137766   3.218   1.688   6.997 -0.5787 -1.5008 -0.3792
 8769SOL    HW237767   3.189   1.546   6.962 -0.2628 -0.3538 -0.7064
 8770SOL     OW37768   3.462   0.358   5.556  0.0538 -0.4244  0.3504
 8770SOL    HW137769   3.486   0.450   5.565  1.8404 -0.9655  1.1583
 8770SOL    HW237770   3.550   0.324   5.536  0.7480  0.1759  2.4319
 8771SOL     OW37771   1.072   0.871   3.466  0.5770 -0.0028 -0.1353
 8771SOL    HW137772   1.096   0.960   3.492  2.0362 -0.1982 -0.7937
 8771SOL    HW237773   1.022   0.878   3.384 -0.0045 -0.8235  0.1487
 8772SOL     OW37774   2.513   3.188   2.688  0.1508  0.5356  0.4952
 8772SOL    HW137775   2.513   3.199   2.593  0.6713  0.1577  0.4511
 8772SOL    HW237776   2.575   3.255   2.715  1.1033  0.3725 -1.3026
 8773SOL     OW37777   4.472   0.440   8.474 -0.1527  0.0899 -0.0029
 8773SOL    HW137778   4.488   0.529   8.506 -1.2309 -0.1852  1.3133
 8773SOL    HW237779   4.539   0.390   8.521 -0.2486  1.6506  1.7857
 8774SOL     OW37780   3.668   0.001   8.090  0.3660  0.1186 -0.3616
 8774SOL    HW137781   3.763   4.716   8.078  0.0797 -0.0321 -2.5768
 8774SOL    HW237782   3.648   4.633   8.073  0.4318 -0.0969  0.7437
 8775SOL     OW37783   4.011   2.341   9.078 -0.5497  0.1471 -0.0822
 8775SOL    HW137784   4.079   2.273   9.087 -1.9964 -1.2245  0.5033
 8775SOL    HW237785   4.039   2.402   9.147  1.6362 -0.2568 -0.6022
 8776SOL     OW37786   0.881   4.271   2.322 -0.4728  0.3048 -0.1735
 8776SOL    HW137787   0.954   4.210   2.326  0.9999  2.0187 -0.6334
 8776SOL    HW237788   0.896   4.319   2.240 -0.8208  0.0579 -0.3774
 8777SOL     OW37789   4.295   0.265   6.905 -0.0420 -0.4678  0.2383
 8777SOL    HW137790   4.331   0.186   6.945  2.1455 -0.1516 -1.0921
 8777SOL    HW237791   4.352   0.274   6.829  1.3790 -1.7163  1.1654
 8778SOL     OW37792   4.084   0.011  17.589 -0.2704 -0.3793 -0.0862
 8778SOL    HW137793   4.137   4.697  17.519  1.5993 -0.6221  1.4330
 8778SOL    HW237794   4.073   0.098  17.551  0.0457 -0.7252 -0.9724
 8779SOL     OW37795   2.358   3.071   1.505  0.4982  0.0565 -0.1047
 8779SOL    HW137796   2.374   3.040   1.595  2.2974  0.2702 -0.3513
 8779SOL    HW237797   2.309   3.151   1.524  1.1354  0.1363  1.2724
 8780SOL     OW37798   1.839   0.865   9.007  0.1348  0.3073  0.4593
 8780SOL    HW137799   1.871   0.933   9.066  0.0663 -0.1079  0.9705
 8780SOL    HW237800   1.763   0.912   8.973 -0.4128  0.1950  1.5393
 8781SOL     OW37801   0.261   2.678   8.155 -0.2270  0.5904  0.4781
 8781SOL    HW137802   0.296   2.631   8.231 -0.9989  1.3531  1.3142
 8781SOL    HW237803   0.302   2.622   8.090 -0.5674 -2.5209  2.9275
 8782SOL     OW37804   0.824   2.102  11.096  0.1870 -0.2433 -0.3087
 8782SOL    HW137805   0.839   2.011  11.074 -1.0553 -0.0722 -1.8768
 8782SOL    HW237806   0.915   2.133  11.103  0.2328 -0.4655  0.0638
 8783SOL     OW37807   4.485   0.918   7.797  0.2184 -0.1312  0.1929
 8783SOL    HW137808   4.450   0.982   7.859  0.1221  0.8888 -0.9160
 8783SOL    HW237809   4.440   0.946   7.717  1.0759  2.4616  0.6122
 8784SOL     OW37810   1.247   1.869   1.841 -0.5834 -0.4473 -0.0286
 8784SOL    HW137811   1.259   1.950   1.892 -0.4069 -0.0406 -0.7161
 8784SOL    HW237812   1.169   1.836   1.886 -0.5633 -2.5265 -1.5300
 8785SOL     OW37813   4.440   4.038   7.245  0.2730 -0.7630  0.1537
 8785SOL    HW137814   4.438   4.090   7.165  1.4149 -0.2219  0.4846
 8785SOL    HW237815   4.512   3.980   7.221  0.5843 -0.2585 -0.1320
 8786SOL     OW37816   1.398   2.702   3.800 -0.2120  0.3214  0.1625
 8786SOL    HW137817   1.403   2.789   3.760  0.6135  0.4942  0.6494
 8786SOL    HW237818   1.397   2.715   3.895  0.2237  1.9853 -0.0583
 8787SOL     OW37819   4.253   0.280   6.481  0.3830 -0.1592 -0.4745
 8787SOL    HW137820   4.247   0.254   6.389  1.2899  0.0495 -0.5960
 8787SOL    HW237821   4.164   0.257   6.508  1.2269 -1.7493  0.9871
 8788SOL     OW37822   0.624   2.064   9.243  0.0858  0.3576 -0.3524
 8788SOL    HW137823   0.703   2.042   9.194  0.4156  2.3486 -0.7158
 8788SOL    HW237824   0.601   2.131   9.179 -0.3477 -0.4115 -1.0047
 8789SOL     OW37825   2.675   0.359   6.129 -0.7395  0.0418  0.3069
 8789SOL    HW137826   2.763   0.344   6.165 -0.6898 -0.1710  0.0976
 8789SOL    HW237827   2.692   0.427   6.063 -1.6092 -0.6680 -0.6542
 8790SOL     OW37828   2.709   0.494   4.716  0.0303 -0.1701  1.2565
 8790SOL    HW137829   2.692   0.407   4.753  0.5514  0.2375  2.4648
 8790SOL    HW237830   2.636   0.544   4.753  0.9107  0.5816  1.9731
 8791SOL     OW37831   4.538   0.101  11.009  0.5793  0.3834  0.5421
 8791SOL    HW137832   4.512   0.013  10.982  4.6448 -0.6370 -0.0289
 8791SOL    HW237833   4.568   0.138  10.926  1.3453 -0.0020  0.6520
 8792SOL     OW37834   0.002   2.494  14.177  0.6304  0.8844  0.0944
 8792SOL    HW137835   4.712   2.496  14.082  0.9510  1.2879  0.0560
 8792SOL    HW237836   0.069   2.426  14.185 -0.3644 -0.1231 -0.0621
 8793SOL     OW37837   0.589   1.163   7.174 -0.3943 -0.4311  0.4769
 8793SOL    HW137838   0.628   1.247   7.198 -0.6911 -0.2580  0.3393
 8793SOL    HW237839   0.661   1.138   7.116 -0.5825  1.9781 -0.7939
 8794SOL     OW37840   4.116   3.766   8.255  0.0642  0.2140 -0.1391
 8794SOL    HW137841   4.180   3.701   8.282 -1.1880 -1.5568 -1.4040
 8794SOL    HW237842   4.058   3.722   8.193  1.9965 -0.7113 -1.2832
 8795SOL     OW37843   1.348   3.388  12.080 -0.0579  0.1147  0.0853
 8795SOL    HW137844   1.260   3.418  12.105 -0.0949 -1.2813  1.6718
 8795SOL    HW237845   1.398   3.459  12.041  0.5850  0.4895  1.6226
 8796SOL     OW37846   2.121   4.318   2.824  0.3787  0.0044  0.8256
 8796SOL    HW137847   2.203   4.356   2.793  0.8370 -0.4549  1.4722
 8796SOL    HW237848   2.056   4.386   2.807 -2.0903 -2.0910  1.8199
 8797SOL     OW37849   2.078   2.843  16.540  0.7646 -0.0398  0.2919
 8797SOL    HW137850   2.113   2.814  16.456 -0.0059 -0.8277  0.2453
 8797SOL    HW237851   2.134   2.919  16.557  0.2021 -0.0931  2.3512
 8798SOL     OW37852   3.529   1.241   1.254 -0.4788  0.0520 -0.1574
 8798SOL    HW137853   3.457   1.178   1.261  0.2265 -0.5291  1.9592
 8798SOL    HW237854   3.496   1.303   1.320 -0.6213  1.3024 -1.4025
 8799SOL     OW37855   0.381   1.073   5.336  0.2997 -0.4053  0.5265
 8799SOL    HW137856   0.380   1.142   5.402 -1.1360  0.7686 -0.7420
 8799SOL    HW237857   0.452   1.097   5.277 -0.0279 -1.2633 -0.2155
 8800SOL     OW37858   4.378   2.315   2.670  0.4558 -1.0418 -0.0609
 8800SOL    HW137859   4.457   2.288   2.716 -0.2026 -0.2606  1.5074
 8800SOL    HW237860   4.354   2.239   2.617  0.1975 -1.0235  0.0307
 8801SOL     OW37861   1.548   4.103   5.507  0.1638  0.0086 -0.4966
 8801SOL    HW137862   1.504   4.049   5.442 -0.1935  1.2770 -1.3182
 8801SOL    HW237863   1.566   4.182   5.455 -0.8819  0.9676  0.5866
 8802SOL     OW37864   1.473   3.853   7.076  0.2733 -0.1074 -0.0962
 8802SOL    HW137865   1.383   3.839   7.047 -0.6803  2.6336  1.4457
 8802SOL    HW237866   1.460   3.945   7.101 -1.0424 -0.1933 -0.5158
 8803SOL     OW37867   2.289   0.923   3.716  0.3945  0.1387  0.4670
 8803SOL    HW137868   2.220   0.856   3.717  0.7121 -0.2222 -1.4894
 8803SOL    HW237869   2.370   0.879   3.740 -0.2543 -0.8878  0.7920
 8804SOL     OW37870   1.049   2.666  10.126 -0.1268 -0.0207  0.8953
 8804SOL    HW137871   1.039   2.756  10.097  0.7960 -0.2451 -0.1256
 8804SOL    HW237872   0.962   2.630  10.108  0.7610 -2.0092  0.6001
 8805SOL     OW37873   3.629   1.566   7.155 -0.2893  0.1643  0.0864
 8805SOL    HW137874   3.600   1.634   7.216 -2.1552 -1.0169  0.5185
 8805SOL    HW237875   3.706   1.536   7.203  0.6627  3.4896  0.6106
 8806SOL     OW37876   3.531   2.216   0.757 -0.1303  0.3440  0.7408
 8806SOL    HW137877   3.437   2.204   0.772 -0.1054 -0.9867 -0.1595
 8806SOL    HW237878   3.540   2.197   0.663 -0.1569  0.7896  0.6470
 8807SOL     OW37879   3.079   1.373   6.231  0.1111  0.4090  0.0202
 8807SOL    HW137880   2.997   1.397   6.188 -0.4615 -2.2120 -0.3807
 8807SOL    HW237881   3.098   1.299   6.173  1.4403  0.1085  0.8424
 8808SOL     OW37882   3.865   0.981   7.077 -0.0627  0.2409  0.5323
 8808SOL    HW137883   3.905   0.979   6.990 -0.7397 -0.9801  0.2419
 8808SOL    HW237884   3.837   0.890   7.089 -0.8029  0.8193  3.1258
 8809SOL     OW37885   3.031   1.135   2.127 -0.5297  0.3041  0.1405
 8809SOL    HW137886   2.966   1.203   2.111 -0.4109 -0.0600 -1.8461
 8809SOL    HW237887   3.062   1.108   2.041 -3.7086 -0.3411 -0.8060
 8810SOL     OW37888   3.234   0.447   8.281  0.1407 -0.1695  0.0874
 8810SOL    HW137889   3.292   0.521   8.300 -0.1950 -0.4694  2.2780
 8810SOL    HW237890   3.190   0.425   8.363  2.1045  1.7293  1.6379
 8811SOL     OW37891   1.343   4.504   0.883  0.4378 -0.1329  0.0561
 8811SOL    HW137892   1.419   4.474   0.834 -0.5519  0.6730 -1.9865
 8811SOL    HW237893   1.321   4.419   0.919  1.8581  0.5321  2.4745
 8812SOL     OW37894   2.518   4.195   0.425  0.0883  0.6643 -0.2576
 8812SOL    HW137895   2.537   4.101   0.432 -0.4649  0.6135  0.6163
 8812SOL    HW237896   2.531   4.220   0.516 -0.1262  0.4107 -0.1551
 8813SOL     OW37897   3.168   3.349  13.092 -0.2273 -0.3380  0.5272
 8813SOL    HW137898   3.160   3.255  13.106 -0.8386 -0.5121 -1.0169
 8813SOL    HW237899   3.212   3.383  13.170  2.8373  1.1196 -1.8324
 8814SOL     OW37900   2.789   1.256   3.889 -0.0783  0.2876 -0.1442
 8814SOL    HW137901   2.772   1.346   3.916  0.7647  0.4532 -0.1633
 8814SOL    HW237902   2.711   1.215   3.927 -0.8541  1.4906 -0.4348
 8815SOL     OW37903   0.782   2.227  10.821 -0.6405  0.2509 -0.5185
 8815SOL    HW137904   0.835   2.191  10.750  0.1870  2.3111 -0.9264
 8815SOL    HW237905   0.833   2.186  10.891 -0.1048 -1.0960 -1.6961
 8816SOL     OW37906   0.921   1.405  10.328 -0.5479  0.1388 -0.3053
 8816SOL    HW137907   0.909   1.499  10.317  0.9146  0.4234  0.4893
 8816SOL    HW237908   0.982   1.397  10.254  0.8074 -1.1398  0.9643
 8817SOL     OW37909   3.181   1.822  15.497  0.0173 -0.7658 -0.2134
 8817SOL    HW137910   3.220   1.880  15.564  0.4021 -0.4024 -0.7545
 8817SOL    HW237911   3.228   1.742  15.520 -1.9390 -2.6949 -2.9696
 8818SOL     OW37912   0.824   2.669   9.934 -0.1727  0.6188 -0.0758
 8818SOL    HW137913   0.859   2.617   9.861  0.7311  0.8007  0.2294
 8818SOL    HW237914   0.848   2.759   9.914 -0.3714  1.7699  4.8323
 8819SOL     OW37915   2.611   0.711   1.119 -0.0862 -0.1298  0.2098
 8819SOL    HW137916   2.694   0.751   1.144 -0.2822  3.0447 -4.2101
 8819SOL    HW237917   2.555   0.724   1.195 -1.1825 -4.6359  0.1453
 8820SOL     OW37918   4.491   1.112   0.361  0.5431 -0.1434  0.5177
 8820SOL    HW137919   4.484   1.090   0.454  0.2320 -4.1076 -0.4650
 8820SOL    HW237920   4.408   1.071   0.338 -0.2876  0.4210  2.4415
 8821SOL     OW37921   0.101   1.629   8.661  0.2380  0.7608 -0.0958
 8821SOL    HW137922   0.032   1.695   8.650  0.2974  0.5601 -1.7137
 8821SOL    HW237923   0.182   1.679   8.653 -0.4054  1.6009 -1.4588
 8822SOL     OW37924   0.507   1.606   5.760  0.1143  0.1100 -0.2798
 8822SOL    HW137925   0.584   1.568   5.802  1.5718  2.2709 -0.9826
 8822SOL    HW237926   0.436   1.544   5.777  0.6116 -0.9714 -2.0880
 8823SOL     OW37927   2.824   0.709   0.163  0.0460  0.2908 -0.3029
 8823SOL    HW137928   2.871   0.627   0.147 -0.5669 -0.0510 -0.3471
 8823SOL    HW237929   2.871   0.750   0.091  0.6095  0.2242  0.0225
 8824SOL     OW37930   4.470   2.337   8.949 -0.2088  0.3410  0.5731
 8824SOL    HW137931   4.462   2.429   8.972 -0.7827  0.5480 -0.4451
 8824SOL    HW237932   4.448   2.298   9.033 -0.2497 -0.7935  0.0401
 8825SOL     OW37933   3.225   3.990  12.308 -0.0536 -0.3492  0.3296
 8825SOL    HW137934   3.289   3.983  12.379 -1.0610 -1.8902  1.0908
 8825SOL    HW237935   3.186   4.074  12.332 -0.1304  0.6724 -3.4578
 8826SOL     OW37936   1.315   2.155   7.762  0.2518 -0.1922  0.4146
 8826SOL    HW137937   1.377   2.089   7.793  0.0191  0.1447  1.6066
 8826SOL    HW237938   1.375   2.208   7.710  0.5553  0.6630  1.6336
 8827SOL     OW37939   3.119   2.313   3.223  0.7530 -0.5555  0.4865
 8827SOL    HW137940   3.111   2.408   3.215 -0.3411 -0.5554  1.5777
 8827SOL    HW237941   3.213   2.296   3.231  0.7031 -2.8052 -3.5335
 8828SOL     OW37942   1.182   2.051  10.976  0.4316 -0.1870 -1.0410
 8828SOL    HW137943   1.115   1.984  10.989  1.6908 -1.1902  0.3091
 8828SOL    HW237944   1.189   2.053  10.880 -0.7847 -2.4255 -1.1688
 8829SOL     OW37945   1.764   0.711   7.154  0.3888 -0.3950 -0.0122
 8829SOL    HW137946   1.709   0.633   7.145  0.1868 -0.1192 -1.1991
 8829SOL    HW237947   1.785   0.716   7.247  0.3467 -1.5816  0.0563
 8830SOL     OW37948   0.587   1.546   4.652  0.5169  0.4856  0.4947
 8830SOL    HW137949   0.563   1.567   4.742  1.9505 -0.9602  1.1974
 8830SOL    HW237950   0.570   1.636   4.623  0.1473  0.6280  1.1430
 8831SOL     OW37951   4.161   0.721   1.997  0.5617  0.5080  0.0203
 8831SOL    HW137952   4.202   0.712   2.083  0.1121  1.2623  0.3125
 8831SOL    HW237953   4.080   0.757   2.034  0.5389  1.0952 -0.6083
 8832SOL     OW37954   3.227   0.590   7.882  0.6145 -0.4341  0.0264
 8832SOL    HW137955   3.242   0.645   7.959  1.6523 -0.0176 -0.4718
 8832SOL    HW237956   3.260   0.510   7.922  1.2489 -1.2093 -2.0564
 8833SOL     OW37957   0.352   2.262   2.637 -0.0135 -0.0812 -0.1229
 8833SOL    HW137958   0.349   2.168   2.620  3.4913  0.3370 -2.9300
 8833SOL    HW237959   0.331   2.289   2.548  0.8297  0.7222 -0.0764
 8834SOL     OW37960   2.999   2.520   0.525  0.1477  0.1258 -0.5275
 8834SOL    HW137961   2.991   2.560   0.611 -0.9018  1.2737 -1.1503
 8834SOL    HW237962   3.012   2.428   0.545 -2.1674  0.0690  0.6467
 8835SOL     OW37963   2.867   3.695   3.787 -0.2375  0.5660  0.1683
 8835SOL    HW137964   2.961   3.704   3.770 -0.1065 -1.3116 -0.1539
 8835SOL    HW237965   2.841   3.649   3.707 -0.6619 -0.1315  0.7071
 8836SOL     OW37966   3.256   2.455   0.618 -0.6067  0.4842 -0.0127
 8836SOL    HW137967   3.193   2.494   0.557 -1.4018 -0.0952  0.4361
 8836SOL    HW237968   3.235   2.502   0.698 -2.5983  1.2897 -1.0051
 8837SOL     OW37969   3.684   3.220   5.565 -0.3027  0.1077 -0.3413
 8837SOL    HW137970   3.637   3.218   5.482 -1.0371 -1.0361  0.1036
 8837SOL    HW237971   3.629   3.154   5.606  1.4195 -0.7439  0.6075
 8838SOL     OW37972   2.731   3.675   0.116 -0.4714 -0.3537  0.0351
 8838SOL    HW137973   2.786   3.682   0.038 -1.9734 -1.3798 -1.1252
 8838SOL    HW237974   2.791   3.663   0.190 -0.9587 -4.2232 -0.1981
 8839SOL     OW37975   4.094   1.058   9.850 -0.0455 -0.4501  0.4194
 8839SOL    HW137976   4.097   1.100   9.936 -0.9510  0.0676  0.1921
 8839SOL    HW237977   4.019   1.092   9.802 -0.5815 -0.8538  0.9601
 8840SOL     OW37978   1.257   2.286   1.579  0.1697  0.3438  0.5254
 8840SOL    HW137979   1.216   2.212   1.623 -1.4166  0.8100 -0.1681
 8840SOL    HW237980   1.344   2.277   1.618  0.3004 -2.4111 -0.4488
 8841SOL     OW37981   3.238   2.649   4.073  0.6030  0.1149  0.6566
 8841SOL    HW137982   3.304   2.649   4.004 -1.9439 -0.4912 -1.7882
 8841SOL    HW237983   3.177   2.587   4.034 -0.4543  1.3508  0.3384
 8842SOL     OW37984   1.992   0.421   6.791  0.2547 -0.4414 -0.0062
 8842SOL    HW137985   2.039   0.445   6.871 -1.7167  0.8541  0.7665
 8842SOL    HW237986   1.927   0.492   6.784  3.5229  2.6760  1.3992
 8843SOL     OW37987   4.180   0.541  14.598  0.1205 -0.1451 -0.1286
 8843SOL    HW137988   4.137   0.488  14.665  1.2128 -1.4868 -0.5006
 8843SOL    HW237989   4.113   0.609  14.597 -0.3772 -0.6282  0.3211
 8844SOL     OW37990   2.797   2.405   8.252 -0.3602  0.2947  0.2733
 8844SOL    HW137991   2.791   2.313   8.277 -0.3381  0.9104  2.5601
 8844SOL    HW237992   2.752   2.453   8.322 -2.0838 -1.0232  0.0455
 8845SOL     OW37993   1.488   3.365  15.196 -0.2035  0.1423  0.2171
 8845SOL    HW137994   1.572   3.348  15.239 -0.0862  0.3160  0.0529
 8845SOL    HW237995   1.508   3.366  15.103 -2.0109 -1.0274 -0.1788
 8846SOL     OW37996   1.641   1.945  17.039  0.1426  0.2056  0.2932
 8846SOL    HW137997   1.622   2.025  17.089  2.1121  1.0732 -0.3670
 8846SOL    HW237998   1.694   1.900  17.105 -0.4752 -2.9029 -1.3242
 8847SOL     OW37999   2.788   2.767   1.869  0.6037  0.3379  0.3611
 8847SOL    HW138000   2.858   2.789   1.809  0.1083 -2.1392 -1.1030
 8847SOL    HW238001   2.704   2.769   1.823  0.3345  1.4276  0.8987
 8848SOL     OW38002   4.691   2.864  11.415 -0.8073  0.3265  0.5727
 8848SOL    HW138003   4.685   2.958  11.398 -1.2616 -0.0515 -1.3400
 8848SOL    HW238004   4.605   2.846  11.453 -0.2182  0.5642  2.0467
 8849SOL     OW38005   1.065   3.750  11.553  0.4890 -0.5137 -0.4420
 8849SOL    HW138006   1.065   3.791  11.467 -1.5203  0.6390  0.1158
 8849SOL    HW238007   1.156   3.720  11.553  1.7427  3.3135 -0.7084
 8850SOL     OW38008   3.148   4.199  16.525 -0.0299 -0.1101 -0.2941
 8850SOL    HW138009   3.070   4.193  16.470  0.7251  1.4568 -1.5098
 8850SOL    HW238010   3.213   4.178  16.458 -0.7414  1.7575 -1.5777
 8851SOL     OW38011   4.005   0.632   1.618 -0.4418 -0.7096  0.3409
 8851SOL    HW138012   4.015   0.542   1.649  1.0017 -0.7929 -0.3777
 8851SOL    HW238013   3.937   0.661   1.680 -0.2823 -1.1572  0.7236
 8852SOL     OW38014   3.111   1.904   8.040 -0.1655  0.6574 -0.1010
 8852SOL    HW138015   3.197   1.943   8.024 -0.1374  1.1192  1.1134
 8852SOL    HW238016   3.125   1.871   8.129  0.9633 -0.8750 -0.8437
 8853SOL     OW38017   2.183   4.605  14.879  0.0169  0.1979  0.2285
 8853SOL    HW138018   2.231   4.522  14.869 -0.4120 -0.0697  0.3813
 8853SOL    HW238019   2.256   4.663  14.859  0.2335  0.7272  2.5475
 8854SOL     OW38020   2.384   3.382  14.357  0.7076  0.3949  0.6451
 8854SOL    HW138021   2.366   3.473  14.332  0.5964  0.4669  0.9947
 8854SOL    HW238022   2.302   3.345  14.324  2.5061 -1.4125 -1.7986
 8855SOL     OW38023   0.472   2.106  10.052 -0.2743  0.1145 -0.3863
 8855SOL    HW138024   0.380   2.098  10.078 -0.5908  0.5769 -1.3972
 8855SOL    HW238025   0.476   2.197  10.024  4.1969 -0.2889 -1.0327
 8856SOL     OW38026   3.356   3.437   8.276  0.1383  0.4953  0.3688
 8856SOL    HW138027   3.441   3.394   8.283 -0.4452 -0.4458  1.5430
 8856SOL    HW238028   3.303   3.386   8.336 -0.3881  1.4182  0.6740
 8857SOL     OW38029   1.081   4.222   5.307 -1.1203 -0.8724 -0.0670
 8857SOL    HW138030   1.160   4.247   5.259 -1.8190 -2.4085 -2.0274
 8857SOL    HW238031   1.087   4.272   5.388 -0.1295 -2.3035  0.7382
 8858SOL     OW38032   1.048   0.834   1.148 -0.1272 -0.1314 -0.3493
 8858SOL    HW138033   1.038   0.851   1.055  0.3177 -0.7308 -0.5081
 8858SOL    HW238034   0.996   0.909   1.178 -2.2779 -1.3451 -1.0780
 8859SOL     OW38035   2.541   1.285   9.206  0.1815 -0.1810  1.0124
 8859SOL    HW138036   2.467   1.226   9.216  0.3425 -0.8938 -1.9900
 8859SOL    HW238037   2.577   1.298   9.294  0.8262  0.1870  0.6995
 8860SOL     OW38038   2.964   3.209  17.397 -0.3317  0.5261  0.8265
 8860SOL    HW138039   2.987   3.116  17.386 -0.7168  0.3380  1.6307
 8860SOL    HW238040   2.897   3.202  17.465 -1.8624 -0.3344 -0.7658
 8861SOL     OW38041   1.795   4.130  12.804  0.2120  0.3979 -0.1381
 8861SOL    HW138042   1.864   4.071  12.772  0.4953  0.7502 -0.1829
 8861SOL    HW238043   1.842   4.214  12.807  1.0983 -0.1351  0.8774
 8862SOL     OW38044   2.611   3.395  11.655  0.2837  0.8056  0.0266
 8862SOL    HW138045   2.530   3.416  11.609 -0.7647  0.8909  1.9131
 8862SOL    HW238046   2.672   3.419  11.586  0.3556  0.9080  0.1270
 8863SOL     OW38047   0.851   4.454   2.820 -0.5421 -0.1289  0.4232
 8863SOL    HW138048   0.893   4.377   2.783  2.2600  0.7507  1.8414
 8863SOL    HW238049   0.764   4.413   2.813 -0.7246  0.4617 -0.8181
 8864SOL     OW38050   0.218   1.497   6.884  0.4924  0.0764  0.6460
 8864SOL    HW138051   0.151   1.459   6.942 -0.5104  0.4221 -0.2868
 8864SOL    HW238052   0.272   1.419   6.875 -0.1843 -0.3774  0.5375
 8865SOL     OW38053   1.639   2.272   9.501  0.0013  0.4555  0.2927
 8865SOL    HW138054   1.692   2.343   9.464 -1.8832  2.3071  1.1525
 8865SOL    HW238055   1.697   2.244   9.572  0.5665 -1.0680 -0.7727
 8866SOL     OW38056   3.771   3.052  12.537 -0.0482 -0.6888  0.1455
 8866SOL    HW138057   3.777   3.043  12.632 -0.0843  1.4212  0.3564
 8866SOL    HW238058   3.723   2.976  12.503 -2.9535  0.3437  1.9448
 8867SOL     OW38059   3.449   2.566   3.889  1.0782 -0.6173 -0.5719
 8867SOL    HW138060   3.488   2.489   3.847  2.0996 -0.1371 -0.5083
 8867SOL    HW238061   3.481   2.630   3.826  1.2229 -0.1203  0.0092
 8868SOL     OW38062   3.867   1.105   9.666 -0.4227  0.0415  0.1185
 8868SOL    HW138063   3.906   1.080   9.583  1.3277  1.8301  0.4030
 8868SOL    HW238064   3.812   1.027   9.672 -1.5853  0.6119 -3.2669
 8869SOL     OW38065   2.748   1.765   4.850 -0.2905 -0.1618 -0.4661
 8869SOL    HW138066   2.739   1.685   4.798  0.8680  1.0745 -2.5385
 8869SOL    HW238067   2.670   1.810   4.818  0.7399  2.3629  0.5990
 8870SOL     OW38068   0.401   2.688   6.537  0.3722  0.4009 -0.1492
 8870SOL    HW138069   0.315   2.669   6.576  0.4360  1.5626  0.5635
 8870SOL    HW238070   0.365   2.720   6.454  1.9707 -2.0306 -1.7470
 8871SOL     OW38071   0.740   2.695  14.826  0.1198 -0.6020  0.0996
 8871SOL    HW138072   0.733   2.782  14.787  1.5316 -0.0745  1.0269
 8871SOL    HW238073   0.665   2.646  14.794 -0.4302 -0.9912  1.9532
 8872SOL     OW38074   4.064   2.174  12.427  0.4417  0.3674  0.0759
 8872SOL    HW138075   3.977   2.134  12.420  1.0367 -0.7551 -0.8491
 8872SOL    HW238076   4.123   2.099  12.432 -1.1300 -0.6407  3.2849
 8873SOL     OW38077   4.359   4.477   3.457  0.0168  0.4190 -0.5428
 8873SOL    HW138078   4.292   4.537   3.491  0.0338  0.4324 -0.5330
 8873SOL    HW238079   4.433   4.537   3.462  0.9356 -0.8188  0.6230
 8874SOL     OW38080   0.487   1.626  13.248 -0.7644 -0.3598 -0.3963
 8874SOL    HW138081   0.448   1.705  13.211  0.8533  0.1180 -1.0690
 8874SOL    HW238082   0.435   1.619  13.327 -2.6082  2.8469 -1.3206
 8875SOL     OW38083   1.401   1.737   3.547  0.2087 -0.1504  0.4433
 8875SOL    HW138084   1.479   1.775   3.507 -0.2811 -0.9567 -1.2828
 8875SOL    HW238085   1.350   1.717   3.468 -1.8456 -0.5248  1.8642
 8876SOL     OW38086   2.929   2.013   9.932 -0.1239 -0.2675  0.1391
 8876SOL    HW138087   2.922   1.957  10.009  0.5811  0.3245  0.6304
 8876SOL    HW238088   2.896   1.956   9.862 -1.2462  1.7822 -0.9903
 8877SOL     OW38089   3.939   3.888   1.853  0.4495  0.0483 -0.0536
 8877SOL    HW138090   3.910   3.806   1.812  2.7417  0.4350 -2.4566
 8877SOL    HW238091   3.895   3.898   1.937 -2.6000 -0.4734 -1.5664
 8878SOL     OW38092   3.028   1.333   3.972  0.5337 -0.3433  0.2885
 8878SOL    HW138093   3.041   1.257   4.028  0.4446  0.1327  0.9476
 8878SOL    HW238094   2.941   1.307   3.940  0.5195 -0.8297  0.7119
 8879SOL     OW38095   3.861   1.566  11.849  0.0258 -0.2560  0.0771
 8879SOL    HW138096   3.951   1.533  11.851  1.4762  3.7896  1.1397
 8879SOL    HW238097   3.823   1.531  11.768  0.8482  1.1372 -0.8961
 8880SOL     OW38098   0.452   0.363   2.299 -0.1552  0.1995 -0.2164
 8880SOL    HW138099   0.521   0.414   2.258  0.7176  0.8918  2.1092
 8880SOL    HW238100   0.376   0.419   2.314  0.2049 -0.1698  2.9633
 8881SOL     OW38101   3.557   3.462  10.329 -0.7121  0.3188 -0.1884
 8881SOL    HW138102   3.566   3.407  10.407 -4.0074  0.4994  0.3073
 8881SOL    HW238103   3.581   3.397  10.262  0.2086 -0.0354  0.4807
 8882SOL     OW38104   3.009   3.179   7.932 -0.0302  0.2265 -0.3200
 8882SOL    HW138105   3.015   3.112   8.001 -0.3952  1.5050  0.9613
 8882SOL    HW238106   3.023   3.135   7.848 -0.7058 -0.3767 -0.1145
 8883SOL     OW38107   2.892   3.881  12.765  0.0928  0.0298 -0.0458
 8883SOL    HW138108   2.819   3.832  12.726 -0.7503  0.8334  0.5357
 8883SOL    HW238109   2.953   3.809  12.752  0.0342 -0.3703  1.9592
 8884SOL     OW38110   0.305   0.329   4.369 -0.5096 -0.3057  0.8550
 8884SOL    HW138111   0.311   0.282   4.452 -2.1180  0.8028  1.6071
 8884SOL    HW238112   0.212   0.352   4.379 -0.5378 -0.0738  0.0566
 8885SOL     OW38113   3.797   2.234   8.967 -0.4431 -0.4210 -0.6711
 8885SOL    HW138114   3.851   2.273   9.036  0.6343 -1.1662 -1.1034
 8885SOL    HW238115   3.724   2.204   9.022 -1.3420  2.9188  0.0092
 8886SOL     OW38116   3.288   3.468   4.929 -0.5720 -0.1365  0.0265
 8886SOL    HW138117   3.206   3.427   4.904 -0.4980 -0.2329 -0.0565
 8886SOL    HW238118   3.270   3.557   4.899  1.3691  0.4081  0.4512
 8887SOL     OW38119   1.845   2.986   6.464 -0.2780 -0.3927 -0.2957
 8887SOL    HW138120   1.790   2.927   6.413 -1.5923  0.7905 -0.2660
 8887SOL    HW238121   1.842   2.957   6.555 -2.2957  0.9790  0.0695
 8888SOL     OW38122   4.696   1.675   7.655  0.2308  0.2321 -0.1936
 8888SOL    HW138123   4.697   1.734   7.580 -0.6189  1.7537  0.9871
 8888SOL    HW238124   4.614   1.711   7.689  0.6911  0.0395  1.1279
 8889SOL     OW38125   1.910   2.103   2.721  0.3484  1.0867  0.5310
 8889SOL    HW138126   1.840   2.161   2.692  0.4042  1.7772  1.7710
 8889SOL    HW238127   1.924   2.054   2.640 -0.5367  1.1249  0.3583
 8890SOL     OW38128   2.582   0.609   0.125 -0.3925 -0.3882 -0.1173
 8890SOL    HW138129   2.669   0.648   0.122 -0.3051 -0.5636  0.1305
 8890SOL    HW238130   2.538   0.690   0.149  1.2895  0.7504 -0.9069
 8891SOL     OW38131   2.300   2.432   5.773  0.0705 -0.3158 -0.3858
 8891SOL    HW138132   2.274   2.521   5.749  1.3797 -0.4853 -2.4735
 8891SOL    HW238133   2.312   2.391   5.687 -0.9237 -1.1603 -0.1256
 8892SOL     OW38134   1.254   2.402   2.588 -0.0162 -0.1128  0.0939
 8892SOL    HW138135   1.180   2.425   2.532  0.3228  0.1685 -0.2394
 8892SOL    HW238136   1.250   2.450   2.671  1.2719 -0.4592  0.3470
 8893SOL     OW38137   4.629   1.003  15.267  0.1240 -0.4836  0.0454
 8893SOL    HW138138   4.656   0.916  15.296 -0.8256  0.2207  2.9735
 8893SOL    HW238139   4.629   1.045  15.353  1.8521  1.9511 -1.1372
 8894SOL     OW38140   2.707   3.156   8.334  0.2119  0.3309 -0.5369
 8894SOL    HW138141   2.693   3.178   8.426 -1.5512 -1.5955 -0.3587
 8894SOL    HW238142   2.619   3.164   8.299  0.5091  0.7515 -1.1973
 8895SOL     OW38143   1.339   1.893   8.633  0.6140  0.6233 -0.3968
 8895SOL    HW138144   1.343   1.955   8.706 -1.8616 -0.2179  0.4640
 8895SOL    HW238145   1.430   1.887   8.604  0.6418 -0.9166  0.0448
 8896SOL     OW38146   1.284   0.064   6.298  0.6212  0.0224 -0.1944
 8896SOL    HW138147   1.342   0.029   6.365 -0.5587  0.3863  1.0201
 8896SOL    HW238148   1.281   4.721   6.230 -4.3259  1.0554 -1.0239
 8897SOL     OW38149   0.701   1.521   5.934 -0.1355 -0.2820  0.4816
 8897SOL    HW138150   0.704   1.577   6.012 -0.4921 -0.9295  0.9620
 8897SOL    HW238151   0.690   1.433   5.970  1.5676 -0.2597  1.0657
 8898SOL     OW38152   1.588   3.227  14.968 -0.4256 -0.3393  0.2496
 8898SOL    HW138153   1.655   3.180  15.017  0.1332 -2.5630 -2.6523
 8898SOL    HW238154   1.554   3.156  14.914  1.9675 -1.3802  0.1243
 8899SOL     OW38155   3.688   4.716  15.603 -0.0126  0.3275  0.4232
 8899SOL    HW138156   3.705   4.632  15.559 -1.4763  0.5808 -0.6302
 8899SOL    HW238157   3.605   4.695  15.644 -0.3900  1.6147  0.3046
 8900SOL     OW38158   1.278   2.488   1.782  0.3010 -0.2563 -0.5574
 8900SOL    HW138159   1.278   2.428   1.707 -0.0974  0.2366 -0.9479
 8900SOL    HW238160   1.269   2.567   1.729 -0.8885 -0.7105 -1.0200
 8901SOL     OW38161   1.131   3.427  10.615 -0.4183  0.3958  0.2372
 8901SOL    HW138162   1.175   3.408  10.532 -0.4972 -1.5823  0.6489
 8901SOL    HW238163   1.074   3.350  10.617  1.8422 -1.2965 -0.4550
 8902SOL     OW38164   3.137   0.181  10.446  0.3195 -0.2667  0.0386
 8902SOL    HW138165   3.115   0.248  10.510  0.9470  1.0130 -1.0752
 8902SOL    HW238166   3.065   0.118  10.457 -0.1631  0.3186  0.2531
 8903SOL     OW38167   0.645   3.308   8.824  0.1910  0.3968 -0.2531
 8903SOL    HW138168   0.558   3.313   8.863  0.3401 -1.6201  0.3508
 8903SOL    HW238169   0.625   3.336   8.735 -0.3675  0.7043 -0.0276
 8904SOL     OW38170   1.754   2.927   8.257 -0.1629  0.1882 -0.3677
 8904SOL    HW138171   1.842   2.889   8.258 -0.0364  0.4955  0.0953
 8904SOL    HW238172   1.712   2.855   8.211 -2.8360  3.0846 -2.5218
 8905SOL     OW38173   2.983   1.011   7.927  0.1504  0.1670  0.3000
 8905SOL    HW138174   2.986   1.020   7.832  0.9525  2.0299  0.5057
 8905SOL    HW238175   3.062   0.960   7.946  1.3914  1.9140 -0.1200
 8906SOL     OW38176   0.515   4.014   5.626 -0.0061 -0.1914  0.5473
 8906SOL    HW138177   0.556   3.978   5.705  1.6329  1.0879  0.2594
 8906SOL    HW238178   0.592   4.038   5.575 -1.3024  2.0474 -0.3686
 8907SOL     OW38179   0.546   3.789   4.966  0.6578 -0.0977 -0.0778
 8907SOL    HW138180   0.511   3.874   4.992  0.5540  0.1131 -0.9139
 8907SOL    HW238181   0.616   3.786   5.032  0.9735 -0.6085 -0.4329
 8908SOL     OW38182   3.977   1.789  15.383  0.3881 -0.4623  0.0393
 8908SOL    HW138183   3.965   1.784  15.288  1.5194  1.6217 -0.1854
 8908SOL    HW238184   3.889   1.779  15.421 -0.7325  3.2687 -1.6090
 8909SOL     OW38185   0.307   3.313   0.309 -0.0206 -0.4852  0.3608
 8909SOL    HW138186   0.235   3.377   0.315  0.2214 -0.1314 -0.5904
 8909SOL    HW238187   0.323   3.331   0.217  0.7740 -0.6654  0.4635
 8910SOL     OW38188   0.679   2.620  14.077 -0.2199 -0.3351  0.6416
 8910SOL    HW138189   0.640   2.653  14.157 -0.5213 -0.8901  0.7267
 8910SOL    HW238190   0.734   2.547  14.106  1.5046  1.1450  1.0605
 8911SOL     OW38191   2.622   1.704   9.418 -0.6671 -0.2140 -0.2766
 8911SOL    HW138192   2.564   1.643   9.465  0.3572  0.5924  2.0021
 8911SOL    HW238193   2.564   1.722   9.344 -1.8971  0.6226  0.8758
 8912SOL     OW38194   2.381   3.379   7.481 -0.2329 -0.2562  0.4503
 8912SOL    HW138195   2.387   3.287   7.503  1.1126 -0.4368 -0.6733
 8912SOL    HW238196   2.311   3.409   7.540 -1.1776 -2.7960  0.6251
 8913SOL     OW38197   1.176   0.293   7.299 -0.2525 -0.1652 -0.2187
 8913SOL    HW138198   1.217   0.334   7.223 -2.1029  0.9764 -0.5887
 8913SOL    HW238199   1.088   0.329   7.294 -0.7739 -1.5426 -0.9474
 8914SOL     OW38200   0.133   2.282   6.373 -0.7232 -0.2630  0.0536
 8914SOL    HW138201   0.179   2.274   6.289  3.6895 -0.5487  2.4946
 8914SOL    HW238202   0.092   2.368   6.369  1.3196  0.6933 -0.1945
 8915SOL     OW38203   3.721   2.403   5.410  0.0270 -0.2098  0.5296
 8915SOL    HW138204   3.627   2.422   5.416 -0.4158 -2.0669 -0.4568
 8915SOL    HW238205   3.746   2.464   5.340 -1.4628  0.3437  0.4887
 8916SOL     OW38206   2.370   2.092  10.398 -0.1067 -0.2001 -0.0110
 8916SOL    HW138207   2.386   2.187  10.400  2.0075 -0.5496 -0.5261
 8916SOL    HW238208   2.458   2.062  10.374 -1.7677 -3.5383 -1.8863
 8917SOL     OW38209   1.152   0.349   3.061  0.0398  0.1337  0.5614
 8917SOL    HW138210   1.190   0.315   3.142  1.1648 -0.6671 -0.3060
 8917SOL    HW238211   1.098   0.419   3.098  2.1286  0.8553  2.2085
 8918SOL     OW38212   3.967   3.027   8.065  0.0349 -0.0312 -0.4826
 8918SOL    HW138213   3.950   3.113   8.103  1.3165  0.5085 -1.1223
 8918SOL    HW238214   4.059   3.018   8.087 -0.6008  0.0629  2.2349
 8919SOL     OW38215   2.270   4.105   8.711  0.2066  0.4020  0.1631
 8919SOL    HW138216   2.341   4.168   8.719 -1.5888  2.2342  1.6322
 8919SOL    HW238217   2.245   4.091   8.803 -1.9599 -1.9751 -0.7730
 8920SOL     OW38218   3.726   3.245   9.126 -0.2592  0.5681  0.0836
 8920SOL    HW138219   3.679   3.327   9.114 -2.0446 -0.2577  1.3891
 8920SOL    HW238220   3.651   3.190   9.151 -0.1417 -0.5817 -2.0072
 8921SOL     OW38221   3.435   3.751   2.575  0.0642 -0.1107  0.7480
 8921SOL    HW138222   3.349   3.776   2.543  0.2729 -0.5303 -0.1374
 8921SOL    HW238223   3.495   3.748   2.501 -0.2387  1.8380  0.4374
 8922SOL     OW38224   4.430   1.179   7.193  0.0274  0.4773  0.0337
 8922SOL    HW138225   4.447   1.156   7.102  1.3417 -1.8265  0.8410
 8922SOL    HW238226   4.458   1.093   7.227  0.1304  1.5539  2.6481
 8923SOL     OW38227   4.284   2.701  15.726 -0.3027  0.4731 -0.0541
 8923SOL    HW138228   4.292   2.679  15.819 -2.5690  0.2478  0.0734
 8923SOL    HW238229   4.194   2.719  15.699 -0.2060 -2.6174 -2.4385
 8924SOL     OW38230   0.832   1.160   7.530 -0.1137  0.3676 -0.0654
 8924SOL    HW138231   0.907   1.101   7.530  1.3711  2.2464 -0.3167
 8924SOL    HW238232   0.798   1.137   7.444  0.1681 -0.0133 -0.0761
 8925SOL     OW38233   4.452   3.853   5.108  0.4581  0.5299 -0.0144
 8925SOL    HW138234   4.483   3.826   5.021 -1.5864  1.8266 -1.1477
 8925SOL    HW238235   4.509   3.805   5.168  1.8518  0.8481 -1.0722
 8926SOL     OW38236   1.458   3.367  10.653  0.5635 -0.2590  0.2914
 8926SOL    HW138237   1.512   3.434  10.695  2.2739 -0.2222 -2.0166
 8926SOL    HW238238   1.412   3.326  10.726  0.0757  0.1788  0.2273
 8927SOL     OW38239   0.778   1.530   3.773  0.0268  0.9690 -0.5343
 8927SOL    HW138240   0.762   1.489   3.688 -1.5369 -0.3266  0.4077
 8927SOL    HW238241   0.861   1.485   3.792 -0.0984 -0.1196 -2.5188
 8928SOL     OW38242   3.016   3.624   6.799 -0.2914 -0.8190  0.3998
 8928SOL    HW138243   3.040   3.691   6.735  0.3195 -0.5901  0.8677
 8928SOL    HW238244   2.945   3.663   6.849  1.6858  0.4427  2.2009
 8929SOL     OW38245   2.859   2.816   7.267  0.5355 -0.6569 -0.4580
 8929SOL    HW138246   2.853   2.885   7.201 -0.5791  0.3782  0.7419
 8929SOL    HW238247   2.944   2.834   7.307  1.0604 -2.3605 -0.8016
 8930SOL     OW38248   0.352   4.694   5.979  0.5754  0.9920  0.1284
 8930SOL    HW138249   0.270   0.020   5.969  1.1473  2.0794  0.9164
 8930SOL    HW238250   0.388   4.705   5.891  3.4908  0.1678  1.2461
 8931SOL     OW38251   3.312   3.364   0.544 -0.6470  0.8909 -0.5208
 8931SOL    HW138252   3.330   3.271   0.562 -1.2074  0.7917 -0.4791
 8931SOL    HW238253   3.239   3.356   0.483 -1.0092 -1.4454  0.2059
 8932SOL     OW38254   4.677   3.701  17.549 -0.1166 -0.1017  0.3396
 8932SOL    HW138255   4.644   3.733  17.465 -0.0704  0.1609  0.4199
 8932SOL    HW238256   0.026   3.761  17.563 -0.6183  0.3268  1.1359
 8933SOL     OW38257   3.884   3.430  10.696 -0.4023 -0.1608 -0.5254
 8933SOL    HW138258   3.925   3.513  10.721 -1.5865  1.3637 -3.6503
 8933SOL    HW238259   3.894   3.445  10.601  1.0189 -0.1677 -0.3811
 8934SOL     OW38260   3.542   2.907   8.958 -0.2353 -0.3151  0.3819
 8934SOL    HW138261   3.558   2.966   9.033 -1.7172  1.1044 -0.4185
 8934SOL    HW238262   3.578   2.823   8.986  2.2744  0.7322  0.3268
 8935SOL     OW38263   3.459   2.096   5.867  0.3605  0.1818  0.1360
 8935SOL    HW138264   3.483   2.119   5.956  2.2386 -2.9891  0.4727
 8935SOL    HW238265   3.448   2.000   5.867 -0.4822  0.2840  1.1203
 8936SOL     OW38266   2.534   4.199  11.415 -0.1428  0.1577  0.3472
 8936SOL    HW138267   2.502   4.273  11.364  1.9502  0.5437 -0.4200
 8936SOL    HW238268   2.554   4.131  11.350  0.4257  0.0983  0.5799
 8937SOL     OW38269   1.825   2.551   2.630  0.1165  0.7054  1.0190
 8937SOL    HW138270   1.757   2.612   2.602 -0.5646 -0.1334  0.8882
 8937SOL    HW238271   1.786   2.525   2.713 -0.5719  1.6138  0.9804
 8938SOL     OW38272   3.901   0.808   5.886  0.1624  0.1663  0.2945
 8938SOL    HW138273   3.935   0.878   5.830 -0.5474 -0.4297 -0.9012
 8938SOL    HW238274   3.967   0.804   5.954 -0.5072 -1.7889  0.8147
 8939SOL     OW38275   0.085   1.929   1.015 -0.3064 -0.5666  0.4864
 8939SOL    HW138276   0.141   2.005   1.031 -1.0324  0.1008 -0.2067
 8939SOL    HW238277   0.054   1.909   1.103  1.1454 -2.0821  0.6731
 8940SOL     OW38278   3.859   4.359   5.624  0.0503  0.2178 -0.6557
 8940SOL    HW138279   3.872   4.266   5.606  0.3072  0.1483 -0.1295
 8940SOL    HW238280   3.949   4.380   5.601  0.5725  0.7747  1.8117
 8941SOL     OW38281   2.954   3.086  17.697 -0.1258 -0.1608 -0.5692
 8941SOL    HW138282   2.972   3.029   0.074 -0.4456  2.0152  1.1463
 8941SOL    HW238283   2.872   3.126   0.028 -0.8727 -1.0453 -1.4629
 8942SOL     OW38284   3.297   3.118   7.336 -0.5815  0.2735  0.1778
 8942SOL    HW138285   3.312   3.205   7.298 -1.3516 -0.7513 -2.4149
 8942SOL    HW238286   3.386   3.099   7.367 -0.7442  0.2964  0.6669
 8943SOL     OW38287   1.789   0.467  10.059 -0.1881  0.0544 -0.1298
 8943SOL    HW138288   1.800   0.442  10.151 -2.2898  0.5625  0.2578
 8943SOL    HW238289   1.865   0.524  10.044 -0.1146  0.8378  3.1117
 8944SOL     OW38290   4.177   2.356  14.520  0.1931  0.1254 -0.3550
 8944SOL    HW138291   4.228   2.279  14.495 -0.7452 -0.0992 -1.5880
 8944SOL    HW238292   4.142   2.380  14.434 -2.6244 -1.7468  0.3040
 8945SOL     OW38293   2.522   2.563   3.466 -0.2851  0.3157 -0.1644
 8945SOL    HW138294   2.426   2.557   3.466 -0.0280 -3.4634  2.7536
 8945SOL    HW238295   2.536   2.472   3.439  0.1352 -0.0767  1.3934
 8946SOL     OW38296   3.703   0.088   0.371  0.4843 -0.2153 -0.1224
 8946SOL    HW138297   3.614   0.098   0.404  0.9187  0.1293  0.9239
 8946SOL    HW238298   3.702   4.719   0.350  0.4300  0.1402 -1.7440
 8947SOL     OW38299   2.031   2.180   6.674 -0.6965  0.0914 -0.5081
 8947SOL    HW138300   2.080   2.232   6.737  3.0067 -2.3018 -1.4185
 8947SOL    HW238301   2.090   2.112   6.641  0.8082  0.0400  2.3447
 8948SOL     OW38302   2.144   3.700   8.318 -0.1023 -0.1366 -0.0187
 8948SOL    HW138303   2.172   3.636   8.383 -1.1327  0.3272  0.8859
 8948SOL    HW238304   2.167   3.775   8.372  2.5817 -0.6796 -0.3988
 8949SOL     OW38305   2.475   1.241   4.691  0.1641  0.2582  0.2488
 8949SOL    HW138306   2.387   1.203   4.685 -0.3296  1.2438  1.3030
 8949SOL    HW238307   2.469   1.309   4.757 -1.7785  2.9289 -2.6758
 8950SOL     OW38308   3.625   1.709   4.000  0.4549 -0.2519 -0.0816
 8950SOL    HW138309   3.654   1.622   3.972  2.1312  0.2910 -0.0255
 8950SOL    HW238310   3.538   1.679   4.024  0.5473 -0.4019  0.0719
 8951SOL     OW38311   1.432   3.174   4.513 -0.0770 -0.6317  0.1706
 8951SOL    HW138312   1.429   3.079   4.526 -1.2785 -0.6229 -0.0458
 8951SOL    HW238313   1.498   3.185   4.445 -2.2799  3.3294 -1.3169
 8952SOL     OW38314   1.759   0.375   9.383  0.6674 -0.7753 -0.3227
 8952SOL    HW138315   1.700   0.369   9.308 -1.7196 -0.1071  1.5175
 8952SOL    HW238316   1.697   0.338   9.445 -0.1499 -0.2199 -0.8017
 8953SOL     OW38317   3.679   4.339   4.562  0.4320  0.7737 -0.2873
 8953SOL    HW138318   3.605   4.386   4.523  1.1567 -0.1308 -2.7563
 8953SOL    HW238319   3.645   4.322   4.650 -2.1702  1.3915 -1.1439
 8954SOL     OW38320   2.089   0.631   1.605  0.0050 -0.1428  0.1212
 8954SOL    HW138321   2.101   0.704   1.544  2.2083 -2.2442 -1.9399
 8954SOL    HW238322   2.065   0.563   1.543  0.0629 -1.7769  1.9018
 8955SOL     OW38323   3.492   3.945  13.420  0.3813 -0.6144  0.6643
 8955SOL    HW138324   3.488   4.038  13.443 -2.1733 -0.7439  0.7242
 8955SOL    HW238325   3.585   3.938  13.442  0.4035 -1.0307  0.4307
 8956SOL     OW38326   0.648   2.927   3.063 -0.3150  0.7691  0.3223
 8956SOL    HW138327   0.580   2.862   3.043  0.7015 -0.4742  0.8793
 8956SOL    HW238328   0.700   2.936   2.984 -1.0930  0.3725 -0.2362
 8957SOL     OW38329   0.975   2.466   6.316 -0.2352  0.2884 -0.2115
 8957SOL    HW138330   0.933   2.502   6.394  0.8179  4.9257 -1.7858
 8957SOL    HW238331   0.924   2.517   6.254 -2.1877  0.2692  1.3773
 8958SOL     OW38332   2.216   3.093   7.987 -0.0093 -0.1904 -0.1628
 8958SOL    HW138333   2.145   3.073   7.926  1.1677 -1.2061 -1.2020
 8958SOL    HW238334   2.260   3.008   7.992  1.5265  0.6879  1.2879
 8959SOL     OW38335   1.592   2.442   5.864 -0.1732  0.0044  0.5330
 8959SOL    HW138336   1.664   2.503   5.856  1.6517 -1.9322  2.2731
 8959SOL    HW238337   1.599   2.414   5.956 -0.4345  1.0068  0.8543
 8960SOL     OW38338   1.102   0.810   3.773 -0.5797 -0.1544  0.7135
 8960SOL    HW138339   1.116   0.903   3.788 -1.0436  0.0729 -0.2635
 8960SOL    HW238340   1.102   0.799   3.678  0.6058  0.0855  0.6820
 8961SOL     OW38341   0.656   0.994   9.719  0.4498 -0.4971 -0.4437
 8961SOL    HW138342   0.571   1.031   9.743  0.5411 -0.0430 -0.8292
 8961SOL    HW238343   0.681   1.039   9.639  2.7558  0.3631  0.7656
 8962SOL     OW38344   2.736   3.361   9.194 -0.0861  0.3967  0.1578
 8962SOL    HW138345   2.647   3.338   9.170  0.3402  0.4366 -1.4914
 8962SOL    HW238346   2.717   3.405   9.277 -2.3849  1.6647 -1.0572
 8963SOL     OW38347   1.984   3.349   3.721 -0.2600  0.1500  0.6270
 8963SOL    HW138348   1.931   3.319   3.647 -0.3823  0.6345  0.5203
 8963SOL    HW238349   1.995   3.442   3.705 -1.9420  0.1312 -0.6513
 8964SOL     OW38350   1.016   0.776   7.214 -0.1778 -0.0181  0.3774
 8964SOL    HW138351   1.070   0.776   7.293 -1.2909 -0.9537  1.1402
 8964SOL    HW238352   1.032   0.687   7.183 -1.5344 -0.6700  1.5383
 8965SOL     OW38353   1.559   0.700   8.594 -0.5055 -0.4062 -0.4827
 8965SOL    HW138354   1.482   0.755   8.581 -0.0152  0.5988  0.8797
 8965SOL    HW238355   1.628   0.716   8.529  0.3651  0.7572  0.7351
 8966SOL     OW38356   3.432   0.307   1.031 -0.2497  0.2694  0.1212
 8966SOL    HW138357   3.422   0.245   0.959  0.4553  1.7756 -1.2613
 8966SOL    HW238358   3.506   0.365   1.012  1.3496 -0.8820  2.7416
 8967SOL     OW38359   2.280   2.557   0.623  0.4005  0.1339  0.1627
 8967SOL    HW138360   2.369   2.587   0.609  0.4171 -0.1967 -0.4242
 8967SOL    HW238361   2.284   2.556   0.719  0.2576 -3.4155  0.1322
 8968SOL     OW38362   1.582   4.681   5.137 -0.2585  0.5568  0.5340
 8968SOL    HW138363   1.609   4.676   5.045  2.5159 -0.9234  1.4191
 8968SOL    HW238364   1.666   4.714   5.168 -0.6467 -0.7335  2.9680
 8969SOL     OW38365   0.147   2.491   1.439 -0.3967  0.0824 -0.1315
 8969SOL    HW138366   0.063   2.503   1.394 -1.6776  0.5107  2.3955
 8969SOL    HW238367   0.166   2.578   1.474  0.2657  0.0356 -0.3627
 8970SOL     OW38368   1.755   0.993  15.137 -0.0930 -0.5779 -0.1482
 8970SOL    HW138369   1.850   1.003  15.136 -0.0852 -0.6420 -0.0594
 8970SOL    HW238370   1.749   0.925  15.204  0.7800  1.0903  1.6312
 8971SOL     OW38371   4.189   1.292   1.288 -0.2177  0.2998 -0.4165
 8971SOL    HW138372   4.248   1.235   1.238 -1.9633  0.1833 -2.3164
 8971SOL    HW238373   4.113   1.238   1.311 -0.2515 -0.5056 -2.3578
 8972SOL     OW38374   3.049   1.094   6.213  0.0206 -0.4329  0.3714
 8972SOL    HW138375   2.955   1.087   6.229  0.4668 -0.4244  2.9978
 8972SOL    HW238376   3.046   1.123   6.122  2.0284  2.6108  1.2890
 8973SOL     OW38377   2.649   4.164   2.094  0.4219 -0.2591 -0.2670
 8973SOL    HW138378   2.717   4.184   2.159  0.6340 -1.1113 -0.2292
 8973SOL    HW238379   2.650   4.250   2.052  4.2333  0.3310  1.0663
 8974SOL     OW38380   0.878   4.532   7.323 -0.3945 -0.0686  0.0779
 8974SOL    HW138381   0.956   4.541   7.378 -1.1298  1.8728  0.7967
 8974SOL    HW238382   0.909   4.566   7.240  0.3062 -0.0771  0.3359
 8975SOL     OW38383   2.582   4.520   5.705 -0.3928 -0.1425  0.2538
 8975SOL    HW138384   2.528   4.582   5.655 -0.1830 -0.2365 -0.0935
 8975SOL    HW238385   2.568   4.539   5.797 -0.4245 -1.4473  0.5161
 8976SOL     OW38386   1.992   3.031  15.361 -0.4775  0.4238 -0.3586
 8976SOL    HW138387   2.066   2.985  15.402 -1.0795 -0.7907 -0.6205
 8976SOL    HW238388   1.990   2.988  15.276  0.3045  0.0929 -0.2118
 8977SOL     OW38389   3.202   2.397   5.488  0.4460 -0.1039  0.3589
 8977SOL    HW138390   3.171   2.330   5.548 -3.0029 -0.8312 -2.1928
 8977SOL    HW238391   3.194   2.360   5.400  2.4278 -0.5627  0.3762
 8978SOL     OW38392   1.614   2.322   6.222 -0.2462  0.8309 -0.3694
 8978SOL    HW138393   1.707   2.335   6.201  0.3408 -0.9162  1.1046
 8978SOL    HW238394   1.628   2.310   6.316  0.7748 -0.8623 -0.7405
 8979SOL     OW38395   0.832   3.107   4.791 -0.8398 -0.2089  0.4245
 8979SOL    HW138396   0.744   3.077   4.766  0.0845 -1.3576 -1.4707
 8979SOL    HW238397   0.871   3.036   4.842  2.6131 -0.3318 -2.3744
 8980SOL     OW38398   4.071   1.653   8.246 -0.2302  0.0651  0.1119
 8980SOL    HW138399   4.012   1.713   8.292  0.5961 -0.0622  1.3507
 8980SOL    HW238400   4.148   1.671   8.300  0.5990  0.6525 -1.2636
 8981SOL     OW38401   3.205   3.339   7.574  0.5178  0.0445  0.1233
 8981SOL    HW138402   3.222   3.420   7.526  1.8860  0.5777  1.5003
 8981SOL    HW238403   3.226   3.364   7.664 -0.3127 -2.1736  0.9425
 8982SOL     OW38404   3.471   1.255  12.347 -0.1277 -0.2173  0.3687
 8982SOL    HW138405   3.440   1.195  12.278  0.3017 -0.1518  0.1210
 8982SOL    HW238406   3.559   1.218  12.353  1.7117  4.3186  1.1588
 8983SOL     OW38407   3.382   1.182   6.099 -0.3032 -1.1982  0.3897
 8983SOL    HW138408   3.408   1.093   6.124 -0.9402 -1.2855  0.7436
 8983SOL    HW238409   3.440   1.238   6.152  0.1561  0.6418 -2.0595
 8984SOL     OW38410   3.767   0.591   3.043 -0.0879  0.1456 -0.7397
 8984SOL    HW138411   3.769   0.648   3.120 -1.2700  0.9882 -1.3276
 8984SOL    HW238412   3.850   0.545   3.051  1.5069  3.6190  2.8262
 8985SOL     OW38413   3.132   1.408   8.827  0.2221 -0.1376  0.0153
 8985SOL    HW138414   3.043   1.431   8.799  0.0154  0.2286  0.9914
 8985SOL    HW238415   3.124   1.427   8.920  1.6153  0.3861  0.0252
 8986SOL     OW38416   2.006   3.049   7.795 -0.5282 -0.1435  0.2777
 8986SOL    HW138417   1.970   3.066   7.882 -0.7919  2.6504 -0.3707
 8986SOL    HW238418   1.959   2.974   7.759 -1.2339  1.2944 -1.8168
 8987SOL     OW38419   2.998   1.831  11.480  0.2964  0.2510 -0.0819
 8987SOL    HW138420   3.070   1.803  11.536  0.2158  1.6398  0.7087
 8987SOL    HW238421   3.032   1.786  11.402  2.0022 -0.4226  1.0415
 8988SOL     OW38422   3.244   1.771  10.640 -0.5850  0.4749 -0.0668
 8988SOL    HW138423   3.239   1.835  10.711 -1.4919 -0.1571  0.4526
 8988SOL    HW238424   3.327   1.734  10.670 -1.4487 -0.6364  0.9666
 8989SOL     OW38425   2.137   0.695  15.565 -0.0520  0.3500  0.4694
 8989SOL    HW138426   2.205   0.629  15.581 -0.4196  0.0439  0.7831
 8989SOL    HW238427   2.153   0.724  15.475  1.7539 -0.8915  0.3697
 8990SOL     OW38428   4.267   3.038   6.358 -0.7097  0.1352  0.3563
 8990SOL    HW138429   4.351   2.992   6.344 -1.1347  0.3660 -2.9245
 8990SOL    HW238430   4.239   2.995   6.439  0.1020  0.4588  0.8140
 8991SOL     OW38431   3.586   4.492  14.530  0.6156 -0.5200 -0.0192
 8991SOL    HW138432   3.611   4.417  14.477  0.8185  0.5368 -1.4002
 8991SOL    HW238433   3.491   4.479  14.532  0.4116  0.5861 -2.5070
 8992SOL     OW38434   3.976   4.300   5.190 -0.4448  0.0023 -0.0826
 8992SOL    HW138435   3.910   4.357   5.230 -1.2758  0.4769 -2.1585
 8992SOL    HW238436   4.062   4.330   5.222 -0.1192  0.1021 -1.0626
 8993SOL     OW38437   2.702   3.385   2.804 -0.5958 -0.3279  0.1128
 8993SOL    HW138438   2.677   3.473   2.775  1.7081  0.7869  1.5075
 8993SOL    HW238439   2.722   3.389   2.898 -1.6294  1.6364  0.2572
 8994SOL     OW38440   2.578   3.218   5.983 -0.2106 -0.3757  0.0488
 8994SOL    HW138441   2.612   3.283   5.921 -2.7872  1.0834  0.1452
 8994SOL    HW238442   2.521   3.166   5.926  1.3891 -1.1043 -0.8932
 8995SOL     OW38443   3.584   4.036   5.026 -0.3216 -0.5323  0.3686
 8995SOL    HW138444   3.513   3.983   4.987  0.9548 -1.3777 -0.7919
 8995SOL    HW238445   3.548   4.102   5.085 -1.4103  0.5306 -1.4880
 8996SOL     OW38446   1.048   1.702  10.101 -0.4147 -0.5856  0.3519
 8996SOL    HW138447   1.137   1.712  10.068  0.5891 -0.6919  2.9821
 8996SOL    HW238448   0.995   1.724  10.025  0.5266 -1.2751 -0.4988
 8997SOL     OW38449   4.541   4.149   9.902 -0.4033  0.0205 -0.2247
 8997SOL    HW138450   4.595   4.119   9.829 -0.7620  1.3993 -1.0454
 8997SOL    HW238451   4.476   4.080   9.911  0.9795 -1.0789  1.4767
 8998SOL     OW38452   3.635   3.089   2.805 -0.4588 -0.3788 -0.0947
 8998SOL    HW138453   3.697   3.127   2.867 -1.8289  1.4590  0.1278
 8998SOL    HW238454   3.670   3.137   2.730  0.5051 -1.1351 -0.1321
 8999SOL     OW38455   2.898   4.420  15.331 -0.2613 -0.1757 -0.5008
 8999SOL    HW138456   2.862   4.500  15.370  0.6417 -0.3112  0.6320
 8999SOL    HW238457   2.925   4.375  15.412 -0.5304  0.7156  0.0831
 9000SOL     OW38458   4.497   3.546   4.994  0.1845 -0.0214  1.0045
 9000SOL    HW138459   4.529   3.617   4.938 -0.7104  0.7148  1.4219
 9000SOL    HW238460   4.404   3.568   4.994 -0.8509 -4.6403 -3.1998
 9001SOL     OW38461   2.688   0.742   6.321  0.2758  0.9443 -0.0824
 9001SOL    HW138462   2.630   0.666   6.329 -0.6608  1.7029  0.3085
 9001SOL    HW238463   2.772   0.696   6.320 -0.0920  0.2609  0.2593
 9002SOL     OW38464   3.979   2.808  11.949 -0.6828  0.0642 -0.3010
 9002SOL    HW138465   4.026   2.877  11.904 -0.8011  1.2695  1.4420
 9002SOL    HW238466   3.990   2.826  12.042  2.2799 -2.3065 -0.1984
 9003SOL     OW38467   4.149   1.958   6.870 -0.3625 -0.1342 -0.1359
 9003SOL    HW138468   4.169   2.051   6.856  2.5911 -0.8316 -0.3898
 9003SOL    HW238469   4.132   1.957   6.965  1.5512  0.3088  0.2025
 9004SOL     OW38470   0.117   2.003   5.366 -0.1232 -0.1249 -0.2575
 9004SOL    HW138471   0.147   2.093   5.362  2.2547 -0.8792  0.8175
 9004SOL    HW238472   0.051   2.012   5.435 -1.6604 -0.6784 -1.6365
 9005SOL     OW38473   1.322   0.637   5.078  0.1741  0.4254 -0.5172
 9005SOL    HW138474   1.240   0.653   5.125 -0.3999  1.5109 -1.8970
 9005SOL    HW238475   1.327   0.711   5.017  1.0726  1.1660  0.4263
 9006SOL     OW38476   2.700   2.696   1.079  0.1789  0.6613  0.0589
 9006SOL    HW138477   2.631   2.731   1.135 -0.0443  1.5881 -0.7994
 9006SOL    HW238478   2.771   2.690   1.142  0.3761  1.7621 -0.0569
 9007SOL     OW38479   4.061   3.683  17.378  0.2299  0.4540 -0.0974
 9007SOL    HW138480   3.965   3.678  17.374  0.3640 -0.9481 -1.2791
 9007SOL    HW238481   4.094   3.678  17.288  0.3953  1.4814 -0.0948
 9008SOL     OW38482   3.484   1.691  10.724 -0.0048 -0.2561 -0.2311
 9008SOL    HW138483   3.579   1.686  10.712  0.0462 -3.0523  1.4411
 9008SOL    HW238484   3.470   1.598  10.741 -0.1977 -0.2511 -0.3547
 9009SOL     OW38485   2.743   2.207   5.388 -0.4946 -0.4160 -0.1885
 9009SOL    HW138486   2.724   2.297   5.416  2.8440  0.5766 -1.0775
 9009SOL    HW238487   2.660   2.178   5.425 -0.4109  2.1739  2.0720
 9010SOL     OW38488   0.871   0.126   5.990  0.1821 -0.2981  0.7625
 9010SOL    HW138489   0.835   0.082   6.067 -0.8651 -0.9901 -0.1207
 9010SOL    HW238490   0.881   0.055   5.927 -0.4702  0.7210 -0.4882
 9011SOL     OW38491   1.018   0.087  12.731 -0.4909 -0.3463  0.1963
 9011SOL    HW138492   1.040   4.718  12.730 -0.8195 -0.4416  1.3686
 9011SOL    HW238493   1.088   0.119  12.674 -1.2178  1.7210  0.4674
 9012SOL     OW38494   0.914   3.335   4.668 -0.7073 -0.2171 -0.5825
 9012SOL    HW138495   1.004   3.306   4.655 -1.8920 -4.0211 -0.3413
 9012SOL    HW238496   0.865   3.254   4.682 -0.1007 -0.2725  1.1445
 9013SOL     OW38497   0.147   1.147   7.483 -0.2654 -0.2115 -0.3324
 9013SOL    HW138498   0.240   1.142   7.506 -0.1499 -1.2352 -0.9926
 9013SOL    HW238499   0.145   1.153   7.387  2.5638  0.9572 -0.2876
 9014SOL     OW38500   2.666   3.074   4.533 -0.0109 -0.3637  0.1242
 9014SOL    HW138501   2.591   3.056   4.477 -0.6296  1.0909  0.4822
 9014SOL    HW238502   2.749   3.062   4.486  1.0447  0.0160  1.8452
 9015SOL     OW38503   1.544   1.066   0.843  0.0231 -0.2324  0.6578
 9015SOL    HW138504   1.639   1.065   0.855 -0.1153 -0.2442  1.8228
 9015SOL    HW238505   1.528   1.110   0.760  3.3538 -0.1039  0.0839
 9016SOL     OW38506   2.983   2.633   3.833 -0.1359  0.0920 -0.5330
 9016SOL    HW138507   2.923   2.686   3.781  3.2230  2.2769 -2.2026
 9016SOL    HW238508   2.952   2.545   3.813 -3.0934  0.7019  1.5299
 9017SOL     OW38509   3.509   3.593   8.437 -0.1709 -0.2418  0.4862
 9017SOL    HW138510   3.470   3.548   8.361  0.0285 -0.1576  0.3350
 9017SOL    HW238511   3.560   3.661   8.393 -0.1160  0.2375  1.2933
 9018SOL     OW38512   1.284   4.353   3.407 -0.2583  0.1006 -0.1250
 9018SOL    HW138513   1.239   4.285   3.356  1.7771 -0.4573 -1.1659
 9018SOL    HW238514   1.240   4.341   3.491  0.2198 -0.4963  0.0413
 9019SOL     OW38515   2.145   3.933  14.254  0.1016 -0.1312 -0.1703
 9019SOL    HW138516   2.080   3.986  14.208 -0.1317  0.9260  1.3706
 9019SOL    HW238517   2.157   3.858  14.197  3.2749 -0.0922  0.4097
 9020SOL     OW38518   3.233   3.177   8.829 -0.0359 -0.0488  0.3456
 9020SOL    HW138519   3.204   3.136   8.910 -3.0027  0.6113 -0.3742
 9020SOL    HW238520   3.153   3.220   8.796  1.0789  2.2598  0.6636
 9021SOL     OW38521   4.049   2.390  14.274 -0.0790 -0.2176  0.0680
 9021SOL    HW138522   4.086   2.431  14.196 -2.3287 -0.5303 -1.1589
 9021SOL    HW238523   4.016   2.305  14.246 -0.8472  0.2182 -0.3307
 9022SOL     OW38524   1.212   2.038   5.257  0.2906 -0.4343  0.1458
 9022SOL    HW138525   1.261   1.976   5.203 -0.8410 -1.7692  0.6673
 9022SOL    HW238526   1.266   2.061   5.333  0.1017 -2.2601  0.8188
 9023SOL     OW38527   2.970   0.591   7.059  0.0926 -0.9170 -0.0366
 9023SOL    HW138528   2.879   0.567   7.043  0.0602 -0.9669  0.2269
 9023SOL    HW238529   2.960   0.666   7.117  1.6568 -1.6926  1.2521
 9024SOL     OW38530   2.841   1.729  16.158 -0.4714 -0.2165 -0.1969
 9024SOL    HW138531   2.765   1.784  16.140 -2.0169 -1.5952  2.0141
 9024SOL    HW238532   2.773   1.661  16.152 -1.4128  0.4760  2.6449
 9025SOL     OW38533   0.559   1.443   6.979  0.3140  0.2758 -0.5969
 9025SOL    HW138534   0.625   1.454   6.910  0.6289  0.0116 -0.3387
 9025SOL    HW238535   0.572   1.520   7.034  0.5815  1.6551 -2.5515
 9026SOL     OW38536   0.260   3.379   2.199  0.6319  0.1930 -0.0579
 9026SOL    HW138537   0.282   3.407   2.288 -1.1597  2.0527 -0.1806
 9026SOL    HW238538   0.242   3.285   2.206 -2.0004  0.9258  3.0517
 9027SOL     OW38539   0.914   3.294   1.922  0.4654  0.6510  0.2763
 9027SOL    HW138540   0.958   3.209   1.925  0.7050  0.8636  2.6640
 9027SOL    HW238541   0.825   3.258   1.921  0.3310  0.9891 -0.4764
 9028SOL     OW38542   4.114   2.910  16.028 -0.4530  0.3928 -0.1787
 9028SOL    HW138543   4.143   2.963  15.954  0.9047  1.6609  1.2735
 9028SOL    HW238544   4.164   2.938  16.105 -1.8131  2.0802  0.0823
 9029SOL     OW38545   1.180   0.040  13.413 -0.0965 -0.2437 -0.3444
 9029SOL    HW138546   1.237   4.716  13.353 -1.4671  0.6589 -2.3526
 9029SOL    HW238547   1.106   0.052  13.353 -0.8434  0.6620  0.7591
 9030SOL     OW38548   2.817   3.143   1.824 -0.6481 -0.0975 -0.1459
 9030SOL    HW138549   2.747   3.084   1.795 -0.4454  0.2940 -1.4180
 9030SOL    HW238550   2.795   3.228   1.786 -0.1389 -0.0995 -0.4383
 9031SOL     OW38551   1.107   3.994   7.404  0.2166 -0.3543  0.0551
 9031SOL    HW138552   1.046   4.011   7.476  0.3720 -0.6698  0.2593
 9031SOL    HW238553   1.145   4.081   7.410  1.2166 -0.8797  1.3164
 9032SOL     OW38554   0.260   2.243   4.619  0.1522 -0.2259  0.1858
 9032SOL    HW138555   0.268   2.190   4.540 -1.8416 -0.6331  0.2519
 9032SOL    HW238556   0.351   2.271   4.631  0.6511 -1.9725  0.5631
 9033SOL     OW38557   3.965   3.168  17.420  0.4760 -0.2787 -0.0777
 9033SOL    HW138558   3.956   3.179  17.325  0.5020 -1.6706 -0.2330
 9033SOL    HW238559   4.012   3.248  17.446  1.2603 -1.1389  1.1429
 9034SOL     OW38560   1.914   3.859   3.796  0.2270 -0.1464 -0.7612
 9034SOL    HW138561   1.964   3.927   3.751  2.0069 -1.5481 -0.9310
 9034SOL    HW238562   1.825   3.874   3.766  0.1720  0.6184 -0.2031
 9035SOL     OW38563   3.018   0.008   1.605 -0.0331  0.0021 -0.1624
 9035SOL    HW138564   2.951   4.675   1.566 -1.2714  0.4234  1.3332
 9035SOL    HW238565   3.009   0.091   1.558 -0.3112  0.0023 -0.1102
 9036SOL     OW38566   1.576   3.273   1.583  0.0392  0.4216 -0.3750
 9036SOL    HW138567   1.671   3.284   1.587  0.1451  0.2370 -2.4030
 9036SOL    HW238568   1.574   3.204   1.517  0.1868  0.4735 -0.4340
 9037SOL     OW38569   2.586   0.356   3.190  0.1737  0.4730 -0.2463
 9037SOL    HW138570   2.588   0.399   3.105 -1.1065  2.3502  0.6866
 9037SOL    HW238571   2.499   0.314   3.185  0.1592  0.2915  1.7273
 9038SOL     OW38572   0.142   1.220   7.988  0.2786  0.6531  0.0171
 9038SOL    HW138573   0.107   1.231   8.077 -2.0078  1.9624 -1.0547
 9038SOL    HW238574   0.096   1.144   7.951 -0.1234  1.2890 -0.7893
 9039SOL     OW38575   2.052   2.132   4.203 -0.2092 -0.0977 -0.6736
 9039SOL    HW138576   2.103   2.144   4.123  0.7903  0.1643  0.0176
 9039SOL    HW238577   2.123   2.160   4.259  0.8607 -0.2954 -1.9324
 9040SOL     OW38578   0.628   2.866   6.429  0.1268  0.0236 -0.0813
 9040SOL    HW138579   0.723   2.857   6.441 -0.0045 -1.0344  0.2090
 9040SOL    HW238580   0.597   2.814   6.504 -0.8608  0.8853  0.1030
 9041SOL     OW38581   3.384   4.398  10.866  0.1575  0.4500 -0.6244
 9041SOL    HW138582   3.425   4.449  10.936 -2.2614  1.1948  0.2668
 9041SOL    HW238583   3.453   4.410  10.801 -1.4561  1.9968 -2.0634
 9042SOL     OW38584   0.143   0.267  13.129 -0.0526  0.1737 -0.0269
 9042SOL    HW138585   0.169   0.295  13.217  1.6842  1.9402 -1.1173
 9042SOL    HW238586   0.145   0.351  13.084 -1.2914  0.6971  0.9024
 9043SOL     OW38587   4.637   2.460   2.082  0.2737 -0.0991  0.3432
 9043SOL    HW138588   4.659   2.470   1.989  2.3431  2.3367  1.0896
 9043SOL    HW238589   4.636   2.553   2.105 -0.1211 -0.0486  0.1204
 9044SOL     OW38590   0.687   1.133   9.485 -0.7205  0.2184 -0.4172
 9044SOL    HW138591   0.625   1.180   9.430 -1.1226  1.2044  0.8787
 9044SOL    HW238592   0.742   1.209   9.507 -2.2058  1.1711 -0.0170
 9045SOL     OW38593   4.292   0.653   8.508 -0.1110 -0.0904 -0.0899
 9045SOL    HW138594   4.199   0.628   8.516  0.5922 -3.5545 -2.5064
 9045SOL    HW238595   4.309   0.628   8.417  2.1911  2.1087 -0.2484
 9046SOL     OW38596   1.475   4.428   3.996 -0.0517  0.2571  0.0654
 9046SOL    HW138597   1.564   4.401   3.976 -0.8940 -2.5259  0.0389
 9046SOL    HW238598   1.432   4.342   3.989  1.7056 -0.5181 -1.2450
 9047SOL     OW38599   2.510   2.735  10.972 -0.2922  0.4528 -0.4490
 9047SOL    HW138600   2.432   2.740  10.917 -0.2723 -0.5022 -0.5558
 9047SOL    HW238601   2.532   2.828  10.980 -0.5288  0.5323 -0.7693
 9048SOL     OW38602   4.155   3.946   2.697 -0.2245 -0.2388 -0.2085
 9048SOL    HW138603   4.187   3.948   2.607 -0.1175  2.7269 -0.0955
 9048SOL    HW238604   4.064   3.924   2.677 -0.3857 -1.0214  1.3997
 9049SOL     OW38605   4.469   1.517   8.192  0.0266  0.0598 -0.5506
 9049SOL    HW138606   4.411   1.490   8.263  0.8767 -0.2947  0.0048
 9049SOL    HW238607   4.491   1.429   8.162  0.6344  0.4074 -1.1137
 9050SOL     OW38608   2.931   2.551   7.330  0.1006  0.3120 -0.2852
 9050SOL    HW138609   3.024   2.574   7.329  0.8431 -2.6732  0.4008
 9050SOL    HW238610   2.884   2.627   7.296  1.1230  1.9196  1.8513
 9051SOL     OW38611   3.420   0.092   4.444 -0.0602  0.6409 -0.6080
 9051SOL    HW138612   3.484   0.151   4.484  1.5449 -0.9027 -0.8599
 9051SOL    HW238613   3.395   0.044   4.523  1.4427  1.4835  0.3883
 9052SOL     OW38614   0.215   4.703  13.529  0.4867  0.3791  0.7102
 9052SOL    HW138615   0.307   4.685  13.513 -0.0763 -2.4920  0.7190
 9052SOL    HW238616   0.223   0.074  13.541 -1.9095  1.0319 -2.8014
 9053SOL     OW38617   1.822   0.888   4.206  0.0114  0.0679 -0.0148
 9053SOL    HW138618   1.821   0.805   4.159  0.5215 -0.3362  0.6788
 9053SOL    HW238619   1.834   0.957   4.141  0.8356 -2.3381 -2.4175
 9054SOL     OW38620   4.689   1.554   3.828  0.0207 -0.3212 -0.2841
 9054SOL    HW138621   4.698   1.486   3.895  1.1475  1.3299  1.2439
 9054SOL    HW238622   4.605   1.594   3.849  1.2009  2.2400 -0.5542
 9055SOL     OW38623   2.157   1.321  13.421  0.6476 -0.0318 -0.1274
 9055SOL    HW138624   2.068   1.286  13.414 -0.1493  2.2272 -1.1847
 9055SOL    HW238625   2.190   1.291  13.506 -1.1145 -1.4478  0.0688
 9056SOL     OW38626   3.237   3.798   8.901 -0.3229  0.3967  1.0363
 9056SOL    HW138627   3.241   3.733   8.971  1.1279 -0.9894 -0.3266
 9056SOL    HW238628   3.208   3.868   8.959  1.8065  2.7334 -0.6966
 9057SOL     OW38629   2.205   0.620   8.208  0.4452 -0.4138 -0.1315
 9057SOL    HW138630   2.149   0.555   8.165 -2.8059  1.3887  1.3354
 9057SOL    HW238631   2.144   0.675   8.258  1.3245 -0.5741  1.1250
 9058SOL     OW38632   0.877   3.367   7.478  0.2800  0.5059 -0.1189
 9058SOL    HW138633   0.894   3.456   7.509  0.0179  0.6925 -0.5166
 9058SOL    HW238634   0.842   3.385   7.391  0.2149 -0.1520 -0.2257
 9059SOL     OW38635   3.310   3.976   7.804  0.5429 -0.1916 -0.2526
 9059SOL    HW138636   3.333   3.917   7.875 -0.8661 -2.0522 -1.3551
 9059SOL    HW238637   3.263   4.047   7.849 -1.2108 -0.5600 -1.5346
 9060SOL     OW38638   1.599   2.527   0.411 -0.7694  0.0253  0.8652
 9060SOL    HW138639   1.626   2.603   0.463  0.8058 -0.6713  1.0760
 9060SOL    HW238640   1.581   2.579   0.333  1.3544 -0.7658 -0.1710
 9061SOL     OW38641   3.535   3.428  12.372  0.0622 -0.0401  0.0438
 9061SOL    HW138642   3.549   3.481  12.293  1.3016 -0.9928 -0.3634
 9061SOL    HW238643   3.461   3.371  12.350  0.6672 -0.6969 -0.2829
 9062SOL     OW38644   1.245   3.755   7.388 -0.1867 -0.0836  0.1953
 9062SOL    HW138645   1.181   3.826   7.382 -0.6283 -0.3570  1.7408
 9062SOL    HW238646   1.243   3.735   7.481 -0.8199  0.3608  0.2782
 9063SOL     OW38647   2.124   2.223  10.506 -0.5640 -0.7332 -0.2956
 9063SOL    HW138648   2.160   2.145  10.463  2.0826  0.7082 -0.6836
 9063SOL    HW238649   2.144   2.291  10.442  0.5499  1.5325  2.4797
 9064SOL     OW38650   1.198   2.523   6.523  0.4145  0.5223 -0.1244
 9064SOL    HW138651   1.285   2.482   6.527 -0.4580 -1.3579 -0.4765
 9064SOL    HW238652   1.188   2.529   6.428  0.0813 -1.8240 -0.2317
 9065SOL     OW38653   0.815   4.662   3.576  0.6444  0.6249  0.2659
 9065SOL    HW138654   0.839   4.584   3.526 -0.6777  1.4085 -1.5759
 9065SOL    HW238655   0.900   4.690   3.609 -0.4512  0.1007  3.5538
 9066SOL     OW38656   1.157   0.707  12.958  0.4407  0.1693 -0.7479
 9066SOL    HW138657   1.143   0.668  13.045  0.4895 -0.1102 -0.8642
 9066SOL    HW238658   1.249   0.733  12.960  1.0557 -1.9147 -1.6329
 9067SOL     OW38659   2.964   0.822   5.945  0.0907  0.5429  0.1990
 9067SOL    HW138660   3.027   0.830   5.873 -0.8819  0.1568 -0.6848
 9067SOL    HW238661   3.031   0.804   6.011  0.7521  2.3148  0.0131
 9068SOL     OW38662   4.255   3.764  15.074  0.2537  0.3495 -0.2924
 9068SOL    HW138663   4.293   3.688  15.118  0.0535 -0.2852 -1.2098
 9068SOL    HW238664   4.167   3.772  15.110  0.3970 -0.0951  0.1604
 9069SOL     OW38665   1.073   3.879  16.460 -0.2401  0.3479  0.0859
 9069SOL    HW138666   1.125   3.800  16.472  0.0898  0.6707  0.8140
 9069SOL    HW238667   1.140   3.936  16.498  0.0717 -0.5182  0.8589
 9070SOL     OW38668   2.584   3.539  11.890 -0.1802 -0.0913  0.6421
 9070SOL    HW138669   2.591   3.466  11.830 -0.2948  1.2853 -1.0467
 9070SOL    HW238670   2.525   3.601  11.847  1.9189 -0.0213 -2.1485
 9071SOL     OW38671   4.318   3.862   8.470  0.0934  0.5141  0.0035
 9071SOL    HW138672   4.235   3.826   8.439 -1.1293  2.6946  0.7676
 9071SOL    HW238673   4.298   3.955   8.461 -0.7651  0.3744  0.4434
 9072SOL     OW38674   2.770   0.603   7.663 -0.4704  0.1412  0.3090
 9072SOL    HW138675   2.712   0.581   7.737  0.0029  0.5698  0.8133
 9072SOL    HW238676   2.853   0.566   7.693 -0.0866  0.5023 -0.3198
 9073SOL     OW38677   0.149   1.307  12.717  0.5286  0.6265 -0.0829
 9073SOL    HW138678   0.241   1.284  12.728  1.0588  2.8313  0.0844
 9073SOL    HW238679   0.134   1.358  12.797 -2.5375 -0.3575 -0.0231
 9074SOL     OW38680   1.146   3.496  15.214 -0.6095 -0.2010  0.8735
 9074SOL    HW138681   1.211   3.534  15.272  1.0809 -0.5958 -0.7385
 9074SOL    HW238682   1.168   3.536  15.129  0.9315 -0.8246  0.9817
 9075SOL     OW38683   1.642   0.447  13.986  0.5236 -0.5606  0.3690
 9075SOL    HW138684   1.724   0.496  13.979  0.3594  0.0438  2.7405
 9075SOL    HW238685   1.578   0.511  13.954  1.1681 -0.4302 -0.6479
 9076SOL     OW38686   0.848   4.364   6.641  0.0412  0.3176 -0.3173
 9076SOL    HW138687   0.792   4.441   6.651 -0.7028 -0.5820  2.5847
 9076SOL    HW238688   0.783   4.294   6.646 -0.4715  1.0175  2.9379
 9077SOL     OW38689   2.273   2.187   4.382  0.1767  0.9541 -0.1673
 9077SOL    HW138690   2.316   2.263   4.420 -1.9525  1.9365  0.2591
 9077SOL    HW238691   2.344   2.148   4.330 -1.7193 -0.4584 -1.6893
 9078SOL     OW38692   4.371   4.013   5.611  0.2780 -0.1170 -0.5499
 9078SOL    HW138693   4.440   4.072   5.582  1.2227 -1.4114 -0.9558
 9078SOL    HW238694   4.312   4.008   5.535 -0.6453  1.4818  0.0447
 9079SOL     OW38695   0.845   3.328  13.634  0.0815 -0.1475  0.0790
 9079SOL    HW138696   0.860   3.379  13.714 -0.5494 -1.4447  1.0136
 9079SOL    HW238697   0.755   3.295  13.636  0.0283  0.0493  0.7884
 9080SOL     OW38698   1.175   2.662   3.512 -0.1114 -0.2139 -0.8927
 9080SOL    HW138699   1.149   2.745   3.553 -1.8296 -0.9894 -0.4282
 9080SOL    HW238700   1.202   2.689   3.424 -1.9452 -0.2412 -1.4492
 9081SOL     OW38701   1.982   2.633  17.342  0.3242 -0.0474  0.2752
 9081SOL    HW138702   2.001   2.619  17.435  0.8911  3.1292  0.6371
 9081SOL    HW238703   1.888   2.638  17.359  0.3106  0.5421 -0.0086
 9082SOL     OW38704   2.398   2.459   8.092 -0.2376  0.5177  0.4597
 9082SOL    HW138705   2.350   2.519   8.034  1.1725  2.0486  0.8703
 9082SOL    HW238706   2.332   2.390   8.088 -0.0947  0.4178 -0.1015
 9083SOL     OW38707   2.324   0.260   8.143 -0.3058 -0.4346 -0.4269
 9083SOL    HW138708   2.265   0.192   8.177 -0.4884  0.5173  1.1754
 9083SOL    HW238709   2.283   0.271   8.058 -0.8329 -1.6389 -0.3394
 9084SOL     OW38710   0.711   1.819   5.815  0.2497 -0.0612 -0.1026
 9084SOL    HW138711   0.666   1.837   5.732  0.0448  1.1978  0.2788
 9084SOL    HW238712   0.634   1.795   5.868 -1.0252  0.2984 -1.7871
 9085SOL     OW38713   1.968   3.652  14.479 -0.6082  0.0656  0.0210
 9085SOL    HW138714   1.921   3.735  14.474 -1.7811 -0.5711  0.4733
 9085SOL    HW238715   1.950   3.617  14.392 -0.7293 -1.9093  0.8400
 9086SOL     OW38716   0.768   3.038  17.234 -0.0857  0.1566 -0.3230
 9086SOL    HW138717   0.801   3.126  17.251 -1.2305  0.6628 -0.7237
 9086SOL    HW238718   0.726   3.056  17.150  0.2973 -1.3377 -0.8344
 9087SOL     OW38719   3.451   1.584  12.397  0.2987  0.4014 -0.1535
 9087SOL    HW138720   3.392   1.544  12.461  0.8912 -1.8469 -1.0382
 9087SOL    HW238721   3.411   1.557  12.314 -2.8872  0.5386  1.3339
 9088SOL     OW38722   1.036   2.412   2.372 -0.1951  0.3845 -0.2146
 9088SOL    HW138723   0.946   2.389   2.394 -0.9512  2.1002 -1.5986
 9088SOL    HW238724   1.006   2.501   2.355 -1.7733 -0.3862 -1.4982
 9089SOL     OW38725   3.977   0.357   0.392  0.5593  0.1977 -0.3597
 9089SOL    HW138726   3.934   0.424   0.446 -1.0354 -0.3934 -0.8930
 9089SOL    HW238727   4.069   0.384   0.387  0.8815 -0.4124  2.1452
 9090SOL     OW38728   3.181   1.662  13.090 -0.0163 -0.2931 -0.4008
 9090SOL    HW138729   3.191   1.657  13.185  0.2994 -2.5933 -0.5582
 9090SOL    HW238730   3.094   1.624  13.081  0.1394 -0.7458  0.0499
 9091SOL     OW38731   2.420   3.836   3.257  0.0026  0.0263  0.2978
 9091SOL    HW138732   2.452   3.801   3.340 -3.2505 -1.0196  1.0995
 9091SOL    HW238733   2.487   3.825   3.189 -1.8116 -0.3711 -1.4389
 9092SOL     OW38734   2.818   4.529   6.759  0.1645 -0.2652 -0.0890
 9092SOL    HW138735   2.889   4.588   6.735 -2.0193  0.7997 -4.0980
 9092SOL    HW238736   2.857   4.451   6.720 -0.8388 -1.1823  0.7509
 9093SOL     OW38737   0.587   3.447   2.123 -0.6718 -0.0921 -0.4392
 9093SOL    HW138738   0.518   3.442   2.057 -2.1360 -0.7439  1.1258
 9093SOL    HW238739   0.627   3.360   2.123 -1.1322 -0.2985  1.4031
 9094SOL     OW38740   0.035   3.925   2.520 -0.4993  0.4950  0.5200
 9094SOL    HW138741   4.703   3.941   2.596 -0.1004  0.7869  0.7539
 9094SOL    HW238742   0.055   3.834   2.544 -0.7158  0.6445  1.2708
 9095SOL     OW38743   3.015   1.838   8.839 -0.2037 -0.1237  0.2676
 9095SOL    HW138744   2.988   1.818   8.749  2.0967  1.3214 -0.7457
 9095SOL    HW238745   3.083   1.903   8.821  0.0281 -0.1521  1.0375
 9096SOL     OW38746   0.993   4.028   5.602  0.6106  0.0780 -0.2846
 9096SOL    HW138747   1.049   3.954   5.576 -1.7525 -1.5490 -0.8339
 9096SOL    HW238748   1.049   4.105   5.605  1.0332 -0.2292 -0.3349
 9097SOL     OW38749   0.911   2.121   3.843  0.1812  0.2676  0.1680
 9097SOL    HW138750   0.903   2.200   3.790 -0.3569  0.6377  0.8050
 9097SOL    HW238751   0.881   2.053   3.783 -1.9344 -0.1543  1.7307
 9098SOL     OW38752   2.522   0.968   9.381  0.3092  0.4120 -0.3440
 9098SOL    HW138753   2.579   1.002   9.450 -1.4341  0.7176  0.9478
 9098SOL    HW238754   2.466   0.904   9.424 -0.0242  0.9128 -0.0349
 9099SOL     OW38755   2.731   0.161   7.394  0.6937 -0.9055  0.2106
 9099SOL    HW138756   2.795   0.110   7.345  0.0524  0.8796 -2.4903
 9099SOL    HW238757   2.763   0.249   7.376 -1.5917 -0.9173 -4.0212
 9100SOL     OW38758   1.650   4.670   4.610 -1.0813  0.1917  0.0962
 9100SOL    HW138759   1.729   4.670   4.557  0.2543 -0.0112  2.0726
 9100SOL    HW238760   1.627   4.577   4.609  0.0095 -0.0729 -0.4923
 9101SOL     OW38761   4.670   4.193   8.806  0.0418 -0.7120  0.1522
 9101SOL    HW138762   4.583   4.232   8.814  0.0920 -0.7269  0.7567
 9101SOL    HW238763   4.658   4.099   8.795 -1.8628 -0.2259 -1.8766
 9102SOL     OW38764   0.910   0.549   0.996 -0.0892 -0.3557 -0.4403
 9102SOL    HW138765   0.818   0.568   0.981  0.0082 -0.4768 -1.2085
 9102SOL    HW238766   0.947   0.634   1.022  1.8523 -0.2470 -3.5208
 9103SOL     OW38767   0.006   2.281   8.601  0.5289  0.4364  0.2721
 9103SOL    HW138768   0.101   2.284   8.607  0.3876 -0.0940  2.7504
 9103SOL    HW238769   4.712   2.233   8.682 -2.1970 -1.4953 -1.4700
 9104SOL     OW38770   1.741   0.466   2.046  0.1391  0.0581 -0.2188
 9104SOL    HW138771   1.823   0.456   1.998  0.0865  2.6917 -0.9097
 9104SOL    HW238772   1.769   0.537   2.104  1.3942 -0.7338  0.1446
 9105SOL     OW38773   0.216   0.881   5.683 -0.7219  0.3598 -0.8024
 9105SOL    HW138774   0.286   0.946   5.675  0.2781 -0.5034  0.8085
 9105SOL    HW238775   0.180   0.866   5.596  1.7029 -1.5097 -1.5054
 9106SOL     OW38776   3.885   2.267   9.355 -0.5415  0.8173  0.1590
 9106SOL    HW138777   3.816   2.286   9.292 -1.1180 -1.8406  0.0037
 9106SOL    HW238778   3.841   2.216   9.424  0.5252 -0.4486 -0.0965
 9107SOL     OW38779   2.103   1.370   0.644 -0.4764  0.1319  0.3403
 9107SOL    HW138780   2.069   1.324   0.567  0.7017  0.4239 -0.3561
 9107SOL    HW238781   2.116   1.283   0.683  1.7362  0.2719 -0.0795
 9108SOL     OW38782   2.171   1.186   5.356  0.3352 -0.1272  0.3826
 9108SOL    HW138783   2.130   1.108   5.393 -0.6092  0.5546  0.7568
 9108SOL    HW238784   2.214   1.142   5.282 -0.6434 -0.3472 -0.0624
 9109SOL     OW38785   2.494   2.909   6.712  0.9506  0.2247 -0.2901
 9109SOL    HW138786   2.409   2.911   6.669  1.3544 -2.6458 -1.1933
 9109SOL    HW238787   2.468   2.887   6.802  1.3399  1.8493  0.2224
 9110SOL     OW38788   1.553   2.448   5.166 -0.2470 -0.3432 -0.0633
 9110SOL    HW138789   1.503   2.377   5.206  0.1973 -1.6735 -1.8616
 9110SOL    HW238790   1.514   2.530   5.196  3.4918  2.3122 -2.4500
 9111SOL     OW38791   3.145   1.315  11.558 -0.2061 -0.2343 -0.3570
 9111SOL    HW138792   3.059   1.314  11.599  0.4799  0.2883  1.1038
 9111SOL    HW238793   3.169   1.223  11.546  3.2243  0.3469  2.0359
 9112SOL     OW38794   0.010   1.168  11.291  0.4001 -0.2878 -0.2368
 9112SOL    HW138795   0.061   1.150  11.211 -0.0278  0.9869 -0.7991
 9112SOL    HW238796   4.649   1.133  11.265 -1.5557  2.1858  2.8742
 9113SOL     OW38797   4.335   3.138  11.747  0.3643  0.0954 -0.2402
 9113SOL    HW138798   4.261   3.079  11.761  0.9633 -0.9317 -1.4050
 9113SOL    HW238799   4.393   3.083  11.694  0.6451  0.4061 -0.2567
 9114SOL     OW38800   4.446   1.373   7.563  0.1204  0.4565  0.7403
 9114SOL    HW138801   4.398   1.333   7.635 -0.6269  0.6348  0.3461
 9114SOL    HW238802   4.536   1.386   7.593  0.2298  1.1869  0.1029
 9115SOL     OW38803   1.887   4.025  11.305  0.0821  0.1634  0.2129
 9115SOL    HW138804   1.901   4.058  11.394 -1.0888  0.3070  0.3404
 9115SOL    HW238805   1.911   3.936  11.330 -0.5569 -0.3741 -1.0516
 9116SOL     OW38806   1.373   2.197   4.144 -0.6007  0.4443 -0.0336
 9116SOL    HW138807   1.318   2.163   4.073  0.1761 -1.1478  0.1183
 9116SOL    HW238808   1.381   2.289   4.118 -1.3936  0.6897  0.5792
 9117SOL     OW38809   1.548   3.637   6.764  0.1308 -0.1420  0.0439
 9117SOL    HW138810   1.588   3.578   6.701  1.7504  2.1063 -1.0409
 9117SOL    HW238811   1.588   3.618   6.849  1.2548  2.8491  0.2015
 9118SOL     OW38812   3.948   3.608   7.916 -0.0584 -0.2560 -0.2839
 9118SOL    HW138813   3.994   3.525   7.925 -1.1325 -0.5410  2.4687
 9118SOL    HW238814   4.020   3.671   7.909  1.7218 -2.2832 -0.1200
 9119SOL     OW38815   1.527   2.976   1.059  0.4234  0.2536  0.0601
 9119SOL    HW138816   1.478   3.020   0.990  0.9115 -1.0883 -1.1379
 9119SOL    HW238817   1.457   2.965   1.124  0.4744  0.4968  0.1563
 9120SOL     OW38818   2.421   0.044   1.856  0.1638  0.3538  0.6565
 9120SOL    HW138819   2.445   0.018   1.945 -0.1956 -1.1147  0.3253
 9120SOL    HW238820   2.476   4.705   1.810 -0.9206 -2.0757  2.6895
 9121SOL     OW38821   2.412   1.471  12.321  0.2365 -0.1728 -0.4736
 9121SOL    HW138822   2.373   1.389  12.351  0.5096  0.9838  3.0279
 9121SOL    HW238823   2.444   1.487  12.410 -0.6986 -0.1195 -0.1403
 9122SOL     OW38824   1.455   0.921   5.182  0.1400 -0.1211 -0.7892
 9122SOL    HW138825   1.406   0.940   5.102 -0.4415 -0.1558 -0.4373
 9122SOL    HW238826   1.511   0.847   5.157 -0.2270 -0.2552 -1.2178
 9123SOL     OW38827   2.071   2.429   9.068 -0.2818  0.0495  0.6280
 9123SOL    HW138828   1.992   2.377   9.078 -1.4770  2.2590  2.5980
 9123SOL    HW238829   2.054   2.501   9.129  1.4709 -0.5457  1.8276
 9124SOL     OW38830   1.594   0.945   0.149 -0.3067  0.6286  1.1694
 9124SOL    HW138831   1.538   0.997   0.092  1.3355  0.8202 -0.2591
 9124SOL    HW238832   1.571   0.863   0.104  0.9480  0.5000  0.7771
 9125SOL     OW38833   1.767   2.960  11.546  0.1680  0.0887  0.5378
 9125SOL    HW138834   1.830   3.004  11.490  0.6328 -0.1310  0.8897
 9125SOL    HW238835   1.821   2.935  11.622 -2.5686  0.0451  2.4793
 9126SOL     OW38836   3.998   3.155  11.296  0.7289  0.7689 -0.7842
 9126SOL    HW138837   4.088   3.187  11.295  0.1965  2.3640  1.8984
 9126SOL    HW238838   3.995   3.082  11.358  3.2141  1.9886  0.7815
 9127SOL     OW38839   1.203   3.579  14.967  0.6102  0.0400  0.0963
 9127SOL    HW138840   1.187   3.614  14.879  1.4331  0.1007 -0.0317
 9127SOL    HW238841   1.297   3.595  14.980  0.1272  3.1495 -0.2250
 9128SOL     OW38842   3.208   2.851   5.055 -0.3894  0.0094 -0.3112
 9128SOL    HW138843   3.287   2.797   5.049 -0.7766 -0.4467 -1.4578
 9128SOL    HW238844   3.174   2.842   4.966  2.8041 -1.6261 -1.3888
 9129SOL     OW38845   2.446   3.229   8.286  0.3804 -0.0901  0.1244
 9129SOL    HW138846   2.435   3.212   8.192 -0.6596  1.6712 -0.0772
 9129SOL    HW238847   2.415   3.146   8.321  0.9418 -0.0774  0.6441
 9130SOL     OW38848   2.720   0.123   5.300 -0.8062  0.2690 -0.2700
 9130SOL    HW138849   2.797   0.068   5.285 -0.8134  0.4047 -0.8306
 9130SOL    HW238850   2.649   0.059   5.300 -0.7903  0.2180 -3.6298
 9131SOL     OW38851   3.405   3.843   0.471 -0.0150 -0.1701  0.5525
 9131SOL    HW138852   3.379   3.935   0.464  1.9241  0.4090  1.1372
 9131SOL    HW238853   3.408   3.823   0.377  0.5957  1.9187  0.1317
 9132SOL     OW38854   2.163   0.237   2.143  1.1688 -0.8937  0.3725
 9132SOL    HW138855   2.137   0.198   2.059 -1.2586  2.2087 -0.3208
 9132SOL    HW238856   2.127   0.180   2.210  0.0458  0.7685  1.1648
 9133SOL     OW38857   1.340   0.828   0.691 -0.6750  0.3329  0.1967
 9133SOL    HW138858   1.364   0.909   0.736  0.4378 -1.3612  2.6705
 9133SOL    HW238859   1.429   0.796   0.674  0.4840  2.8731  1.5870
 9134SOL     OW38860   2.147   4.012  12.719  0.5390 -0.2703  0.3625
 9134SOL    HW138861   2.242   4.005  12.731  0.4202 -1.9659  0.2100
 9134SOL    HW238862   2.129   4.081  12.784  0.2167 -1.0068  1.0608
 9135SOL     OW38863   0.616   2.791   2.328  0.6609  0.9001  0.3863
 9135SOL    HW138864   0.661   2.726   2.382  1.2270 -0.0598 -1.2409
 9135SOL    HW238865   0.611   2.864   2.391 -0.1453  0.6893  0.5662
 9136SOL     OW38866   1.167   2.200  17.248  0.0300  0.6031 -0.5710
 9136SOL    HW138867   1.235   2.256  17.285 -1.7150  2.3280 -0.0235
 9136SOL    HW238868   1.092   2.259  17.247 -1.8648 -1.8404 -2.1821
 9137SOL     OW38869   2.478   1.419   6.352  0.6067 -0.0172 -0.6639
 9137SOL    HW138870   2.547   1.481   6.374 -0.1178  0.8884 -0.8955
 9137SOL    HW238871   2.451   1.376   6.433 -4.6378 -0.5814 -2.6505
 9138SOL     OW38872   0.172   0.422   3.476 -0.3723 -0.0703 -0.3952
 9138SOL    HW138873   0.175   0.501   3.530 -0.2932 -0.0497 -0.4289
 9138SOL    HW238874   0.106   0.454   3.415 -0.7399 -0.8424 -0.4009
 9139SOL     OW38875   1.489   0.769   0.342 -0.2963 -0.6237  0.8542
 9139SOL    HW138876   1.566   0.807   0.300 -0.5518  0.6548  1.5490
 9139SOL    HW238877   1.431   0.843   0.361  0.5067  0.4138 -0.8155
 9140SOL     OW38878   0.472   0.309   6.162  0.9468  0.6327 -0.0206
 9140SOL    HW138879   0.397   0.262   6.126 -0.4848  1.6777  1.5666
 9140SOL    HW238880   0.443   0.392   6.200 -1.9159 -0.9024  1.1716
 9141SOL     OW38881   2.325   3.039   3.958 -0.5054  0.2128  0.1359
 9141SOL    HW138882   2.356   3.130   3.960  1.0606 -0.3002 -0.4120
 9141SOL    HW238883   2.355   3.018   3.869  0.5432  0.2810  0.4665
 9142SOL     OW38884   0.525   2.539   6.260  0.1134 -0.3245  0.0411
 9142SOL    HW138885   0.548   2.532   6.353 -2.9046  1.6353  0.9250
 9142SOL    HW238886   0.442   2.586   6.260  0.0192 -0.4751  1.6359
 9143SOL     OW38887   0.479   3.273   7.255  0.3210 -0.5550  0.6515
 9143SOL    HW138888   0.399   3.324   7.246  0.8563  0.2972  0.7399
 9143SOL    HW238889   0.485   3.254   7.348 -0.7182  0.6276  0.9539
 9144SOL     OW38890   2.542   3.600  10.639 -0.4133 -0.1506  0.5851
 9144SOL    HW138891   2.485   3.654  10.585  0.5386  1.9341  1.6373
 9144SOL    HW238892   2.500   3.612  10.724 -0.9918 -0.8635  0.3962
 9145SOL     OW38893   1.771   1.185   4.625 -0.0571  0.2016  0.3624
 9145SOL    HW138894   1.806   1.265   4.586 -1.2513  0.2282 -0.6534
 9145SOL    HW238895   1.802   1.119   4.563  1.6971  0.2396  1.1816
 9146SOL     OW38896   4.313   4.007  17.391  0.4497  0.0561 -0.5512
 9146SOL    HW138897   4.277   3.961  17.467  1.3686  0.8156  0.3436
 9146SOL    HW238898   4.235   4.057  17.367  0.2314 -0.1102 -0.1769
 9147SOL     OW38899   1.294   0.704   8.335 -0.2239  0.4890 -0.0430
 9147SOL    HW138900   1.230   0.633   8.326  0.5841 -0.1772 -0.5299
 9147SOL    HW238901   1.261   0.770   8.274  1.2451  0.9201 -0.3680
 9148SOL     OW38902   0.149   4.231   5.157  0.1768  0.1536 -0.1516
 9148SOL    HW138903   0.186   4.294   5.220  0.5124 -0.1728 -0.0214
 9148SOL    HW238904   0.086   4.289   5.115  0.7652  1.7093  1.1033
 9149SOL     OW38905   4.634   3.265   6.273 -0.2947  0.1232  0.1112
 9149SOL    HW138906   4.622   3.176   6.239 -0.9503  0.5306 -0.7285
 9149SOL    HW238907   4.543   3.291   6.264 -0.9778 -2.0514  0.7300
 9150SOL     OW38908   4.019   4.093  17.290  0.1406 -0.2213  0.0856
 9150SOL    HW138909   4.061   4.160  17.343  0.2579  0.7161 -1.2002
 9150SOL    HW238910   3.927   4.121  17.294  0.8673  2.2090 -0.3861
 9151SOL     OW38911   2.826   1.755   7.119  0.2396  0.2596 -0.1694
 9151SOL    HW138912   2.783   1.679   7.080  1.2030 -0.3497 -0.0317
 9151SOL    HW238913   2.882   1.794   7.053  1.5201 -2.3468 -0.6200
 9152SOL     OW38914   2.693   1.029   7.602  0.3203  0.5634  0.7800
 9152SOL    HW138915   2.679   1.099   7.539 -1.1342  0.2057  0.7091
 9152SOL    HW238916   2.656   1.063   7.683 -0.5326 -0.7861  0.9606
 9153SOL     OW38917   2.765   0.649   8.565  0.1408 -0.2599  0.0479
 9153SOL    HW138918   2.857   0.677   8.558 -0.1577  1.4012  2.6507
 9153SOL    HW238919   2.725   0.698   8.493 -0.0989  1.3831  1.3072
 9154SOL     OW38920   3.781   1.033  16.489  0.1447  0.2479  0.0893
 9154SOL    HW138921   3.854   1.033  16.427 -0.6343  0.3178 -0.8325
 9154SOL    HW238922   3.812   1.090  16.559  2.2204 -2.1799  1.1352
 9155SOL     OW38923   4.120   1.732   1.991 -0.2734  0.5098 -0.0195
 9155SOL    HW138924   4.198   1.679   1.980 -0.4110  0.9897 -3.5139
 9155SOL    HW238925   4.162   1.814   2.019  1.4119 -0.4890  0.3380
 9156SOL     OW38926   1.977   3.276   6.292 -0.3516 -0.0145  0.1314
 9156SOL    HW138927   2.023   3.274   6.208 -1.5492  1.6084 -0.5673
 9156SOL    HW238928   2.044   3.286   6.359 -0.8377 -0.8454  0.7400
 9157SOL     OW38929   2.742   0.524   0.516 -0.0162  0.4395  0.1447
 9157SOL    HW138930   2.733   0.602   0.571 -0.2462  1.1999 -0.9475
 9157SOL    HW238931   2.832   0.510   0.545  0.0859 -0.2719 -0.5231
 9158SOL     OW38932   4.333   1.768   7.493 -0.4532 -0.4741  0.4849
 9158SOL    HW138933   4.270   1.697   7.506 -0.6246  0.1224  2.9308
 9158SOL    HW238934   4.409   1.727   7.536  1.0214  0.5149 -1.1812
 9159SOL     OW38935   3.943   1.412   2.460  0.3429  0.7198  0.3244
 9159SOL    HW138936   4.004   1.359   2.410 -1.5917 -1.8818  0.6981
 9159SOL    HW238937   3.994   1.429   2.539 -0.8237 -1.0111  1.4693
 9160SOL     OW38938   1.837   2.808   2.042 -0.0510 -0.4079 -0.5770
 9160SOL    HW138939   1.830   2.737   2.105  1.7452 -0.1363 -0.0644
 9160SOL    HW238940   1.755   2.857   2.053 -1.1984 -2.2444 -0.9201
 9161SOL     OW38941   3.071   1.387   8.270  0.0019  0.1673 -0.0119
 9161SOL    HW138942   3.000   1.346   8.219 -1.2260 -0.6031  2.2951
 9161SOL    HW238943   3.146   1.354   8.221 -0.0845 -0.0251 -0.0180
 9162SOL     OW38944   4.493   1.264   4.357  0.7535 -0.2034 -0.3904
 9162SOL    HW138945   4.545   1.223   4.427  1.0827  0.3254 -0.3308
 9162SOL    HW238946   4.412   1.214   4.344  0.1916  0.1304  1.8100
 9163SOL     OW38947   3.529   2.227   5.602  0.4111 -0.0078 -0.0652
 9163SOL    HW138948   3.614   2.212   5.643 -0.0755 -1.0221  0.5665
 9163SOL    HW238949   3.465   2.211   5.671 -1.3480  0.0036 -1.6868
 9164SOL     OW38950   3.367   0.673   6.248 -0.5613 -0.4474 -0.4401
 9164SOL    HW138951   3.379   0.630   6.333  1.3685  0.6166 -0.1711
 9164SOL    HW238952   3.407   0.604   6.194 -0.1616  0.1448 -0.8998
 9165SOL     OW38953   0.403   4.216  13.922 -0.3569  0.0689  0.1646
 9165SOL    HW138954   0.483   4.213  13.869 -0.6462 -0.6455 -0.2361
 9165SOL    HW238955   0.376   4.124  13.921 -1.2441  0.3027  3.9064
 9166SOL     OW38956   1.054   4.334   3.625 -0.0542  0.0406  0.0551
 9166SOL    HW138957   1.008   4.405   3.669  0.9430  1.2128 -0.7801
 9166SOL    HW238958   0.984   4.283   3.586  3.4069 -3.4655 -1.6001
 9167SOL     OW38959   3.922   1.348   4.586  0.4226  0.6464 -0.3481
 9167SOL    HW138960   3.840   1.392   4.607 -0.1054 -1.6197  2.2978
 9167SOL    HW238961   3.972   1.408   4.642  0.3960  0.7010 -0.3834
 9168SOL     OW38962   2.051   3.954  12.471  0.3690  0.0913 -0.0129
 9168SOL    HW138963   1.992   4.028  12.454  2.4513  1.9540  0.8135
 9168SOL    HW238964   2.083   3.991  12.553  0.5737 -0.8518  0.3192
 9169SOL     OW38965   4.379   4.473  11.544  0.2795  0.1683 -0.8492
 9169SOL    HW138966   4.427   4.440  11.621 -2.4579 -1.4027  0.2183
 9169SOL    HW238967   4.305   4.411  11.538 -0.2710  0.6141  1.2209
 9170SOL     OW38968   0.739   1.203   3.948  0.2490  0.3374 -0.2733
 9170SOL    HW138969   0.825   1.183   3.911 -1.1184 -2.5368 -1.9613
 9170SOL    HW238970   0.693   1.119   3.951  1.8082 -0.5512 -0.9742
 9171SOL     OW38971   1.727   0.821   5.723  0.0271 -0.0291 -0.5305
 9171SOL    HW138972   1.717   0.767   5.801 -2.8405 -0.4023 -1.1765
 9171SOL    HW238973   1.816   0.856   5.724  0.1797 -0.4381 -0.0113
 9172SOL     OW38974   0.784   1.013  13.093  1.1333  0.3287  0.4406
 9172SOL    HW138975   0.781   1.035  13.000 -1.4980  0.4752  0.5855
 9172SOL    HW238976   0.870   0.971  13.100  0.9390  0.1479  1.7604
 9173SOL     OW38977   4.558   0.918   4.015 -0.0355  0.5303 -0.0181
 9173SOL    HW138978   4.594   0.975   4.082 -1.3576  2.6974 -1.1373
 9173SOL    HW238979   4.489   0.974   3.979  1.0763  1.1052 -1.2302
 9174SOL     OW38980   0.699   3.880  15.187 -0.1988 -0.7354 -0.2970
 9174SOL    HW138981   0.701   3.788  15.212 -2.0179 -0.8364 -0.5757
 9174SOL    HW238982   0.631   3.894  15.121  0.3537  0.3236 -0.6479
 9175SOL     OW38983   3.921   2.127   3.286  0.1869  0.5935 -0.5431
 9175SOL    HW138984   4.013   2.147   3.305  0.2676  2.8542 -3.2457
 9175SOL    HW238985   3.883   2.211   3.311 -0.7282 -0.1474  0.5211
 9176SOL     OW38986   1.852   0.666  10.806 -0.1402 -0.7921  0.3486
 9176SOL    HW138987   1.894   0.580  10.807 -0.1836 -0.7926  2.5898
 9176SOL    HW238988   1.810   0.651  10.722  1.5326  0.7084 -0.7573
 9177SOL     OW38989   3.500   0.453  16.945  0.1896  0.4606  0.6572
 9177SOL    HW138990   3.590   0.484  16.956  0.4539 -1.0946  2.7016
 9177SOL    HW238991   3.480   0.502  16.865  0.7100  0.1974  0.3646
 9178SOL     OW38992   2.806   4.473  11.763 -0.5607 -0.1742 -0.0093
 9178SOL    HW138993   2.891   4.485  11.804 -1.2993  1.3174  1.0940
 9178SOL    HW238994   2.775   4.558  11.732 -2.0791 -0.4425  0.7467
 9179SOL     OW38995   3.313   2.912   6.572  0.1152  0.1691  0.1179
 9179SOL    HW138996   3.400   2.930   6.537  1.0023 -1.8524  1.2718
 9179SOL    HW238997   3.282   2.883   6.486 -0.0617 -0.6174  0.4479
 9180SOL     OW38998   3.736   0.063   3.349 -0.1894  0.1757  0.4637
 9180SOL    HW138999   3.812   0.110   3.313  0.2086 -0.0253  1.0352
 9180SOL    HW239000   3.681   0.136   3.377  1.4420  1.6838 -0.3146
 9181SOL     OW39001   4.399   1.555   4.962 -0.0498  0.5577  0.6205
 9181SOL    HW139002   4.428   1.528   4.875 -1.0546 -1.2277  0.8476
 9181SOL    HW239003   4.477   1.587   5.009  0.3558  0.5405 -0.0490
 9182SOL     OW39004   0.115   2.318  12.415  0.0430  0.2120 -0.5980
 9182SOL    HW139005   0.077   2.239  12.378 -1.0701  0.7995 -0.7252
 9182SOL    HW239006   0.075   2.308  12.501  0.1567 -1.1111 -0.7121
 9183SOL     OW39007   3.473   0.534   3.147  0.3212  0.3205  0.1046
 9183SOL    HW139008   3.451   0.441   3.142  0.6820  0.2832 -0.8141
 9183SOL    HW239009   3.548   0.542   3.089 -0.9325 -2.7157 -1.9370
 9184SOL     OW39010   1.601   1.433   4.114 -0.2419 -0.0480  0.4833
 9184SOL    HW139011   1.629   1.522   4.091  0.8460 -0.3039  0.8385
 9184SOL    HW239012   1.643   1.420   4.199  1.0813 -0.1538 -0.1859
 9185SOL     OW39013   4.672   3.183   6.614 -0.3819  0.1093 -0.6636
 9185SOL    HW139014   4.710   3.104   6.575  0.3280  0.5156 -0.7897
 9185SOL    HW239015   0.009   3.194   6.687  0.4440  1.1173 -1.5001
 9186SOL     OW39016   2.223   2.691   7.160 -0.2001  0.3624 -0.5254
 9186SOL    HW139017   2.270   2.651   7.233 -0.3908  3.4308  1.2462
 9186SOL    HW239018   2.296   2.709   7.101  1.2721 -0.7878  0.9572
 9187SOL     OW39019   4.076   1.236   2.278 -0.4403 -0.2409 -0.2908
 9187SOL    HW139020   4.101   1.299   2.211  0.1358  0.1568  0.2949
 9187SOL    HW239021   4.055   1.158   2.227  0.5504 -1.4612  1.1667
 9188SOL     OW39022   1.096   1.975   4.827  0.6936  0.1280  0.0747
 9188SOL    HW139023   1.088   2.070   4.834 -0.3200  0.1093 -0.9109
 9188SOL    HW239024   1.170   1.972   4.766 -1.2009 -1.0196 -2.1351
 9189SOL     OW39025   0.369   0.618  11.818 -0.0385  0.2658  0.7249
 9189SOL    HW139026   0.372   0.531  11.777 -0.2465  0.6789 -0.1881
 9189SOL    HW239027   0.283   0.621  11.860  0.2182  0.2827  1.2359
 9190SOL     OW39028   2.534   3.157   2.368  0.0324  0.1548  0.4451
 9190SOL    HW139029   2.566   3.135   2.281 -1.0219 -0.5806  0.2396
 9190SOL    HW239030   2.541   3.252   2.365  1.4427  0.1355  2.5746
 9191SOL     OW39031   1.943   3.724   8.129 -0.5249  0.7996  0.7178
 9191SOL    HW139032   1.941   3.630   8.112  1.7036  0.7926  0.4954
 9191SOL    HW239033   2.017   3.725   8.190 -0.3655 -1.8280  0.5533
 9192SOL     OW39034   4.175   4.349  15.427  0.3234  0.3454 -0.2747
 9192SOL    HW139035   4.111   4.407  15.387  1.6401  0.5457 -2.1074
 9192SOL    HW239036   4.235   4.327  15.356 -0.1827  0.6926 -0.8019
 9193SOL     OW39037   2.475   0.060   4.157 -0.0644  0.0367 -0.4706
 9193SOL    HW139038   2.489   0.107   4.075 -2.4974  0.7076 -0.5101
 9193SOL    HW239039   2.531   0.114   4.212 -0.5166  1.6010 -1.5438
 9194SOL     OW39040   2.678   0.242  10.869  0.2285 -0.0801 -0.2504
 9194SOL    HW139041   2.751   0.188  10.839 -0.3813 -0.0753 -1.7571
 9194SOL    HW239042   2.610   0.175  10.859  1.6011 -1.1766 -2.2302
 9195SOL     OW39043   0.975   3.113  16.735  1.0255  0.1510  0.0231
 9195SOL    HW139044   0.982   3.178  16.805 -1.8714  1.1943 -0.6717
 9195SOL    HW239045   0.884   3.118  16.708  0.2917 -4.0535  1.7215
 9196SOL     OW39046   4.004   0.284   0.106 -0.0464 -0.0406  0.0647
 9196SOL    HW139047   3.948   0.273   0.183 -0.3909 -0.6004 -0.2779
 9196SOL    HW239048   4.072   0.341   0.143  1.3875 -1.3013 -0.6426
 9197SOL     OW39049   0.146   3.430  14.694 -0.3223 -0.2068  0.1340
 9197SOL    HW139050   0.129   3.523  14.709 -0.5562 -0.3123  0.5128
 9197SOL    HW239051   0.221   3.418  14.752  0.8923  1.2812 -1.1393
 9198SOL     OW39052   3.012   1.552   1.417 -0.3267  0.3832  0.1639
 9198SOL    HW139053   3.022   1.647   1.413 -2.3153  0.5341 -0.8876
 9198SOL    HW239054   2.988   1.536   1.508 -0.0087 -0.4025  0.1080
 9199SOL     OW39055   3.478   1.821   6.443  0.3281 -0.6916 -0.1690
 9199SOL    HW139056   3.493   1.748   6.503 -0.5998 -1.3697 -0.7536
 9199SOL    HW239057   3.523   1.894   6.484  0.5028 -0.0085 -1.5554
 9200SOL     OW39058   0.932   0.066   3.938 -0.0763 -0.1139 -0.1125
 9200SOL    HW139059   0.851   0.067   3.989 -0.4536 -0.5539 -0.7130
 9200SOL    HW239060   0.953   0.160   3.936  1.0137 -0.3069  2.0555
 9201SOL     OW39061   1.760   2.868   2.675  0.3425  0.7290  0.4195
 9201SOL    HW139062   1.732   2.843   2.763  1.9205  2.1832  1.3441
 9201SOL    HW239063   1.720   2.954   2.658  1.3229  1.2912  0.9673
 9202SOL     OW39064   4.254   0.547   6.813  0.1631 -0.1996  0.1756
 9202SOL    HW139065   4.250   0.521   6.905 -1.1509  0.2076  0.2385
 9202SOL    HW239066   4.216   0.634   6.825  1.4078  0.4657 -0.6593
 9203SOL     OW39067   3.853   2.241   9.720 -0.1065 -0.1573  0.0091
 9203SOL    HW139068   3.807   2.210   9.642 -0.6808  2.9257 -0.8578
 9203SOL    HW239069   3.907   2.162   9.735 -1.2237 -1.4047 -2.5406
 9204SOL     OW39070   3.759   3.777  15.186 -0.1665 -0.9337  0.3292
 9204SOL    HW139071   3.686   3.817  15.139 -0.6417 -2.4234 -0.2112
 9204SOL    HW239072   3.718   3.780  15.272 -0.4798 -0.3800  0.1628
 9205SOL     OW39073   2.729   3.366  10.226  0.2720  0.4733  0.2110
 9205SOL    HW139074   2.689   3.426  10.290 -0.6895 -0.6345  0.6449
 9205SOL    HW239075   2.719   3.426  10.152 -1.9505  0.0341  0.1685
 9206SOL     OW39076   2.450   1.248   9.457 -0.4362 -0.4764  0.3736
 9206SOL    HW139077   2.510   1.214   9.524  1.7099  1.2800 -0.6904
 9206SOL    HW239078   2.373   1.191   9.463 -0.7687 -0.2643 -1.9507
 9207SOL     OW39079   3.142   0.345   1.040 -0.5034 -0.1111 -0.4566
 9207SOL    HW139080   3.125   0.384   0.954 -1.7960  1.2310  0.4096
 9207SOL    HW239081   3.235   0.324   1.032 -0.8896 -1.5783 -1.0674
 9208SOL     OW39082   0.925   0.017   8.802 -0.0307 -0.1021 -0.8146
 9208SOL    HW139083   0.936   4.651   8.773  1.4628 -0.0786 -0.3510
 9208SOL    HW239084   0.952   0.005   8.893 -0.7129 -0.5365 -0.6729
 9209SOL     OW39085   2.414   0.941   7.982  0.4344  0.7715  0.1580
 9209SOL    HW139086   2.358   0.866   7.962  2.6164 -0.0320 -2.8726
 9209SOL    HW239087   2.365   0.997   8.042  0.1733  0.8735 -0.1476
 9210SOL     OW39088   2.397   3.401   0.342  0.6540  0.1293  0.2382
 9210SOL    HW139089   2.454   3.380   0.268  0.6492  1.8825 -0.2601
 9210SOL    HW239090   2.381   3.318   0.388  2.0091 -0.7662 -0.9058
 9211SOL     OW39091   4.235   4.310   0.479  0.1430 -0.0861  0.6599
 9211SOL    HW139092   4.177   4.236   0.461 -1.5250  1.6355 -1.1009
 9211SOL    HW239093   4.170   4.363   0.524 -0.0087  0.4398 -0.1805
 9212SOL     OW39094   4.643   1.742   7.178 -0.4040  0.0519  0.1512
 9212SOL    HW139095   4.549   1.724   7.184  0.1258 -2.4557  0.7639
 9212SOL    HW239096   4.642   1.728   7.083 -2.2846  1.1480 -0.0034
 9213SOL     OW39097   1.386   0.868  14.899  0.0052  0.8314  0.0494
 9213SOL    HW139098   1.395   0.773  14.898 -0.5476  0.8232 -3.4624
 9213SOL    HW239099   1.467   0.904  14.937  0.0007 -0.1057  0.9608
 9214SOL     OW39100   2.853   1.882   6.769  0.0222 -0.1211 -0.5558
 9214SOL    HW139101   2.880   1.898   6.860 -0.2740  0.2863 -0.5419
 9214SOL    HW239102   2.917   1.818   6.739 -0.1386 -0.6218  0.1859
 9215SOL     OW39103   3.850   0.286   6.031 -0.7923  0.1760  0.0062
 9215SOL    HW139104   3.848   0.260   6.123  2.7539 -1.9431 -0.4944
 9215SOL    HW239105   3.774   0.343   6.036 -0.3017  0.6697  1.9516
 9216SOL     OW39106   0.180   3.258   5.012 -0.1794  0.5809  0.0064
 9216SOL    HW139107   0.137   3.174   4.996  0.3502  0.3858 -0.3975
 9216SOL    HW239108   0.106   3.303   5.054  0.2600  0.2834  1.0929
 9217SOL     OW39109   0.990   1.510   6.602  0.2704 -0.5711  0.0351
 9217SOL    HW139110   1.051   1.480   6.670 -1.3697 -0.0887  1.7267
 9217SOL    HW239111   1.053   1.525   6.531 -0.7297 -2.4544 -1.2546
 9218SOL     OW39112   0.536   0.175   2.702  0.0124  0.1232 -0.3341
 9218SOL    HW139113   0.509   0.130   2.782 -0.9136  0.3916 -0.5007
 9218SOL    HW239114   0.597   0.239   2.738 -0.1453  0.0973 -0.0202
 9219SOL     OW39115   2.107   2.416   3.930  0.3616 -0.2774  0.4924
 9219SOL    HW139116   2.118   2.361   3.852 -0.3758 -0.7976  0.7592
 9219SOL    HW239117   2.101   2.504   3.893  1.2617 -0.6230 -0.4627
 9220SOL     OW39118   0.888   3.844  11.735  0.2191  0.1764  0.1266
 9220SOL    HW139119   0.945   3.816  11.664 -1.2021 -2.3511 -0.0100
 9220SOL    HW239120   0.946   3.910  11.774  0.5411 -0.5916  0.9683
 9221SOL     OW39121   2.722   3.291   0.396  0.6173 -0.1373  0.6299
 9221SOL    HW139122   2.698   3.328   0.312  0.3262 -0.2521  0.6620
 9221SOL    HW239123   2.664   3.339   0.456 -1.2550 -0.4933 -0.8975
 9222SOL     OW39124   3.992   4.636   3.983 -0.2135  0.6654 -0.4627
 9222SOL    HW139125   3.953   4.723   3.990  0.8735  0.9848  1.5062
 9222SOL    HW239126   4.084   4.660   3.996 -0.1952  0.5525 -0.3824
 9223SOL     OW39127   4.383   0.281   7.695 -1.0572 -0.4877 -0.3380
 9223SOL    HW139128   4.471   0.256   7.670 -0.7058 -0.5391  0.9840
 9223SOL    HW239129   4.332   0.234   7.629  1.4861 -0.3832 -2.3534
 9224SOL     OW39130   2.163   2.085   8.071 -0.0185 -0.4061  0.5404
 9224SOL    HW139131   2.167   2.140   8.149 -1.6421 -0.5284  0.6988
 9224SOL    HW239132   2.255   2.075   8.046 -0.4881  0.6672 -1.6116
 9225SOL     OW39133   0.544   2.404   5.909 -0.0648 -0.8734  0.0088
 9225SOL    HW139134   0.521   2.331   5.851  0.5428 -2.5236  1.8335
 9225SOL    HW239135   0.619   2.368   5.956  0.2008 -0.5335 -0.1612
 9226SOL     OW39136   3.236   3.600   7.451 -0.4435  0.1146  0.2013
 9226SOL    HW139137   3.145   3.616   7.475 -1.0071 -1.2873 -0.9534
 9226SOL    HW239138   3.270   3.658   7.519  0.0421 -2.2699  1.9794
 9227SOL     OW39139   2.403   0.895   7.498 -0.2220 -0.2042 -0.0024
 9227SOL    HW139140   2.390   0.955   7.425  1.7204  0.1705 -0.0472
 9227SOL    HW239141   2.498   0.899   7.509 -0.1862 -2.1579  0.2842
 9228SOL     OW39142   1.027   4.585   7.558  0.1235  0.2781 -0.3884
 9228SOL    HW139143   1.080   4.601   7.636 -1.8530  1.7768  0.6368
 9228SOL    HW239144   0.984   4.670   7.549 -0.9425 -0.1350  0.9572
 9229SOL     OW39145   1.302   2.246   3.736  0.2593  0.0936  0.5160
 9229SOL    HW139146   1.304   2.300   3.657 -0.1033  1.0562  1.1773
 9229SOL    HW239147   1.320   2.314   3.800 -1.0303  0.0135  0.9562
 9230SOL     OW39148   1.219   2.544   6.931 -0.0139  0.1004 -0.3506
 9230SOL    HW139149   1.200   2.461   6.976 -2.5856  1.2524  0.7151
 9230SOL    HW239150   1.136   2.562   6.887  0.0070 -0.4982 -0.6428
 9231SOL     OW39151   1.325   2.463   9.924  0.2565  0.2078  0.1749
 9231SOL    HW139152   1.338   2.542   9.871  3.0032  0.4705  1.2610
 9231SOL    HW239153   1.371   2.390   9.884  0.8277  1.1991 -0.9422
 9232SOL     OW39154   1.884   3.825   6.074 -0.4039 -0.0656 -0.3771
 9232SOL    HW139155   1.968   3.801   6.036  0.1291 -0.6298  1.1337
 9232SOL    HW239156   1.868   3.741   6.118  1.5014  0.0579  0.5751
 9233SOL     OW39157   0.320   1.897   7.657  0.7994  0.0323 -0.7519
 9233SOL    HW139158   0.354   1.967   7.712 -4.0822  2.1379 -0.4235
 9233SOL    HW239159   0.269   1.860   7.729 -0.5338  0.8668 -1.2746
 9234SOL     OW39160   2.791   2.177   8.000 -0.3221  0.3386  0.2445
 9234SOL    HW139161   2.839   2.182   8.083  0.4731  0.1411 -0.2087
 9234SOL    HW239162   2.754   2.264   7.985 -2.4526 -0.4951  0.7235
 9235SOL     OW39163   1.654   1.879   3.606  0.6531  0.1761 -0.2847
 9235SOL    HW139164   1.613   1.935   3.540  1.7157  2.4551  1.0033
 9235SOL    HW239165   1.709   1.940   3.656  2.3079 -1.0010 -0.6825
 9236SOL     OW39166   2.248   3.116  15.183  0.4709  0.2262 -0.9391
 9236SOL    HW139167   2.280   3.199  15.218  0.4791 -1.0704  2.1191
 9236SOL    HW239168   2.317   3.054  15.207 -0.6819 -0.2981  0.9686
 9237SOL     OW39169   1.119   1.916   6.340 -0.1004 -0.1736  0.0532
 9237SOL    HW139170   1.134   1.832   6.384  2.8386  0.3455 -0.0037
 9237SOL    HW239171   1.032   1.942   6.370 -1.5594 -1.0796 -3.4013
 9238SOL     OW39172   4.455   2.934  16.614 -0.5110  0.1676 -0.3331
 9238SOL    HW139173   4.542   2.910  16.582 -0.0330  0.2547  0.9118
 9238SOL    HW239174   4.454   3.022  16.577  2.4133  0.7038  0.8932
 9239SOL     OW39175   2.483   0.822   4.496  0.0173  0.1277  0.2613
 9239SOL    HW139176   2.396   0.851   4.525  0.1098 -0.1641  0.8285
 9239SOL    HW239177   2.530   0.905   4.492 -2.0425  1.1668 -1.7632
 9240SOL     OW39178   1.390   2.086   2.823  0.5743  0.1791  0.0617
 9240SOL    HW139179   1.477   2.057   2.848  0.4518 -0.3149 -0.0913
 9240SOL    HW239180   1.362   2.125   2.906  0.2413 -1.6441  0.8133
 9241SOL     OW39181   2.004   1.687   8.045  0.3732 -0.4705 -0.1814
 9241SOL    HW139182   2.083   1.657   8.090  0.4454  0.7996  0.5334
 9241SOL    HW239183   2.012   1.627   7.971  1.6626  0.2634 -0.6301
 9242SOL     OW39184   0.546   0.903   0.771  0.3252  0.2301  0.2868
 9242SOL    HW139185   0.480   0.928   0.706  0.3201 -1.3785 -0.3358
 9242SOL    HW239186   0.599   0.983   0.769  2.2783 -1.0426  0.9759
 9243SOL     OW39187   0.750   0.729   2.429  0.3035  0.0095 -0.4611
 9243SOL    HW139188   0.782   0.807   2.384 -1.3990 -0.6822 -2.8692
 9243SOL    HW239189   0.810   0.658   2.406  0.6152  0.0240  0.3259
 9244SOL     OW39190   2.872   3.197   2.659 -0.7829 -0.0704 -0.5495
 9244SOL    HW139191   2.833   3.284   2.662  0.3226  0.3962  0.5838
 9244SOL    HW239192   2.903   3.195   2.749 -2.3724 -1.1374 -0.0194
 9245SOL     OW39193   1.308   1.233   8.993  0.3502 -0.3124 -0.8383
 9245SOL    HW139194   1.218   1.234   9.027  0.1861  0.8643 -1.3022
 9245SOL    HW239195   1.322   1.139   8.979  1.7143 -0.3400  0.7974
 9246SOL     OW39196   1.878   3.124   4.959 -0.0050  0.2678  0.2605
 9246SOL    HW139197   1.813   3.064   4.923 -0.2303  0.6185  0.0863
 9246SOL    HW239198   1.953   3.066   4.941 -0.6727 -1.1442  2.0093
 9247SOL     OW39199   3.942   4.717   8.056 -0.0947  0.0682  0.2613
 9247SOL    HW139200   3.993   4.661   8.114 -0.9694 -1.4251 -0.3919
 9247SOL    HW239201   4.019   0.040   8.024  0.1549  0.2890  1.1755
 9248SOL     OW39202   1.127   3.580   1.326  0.2116  0.1069 -0.1912
 9248SOL    HW139203   1.160   3.659   1.367 -1.0140  0.1521  0.7292
 9248SOL    HW239204   1.160   3.511   1.384 -0.6935 -1.1677 -1.1888
 9249SOL     OW39205   4.087   4.209   6.324 -0.0748  0.1249  0.1939
 9249SOL    HW139206   4.020   4.277   6.318  1.9918  2.3021  1.7259
 9249SOL    HW239207   4.125   4.226   6.410  0.0049 -2.2308  0.6206
 9250SOL     OW39208   2.616   1.343  14.987 -0.4240  0.3847  0.4382
 9250SOL    HW139209   2.635   1.255  14.956 -0.4527  0.7268 -0.5510
 9250SOL    HW239210   2.593   1.383  14.903 -2.1262 -1.6558 -0.0639
 9251SOL     OW39211   2.003   4.491   2.443 -0.4275 -0.0434  0.3272
 9251SOL    HW139212   1.932   4.507   2.380 -0.8330  1.0214  1.0539
 9251SOL    HW239213   2.009   4.396   2.439  0.8897  0.1093 -1.6803
 9252SOL     OW39214   0.445   0.912   7.140 -0.4789 -0.0347 -0.6504
 9252SOL    HW139215   0.497   0.868   7.208 -2.1798 -0.6228  0.2750
 9252SOL    HW239216   0.483   0.998   7.158 -1.6933 -0.1306  2.4598
 9253SOL     OW39217   3.189   4.414   6.446  0.3207  0.3858  0.3081
 9253SOL    HW139218   3.143   4.448   6.523 -1.4052 -2.0613  0.3421
 9253SOL    HW239219   3.111   4.391   6.396 -0.5636 -1.3711  2.4852
 9254SOL     OW39220   0.522   1.837   8.478  0.2614  0.3228  0.3746
 9254SOL    HW139221   0.486   1.789   8.403  3.5246 -3.1759  1.0406
 9254SOL    HW239222   0.499   1.926   8.453 -1.3517 -0.0788  0.4274
 9255SOL     OW39223   1.258   0.525  10.756  0.4742  0.0621  0.2170
 9255SOL    HW139224   1.287   0.584  10.686  1.4613 -0.7442 -0.0433
 9255SOL    HW239225   1.335   0.472  10.774 -0.8833 -1.9586 -0.0184
 9256SOL     OW39226   1.381   2.404   3.947 -0.0439 -0.3026 -0.1971
 9256SOL    HW139227   1.384   2.500   3.952  0.2995 -0.2658 -1.0881
 9256SOL    HW239228   1.476   2.396   3.944 -0.1860 -1.9449 -0.4863
 9257SOL     OW39229   2.266   0.252   7.883 -0.1546 -0.4768  0.2574
 9257SOL    HW139230   2.216   0.223   7.806  1.0118  1.3839 -1.2049
 9257SOL    HW239231   2.338   0.190   7.871  0.1803 -0.0775  0.2059
 9258SOL     OW39232   4.199   1.997   7.843 -0.3009  0.0417 -0.2028
 9258SOL    HW139233   4.190   2.021   7.935  1.1126  0.6161 -0.2173
 9258SOL    HW239234   4.164   1.908   7.843 -1.6819  0.5836 -2.3546
 9259SOL     OW39235   3.394   1.430   7.297 -0.6565  0.0724 -0.1075
 9259SOL    HW139236   3.333   1.486   7.345 -1.5424 -0.7239 -0.3171
 9259SOL    HW239237   3.459   1.496   7.272 -3.2902  2.6832 -0.0771
 9260SOL     OW39238   2.459   1.435   2.533 -0.2952 -0.2969  0.3487
 9260SOL    HW139239   2.439   1.459   2.623 -0.4301  0.3289  0.1564
 9260SOL    HW239240   2.426   1.513   2.488 -0.6706 -0.4600  0.3463
 9261SOL     OW39241   3.047   4.203   3.477 -0.1766  0.4814  0.4194
 9261SOL    HW139242   3.008   4.272   3.530  0.5782  0.3837  1.1167
 9261SOL    HW239243   3.005   4.219   3.393 -1.9151 -2.4779  0.7295
 9262SOL     OW39244   2.673   3.207   4.236 -0.1121 -0.1420 -0.1273
 9262SOL    HW139245   2.721   3.234   4.314 -0.6219 -0.0295  0.1482
 9262SOL    HW239246   2.587   3.177   4.266 -0.3348 -1.0103 -1.6561
 9263SOL     OW39247   2.679   1.581   1.516  0.0985  0.7642 -0.0364
 9263SOL    HW139248   2.774   1.576   1.515  0.0312 -1.1107  2.4582
 9263SOL    HW239249   2.659   1.522   1.589  1.5559  0.9539  0.5064
 9264SOL     OW39250   0.636   0.593  11.724 -0.5011  0.1379 -0.0712
 9264SOL    HW139251   0.658   0.591  11.817  0.4552  0.9026 -0.2820
 9264SOL    HW239252   0.543   0.616  11.730 -0.9083 -1.1028 -1.6758
 9265SOL     OW39253   0.426   1.357   5.072 -0.6028 -0.0595  0.2621
 9265SOL    HW139254   0.443   1.400   5.156 -0.3249  0.6243 -0.1499
 9265SOL    HW239255   0.491   1.288   5.082  1.9003  2.3764  0.9897
 9266SOL     OW39256   4.723   1.823   4.095 -0.8433 -0.1714  0.3019
 9266SOL    HW139257   0.042   1.864   4.020  0.9033  1.5661  2.2498
 9266SOL    HW239258   0.060   1.753   4.116  1.9259  2.3013  0.5576
 9267SOL     OW39259   2.416   1.780   2.594  0.4940 -0.0323  0.4032
 9267SOL    HW139260   2.475   1.837   2.544  0.5758 -0.3236  0.1596
 9267SOL    HW239261   2.378   1.724   2.526  0.0529  0.4730  0.2415
 9268SOL     OW39262   0.499   2.274   4.926 -0.2791  0.4880  0.5519
 9268SOL    HW139263   0.557   2.218   4.874 -0.4584 -0.5845  1.5196
 9268SOL    HW239264   0.535   2.261   5.014  0.0852  1.2764  0.5217
 9269SOL     OW39265   3.346   3.387  15.666 -0.2461  0.2809  0.6864
 9269SOL    HW139266   3.363   3.465  15.613 -0.4292  0.8193  1.4211
 9269SOL    HW239267   3.253   3.399  15.683 -0.4670 -0.9948  0.3373
 9270SOL     OW39268   0.485   4.327   7.249  0.0148 -0.0304 -0.0046
 9270SOL    HW139269   0.540   4.379   7.308  3.1319 -1.1398 -1.9349
 9270SOL    HW239270   0.549   4.283   7.194  2.9109  3.0133  0.9388
 9271SOL     OW39271   1.595   0.024   4.118  0.5676 -0.2897  0.4765
 9271SOL    HW139272   1.575   4.663   4.157  0.7569  0.5102  2.3201
 9271SOL    HW239273   1.531   0.080   4.162 -0.8278 -1.9415  0.5506
 9272SOL     OW39274   2.810   0.465  14.581 -0.4091 -0.7327 -0.3034
 9272SOL    HW139275   2.879   0.504  14.527  0.7165  0.7208  2.1869
 9272SOL    HW239276   2.757   0.540  14.608 -0.1840  0.3958 -2.9847
 9273SOL     OW39277   1.206   3.058   8.536  0.3394 -0.1413  0.1130
 9273SOL    HW139278   1.239   2.979   8.495 -1.2413 -0.9294  0.3614
 9273SOL    HW239279   1.118   3.023   8.553 -0.7381  1.3611 -2.2615
 9274SOL     OW39280   0.128   0.638  16.875  0.1566 -0.0187  0.4906
 9274SOL    HW139281   0.189   0.711  16.866 -1.7217  1.2608 -1.7694
 9274SOL    HW239282   0.059   0.683  16.924 -0.9724  0.5127 -1.6051
 9275SOL     OW39283   3.257   2.168   0.705 -0.0694  0.0290 -0.1299
 9275SOL    HW139284   3.164   2.165   0.683  0.0046 -1.7839 -0.2080
 9275SOL    HW239285   3.266   2.263   0.709  1.4121  0.0194 -3.2290
 9276SOL     OW39286   2.820   4.249   5.810  0.1173  0.5511  0.4145
 9276SOL    HW139287   2.882   4.279   5.743 -0.3698  1.0034  0.1693
 9276SOL    HW239288   2.751   4.205   5.760 -0.2582  1.0791  0.4678
 9277SOL     OW39289   2.988   3.620   1.414 -0.0024  0.1866  0.0662
 9277SOL    HW139290   2.937   3.691   1.376 -0.2927  0.8758  1.7442
 9277SOL    HW239291   2.959   3.611   1.505 -2.8051 -0.9245 -0.9314
 9278SOL     OW39292   4.116   3.428   0.848 -0.4024  0.0849 -0.0184
 9278SOL    HW139293   4.042   3.486   0.836  0.9411  1.6819 -0.5156
 9278SOL    HW239294   4.134   3.425   0.942 -0.8282  1.6103  0.1037
 9279SOL     OW39295   1.448   2.346   2.222  0.3959 -0.3871 -0.0969
 9279SOL    HW139296   1.495   2.344   2.306  2.1573 -2.8845 -1.1173
 9279SOL    HW239297   1.372   2.293   2.246 -0.8375  0.1358 -2.8103
 9280SOL     OW39298   3.721   0.446  17.581  1.1240 -0.1816 -0.5180
 9280SOL    HW139299   3.655   0.484  17.639  2.1476  2.8560 -1.3189
 9280SOL    HW239300   3.663   0.394  17.525 -0.1845  2.2249 -1.4087
 9281SOL     OW39301   1.194   0.406   0.981 -0.0550  0.0641  0.1676
 9281SOL    HW139302   1.244   0.331   0.949  0.4989  0.7249 -0.5180
 9281SOL    HW239303   1.267   0.463   1.005 -0.7121 -0.7109  3.8985
 9282SOL     OW39304   4.251   2.480   6.193  0.0538 -0.6993 -0.4817
 9282SOL    HW139305   4.345   2.492   6.187  0.3677 -2.1995  1.2657
 9282SOL    HW239306   4.251   2.462   6.287  2.7108 -4.2531 -1.1762
 9283SOL     OW39307   2.230   2.721   8.660  0.3668  0.4991 -0.1223
 9283SOL    HW139308   2.238   2.699   8.753  1.0852 -0.5543 -0.4292
 9283SOL    HW239309   2.176   2.647   8.630  2.8466 -1.7315  0.8979
 9284SOL     OW39310   2.738   0.740  16.153 -0.0210 -0.0374 -0.5880
 9284SOL    HW139311   2.707   0.810  16.096  0.6388 -1.1587 -2.3173
 9284SOL    HW239312   2.668   0.741  16.218  0.0369 -1.2021 -0.5067
 9285SOL     OW39313   1.394   4.532   3.221 -0.3653  0.2058 -0.1367
 9285SOL    HW139314   1.332   4.494   3.282 -0.0164 -0.5670 -0.2709
 9285SOL    HW239315   1.383   4.467   3.152  0.2855  2.0161 -1.9380
 9286SOL     OW39316   2.172   3.093   0.640 -0.0833 -0.0944 -0.2746
 9286SOL    HW139317   2.104   3.025   0.645 -0.1166  0.0002  0.4726
 9286SOL    HW239318   2.230   3.077   0.715 -1.0612 -1.4366  0.2075
 9287SOL     OW39319   2.866   2.300   6.976 -0.0328  0.3122  0.1274
 9287SOL    HW139320   2.809   2.299   7.053  0.1293  0.7648  0.2536
 9287SOL    HW239321   2.850   2.391   6.950  1.9925  1.2451  2.1431
 9288SOL     OW39322   2.841   3.522   6.277  0.3644 -0.2773 -0.2754
 9288SOL    HW139323   2.844   3.426   6.272  0.0092 -0.2944 -0.1840
 9288SOL    HW239324   2.748   3.543   6.275 -0.5681 -4.4294  0.3891
 9289SOL     OW39325   1.363   0.363   8.024  0.5612 -0.0885 -0.6010
 9289SOL    HW139326   1.395   0.305   7.955  0.4611  0.5215 -1.1532
 9289SOL    HW239327   1.406   0.321   8.099 -1.0593  0.3131  0.5592
 9290SOL     OW39328   0.305   1.163   6.698 -0.1155 -0.2436  0.1698
 9290SOL    HW139329   0.299   1.177   6.792 -1.5361 -0.4500  0.1080
 9290SOL    HW239330   0.365   1.235   6.677 -1.8505  0.5534 -2.0830
 9291SOL     OW39331   4.547   2.180   4.138  0.5858 -0.1652 -0.2010
 9291SOL    HW139332   4.558   2.175   4.043 -1.8051 -0.9123 -0.4648
 9291SOL    HW239333   4.635   2.200   4.169  0.1961  3.8907 -1.7646
 9292SOL     OW39334   3.828   4.713   3.047  0.2616  0.1759 -0.0699
 9292SOL    HW139335   3.842   0.031   3.132 -1.1824  0.3025  0.1066
 9292SOL    HW239336   3.897   0.035   2.999  1.1495 -0.8965  0.1716
 9293SOL     OW39337   3.239   2.061   2.241  0.3848 -0.0377  0.8128
 9293SOL    HW139338   3.230   1.966   2.245  0.1763 -0.1517 -2.1208
 9293SOL    HW239339   3.266   2.095   2.326 -1.8399  1.8103  0.7906
 9294SOL     OW39340   1.937   2.578   2.167  0.4720 -0.2442 -0.0391
 9294SOL    HW139341   2.012   2.629   2.198  0.2589  0.3329 -0.4766
 9294SOL    HW239342   1.907   2.546   2.252 -1.8933  0.9001 -0.4556
 9295SOL     OW39343   3.974   3.392   2.189  0.4214 -0.3432 -0.4213
 9295SOL    HW139344   3.995   3.369   2.098  2.1622 -0.0595 -0.0957
 9295SOL    HW239345   3.954   3.307   2.227  2.5147 -0.9031 -0.5845
 9296SOL     OW39346   0.789   0.396   1.232  0.2408  0.2252 -0.3671
 9296SOL    HW139347   0.725   0.327   1.245  0.1511  0.1921 -0.9826
 9296SOL    HW239348   0.738   0.477   1.231  1.2061  0.8546  1.3704
 9297SOL     OW39349   3.854   4.170  10.716  0.1390  0.7320 -0.5649
 9297SOL    HW139350   3.782   4.161  10.653  0.8703  1.3581 -1.4917
 9297SOL    HW239351   3.830   4.102  10.779  4.2453 -1.1289 -1.0244
 9298SOL     OW39352   4.059   3.871   0.838  0.2842  0.5298 -0.4507
 9298SOL    HW139353   3.979   3.913   0.806  0.4966 -0.8069 -2.7374
 9298SOL    HW239354   4.045   3.781   0.809  1.3129 -0.4277  2.0485
 9299SOL     OW39355   0.362   1.036   2.597  0.1486 -0.4467  0.0833
 9299SOL    HW139356   0.384   0.987   2.517 -1.6114  0.8865 -1.2194
 9299SOL    HW239357   0.344   1.126   2.569 -1.2065 -0.7292  0.0295
 9300SOL     OW39358   1.903   0.721  17.129  0.4009 -0.0720  0.2442
 9300SOL    HW139359   1.941   0.636  17.151  1.5809  0.8396  1.6621
 9300SOL    HW239360   1.899   0.710  17.034  1.6683 -0.8073  0.2804
 9301SOL     OW39361   3.329   4.107  17.370  0.2019  0.3393 -0.2182
 9301SOL    HW139362   3.336   4.192  17.414  0.5815  1.6751 -2.8279
 9301SOL    HW239363   3.295   4.046  17.435  1.4952 -0.5630 -0.4070
 9302SOL     OW39364   1.085   2.525  14.037 -0.0942  0.9580  0.0740
 9302SOL    HW139365   1.093   2.620  14.028  3.1425  0.5555 -1.4907
 9302SOL    HW239366   1.006   2.512  14.090 -0.0441 -1.3477 -0.4211
 9303SOL     OW39367   1.316   0.777   3.021  0.2630  0.4760  0.0299
 9303SOL    HW139368   1.377   0.814   3.085 -0.6057  1.3542  0.3415
 9303SOL    HW239369   1.362   0.804   2.942  1.3564  3.2297  1.5946
 9304SOL     OW39370   0.690   2.996   1.100 -0.1868 -0.0688 -0.0706
 9304SOL    HW139371   0.757   2.929   1.085  1.1167  1.1196  0.4457
 9304SOL    HW239372   0.612   2.950   1.132  0.3345 -1.9040 -1.4641
 9305SOL     OW39373   4.372   0.356  16.148  0.1148 -0.6957 -0.2772
 9305SOL    HW139374   4.406   0.436  16.108  1.2410 -0.4680  1.1579
 9305SOL    HW239375   4.314   0.396  16.213 -1.0445 -1.5290 -0.8045
 9306SOL     OW39376   3.650   0.481   9.577 -0.4570 -0.2756 -0.2447
 9306SOL    HW139377   3.720   0.547   9.575 -0.2217 -0.4968  0.6672
 9306SOL    HW239378   3.646   0.444   9.665  0.1202  2.9887  1.1665
 9307SOL     OW39379   3.225   4.537   7.543 -0.0013 -0.2846 -0.3142
 9307SOL    HW139380   3.288   4.527   7.614 -2.1713  1.1607  1.8328
 9307SOL    HW239381   3.138   4.523   7.581 -0.1748 -0.2000 -0.6859
 9308SOL     OW39382   4.578   3.382  12.083 -0.1415  0.2123 -0.3853
 9308SOL    HW139383   4.602   3.451  12.021 -0.3451  2.9294  2.5404
 9308SOL    HW239384   4.492   3.357  12.048 -0.5546  1.8968 -0.5938
 9309SOL     OW39385   4.156   2.374   3.222  0.0870 -0.1830 -0.3438
 9309SOL    HW139386   4.091   2.395   3.155 -0.7684 -2.3288 -0.1836
 9309SOL    HW239387   4.236   2.367   3.171  0.9393  0.2699  0.9349
 9310SOL     OW39388   1.954   3.563   0.814  0.5051 -0.2053 -0.0846
 9310SOL    HW139389   1.994   3.521   0.737 -1.6074 -0.4326 -1.0620
 9310SOL    HW239390   1.944   3.487   0.871 -3.7209  0.8641  0.6021
 9311SOL     OW39391   3.351   0.113   8.882  0.2838  0.8364 -0.1720
 9311SOL    HW139392   3.312   0.029   8.858  0.2440  0.7462  0.2210
 9311SOL    HW239393   3.288   0.151   8.943  1.2404  1.2009  0.5908
 9312SOL     OW39394   1.839   0.922   0.276 -0.2210  0.0777  0.6822
 9312SOL    HW139395   1.759   0.924   0.224 -1.3942 -2.0077  2.3934
 9312SOL    HW239396   1.904   0.963   0.219  0.6525 -1.2368  0.7237
 9313SOL     OW39397   1.527   1.246   9.682 -0.5046 -0.1279 -0.0527
 9313SOL    HW139398   1.533   1.331   9.726  0.1389  0.3581 -1.0799
 9313SOL    HW239399   1.432   1.235   9.682 -0.2557 -2.2075  1.8479
 9314SOL     OW39400   1.465   1.312  17.647 -0.4900  0.6027  0.2812
 9314SOL    HW139401   1.465   1.283   0.041  3.0826 -1.3349 -0.3573
 9314SOL    HW239402   1.436   1.402  17.663  1.5828  1.3809 -0.3674
 9315SOL     OW39403   0.009   2.923   3.334 -0.3982 -0.0145 -0.0419
 9315SOL    HW139404   0.047   2.899   3.419  0.1741  0.2020 -0.2358
 9315SOL    HW239405   4.674   2.994   3.358  1.9218  2.0165 -0.2689
 9316SOL     OW39406   4.035   1.875  14.901  0.2206  0.2883 -0.0256
 9316SOL    HW139407   4.097   1.903  14.833  2.0035  0.6947  1.7589
 9316SOL    HW239408   3.968   1.939  14.877  0.8248  1.1744  0.6477
 9317SOL     OW39409   2.582   4.143   1.380  0.4441  0.3721  0.1120
 9317SOL    HW139410   2.657   4.130   1.437  0.9429 -0.6798 -0.7938
 9317SOL    HW239411   2.513   4.088   1.419 -0.9884  2.7283  0.9470
 9318SOL     OW39412   4.607   3.998   5.365  0.2995  0.8393 -0.5560
 9318SOL    HW139413   4.638   3.981   5.276 -0.8734  1.2486 -1.0421
 9318SOL    HW239414   4.586   3.908   5.388 -2.9961  1.0685 -2.6754
 9319SOL     OW39415   0.811   0.857   2.770  0.4776 -0.0357 -0.1391
 9319SOL    HW139416   0.812   0.763   2.755 -0.2443  0.3632 -2.6247
 9319SOL    HW239417   0.843   0.853   2.860  2.9761 -0.0203 -1.0450
 9320SOL     OW39418   3.828   4.591  16.703  0.8130  0.5203  0.0377
 9320SOL    HW139419   3.785   4.624  16.624 -0.1567 -0.4373  0.1677
 9320SOL    HW239420   3.906   4.549  16.668  2.0303  0.8910  2.3220
 9321SOL     OW39421   1.174   3.936  13.434 -0.0775  0.5141  0.3500
 9321SOL    HW139422   1.135   3.931  13.347  0.9053  1.4495 -0.1428
 9321SOL    HW239423   1.131   3.871  13.489  1.6296  0.5678  1.7519
 9322SOL     OW39424   2.559   3.513  10.379 -0.1121  0.5254 -0.1270
 9322SOL    HW139425   2.538   3.510  10.472 -1.3417  0.9359 -0.3933
 9322SOL    HW239426   2.605   3.597  10.378 -1.0724  1.0397 -1.5304
 9323SOL     OW39427   1.812   0.490   4.236  0.1911  0.4288 -0.4061
 9323SOL    HW139428   1.908   0.494   4.231  0.0742  2.7198 -0.5739
 9323SOL    HW239429   1.776   0.539   4.163  1.2857  1.0951 -0.5015
 9324SOL     OW39430   2.459   2.257   7.795 -0.3747 -0.1050  0.0664
 9324SOL    HW139431   2.369   2.252   7.762  0.2435 -2.3218 -1.2409
 9324SOL    HW239432   2.504   2.226   7.717 -1.6753  2.4073 -1.7145
 9325SOL     OW39433   4.328   3.860  10.647 -0.7992  0.4590 -0.1056
 9325SOL    HW139434   4.413   3.841  10.687  1.1512  1.1278 -3.9104
 9325SOL    HW239435   4.360   3.908  10.571  0.5288 -1.9846 -1.0853
 9326SOL     OW39436   3.756   2.267  11.332 -0.5833 -0.3600  0.2758
 9326SOL    HW139437   3.795   2.275  11.246 -0.2753  1.5285  0.5893
 9326SOL    HW239438   3.678   2.212  11.324 -0.7150 -0.0482 -0.5363
 9327SOL     OW39439   0.378   2.810   6.015  0.1259  0.2841  0.0567
 9327SOL    HW139440   0.382   2.734   5.957  0.9758  1.2547 -1.1484
 9327SOL    HW239441   0.428   2.868   5.958 -0.1303  0.1332 -0.3219
 9328SOL     OW39442   2.573   1.660   7.662  0.4128  0.3753 -0.0630
 9328SOL    HW139443   2.551   1.665   7.755 -1.1709 -0.5842 -0.3887
 9328SOL    HW239444   2.651   1.715   7.662  1.8987 -1.7289 -0.2635
 9329SOL     OW39445   3.116   4.198   6.944  0.0014 -0.3190  0.1235
 9329SOL    HW139446   3.062   4.206   6.866 -0.5619 -0.9062  0.4475
 9329SOL    HW239447   3.090   4.116   6.986  0.2303 -1.1081 -1.2642
 9330SOL     OW39448   1.894   0.485   7.629 -0.0697  0.2451  0.0371
 9330SOL    HW139449   1.889   0.569   7.584  1.5865  0.2275 -0.1769
 9330SOL    HW239450   1.975   0.498   7.678 -0.1875  0.7481  0.0895
 9331SOL     OW39451   3.363   2.067   9.583  0.3630 -0.3036 -0.1686
 9331SOL    HW139452   3.281   2.062   9.632  0.8751 -0.2766  0.6860
 9331SOL    HW239453   3.416   1.995   9.615 -0.0700 -0.2510  0.6747
 9332SOL     OW39454   4.426   4.135   8.618  0.4056 -0.2577  0.1895
 9332SOL    HW139455   4.354   4.146   8.556 -0.5855 -0.6874  1.2735
 9332SOL    HW239456   4.374   4.155   8.696  0.3887  0.5810 -0.0335
 9333SOL     OW39457   2.313   1.456   2.795  0.4657  0.1446  0.0200
 9333SOL    HW139458   2.261   1.525   2.837  3.1278  1.0430  1.8263
 9333SOL    HW239459   2.268   1.382   2.837  0.6268  0.1569  0.2160
 9334SOL     OW39460   0.864   2.206   7.388 -0.3653 -0.0664 -0.2895
 9334SOL    HW139461   0.793   2.259   7.352 -1.0971 -0.8068  0.0617
 9334SOL    HW239462   0.916   2.280   7.421 -0.9693  0.2173  0.0179
 9335SOL     OW39463   1.908   1.272   7.012  0.0268 -1.0559  0.2259
 9335SOL    HW139464   1.934   1.244   7.100 -1.2016 -2.5856  0.1000
 9335SOL    HW239465   1.964   1.217   6.956  0.3561 -1.0978  0.5906
 9336SOL     OW39466   2.353   1.026   9.143  0.3443 -0.3491  0.3564
 9336SOL    HW139467   2.416   0.998   9.209 -0.4765 -0.6957  0.9964
 9336SOL    HW239468   2.302   0.947   9.124 -1.1864  0.5861  0.6024
 9337SOL     OW39469   1.333   1.198   7.117  0.6051 -0.2366 -0.0977
 9337SOL    HW139470   1.422   1.231   7.120 -0.1050  1.4494  2.4371
 9337SOL    HW239471   1.318   1.203   7.212  1.2489  1.5601 -0.0976
 9338SOL     OW39472   1.113   0.471   3.450 -0.2423  0.5649  0.4890
 9338SOL    HW139473   1.049   0.410   3.414 -0.4778  0.9449  0.2571
 9338SOL    HW239474   1.193   0.429   3.419  0.7750  1.7813  1.4547
 9339SOL     OW39475   4.077   4.218   3.986 -1.2883 -0.1776  0.8426
 9339SOL    HW139476   4.017   4.144   3.986 -0.2632 -1.0133  1.0281
 9339SOL    HW239477   4.045   4.263   3.907  1.2950 -0.6674 -0.4821
 9340SOL     OW39478   2.770   2.564  13.426  0.0634 -0.8110  0.3647
 9340SOL    HW139479   2.721   2.535  13.349 -1.0241  0.5319  0.5411
 9340SOL    HW239480   2.844   2.503  13.433  0.8728  0.1095 -0.2402
 9341SOL     OW39481   1.567   3.724   2.934  0.5375 -0.2675  0.2407
 9341SOL    HW139482   1.626   3.672   2.990  1.3946 -1.4137 -1.7267
 9341SOL    HW239483   1.597   3.811   2.963  0.5277 -1.3320  3.4921
 9342SOL     OW39484   3.963   1.244   4.349 -0.3019 -0.6204 -0.0669
 9342SOL    HW139485   3.967   1.280   4.438 -0.3427 -1.7551  0.3852
 9342SOL    HW239486   3.870   1.254   4.328 -0.4884 -0.9276  0.6164
 9343SOL     OW39487   3.386   0.190  10.530 -0.4507  0.0309 -0.5090
 9343SOL    HW139488   3.299   0.178  10.490 -1.5937  4.8736  0.5565
 9343SOL    HW239489   3.389   0.286  10.531 -1.1746  0.0107  1.7198
 9344SOL     OW39490   0.586   0.087   5.512  0.0404  0.0193  0.0257
 9344SOL    HW139491   0.629   0.003   5.496  0.6397  0.5683 -1.2310
 9344SOL    HW239492   0.653   0.155   5.509 -0.4094  0.3605 -2.0877
 9345SOL     OW39493   4.206   2.582   9.143 -0.2026  0.2423 -0.1537
 9345SOL    HW139494   4.147   2.557   9.214 -2.5860  0.4203 -2.0747
 9345SOL    HW239495   4.248   2.653   9.192 -1.6682  1.3974 -0.5764
 9346SOL     OW39496   0.367   0.308   5.485 -0.1868 -0.8622 -0.6752
 9346SOL    HW139497   0.408   0.338   5.566 -0.1446  1.4822 -1.5726
 9346SOL    HW239498   0.347   0.397   5.455 -0.0262 -0.7164 -0.3412
 9347SOL     OW39499   3.477   3.124  16.837 -0.1526 -0.4739 -0.3120
 9347SOL    HW139500   3.547   3.059  16.841  1.4192  1.2182 -0.2565
 9347SOL    HW239501   3.408   3.063  16.860 -2.6910  1.5624 -2.4672
 9348SOL     OW39502   3.648   0.769   6.030 -0.3310 -0.2264  0.2375
 9348SOL    HW139503   3.647   0.679   6.062 -1.5849 -1.0656 -2.1590
 9348SOL    HW239504   3.738   0.799   6.014 -0.2462  0.6568  2.3683
 9349SOL     OW39505   1.751   1.974   7.035 -0.2109  0.1075  0.3327
 9349SOL    HW139506   1.826   2.027   7.062  0.9329 -0.4205 -1.8177
 9349SOL    HW239507   1.691   2.048   7.022  0.4564  0.8795  1.6672
 9350SOL     OW39508   3.638   3.874   6.655  0.0123 -0.3158  0.1554
 9350SOL    HW139509   3.583   3.894   6.731  0.1778 -1.1233  0.4876
 9350SOL    HW239510   3.575   3.811   6.620 -0.2511 -0.3790  0.7502
 9351SOL     OW39511   1.148   0.040   3.161 -0.4081  0.3775  0.1570
 9351SOL    HW139512   1.061   0.030   3.199 -0.6721  0.1805 -0.5050
 9351SOL    HW239513   1.137   4.691   3.100  3.8717 -0.0674 -0.0811
 9352SOL     OW39514   3.730   3.843   7.389  0.3812 -0.3261 -0.1945
 9352SOL    HW139515   3.744   3.904   7.316  1.2045 -2.0296 -1.4565
 9352SOL    HW239516   3.734   3.895   7.469  0.9949 -1.2802  0.3974
 9353SOL     OW39517   0.664   3.125  11.298  0.2824 -0.5918 -0.3867
 9353SOL    HW139518   0.695   3.090  11.215 -0.7765  1.6912 -1.7362
 9353SOL    HW239519   0.577   3.087  11.302  0.0919 -0.1481 -0.3259
 9354SOL     OW39520   0.055   3.165   2.480 -0.1979  0.0837 -0.2731
 9354SOL    HW139521   0.121   3.096   2.476  0.0965  0.3072  0.9077
 9354SOL    HW239522   4.718   3.124   2.541  0.9972 -1.3267 -0.0407
 9355SOL     OW39523   0.919   1.861  10.539  0.4217 -0.0390  0.6586
 9355SOL    HW139524   0.897   1.804  10.464  0.3369 -1.3626  1.6834
 9355SOL    HW239525   0.976   1.803  10.590  0.8397  0.4857  0.7783
 9356SOL     OW39526   2.742   1.229  12.042 -0.3574 -0.6324 -0.5436
 9356SOL    HW139527   2.767   1.283  11.967  0.6465 -1.2600 -0.6689
 9356SOL    HW239528   2.723   1.144  12.003  0.1335 -1.0313  0.0742
 9357SOL     OW39529   1.362   2.900   1.303  0.1447 -0.3887  0.6167
 9357SOL    HW139530   1.335   2.827   1.246 -0.6459 -0.8178  1.5381
 9357SOL    HW239531   1.285   2.913   1.358  2.0201  2.0338  2.6164
 9358SOL     OW39532   2.015   2.587  12.360 -0.2879 -0.1985 -0.2446
 9358SOL    HW139533   2.024   2.662  12.301 -0.2501 -0.4344 -0.5350
 9358SOL    HW239534   1.954   2.520  12.331  0.3871 -0.3931 -1.2000
 9359SOL     OW39535   3.696   3.791   5.885 -0.1405 -0.2896 -0.1163
 9359SOL    HW139536   3.737   3.774   5.970  1.1836 -1.5053 -0.9905
 9359SOL    HW239537   3.691   3.885   5.901 -0.1545 -0.3344  0.1401
 9360SOL     OW39538   1.558   4.516   4.254 -0.2099  0.0814 -0.5603
 9360SOL    HW139539   1.462   4.509   4.249 -0.2126 -2.8110  3.2578
 9360SOL    HW239540   1.589   4.442   4.202 -0.7280 -1.2896  1.0699
 9361SOL     OW39541   0.726   1.996   4.287 -0.5687 -0.0746  0.1511
 9361SOL    HW139542   0.766   1.910   4.283 -0.5556 -0.1758  2.1791
 9361SOL    HW239543   0.750   2.029   4.201 -1.0725 -2.2894 -0.8382
 9362SOL     OW39544   4.425   2.646  15.519 -0.1649 -0.2651 -0.1067
 9362SOL    HW139545   4.429   2.552  15.533  0.3520 -0.3425 -0.7855
 9362SOL    HW239546   4.372   2.667  15.596 -0.0895 -0.3417 -0.0349
 9363SOL     OW39547   2.078   1.308   0.962  0.0960 -0.1222  0.2678
 9363SOL    HW139548   2.070   1.240   0.895 -1.7790 -0.5117  0.8917
 9363SOL    HW239549   2.164   1.277   0.993  0.4991  1.7053  0.9991
 9364SOL     OW39550   1.940   1.000   1.616 -0.0105 -0.1866 -0.0329
 9364SOL    HW139551   2.032   1.026   1.617 -0.3365  0.9657 -0.1504
 9364SOL    HW239552   1.948   0.919   1.566  0.3933 -0.2496  0.1328
 9365SOL     OW39553   3.120   4.209   2.550  0.3417  0.3523  0.0029
 9365SOL    HW139554   3.214   4.221   2.563  0.1127  0.4576  1.5994
 9365SOL    HW239555   3.089   4.292   2.585  2.5243  1.4559 -0.6554
 9366SOL     OW39556   2.816   1.038   6.040 -0.6793  0.4653  0.0704
 9366SOL    HW139557   2.875   0.982   5.989 -0.6026 -0.5380  1.2664
 9366SOL    HW239558   2.835   1.016   6.131  1.6425  0.1019 -0.4884
 9367SOL     OW39559   4.455   0.892  11.983 -0.2599  0.0926  0.0283
 9367SOL    HW139560   4.449   0.917  12.075 -1.2071  0.6442 -0.1923
 9367SOL    HW239561   4.481   0.974  11.942  1.5134 -1.2131 -1.4980
 9368SOL     OW39562   3.980   4.390   2.959 -0.2543 -0.0060 -0.5831
 9368SOL    HW139563   4.056   4.346   2.919  0.3766 -0.3624  1.0071
 9368SOL    HW239564   3.932   4.429   2.887  0.3341  2.6883  0.4602
 9369SOL     OW39565   2.269   1.709  11.390 -0.2300 -0.3455 -0.4548
 9369SOL    HW139566   2.202   1.663  11.440 -3.5990 -0.9804 -5.5336
 9369SOL    HW239567   2.210   1.773  11.351 -0.9049 -1.4022 -1.1633
 9370SOL     OW39568   4.563   0.294   1.741  0.4732  0.1755 -0.2019
 9370SOL    HW139569   4.587   0.239   1.666  0.1529 -1.2971  0.7891
 9370SOL    HW239570   4.469   0.309   1.726  0.3228 -0.8029 -0.2425
 9371SOL     OW39571   1.832   0.601  11.277 -0.5723  0.2851  0.6972
 9371SOL    HW139572   1.767   0.533  11.256 -0.2211  0.3785 -0.6408
 9371SOL    HW239573   1.828   0.654  11.198 -1.1567  0.7146  1.0158
 9372SOL     OW39574   4.702   4.013   3.631  0.1143  0.0213  0.1686
 9372SOL    HW139575   0.022   4.043   3.710 -1.8014  1.2372  0.7754
 9372SOL    HW239576   0.001   4.077   3.564 -0.8237  0.4445  0.2443
 9373SOL     OW39577   0.588   0.684   2.672  0.4373 -0.1238  0.3865
 9373SOL    HW139578   0.660   0.729   2.628 -0.7866  2.7621  1.3153
 9373SOL    HW239579   0.518   0.707   2.611  0.4847 -0.3907  0.2317
 9374SOL     OW39580   1.973   2.268   7.282 -0.3191  0.1231  0.7360
 9374SOL    HW139581   1.981   2.357   7.315  1.6469 -0.1311  0.9205
 9374SOL    HW239582   1.953   2.213   7.358  0.9891 -1.6924 -0.2334
 9375SOL     OW39583   4.397   2.125  10.362  0.5099 -0.4558 -0.1473
 9375SOL    HW139584   4.404   2.196  10.298  1.4585 -0.8010 -0.4242
 9375SOL    HW239585   4.441   2.152  10.443 -1.3694  1.2071  0.3112
 9376SOL     OW39586   2.689   2.763   1.480 -0.0948  0.1018 -0.3919
 9376SOL    HW139587   2.753   2.831   1.455  0.2877 -0.1487 -0.0893
 9376SOL    HW239588   2.750   2.694   1.505 -3.7522 -2.6719  0.8411
 9377SOL     OW39589   0.400   0.562  12.154 -0.6207 -0.4756 -0.6861
 9377SOL    HW139590   0.329   0.612  12.194 -0.7035 -1.3816  0.3068
 9377SOL    HW239591   0.376   0.470  12.168  0.1119 -0.2546  2.0646
 9378SOL     OW39592   1.310   3.082  12.971  0.1020 -1.0020  0.9541
 9378SOL    HW139593   1.401   3.091  12.942  0.1941  1.0098  1.8632
 9378SOL    HW239594   1.322   3.118  13.059  1.3800  1.5469 -0.2342
 9379SOL     OW39595   1.507   3.179   7.486 -0.4508 -0.4882 -0.0260
 9379SOL    HW139596   1.599   3.174   7.461 -0.1582 -0.3075  1.0036
 9379SOL    HW239597   1.480   3.101   7.438  0.4534 -0.4706 -0.5651
 9380SOL     OW39598   0.173   3.479   6.708 -0.0970 -0.0926 -0.4698
 9380SOL    HW139599   0.173   3.455   6.616  0.9275  0.4483 -0.6066
 9380SOL    HW239600   0.264   3.509   6.711  0.4318 -1.9367  2.2235
 9381SOL     OW39601   4.384   4.008   4.834  0.1089 -0.7351  0.9340
 9381SOL    HW139602   4.431   4.068   4.776 -1.0606 -1.0086 -0.2961
 9381SOL    HW239603   4.453   3.943   4.834  0.8559  0.0317 -2.0622
 9382SOL     OW39604   1.025   3.553   3.929  0.2495 -0.2039  0.5044
 9382SOL    HW139605   1.003   3.576   4.019 -0.4814 -1.6920  0.7128
 9382SOL    HW239606   1.052   3.461   3.939  0.6479 -0.1097  0.3074
 9383SOL     OW39607   2.624   0.922   5.195  0.3469  0.1281  0.1809
 9383SOL    HW139608   2.582   0.904   5.279  2.2334  1.1138  1.3329
 9383SOL    HW239609   2.714   0.921   5.227  0.8755  0.1413 -1.3336
 9384SOL     OW39610   4.028   0.963  15.179 -0.2196 -0.0832  0.4250
 9384SOL    HW139611   4.096   1.019  15.142  1.6951  0.5534  4.9411
 9384SOL    HW239612   4.073   0.913  15.247 -0.1532 -0.1041  0.3652
 9385SOL     OW39613   1.513   2.261  11.852  0.0539  0.7707  0.2117
 9385SOL    HW139614   1.557   2.201  11.912 -1.8819 -0.9290 -0.0230
 9385SOL    HW239615   1.539   2.346  11.888 -0.0512  1.5152 -1.4833
 9386SOL     OW39616   2.471   0.124  10.125  0.3605  0.2986  0.3668
 9386SOL    HW139617   2.438   0.035  10.135 -0.8156  0.6225 -0.6816
 9386SOL    HW239618   2.482   0.131  10.030 -0.1941 -1.9728  0.1499
 9387SOL     OW39619   2.204   2.329  13.036  0.1080 -0.3712 -0.3586
 9387SOL    HW139620   2.183   2.421  13.021 -0.6121 -0.5244 -0.3096
 9387SOL    HW239621   2.169   2.295  12.954  0.1823  1.1201 -1.0043
 9388SOL     OW39622   0.977   1.295   4.696  0.3930 -0.0440  0.1084
 9388SOL    HW139623   1.000   1.262   4.782 -1.2064 -1.3122  0.0382
 9388SOL    HW239624   0.950   1.384   4.719  2.1025  0.6936 -0.7352
 9389SOL     OW39625   1.195   4.315  15.709  0.5459  0.3692  0.7380
 9389SOL    HW139626   1.105   4.288  15.690  1.2514 -1.6151  0.3087
 9389SOL    HW239627   1.189   4.393  15.764 -0.5687 -0.5584  1.9297
 9390SOL     OW39628   3.336   2.726   2.651  0.0229  0.1957 -0.2729
 9390SOL    HW139629   3.381   2.788   2.708  1.5784 -1.6661  0.5005
 9390SOL    HW239630   3.247   2.761   2.659 -0.4428 -1.4616  2.0540
 9391SOL     OW39631   4.349   2.092   4.633 -0.1420  0.4576 -0.2161
 9391SOL    HW139632   4.278   2.081   4.569  0.9101  0.0492 -1.3036
 9391SOL    HW239633   4.335   2.017   4.691  1.9778  0.3480  0.1514
 9392SOL     OW39634   0.469   3.270   6.923 -0.4442  0.4182  0.3208
 9392SOL    HW139635   0.452   3.191   6.973  2.3129 -0.5498 -0.2533
 9392SOL    HW239636   0.404   3.328   6.963  0.8306  0.7082  1.9594
 9393SOL     OW39637   2.786   3.702   8.248 -0.2050 -0.6720  0.7476
 9393SOL    HW139638   2.768   3.608   8.250 -0.3617 -0.6697 -0.4495
 9393SOL    HW239639   2.697   3.736   8.253  0.4249  1.0130  0.4265
 9394SOL     OW39640   2.790   2.811   3.724 -0.6996 -0.8521 -0.1476
 9394SOL    HW139641   2.741   2.835   3.646  1.6973  0.6780 -1.1857
 9394SOL    HW239642   2.737   2.822   3.803  0.4590  1.9975  0.2405
 9395SOL     OW39643   3.502   2.690   7.812  0.9117  0.3216 -0.3570
 9395SOL    HW139644   3.540   2.616   7.764 -0.9751 -0.9829  0.1393
 9395SOL    HW239645   3.511   2.765   7.753 -2.0683  0.9118 -0.0881
 9396SOL     OW39646   1.716   0.772   4.842 -0.4794 -0.4725 -0.6735
 9396SOL    HW139647   1.751   0.856   4.874 -2.8205  0.2960 -0.1288
 9396SOL    HW239648   1.737   0.784   4.749  0.3812 -1.9369 -0.6570
 9397SOL     OW39649   4.345   3.532   7.760  0.3475  0.5417  0.3271
 9397SOL    HW139650   4.403   3.605   7.738  1.5431 -0.7776 -0.9105
 9397SOL    HW239651   4.279   3.565   7.821  0.5443 -2.8369  2.3778
 9398SOL     OW39652   4.538   1.453   2.692 -0.2924  0.5956  0.2166
 9398SOL    HW139653   4.625   1.456   2.653  0.3615  3.3732  1.8594
 9398SOL    HW239654   4.477   1.504   2.638  1.2218 -0.0174 -2.0399
 9399SOL     OW39655   3.170   4.376   8.339 -0.4044 -0.4708  0.7939
 9399SOL    HW139656   3.257   4.361   8.376  0.5912  1.4796 -0.7246
 9399SOL    HW239657   3.183   4.324   8.259  0.5301  3.3975 -1.5812
 9400SOL     OW39658   0.428   1.373   2.971 -0.1233 -0.1890  0.0993
 9400SOL    HW139659   0.465   1.395   3.057 -0.3906 -2.1898  0.7450
 9400SOL    HW239660   0.504   1.357   2.915  0.1024  0.2064  0.2927
 9401SOL     OW39661   2.553   2.341   2.754  0.1393 -0.6087 -0.0250
 9401SOL    HW139662   2.595   2.417   2.795 -2.8895  0.0254  1.9115
 9401SOL    HW239663   2.632   2.298   2.721  0.4187 -0.3987  0.3699
 9402SOL     OW39664   4.481   4.245   4.668 -0.3730 -0.6458  0.4153
 9402SOL    HW139665   4.527   4.328   4.682 -1.0970  0.2701 -2.7482
 9402SOL    HW239666   4.513   4.232   4.579 -0.2835  1.0694  0.2113
 9403SOL     OW39667   0.008   3.825  17.263  0.1456 -0.2940  0.0426
 9403SOL    HW139668   0.007   3.895  17.198 -0.9983 -0.2199  0.1409
 9403SOL    HW239669   4.639   3.814  17.284  0.4586 -0.1565  1.4966
 9404SOL     OW39670   2.144   3.883   7.057  0.1424  0.2933 -0.1972
 9404SOL    HW139671   2.090   3.933   6.996  1.1793  0.7081 -0.7852
 9404SOL    HW239672   2.094   3.801   7.053  0.5073  0.1514 -2.2153
 9405SOL     OW39673   3.125   0.548  15.382 -0.2112 -0.2165  0.1249
 9405SOL    HW139674   3.153   0.498  15.305 -1.4814 -0.1531 -0.3838
 9405SOL    HW239675   3.205   0.600  15.390 -0.2509 -0.0905 -0.2903
 9406SOL     OW39676   1.284   3.306   3.091  0.4286 -0.3467  0.1663
 9406SOL    HW139677   1.291   3.367   3.017  2.1811 -1.5171 -0.6417
 9406SOL    HW239678   1.377   3.301   3.114  0.1912 -2.3803  0.7106
 9407SOL     OW39679   0.121   4.024   2.864 -0.7118 -0.2441  0.1303
 9407SOL    HW139680   0.038   3.983   2.839 -1.2979  1.2283 -0.3457
 9407SOL    HW239681   0.096   4.097   2.921  0.3241  0.2000  0.0169
 9408SOL     OW39682   0.749   3.484  17.587  0.3869 -0.3216 -0.2280
 9408SOL    HW139683   0.690   3.443  17.524 -0.3740  0.4783 -0.0477
 9408SOL    HW239684   0.817   3.418  17.601  2.0776  1.6052  0.5502
 9409SOL     OW39685   1.456   3.840   8.513  0.5837  0.4269 -0.3777
 9409SOL    HW139686   1.500   3.924   8.527 -1.5222  0.9212  3.2250
 9409SOL    HW239687   1.468   3.802   8.600 -0.3086  0.9202 -0.0429
 9410SOL     OW39688   3.927   1.851   2.311  0.4597  0.4676 -0.2051
 9410SOL    HW139689   3.859   1.788   2.336  0.3027  0.4866 -0.5818
 9410SOL    HW239690   3.891   1.932   2.349  0.5668  0.4456 -0.0547
 9411SOL     OW39691   2.437   4.281   0.177 -0.3332  0.0992 -0.1676
 9411SOL    HW139692   2.459   4.259   0.268 -1.2526 -2.6654 -0.5951
 9411SOL    HW239693   2.379   4.209   0.150  0.0992  0.2779 -1.5543
 9412SOL     OW39694   2.533   0.807   3.803  0.3274  0.0132  0.6991
 9412SOL    HW139695   2.615   0.799   3.755  0.3234  0.2453  0.6526
 9412SOL    HW239696   2.558   0.859   3.879  2.8583  0.0466 -0.1580
 9413SOL     OW39697   2.090   2.592  14.643  0.3786 -0.0606  0.1815
 9413SOL    HW139698   2.081   2.608  14.549  1.0678 -0.3764  0.0624
 9413SOL    HW239699   2.068   2.681  14.670 -0.6378  0.9848 -4.1045
 9414SOL     OW39700   3.541   1.566   3.310 -0.2563 -0.1451  0.4068
 9414SOL    HW139701   3.448   1.544   3.320 -0.7762  1.9777  0.2303
 9414SOL    HW239702   3.581   1.482   3.288  1.8020  0.1378  3.0698
 9415SOL     OW39703   0.071   2.695  12.144  0.3953 -0.0624 -0.1996
 9415SOL    HW139704   0.131   2.770  12.151  0.8204 -0.6203  2.1180
 9415SOL    HW239705   0.091   2.644  12.222 -1.4751 -0.6222 -0.0703
 9416SOL     OW39706   2.584   2.622   8.365 -0.2427  0.5137 -0.4142
 9416SOL    HW139707   2.565   2.534   8.332  1.4926  0.1032 -0.3222
 9416SOL    HW239708   2.588   2.605   8.459  0.6324 -2.2314 -0.9523
 9417SOL     OW39709   0.833   2.287  15.641 -0.4580 -0.2066  0.2974
 9417SOL    HW139710   0.844   2.265  15.549 -4.7861  0.0879 -0.3014
 9417SOL    HW239711   0.829   2.198  15.676 -0.5827  0.0975  1.0728
 9418SOL     OW39712   0.590   0.672   6.177 -0.0201 -0.3711  0.0268
 9418SOL    HW139713   0.672   0.623   6.181  1.4477  2.0942  0.1791
 9418SOL    HW239714   0.538   0.621   6.239 -1.9002  1.7619  0.2185
 9419SOL     OW39715   2.080   2.274  14.742 -0.1279  0.2280  0.3040
 9419SOL    HW139716   2.115   2.211  14.679 -0.2960 -0.4219  0.8607
 9419SOL    HW239717   2.058   2.217  14.816  2.7145  0.8257  1.6291
 9420SOL     OW39718   3.420   4.601  14.769  0.0735  0.1333 -0.2540
 9420SOL    HW139719   3.384   4.573  14.685 -0.4881 -1.2717  0.4670
 9420SOL    HW239720   3.336   4.620  14.810  0.6373 -0.4370  1.1796
 9421SOL     OW39721   3.796   0.277   6.297  0.4706 -0.0015  0.5025
 9421SOL    HW139722   3.766   0.235   6.377  0.4237  2.6133  1.8551
 9421SOL    HW239723   3.798   0.366   6.331  2.4293  0.4739 -0.8343
 9422SOL     OW39724   4.011   3.365  17.186  0.1159 -0.1418 -0.0609
 9422SOL    HW139725   4.046   3.440  17.136  0.7454  0.2409  0.9742
 9422SOL    HW239726   4.048   3.382  17.272  0.0047  1.0406 -0.2418
 9423SOL     OW39727   2.372   4.186   9.062  0.1696  0.4783 -0.1260
 9423SOL    HW139728   2.399   4.202   8.972 -0.5623  1.4854 -0.1682
 9423SOL    HW239729   2.460   4.166   9.092  1.1059  1.0465 -2.4910
 9424SOL     OW39730   1.022   4.594  12.013  0.0582 -0.4910  0.2249
 9424SOL    HW139731   1.100   4.576  11.960  0.4419  0.5302  0.4542
 9424SOL    HW239732   1.045   4.517  12.066 -1.1611 -0.8746  0.1983
 9425SOL     OW39733   2.828   3.291   7.484 -0.0474 -0.0499  0.2032
 9425SOL    HW139734   2.856   3.270   7.574 -1.0336 -0.9774  0.2881
 9425SOL    HW239735   2.754   3.350   7.496 -0.0591 -0.1755  0.7881
 9426SOL     OW39736   0.830   2.774   0.467  0.3944  0.4345 -0.2783
 9426SOL    HW139737   0.866   2.863   0.467  3.4477 -0.8306  0.7872
 9426SOL    HW239738   0.742   2.797   0.435  1.9423 -1.5876 -6.0040
 9427SOL     OW39739   2.124   3.410   0.472  0.2383  0.7116  1.3945
 9427SOL    HW139740   2.131   3.502   0.497 -1.4730  0.7762  1.6373
 9427SOL    HW239741   2.054   3.394   0.535 -1.0911 -0.1413 -0.3035
 9428SOL     OW39742   4.328   3.263  11.974  0.4948  0.4460 -0.1274
 9428SOL    HW139743   4.241   3.247  12.012 -0.5374  1.5514 -2.0640
 9428SOL    HW239744   4.325   3.207  11.896  0.2401 -0.2740  0.3932
 9429SOL     OW39745   2.298   2.527  12.728 -0.1197  0.8023 -0.2504
 9429SOL    HW139746   2.367   2.591  12.709 -0.6067  0.7617 -2.1550
 9429SOL    HW239747   2.271   2.488  12.645 -2.4106  1.8627 -0.0022
 9430SOL     OW39748   2.585   4.347   5.214  0.1988  0.0644 -0.6737
 9430SOL    HW139749   2.674   4.326   5.185  1.1609 -0.7780  2.8813
 9430SOL    HW239750   2.549   4.386   5.135 -0.5574  1.9179  0.5678
 9431SOL     OW39751   4.584   0.888   5.951  0.0559  0.0594 -0.2756
 9431SOL    HW139752   4.518   0.849   6.009 -0.9401 -2.1162 -2.8640
 9431SOL    HW239753   4.633   0.811   5.923 -1.1817 -0.2663 -1.4983
 9432SOL     OW39754   0.580   0.131  13.370 -0.2322 -0.1047 -0.5040
 9432SOL    HW139755   0.634   0.071  13.319 -0.8870  1.3460 -2.9008
 9432SOL    HW239756   0.532   0.066  13.422  1.3372 -0.3613  0.6076
 9433SOL     OW39757   4.458   1.163   8.249  0.3100 -0.1387  0.4152
 9433SOL    HW139758   4.384   1.221   8.264  0.7176  0.9761 -1.8286
 9433SOL    HW239759   4.535   1.215   8.270  0.6232 -0.9074  1.1676
 9434SOL     OW39760   0.974   3.950   6.134  0.1306 -0.7311 -0.0895
 9434SOL    HW139761   0.910   4.016   6.160  0.6424 -0.1248 -0.3637
 9434SOL    HW239762   0.971   3.961   6.039 -0.9075  3.5855  0.4549
 9435SOL     OW39763   0.327   4.651  14.664 -0.3918  0.3147  0.5484
 9435SOL    HW139764   0.331   4.565  14.707 -0.4023  0.2186  0.3542
 9435SOL    HW239765   0.282   4.688  14.740 -2.1265 -0.3343 -0.1580
 9436SOL     OW39766   4.400   1.647   1.336 -0.0794 -0.8029 -0.0295
 9436SOL    HW139767   4.418   1.738   1.360  0.0143 -0.6047 -0.8360
 9436SOL    HW239768   4.345   1.647   1.258 -1.4563 -1.8179  0.9477
 9437SOL     OW39769   2.505   1.793  16.864 -0.0837 -0.1165 -0.6698
 9437SOL    HW139770   2.484   1.784  16.770 -2.4216 -2.0409  0.0184
 9437SOL    HW239771   2.576   1.856  16.864 -0.8728  0.7304  2.9863
 9438SOL     OW39772   3.550   0.245  12.416  0.4926  0.4621  0.2968
 9438SOL    HW139773   3.459   0.217  12.432  1.1037 -1.4450  0.4852
 9438SOL    HW239774   3.588   0.159  12.434 -0.6546  0.0585  0.8279
 9439SOL     OW39775   4.424   2.820   6.021  0.3408  0.2090 -0.6490
 9439SOL    HW139776   4.343   2.769   6.017  0.7869 -0.5039 -0.7440
 9439SOL    HW239777   4.437   2.829   5.926 -1.2792  0.2418 -0.8705
 9440SOL     OW39778   0.922   2.886   1.812  0.8402  0.4264 -0.3681
 9440SOL    HW139779   0.999   2.834   1.837  1.9627  1.4909 -1.5607
 9440SOL    HW239780   0.962   2.967   1.844  0.0604  0.6770 -0.0429
 9441SOL     OW39781   0.554   2.240   7.752 -0.0544 -0.6989 -0.0713
 9441SOL    HW139782   0.546   2.237   7.848  0.6733  3.6069  0.1239
 9441SOL    HW239783   0.571   2.147   7.740 -0.0734 -0.5574 -1.1299
 9442SOL     OW39784   3.980   2.348  17.467 -0.1935 -0.5665  0.3145
 9442SOL    HW139785   4.020   2.397  17.395  0.0763 -1.3491 -0.0609
 9442SOL    HW239786   3.917   2.292  17.422 -0.0644 -1.3099  1.0614
 9443SOL     OW39787   0.387   4.163  16.881 -0.4665  0.0740 -0.6232
 9443SOL    HW139788   0.448   4.162  16.954 -1.1796 -0.4852 -0.0255
 9443SOL    HW239789   0.415   4.238  16.829  1.1859 -0.6105 -0.7015
 9444SOL     OW39790   3.589   2.351   3.806  0.0904  0.2504 -0.9927
 9444SOL    HW139791   3.579   2.259   3.828  0.2403  0.6842  0.8997
 9444SOL    HW239792   3.662   2.387   3.857 -0.0462  0.3452 -0.8657
 9445SOL     OW39793   4.553   2.025  17.679  0.2876 -0.0078  0.0765
 9445SOL    HW139794   4.474   2.012   0.034  0.1253  0.3681 -0.0743
 9445SOL    HW239795   4.612   1.956   0.012 -0.3180  0.2580  1.7912
 9446SOL     OW39796   1.953   2.095   8.621 -0.1051  0.9037  0.1029
 9446SOL    HW139797   1.860   2.107   8.637  0.0298  2.8452 -0.5475
 9446SOL    HW239798   1.970   2.052   8.705  1.6032  0.7353 -0.3219
 9447SOL     OW39799   1.081   1.935   8.555 -0.4414  0.5457 -0.5475
 9447SOL    HW139800   1.079   2.027   8.583 -0.5255  0.0310  1.1167
 9447SOL    HW239801   1.171   1.908   8.569  0.0761  3.1229  1.1208
 9448SOL     OW39802   2.100   3.683   7.715 -0.0403  0.3442 -0.7226
 9448SOL    HW139803   2.032   3.711   7.654 -1.7009 -2.8590 -0.3274
 9448SOL    HW239804   2.119   3.593   7.688  0.5174 -0.1849  1.3992
 9449SOL     OW39805   4.256   0.472   0.851 -0.5564 -0.2173  0.2441
 9449SOL    HW139806   4.246   0.376   0.850  0.5041 -0.3099 -0.9124
 9449SOL    HW239807   4.239   0.493   0.760 -0.5571 -3.3248 -0.4767
 9450SOL     OW39808   1.104   4.216  13.172  0.6492 -0.4768 -0.4897
 9450SOL    HW139809   1.015   4.226  13.205  1.6729  0.1996  2.1151
 9450SOL    HW239810   1.149   4.291  13.212 -1.4866  0.1602  0.7168
 9451SOL     OW39811   3.525   0.995   1.610  0.5550 -0.4793  0.7662
 9451SOL    HW139812   3.437   0.962   1.628  0.9237 -0.9141  1.7652
 9451SOL    HW239813   3.538   1.054   1.683 -0.5751  0.7632 -0.0383
 9452SOL     OW39814   3.327   2.732   5.398  0.4722 -0.2959  0.4698
 9452SOL    HW139815   3.390   2.780   5.343  1.1620 -1.9502 -0.1936
 9452SOL    HW239816   3.240   2.761   5.372  0.9512  0.5838 -0.1948
 9453SOL     OW39817   2.862   1.185   5.789 -0.9457 -0.4819  0.4454
 9453SOL    HW139818   2.837   1.154   5.876  0.4521 -1.8103  0.3499
 9453SOL    HW239819   2.780   1.221   5.754 -0.4635  0.9361  0.7592
 9454SOL     OW39820   0.181   2.941   8.416  0.8038  0.2677 -0.3650
 9454SOL    HW139821   0.196   2.877   8.486  0.7876  0.0067 -0.6019
 9454SOL    HW239822   0.269   2.968   8.390  0.5914 -0.3573 -1.7404
 9455SOL     OW39823   3.608   1.927   2.199 -0.2367  0.0808  0.4866
 9455SOL    HW139824   3.536   1.975   2.158 -0.3462  0.1561  0.7671
 9455SOL    HW239825   3.570   1.846   2.233  1.1525 -0.4710  0.7412
 9456SOL     OW39826   1.997   0.796   8.333 -0.7583 -0.0765 -0.6095
 9456SOL    HW139827   1.913   0.763   8.302  0.1348 -1.2875 -1.7428
 9456SOL    HW239828   1.997   0.877   8.282 -0.3731  0.9057  0.9533
 9457SOL     OW39829   0.701   3.678   6.504  0.1982  0.3351  0.3370
 9457SOL    HW139830   0.742   3.696   6.419 -1.3867  0.4077 -0.4017
 9457SOL    HW239831   0.614   3.649   6.476  0.7572  0.6669 -1.7978
 9458SOL     OW39832   2.625   0.627   7.934 -0.3054  0.7183 -0.0437
 9458SOL    HW139833   2.624   0.715   7.897 -2.5774  0.5292 -0.4090
 9458SOL    HW239834   2.549   0.580   7.901  0.9760  0.4393 -2.6415
 9459SOL     OW39835   1.163   2.600  11.325  0.9426  0.1635  0.4680
 9459SOL    HW139836   1.150   2.596  11.420  2.3257  0.0007  0.6442
 9459SOL    HW239837   1.235   2.663  11.325  0.5472  0.6092  1.2818
 9460SOL     OW39838   1.875   3.259  12.656  0.1758  0.1396 -0.6307
 9460SOL    HW139839   1.848   3.254  12.564  0.3698 -0.0470 -0.6777
 9460SOL    HW239840   1.795   3.285  12.701 -0.4950  1.1643 -2.3921
 9461SOL     OW39841   3.270   0.642   5.760 -0.1178 -0.5027 -0.3154
 9461SOL    HW139842   3.306   0.592   5.833  1.1557 -0.2413 -0.7522
 9461SOL    HW239843   3.206   0.583   5.721  0.2803 -0.8075 -0.5088
 9462SOL     OW39844   3.430   0.718   3.772 -0.1519 -0.5568 -1.0851
 9462SOL    HW139845   3.469   0.729   3.685  0.3819  0.6187 -0.6833
 9462SOL    HW239846   3.387   0.634   3.755  0.0045 -0.4764 -1.8877
 9463SOL     OW39847   2.435   1.624  17.573 -0.9976 -0.2961 -0.7951
 9463SOL    HW139848   2.355   1.618  17.624 -1.4421  1.0876 -1.3328
 9463SOL    HW239849   2.492   1.549  17.594 -3.6357 -1.1905  3.1271
 9464SOL     OW39850   0.166   0.079   7.944 -0.7292  0.2299 -0.3968
 9464SOL    HW139851   0.133   0.168   7.933 -2.4500 -0.2080  1.0983
 9464SOL    HW239852   0.215   0.066   7.863 -1.5619 -2.9771 -0.3662
 9465SOL     OW39853   0.139   3.738   8.444  0.1472 -0.8746 -0.2171
 9465SOL    HW139854   0.048   3.765   8.454  0.5547  0.5378 -0.2017
 9465SOL    HW239855   0.174   3.773   8.527  0.7839  0.3190 -0.9821
 9466SOL     OW39856   3.013   1.518   6.468  0.0647  0.1818  1.0011
 9466SOL    HW139857   3.052   1.511   6.381 -1.5620  1.6561  0.1512
 9466SOL    HW239858   2.996   1.429   6.497 -1.5384  0.2236  0.1624
 9467SOL     OW39859   0.310   0.857   3.166 -0.0477 -0.9209  0.0666
 9467SOL    HW139860   0.256   0.811   3.102 -1.3808 -0.5857  0.9575
 9467SOL    HW239861   0.344   0.785   3.219  3.2743 -0.0488 -0.8415
 9468SOL     OW39862   4.184   1.159  15.079  0.1793  0.0223  0.2179
 9468SOL    HW139863   4.234   1.240  15.085 -1.5998  1.2209 -1.0972
 9468SOL    HW239864   4.174   1.156  14.983  1.2791  0.6270  0.0812
 9469SOL     OW39865   3.487   4.568   0.953 -0.8069 -0.0082 -0.0578
 9469SOL    HW139866   3.533   4.611   0.881 -1.5606 -0.5845 -0.8883
 9469SOL    HW239867   3.425   4.519   0.898 -1.9697 -0.3208  1.5552
 9470SOL     OW39868   3.241   0.750  14.659 -0.0631  0.1728 -0.0052
 9470SOL    HW139869   3.207   0.711  14.578 -0.3116  0.2665  0.0522
 9470SOL    HW239870   3.203   0.708  14.737  1.7327 -0.7723  0.3531
 9471SOL     OW39871   3.998   2.060   5.259 -0.3127 -0.4247  0.2129
 9471SOL    HW139872   3.944   2.078   5.336  0.7717 -0.6816  1.0380
 9471SOL    HW239873   4.072   2.018   5.304 -0.9636  1.1848  2.7678
 9472SOL     OW39874   0.221   0.962  13.015 -0.1202 -0.6291 -0.2539
 9472SOL    HW139875   0.161   1.004  13.077  0.3552  1.6709 -1.3582
 9472SOL    HW239876   0.304   1.009  13.029 -1.0919  0.9077  0.2963
 9473SOL     OW39877   3.791   2.417   3.343  0.0403  0.3971  0.0326
 9473SOL    HW139878   3.762   2.490   3.397 -0.5606  1.3329 -1.5654
 9473SOL    HW239879   3.717   2.365   3.373  0.5300  0.2753  1.0095
 9474SOL     OW39880   4.139   4.354   5.565  0.1661  0.0479  0.3824
 9474SOL    HW139881   4.156   4.312   5.649  2.2458 -0.0268 -0.0600
 9474SOL    HW239882   4.185   4.302   5.499  1.6304 -0.1887  1.5735
 9475SOL     OW39883   3.555   0.872   3.314  0.1117 -0.2753 -0.7372
 9475SOL    HW139884   3.498   0.949   3.304 -0.5159 -0.5714  0.5535
 9475SOL    HW239885   3.633   0.905   3.269 -0.6426  1.4183 -0.8229
 9476SOL     OW39886   0.964   4.636   5.361 -0.0017 -0.0043 -0.2823
 9476SOL    HW139887   1.058   4.648   5.349 -0.1241  2.2316  0.9870
 9476SOL    HW239888   0.948   4.602   5.272 -2.2354  1.2130 -0.3519
 9477SOL     OW39889   3.615   4.718   9.729 -0.3011 -0.2080 -0.8036
 9477SOL    HW139890   3.603   4.720   9.634  2.1491 -2.7008 -1.1494
 9477SOL    HW239891   3.708   0.013   9.732 -0.6972  1.5039  0.7285
 9478SOL     OW39892   4.513   0.232   6.132  0.0961 -0.1886 -0.6635
 9478SOL    HW139893   4.506   0.143   6.167  0.6947  0.7668  1.8876
 9478SOL    HW239894   4.517   0.290   6.208 -0.7255  0.9747 -1.5008
 9479SOL     OW39895   3.064   1.214   6.532 -0.1927 -0.0304  0.1002
 9479SOL    HW139896   3.098   1.216   6.443  1.7098 -2.6502  0.7786
 9479SOL    HW239897   3.141   1.238   6.583  0.1411 -1.0441  0.0662
 9480SOL     OW39898   3.230   1.698  11.568 -0.0580 -0.0447  0.6307
 9480SOL    HW139899   3.226   1.615  11.520 -2.5812  1.1302 -1.1631
 9480SOL    HW239900   3.291   1.680  11.639  0.6024  0.4158  0.1842
 9481SOL     OW39901   3.330   1.525   5.116  0.5032  0.0213  0.5448
 9481SOL    HW139902   3.420   1.497   5.098  0.0734 -1.3566  0.5673
 9481SOL    HW239903   3.343   1.589   5.186 -0.6531  1.0611 -0.1930
 9482SOL     OW39904   0.318   3.417   7.688  0.2703 -0.2754 -0.2698
 9482SOL    HW139905   0.332   3.505   7.724  1.0677 -0.6440  0.3066
 9482SOL    HW239906   0.224   3.431   7.677  0.4712  1.2172 -0.0497
 9483SOL     OW39907   3.433   0.820   6.798  0.1080 -0.4924  0.4040
 9483SOL    HW139908   3.406   0.894   6.851  1.1281 -0.8873  1.4838
 9483SOL    HW239909   3.373   0.834   6.725 -1.5985  1.2183  2.1699
 9484SOL     OW39910   3.949   1.003   6.780 -0.1630 -0.6648  0.1526
 9484SOL    HW139911   3.913   1.063   6.715 -1.5350  0.4933  1.9834
 9484SOL    HW239912   3.896   0.931   6.745  1.7208 -1.0439 -1.9452
 9485SOL     OW39913   0.710   3.687   8.896 -0.9056 -0.9793  0.0080
 9485SOL    HW139914   0.672   3.687   8.808 -0.2916  0.5029 -0.2570
 9485SOL    HW239915   0.676   3.773   8.922  1.4441 -0.3635  1.0005
 9486SOL     OW39916   1.124   3.355   7.871 -0.9499 -0.3073  0.4218
 9486SOL    HW139917   1.046   3.309   7.838 -0.6865 -0.8290  0.5189
 9486SOL    HW239918   1.093   3.389   7.955  1.0433  1.9344  0.2367
 9487SOL     OW39919   4.596   0.711   4.240  0.3433 -0.5736 -0.0140
 9487SOL    HW139920   4.565   0.748   4.158  1.1090 -1.7601 -0.8380
 9487SOL    HW239921   4.579   0.782   4.302 -2.0584 -0.5052 -0.7773
 9488SOL     OW39922   0.131   4.703   4.568 -0.3886  0.0091  0.8286
 9488SOL    HW139923   0.189   0.047   4.603  0.5131 -0.3504  0.0358
 9488SOL    HW239924   0.057   4.713   4.629  0.1613  1.1072  1.3241
 9489SOL     OW39925   1.196   2.817   4.756 -0.1298  0.4968  0.4585
 9489SOL    HW139926   1.105   2.795   4.773 -0.7588  2.3099 -0.5009
 9489SOL    HW239927   1.196   2.910   4.780 -2.2451  0.5177  0.3682
 9490SOL     OW39928   1.656   3.170  10.530  0.1554 -0.2466  0.1643
 9490SOL    HW139929   1.725   3.105  10.534 -0.6720 -1.2943 -2.6929
 9490SOL    HW239930   1.713   3.247  10.530  0.4580 -0.4754 -0.2969
 9491SOL     OW39931   4.095   0.503   6.226 -0.0166  0.4307 -0.3552
 9491SOL    HW139932   4.169   0.563   6.225 -1.2277  1.9152 -1.3866
 9491SOL    HW239933   4.019   0.560   6.219 -1.4928 -1.4785 -0.0719
 9492SOL     OW39934   4.499   2.932  11.682  0.0112  0.1467  0.2055
 9492SOL    HW139935   4.530   2.842  11.691 -3.2171 -0.9750  0.0406
 9492SOL    HW239936   4.582   2.976  11.665  0.6515 -0.2431  2.3683
 9493SOL     OW39937   2.906   2.613   5.057  0.4529  0.0774  0.2771
 9493SOL    HW139938   2.962   2.680   5.017  0.3716 -0.5239 -0.8551
 9493SOL    HW239939   2.832   2.606   4.995  0.9268  2.1925 -0.5309
 9494SOL     OW39940   4.008   3.751   8.612  0.1567  0.1170 -0.0053
 9494SOL    HW139941   4.068   3.678   8.626 -0.5791 -0.4200  0.3029
 9494SOL    HW239942   4.028   3.818   8.678  0.7315 -0.1886  0.1303
 9495SOL     OW39943   1.465   1.189   3.549 -0.3463  0.4838 -0.3046
 9495SOL    HW139944   1.397   1.231   3.496  0.0285  1.0952 -0.3005
 9495SOL    HW239945   1.542   1.226   3.506 -1.0226  2.3654  0.0863
 9496SOL     OW39946   3.471   0.306   6.715  0.0791  1.1783 -0.1357
 9496SOL    HW139947   3.451   0.303   6.809 -0.3443  0.0174 -0.2566
 9496SOL    HW239948   3.535   0.236   6.703  0.4530  1.7468 -1.4303
 9497SOL     OW39949   2.653   4.203   4.388 -0.1939 -0.6225 -0.0636
 9497SOL    HW139950   2.716   4.238   4.450  0.2787 -1.6134  0.0207
 9497SOL    HW239951   2.610   4.143   4.449  0.0862  0.8945  1.6366
 9498SOL     OW39952   4.038   1.292   3.721  0.2862 -0.1475  0.0483
 9498SOL    HW139953   4.006   1.381   3.737 -1.0302 -0.6999  0.5330
 9498SOL    HW239954   4.080   1.293   3.635  0.1122 -0.0025 -0.0370
 9499SOL     OW39955   1.450   3.512   9.382  0.3222 -0.8232  0.4099
 9499SOL    HW139956   1.488   3.460   9.311  2.9592  0.1957  1.0632
 9499SOL    HW239957   1.530   3.564   9.389 -1.6632  2.3270 -0.3580
 9500SOL     OW39958   2.100   0.832   1.426 -0.1462  0.0398 -0.3518
 9500SOL    HW139959   2.034   0.845   1.358 -0.3754 -0.1373 -0.1620
 9500SOL    HW239960   2.178   0.826   1.371 -2.2434  1.9416 -3.5238
 9501SOL     OW39961   2.471   3.823   2.063 -0.0375 -0.0310  0.3907
 9501SOL    HW139962   2.454   3.763   2.135 -0.9406  1.3455  1.3257
 9501SOL    HW239963   2.561   3.802   2.038  0.7309  2.2068  1.2153
 9502SOL     OW39964   1.343   2.197   5.672  0.2729 -0.0626  0.0050
 9502SOL    HW139965   1.367   2.156   5.588 -2.4488  0.6693 -1.1126
 9502SOL    HW239966   1.349   2.123   5.733  2.1980 -0.3838 -0.5639
 9503SOL     OW39967   3.408   1.028   3.582  0.4717 -0.0170  0.6120
 9503SOL    HW139968   3.458   1.081   3.645  1.1299  1.2927 -1.0082
 9503SOL    HW239969   3.331   0.995   3.628 -1.2828  0.3554 -2.0553
 9504SOL     OW39970   2.577   0.490   5.631  0.0142  0.3742 -0.2936
 9504SOL    HW139971   2.545   0.401   5.619 -0.7744  0.4541  1.2409
 9504SOL    HW239972   2.582   0.532   5.545  0.1915 -1.5571 -1.2170
 9505SOL     OW39973   2.184   0.225   4.205  0.4259 -0.0057 -0.1629
 9505SOL    HW139974   2.092   0.251   4.211  0.4932  0.3883 -0.7898
 9505SOL    HW239975   2.195   0.232   4.110 -1.4383  1.3528 -0.2802
 9506SOL     OW39976   1.530   4.625   8.033 -0.5051  0.3754  0.3956
 9506SOL    HW139977   1.460   4.677   8.072 -0.2099  1.4140 -0.4867
 9506SOL    HW239978   1.502   4.536   8.057  1.3413 -0.2569  0.2292
 9507SOL     OW39979   4.180   3.537   8.698  0.7540  0.0089  0.2761
 9507SOL    HW139980   4.243   3.600   8.734  1.1766  0.3825 -1.1213
 9507SOL    HW239981   4.120   3.516   8.770  0.7204  1.1505  0.5887
 9508SOL     OW39982   0.356   1.451  14.660 -0.7399  0.0542 -0.3694
 9508SOL    HW139983   0.416   1.380  14.682 -2.1489 -0.4730  1.7805
 9508SOL    HW239984   0.281   1.412  14.704  0.9680  0.2597  2.7766
 9509SOL     OW39985   2.498   1.817   7.363  0.1177  0.2214  0.4109
 9509SOL    HW139986   2.589   1.790   7.375  0.3141  0.6042 -0.2381
 9509SOL    HW239987   2.460   1.757   7.299  1.0385 -1.3568  1.3545
 9510SOL     OW39988   2.935   4.275  15.551 -0.5449  0.0982 -0.1197
 9510SOL    HW139989   2.872   4.213  15.587  1.3434 -1.2812  0.8019
 9510SOL    HW239990   3.016   4.227  15.566 -1.3198 -1.7415 -1.7678
 9511SOL     OW39991   3.670   4.098  15.191  0.2627  0.0505 -0.5979
 9511SOL    HW139992   3.626   4.034  15.134 -2.0767  0.1560  1.0820
 9511SOL    HW239993   3.762   4.108  15.169  0.9540 -1.3309  1.7528
 9512SOL     OW39994   1.498   0.500   6.909 -0.0881 -0.0428  0.1997
 9512SOL    HW139995   1.560   0.515   6.980  3.4866 -1.8255 -2.5455
 9512SOL    HW239996   1.436   0.571   6.923 -1.2313 -1.7580  3.8081
 9513SOL     OW39997   3.653   2.735   2.597 -0.1364  0.0437 -0.2064
 9513SOL    HW139998   3.642   2.691   2.681  0.0657  0.8333  0.2277
 9513SOL    HW239999   3.566   2.726   2.559  0.9454 -0.7872 -2.4648
 9514SOL     OW40000   0.129   0.309   4.793 -0.2649 -0.4623  0.8777
 9514SOL    HW140001   0.145   0.402   4.776 -2.3015  0.0059  1.5560
 9514SOL    HW240002   0.044   0.308   4.837 -1.3735  1.5748 -1.1907
 9515SOL     OW40003   4.513   1.472   6.759 -0.2531  0.3828  0.3329
 9515SOL    HW140004   4.522   1.511   6.672  0.9541 -1.0515 -0.1950
 9515SOL    HW240005   4.561   1.389   6.752  0.1149  0.6115  0.1751
 9516SOL     OW40006   2.066   0.709   3.701  0.1875  0.1535  0.2844
 9516SOL    HW140007   2.047   0.618   3.722  0.7630 -0.4997 -2.0185
 9516SOL    HW240008   1.981   0.732   3.663  0.1152 -0.3103  0.1721
 9517SOL     OW40009   1.543   3.312   9.012 -0.3766 -0.1130 -0.7589
 9517SOL    HW140010   1.471   3.291   9.072 -0.7446 -1.2188 -1.5900
 9517SOL    HW240011   1.587   3.231   8.987 -1.3686 -0.7522 -0.4480
 9518SOL     OW40012   0.859   1.504  15.701 -0.4611  0.1958  0.0573
 9518SOL    HW140013   0.825   1.530  15.787  1.4147  0.0130  0.8699
 9518SOL    HW240014   0.954   1.498  15.715 -0.3372 -1.4704 -1.6056
 9519SOL     OW40015   0.415   1.240  12.265  0.4454 -0.2343 -0.0359
 9519SOL    HW140016   0.365   1.159  12.279 -0.6528  0.2441 -1.2679
 9519SOL    HW240017   0.360   1.304  12.310  0.3194  0.5685 -1.3542
 9520SOL     OW40018   3.669   1.167   6.659  0.3859  0.0383  0.6190
 9520SOL    HW140019   3.686   1.075   6.639 -0.4728  0.6881 -3.0825
 9520SOL    HW240020   3.672   1.180   6.754 -0.1461  1.2356  0.4692
 9521SOL     OW40021   2.822   3.371  14.982  0.2229 -0.5461  0.4277
 9521SOL    HW140022   2.735   3.341  14.956  0.1744  1.6250 -1.8995
 9521SOL    HW240023   2.807   3.439  15.047  0.5536 -0.4415  0.3913
 9522SOL     OW40024   1.895   1.527   5.923 -0.2576  0.2704  0.6609
 9522SOL    HW140025   1.824   1.543   5.861 -1.1478 -1.3086  1.2458
 9522SOL    HW240026   1.853   1.500   6.005 -1.2442  2.9839  1.0269
 9523SOL     OW40027   1.616   0.397  11.225  0.8053 -0.2801  0.4911
 9523SOL    HW140028   1.556   0.387  11.298  1.1107  1.0810  0.9341
 9523SOL    HW240029   1.665   0.316  11.237 -1.8024 -1.9896 -0.3715
 9524SOL     OW40030   2.152   3.672  11.674  0.1821  0.5349 -0.0962
 9524SOL    HW140031   2.096   3.695  11.749 -0.4979  0.8466 -0.6965
 9524SOL    HW240032   2.077   3.661  11.615 -0.1051  1.1827  0.1484
 9525SOL     OW40033   1.155   1.629  13.283 -0.6525  0.1203  0.4026
 9525SOL    HW140034   1.106   1.558  13.324  0.9510 -0.1445  1.8528
 9525SOL    HW240035   1.137   1.702  13.341  2.3872 -0.0875  1.6216
 9526SOL     OW40036   4.666   1.871   2.022  0.9531 -0.5795  0.0469
 9526SOL    HW140037   0.014   1.813   2.043  1.4033 -0.5310 -1.3722
 9526SOL    HW240038   4.699   1.956   2.052 -0.9664 -0.3412  1.5123
 9527SOL     OW40039   3.347   1.127   2.157 -0.3200  0.1980  0.2510
 9527SOL    HW140040   3.304   1.064   2.099 -0.2130 -0.8208  1.2836
 9527SOL    HW240041   3.273   1.150   2.214 -0.2891 -1.7583  1.1041
 9528SOL     OW40042   3.953   4.216  14.590  0.1978  0.5471  0.2346
 9528SOL    HW140043   3.900   4.261  14.525 -1.1929 -0.7737  0.4674
 9528SOL    HW240044   4.038   4.211  14.546  0.6556 -0.1688  1.2147
 9529SOL     OW40045   2.271   2.846   0.015  0.4108 -0.0184  0.7363
 9529SOL    HW140046   2.357   2.811  17.688  1.0754  1.4115  1.0037
 9529SOL    HW240047   2.212   2.798  17.656  1.0305 -1.8835  1.6776
 9530SOL     OW40048   0.148   2.624   4.303  0.0924 -0.3118 -0.2073
 9530SOL    HW140049   0.148   2.697   4.365 -0.2714  1.9851 -2.9325
 9530SOL    HW240050   0.086   2.560   4.338 -0.5598  1.1302  1.2975
 9531SOL     OW40051   0.382   2.463   5.270 -0.2536 -0.1766 -0.1737
 9531SOL    HW140052   0.412   2.487   5.358 -2.0783  1.0886  0.1177
 9531SOL    HW240053   0.339   2.546   5.249 -1.1212 -0.5278  0.1704
 9532SOL     OW40054   4.677   3.120  16.759  0.0240  0.6058 -0.1313
 9532SOL    HW140055   4.704   3.121  16.851 -0.2626 -0.6969 -0.0436
 9532SOL    HW240056   4.722   3.040  16.730 -3.0985 -1.0164 -0.4647
 9533SOL     OW40057   1.190   1.453   8.241 -0.3551  0.3235  0.0511
 9533SOL    HW140058   1.097   1.473   8.245 -0.4622 -0.1388 -0.1878
 9533SOL    HW240059   1.231   1.480   8.323  1.6681 -0.5997 -0.6448
 9534SOL     OW40060   3.028   1.294  17.685 -0.1914 -0.1614 -0.1099
 9534SOL    HW140061   3.012   1.253   0.073  1.5416 -2.1869 -0.7335
 9534SOL    HW240062   3.001   1.383   0.009  1.7571 -0.4441  3.5921
 9535SOL     OW40063   4.400   1.243   4.809 -0.2757  0.0080  0.2615
 9535SOL    HW140064   4.464   1.257   4.879 -0.8579  0.4325  0.7030
 9535SOL    HW240065   4.321   1.254   4.861 -0.1727  1.5776  0.0872
 9536SOL     OW40066   1.167   2.686   9.481 -0.0800 -0.5080  0.0382
 9536SOL    HW140067   1.083   2.722   9.509  0.2826  0.6837 -0.4225
 9536SOL    HW240068   1.229   2.749   9.516 -0.6075  0.7586 -1.3538
 9537SOL     OW40069   2.217   0.813   3.208  0.5868  0.1159 -0.6019
 9537SOL    HW140070   2.149   0.857   3.156 -0.2177 -0.9802 -0.4781
 9537SOL    HW240071   2.283   0.790   3.142  2.5203 -1.1493  1.7802
 9538SOL     OW40072   2.984   0.487   7.811 -0.9791  0.2981  0.7849
 9538SOL    HW140073   3.067   0.535   7.809 -1.5800  1.3246  1.0026
 9538SOL    HW240074   2.960   0.500   7.903 -0.7092 -0.1771  0.9284
 9539SOL     OW40075   1.355   4.667   5.830 -0.2347  0.5136  1.3222
 9539SOL    HW140076   1.410   4.597   5.866  0.0480 -0.3314 -0.7940
 9539SOL    HW240077   1.426   0.001   5.800 -1.9572  2.1633  0.4753
 9540SOL     OW40078   3.004   1.178  12.859 -0.5119 -0.2779 -0.2356
 9540SOL    HW140079   3.014   1.131  12.776  1.5580  0.4690 -0.4046
 9540SOL    HW240080   3.065   1.251  12.846  0.8573 -1.3894  0.0539
 9541SOL     OW40081   1.777   4.153   5.673 -0.3198  0.2349 -0.5689
 9541SOL    HW140082   1.700   4.121   5.626 -1.0488  0.8106  0.2285
 9541SOL    HW240083   1.840   4.083   5.655  0.0895  0.5053 -0.1772
 9542SOL     OW40084   4.067   0.295   0.741  0.3720 -0.1305 -0.1931
 9542SOL    HW140085   4.136   0.253   0.792  0.4589  0.5082  0.2284
 9542SOL    HW240086   4.067   0.244   0.660 -0.2210  2.1196 -1.6310
 9543SOL     OW40087   0.169   3.971   0.420 -0.4512 -0.4481 -0.5461
 9543SOL    HW140088   0.199   4.041   0.478  0.8552 -1.1103 -0.4383
 9543SOL    HW240089   0.098   4.014   0.372 -0.2502 -0.0627 -0.5023
 9544SOL     OW40090   0.805   2.167   4.098 -0.5507 -0.0922  0.0598
 9544SOL    HW140091   0.858   2.163   4.018  0.5756  0.7931  0.7611
 9544SOL    HW240092   0.747   2.237   4.069 -0.5679 -0.6395 -1.2321
 9545SOL     OW40093   1.167   2.173   7.349  0.2641 -0.0036  0.3574
 9545SOL    HW140094   1.115   2.247   7.379 -0.7132 -0.1991 -0.8696
 9545SOL    HW240095   1.144   2.116   7.422  0.8922 -1.5770 -0.6749
 9546SOL     OW40096   0.206   1.440   5.976  0.0387  0.3245 -0.3054
 9546SOL    HW140097   0.267   1.412   6.045  0.4396 -0.5782 -1.0189
 9546SOL    HW240098   0.222   1.389   5.896  1.3035  0.4043 -0.1098
 9547SOL     OW40099   2.563   2.829   1.715  0.2671 -0.3107 -0.3537
 9547SOL    HW140100   2.614   2.827   1.634 -0.4294 -2.9362 -0.7137
 9547SOL    HW240101   2.486   2.775   1.697  0.3335 -1.1745  1.9568
 9548SOL     OW40102   2.946   2.160   8.225  0.4834  0.4183  0.2499
 9548SOL    HW140103   3.039   2.179   8.230  0.7164 -0.8038  0.5053
 9548SOL    HW240104   2.949   2.066   8.241  1.6143  0.3838 -0.1518
 9549SOL     OW40105   3.901   0.651   9.531 -0.6181 -0.5178  0.2122
 9549SOL    HW140106   3.963   0.603   9.476  0.5126  0.6584  0.4663
 9549SOL    HW240107   3.957   0.657   9.609 -0.3678  0.0319 -0.0094
 9550SOL     OW40108   4.025   2.064   5.875 -0.2582 -0.2392 -0.5903
 9550SOL    HW140109   4.102   2.062   5.931  0.2778 -3.8970 -1.4938
 9550SOL    HW240110   4.060   2.122   5.807  0.4488  1.1415  0.9571
 9551SOL     OW40111   0.442   1.888   4.978 -0.2901 -0.3340  0.1642
 9551SOL    HW140112   0.391   1.921   4.904  0.0653 -1.5450 -0.6210
 9551SOL    HW240113   0.373   1.888   5.044  0.6179  1.5900  1.1115
 9552SOL     OW40114   4.519   3.755   7.715  0.0278 -0.6416 -0.6882
 9552SOL    HW140115   4.588   3.808   7.755  0.0586  0.4792 -2.2488
 9552SOL    HW240116   4.494   3.819   7.649  1.2779  2.2753  1.6914
 9553SOL     OW40117   3.687   0.978   6.395 -0.1850  0.3652  0.0494
 9553SOL    HW140118   3.689   1.019   6.309  2.0843 -0.8287 -0.4759
 9553SOL    HW240119   3.594   0.959   6.404  0.4241 -1.7529  2.0303
 9554SOL     OW40120   3.474   1.145   2.949 -0.1120 -0.0113 -0.1746
 9554SOL    HW140121   3.550   1.200   2.966  1.4706 -1.5557 -2.3360
 9554SOL    HW240122   3.438   1.195   2.876 -2.2726 -0.4120  0.5915
 9555SOL     OW40123   3.175   0.636   5.146  0.1004  0.2594 -0.2710
 9555SOL    HW140124   3.236   0.705   5.175 -1.7788  1.7533  0.1262
 9555SOL    HW240125   3.229   0.557   5.148  0.5066  0.5325 -0.6111
 9556SOL     OW40126   2.343   2.280   5.350 -0.1586 -0.7656  0.5712
 9556SOL    HW140127   2.397   2.201   5.345  0.7913 -0.0721  0.0237
 9556SOL    HW240128   2.284   2.253   5.420  0.6244 -0.9893  1.1495
 9557SOL     OW40129   0.376   2.183   7.524 -0.0427  0.1909  0.0380
 9557SOL    HW140130   0.460   2.209   7.561  0.9822 -0.9195 -1.5274
 9557SOL    HW240131   0.314   2.205   7.594  1.9140  0.5177  1.6778
 9558SOL     OW40132   3.557   2.974   5.717 -0.1227 -0.2145 -0.0598
 9558SOL    HW140133   3.557   2.893   5.769  0.0745 -1.4849 -2.0198
 9558SOL    HW240134   3.466   2.991   5.693 -0.5742 -2.2707  0.2231
 9559SOL     OW40135   2.147   4.150   2.587 -0.8238 -0.0094  0.2212
 9559SOL    HW140136   2.241   4.137   2.595 -0.7981 -1.1599 -1.9853
 9559SOL    HW240137   2.133   4.192   2.672 -0.6202 -1.8833  1.1978
 9560SOL     OW40138   2.575   0.715  12.065 -0.2401 -0.0353  0.6579
 9560SOL    HW140139   2.518   0.670  12.004  0.6536  0.1285 -0.3037
 9560SOL    HW240140   2.512   0.783  12.088 -0.4599  0.3259 -1.0494
 9561SOL     OW40141   0.031   3.042   1.294  0.1708  0.3054  0.2330
 9561SOL    HW140142   0.082   2.974   1.339  1.0147  1.2065  0.6305
 9561SOL    HW240143   0.074   3.030   1.209 -0.3069 -4.3555  0.6555
 9562SOL     OW40144   0.726   3.217   7.125  0.0351  0.1320 -0.3009
 9562SOL    HW140145   0.646   3.243   7.171  0.2149 -0.4066  0.3154
 9562SOL    HW240146   0.770   3.302   7.125 -0.0269  0.1634  0.7422
 9563SOL     OW40147   3.957   4.160  15.226 -0.7017  0.1934  0.3777
 9563SOL    HW140148   4.026   4.097  15.206  1.0684  1.8735  1.1651
 9563SOL    HW240149   4.000   4.243  15.206  0.8627 -0.9655 -0.9474
 9564SOL     OW40150   3.791   3.614   0.223  0.0225  0.0952  0.1230
 9564SOL    HW140151   3.707   3.572   0.201  1.3769 -1.8396 -1.3125
 9564SOL    HW240152   3.779   3.696   0.176 -0.3896  1.4763  2.6473
 9565SOL     OW40153   4.225   1.966   5.423  0.6960 -0.4595  0.2111
 9565SOL    HW140154   4.192   1.876   5.430 -1.2971  0.1046 -1.7385
 9565SOL    HW240155   4.318   1.961   5.404 -0.0139 -3.0115 -2.6871
   4.72411   4.72411  17.69806
