Membrane in water
40155
    1TCq1    O1    1   2.058   3.281  11.089  0.0245 -0.1358  0.1629
    1TCq1    C1    2   2.074   3.310  11.220  0.2176 -0.1921  1.1918
    1TCq1    O2    3   2.177   3.365  11.260 -0.8465  0.6013 -0.4857
    1TCq1    C2    4   1.938   3.327  11.281 -0.2416  0.4305  0.6763
    1TCq1    C3    5   1.816   3.305  11.221 -0.0351 -0.3825  0.2799
    1TCq1    C4    6   1.699   3.332  11.288 -0.9048  0.4643 -0.1221
    1TCq1    C5    7   1.706   3.389  11.409  0.0451 -0.8277  0.2071
    1TCq1    C6    8   1.829   3.406  11.473  0.5562  0.6469  0.6717
    1TCq1    C7    9   1.945   3.380  11.412 -0.5749  0.1754 -1.0030
    1TCq1    C8   10   1.824   3.490  11.590  0.6525 -0.0726  0.4646
    1TCq1    O4   11   1.724   3.559  11.609  0.2559 -0.6696 -0.3705
    1TCq1    C9   12   1.576   3.337  11.216  0.0543 -0.7308  0.3370
    1TCq1    O5   13   1.586   3.320  11.094 -0.2806 -0.2792  0.1956
    1TCq1    O6   14   1.465   3.351  11.275 -0.1721  0.1367 -0.4349
    1TCq1    H1   15   1.980   3.231  11.058  1.1573 -0.9693 -1.3785
    1TCq1    H2   16   1.807   3.262  11.122  0.2509 -0.9166  0.4873
    1TCq1    H3   17   1.610   3.403  11.457  1.3029  0.4213  2.3231
    1TCq1    H4   18   2.044   3.400  11.453 -0.4173 -0.3052 -1.1388
    2MPD2     C   19   1.966   3.578  12.082  0.2439 -0.1697 -1.1400
    2MPD2    C1   20   1.861   3.643  12.007  0.7005 -0.6786 -0.9554
    2MPD2    C2   21   1.845   3.608  11.874 -0.0348 -0.3396 -0.0132
    2MPD2    C3   22   1.915   3.497  11.819 -0.7255 -0.1574 -0.5371
    2MPD2    C4   23   2.007   3.422  11.892  0.3141 -0.4643 -0.3566
    2MPD2    C5   24   2.033   3.475  12.018  0.0580 -0.0750  0.1931
    2MPD2     H   25   1.776   3.663  11.812  1.1621 -0.1532 -1.1622
    2MPD2    H1   26   2.062   3.335  11.858 -0.0877 -0.8192 -0.0910
    2MPD2    H2   27   1.992   3.613  12.181 -1.5515  0.1646 -0.7868
    2MPD2    H3   28   2.114   3.432  12.077 -0.2616 -0.1675  0.5665
    2MPD2     N   29   1.913   3.459  11.683  0.4165 -0.0935  0.3274
    2MPD2    H5   30   1.990   3.396  11.664  0.0382  0.2706 -2.4118
    2MPD2    N1   31   1.775   3.748  12.054 -0.0361 -0.4824  0.2521
    2MPD2    H7   32   1.697   3.770  11.994  1.8169  0.6145 -1.7705
    3TCq1    O1   33   1.846   0.461  10.300  0.0260 -0.6148 -0.0869
    3TCq1    C1   34   1.888   0.336  10.292  0.2116  0.1576  0.3894
    3TCq1    O2   35   1.994   0.296  10.339  0.7603  0.2179 -0.3686
    3TCq1    C2   36   1.772   0.245  10.279 -0.5848  0.2627 -0.5137
    3TCq1    C3   37   1.699   0.245  10.162 -0.2018 -0.1643  0.5206
    3TCq1    C4   38   1.622   0.139  10.141  0.2946 -0.1350  0.4860
    3TCq1    C5   39   1.591   0.055  10.246  0.2593 -0.4608 -0.7754
    3TCq1    C6   40   1.663   0.067  10.358 -0.2978 -0.1282 -0.5955
    3TCq1    C7   41   1.760   0.164  10.379 -0.3992 -0.0518  0.1363
    3TCq1    C8   42   1.615   0.013  10.478  0.2838 -0.6353 -0.3682
    3TCq1    O4   43   1.566   4.626  10.465  0.2416 -0.5848  0.3441
    3TCq1    C9   44   1.563   0.112  10.005  0.5112 -0.6264  0.2583
    3TCq1    O5   45   1.603   0.189   9.918 -0.1902 -0.1252  0.0803
    3TCq1    O6   46   1.490   0.014   9.984 -0.0290  0.0740  0.3230
    3TCq1    H1   47   1.768   0.479  10.244  1.3749  2.7371 -0.8879
    3TCq1    H2   48   1.713   0.320  10.085  0.3120 -1.1174 -0.3141
    3TCq1    H3   49   1.509   4.708  10.236 -0.8800  0.9221 -1.1968
    3TCq1    H4   50   1.827   0.162  10.465 -0.3081 -0.6894  0.0527
    4MPD2     C   51   1.347   0.084  10.907  0.4480  0.5524  0.4758
    4MPD2    C1   52   1.371   0.212  10.848  0.4798 -0.2591 -0.2910
    4MPD2    C2   53   1.453   0.215  10.739  0.7331  0.6219 -0.3852
    4MPD2    C3   54   1.501   0.099  10.674 -0.3024 -0.2018  0.3635
    4MPD2    C4   55   1.459   4.701  10.721 -0.3063 -1.0509 -0.2792
    4MPD2    C5   56   1.385   4.699  10.840 -0.0431 -0.1694  0.0754
    4MPD2     H   57   1.480   0.310  10.696 -0.3297  1.6645  1.2729
    4MPD2    H1   58   1.496   4.608  10.679  0.1272 -1.8913  1.9229
    4MPD2    H2   59   1.284   0.081  10.995 -0.7469  0.2840 -0.3891
    4MPD2    H3   60   1.367   4.602  10.884 -0.8001 -0.9698 -2.0079
    4MPD2     N   61   1.580   0.117  10.562  0.3229 -0.3397  0.1822
    4MPD2    H5   62   1.596   0.215  10.537  1.8405 -0.7026 -0.2846
    4MPD2    N1   63   1.330   0.345  10.895 -0.4997  0.1687 -0.1503
    4MPD2    H7   64   1.353   0.424  10.835 -0.9359 -0.0770 -0.6408
    5TCq1    O1   65   0.940   2.013  11.566  0.3774  0.0813 -0.3658
    5TCq1    C1   66   1.029   1.995  11.464  0.0721 -0.1790 -0.3650
    5TCq1    O2   67   1.123   2.070  11.440 -0.1109 -0.3264 -0.6172
    5TCq1    C2   68   0.972   1.909  11.361  0.0544 -0.1893 -0.2008
    5TCq1    C3   69   0.848   1.854  11.374 -0.3519 -0.0738  0.1198
    5TCq1    C4   70   0.794   1.781  11.274 -0.0078 -0.0329  0.0478
    5TCq1    C5   71   0.865   1.762  11.162  0.7171 -0.3634 -0.1588
    5TCq1    C6   72   0.987   1.825  11.155 -0.2154 -0.4719 -0.5284
    5TCq1    C7   73   1.045   1.894  11.247 -0.1529 -0.2780 -0.0145
    5TCq1    C8   74   1.072   1.788  11.041  0.9816  0.1107  0.4511
    5TCq1    O4   75   1.191   1.779  11.072  0.1165  0.7717 -0.1013
    5TCq1    C9   76   0.663   1.732  11.286  0.3352  0.8855 -0.0436
    5TCq1    O5   77   0.594   1.788  11.376  0.5350  0.6678 -0.1984
    5TCq1    O6   78   0.612   1.677  11.183  0.5011  0.4780 -0.0269
    5TCq1    H1   79   0.876   1.938  11.566 -2.0792  2.1864 -0.8360
    5TCq1    H2   80   0.793   1.873  11.466  0.4612 -1.0963  0.8121
    5TCq1    H3   81   0.820   1.701  11.085  0.2971 -1.7857  1.2173
    5TCq1    H4   82   1.144   1.938  11.240 -0.5946  0.7133  0.0078
    6MPD2     C   83   0.994   1.766  10.675 -0.3159  0.0784  0.4007
    6MPD2    C1   84   1.068   1.751  10.794 -0.2191 -0.2559  0.0438
    6MPD2    C2   85   1.200   1.703  10.781  0.6040 -0.0532  0.0064
    6MPD2    C3   86   1.259   1.666  10.663 -0.0058 -0.3859  0.3287
    6MPD2    C4   87   1.178   1.682  10.550  0.2467  0.6088  0.2198
    6MPD2    C5   88   1.052   1.736  10.557 -0.2919  0.3453 -0.1505
    6MPD2     H   89   1.249   1.675  10.874 -0.6466 -0.1622  0.6327
    6MPD2    H1   90   1.213   1.659  10.450 -2.2684  0.6216 -0.6709
    6MPD2    H2   91   0.896   1.814  10.679  0.8382  2.6614 -2.4374
    6MPD2    H3   92   0.989   1.736  10.469 -0.7035  1.1687  0.1422
    6MPD2     N   93   1.391   1.612  10.648 -0.0174 -0.3343  0.5255
    6MPD2    H5   94   1.456   1.618  10.726 -0.4794  1.0392  0.8126
    6MPD2    N1   95   1.006   1.776  10.920  0.0803 -0.6634  0.8475
    6MPD2    H7   96   0.911   1.811  10.919  0.3452  0.0859  2.1271
    7TCq1    O1   97   4.524   2.059  13.330  0.7958 -0.0954  0.0105
    7TCq1    C1   98   4.432   2.131  13.257 -0.5631 -1.0815 -0.1670
    7TCq1    O2   99   4.457   2.206  13.166  0.0822 -0.0861  0.2480
    7TCq1    C2  100   4.304   2.075  13.279  0.5946 -0.5454  0.9139
    7TCq1    C3  101   4.200   2.155  13.236  0.9973  0.5716 -0.7349
    7TCq1    C4  102   4.069   2.111  13.247 -0.0998 -0.0451 -0.1542
    7TCq1    C5  103   4.056   1.983  13.295 -0.2572 -0.5742 -0.0583
    7TCq1    C6  104   4.163   1.906  13.325  0.6175  0.0958  0.6734
    7TCq1    C7  105   4.294   1.942  13.320 -0.6810  0.6702  0.1437
    7TCq1    C8  106   4.134   1.790  13.409 -0.6455  0.5263  0.1733
    7TCq1    O4  107   4.027   1.745  13.385 -0.4823  0.3972  1.1615
    7TCq1    C9  108   3.953   2.198  13.228 -0.3259  0.6053 -1.0378
    7TCq1    O5  109   3.838   2.149  13.233  0.3980 -0.3821 -0.1405
    7TCq1    O6  110   3.974   2.308  13.175 -0.7092 -0.7579  0.7215
    7TCq1    H1  111   4.479   2.029  13.412 -2.5856  1.4137 -1.2615
    7TCq1    H2  112   4.214   2.258  13.204 -0.5078  0.9221 -0.2858
    7TCq1    H3  113   3.956   1.959  13.329 -0.3562 -0.1722 -0.0669
    7TCq1    H4  114   4.374   1.870  13.337  1.1737  2.3398 -1.5067
    8MPD2     C  115   4.186   1.434  13.775  1.1015 -0.2927 -0.7285
    8MPD2    C1  116   4.085   1.463  13.685  0.2715 -0.1021 -0.3797
    8MPD2    C2  117   4.094   1.572  13.609  0.6145 -0.9323 -0.8932
    8MPD2    C3  118   4.210   1.651  13.605 -0.7462 -0.0679  0.0091
    8MPD2    C4  119   4.312   1.623  13.695 -0.0431 -0.0686 -0.2485
    8MPD2    C5  120   4.294   1.516  13.780  0.1772 -0.7820  0.0337
    8MPD2     H  121   4.011   1.592  13.541  1.3454 -1.1650 -1.8569
    8MPD2    H1  122   4.406   1.676  13.696 -1.1505  1.9381 -0.9629
    8MPD2    H2  123   4.188   1.346  13.839  0.6071 -0.1649 -0.5419
    8MPD2    H3  124   4.372   1.487  13.849  0.0818 -1.1003  0.0077
    8MPD2     N  125   4.225   1.762  13.515 -0.3566 -0.3223 -0.1444
    8MPD2    H5  126   4.308   1.819  13.528 -0.7971  0.2383  0.2073
    8MPD2    N1  127   3.983   1.366  13.667 -0.2646 -0.2437  0.3077
    8MPD2    H7  128   3.973   1.301  13.744  0.2489 -1.1847 -0.4051
    9TCq1    O1  129   1.487   1.165  10.899 -0.6081  0.5424  0.0565
    9TCq1    C1  130   1.524   1.270  10.983  0.6238 -0.1421 -0.0381
    9TCq1    O2  131   1.602   1.352  10.941 -0.7450 -0.0217 -0.3282
    9TCq1    C2  132   1.523   1.218  11.111 -0.3201  0.7474 -0.3070
    9TCq1    C3  133   1.643   1.216  11.167  0.7130 -0.6698 -0.6669
    9TCq1    C4  134   1.660   1.139  11.275 -0.3523  0.0326 -0.1111
    9TCq1    C5  135   1.564   1.060  11.333  0.4860  0.0808 -0.2603
    9TCq1    C6  136   1.444   1.052  11.266  0.3772  0.7333  0.5174
    9TCq1    C7  137   1.423   1.132  11.153 -0.1493  0.1789  0.1836
    9TCq1    C8  138   1.331   0.977  11.319  0.5671 -0.0026 -0.7332
    9TCq1    O4  139   1.219   1.006  11.278 -0.7229  0.0427  0.1506
    9TCq1    C9  140   1.796   1.122  11.309  0.3288  0.4180 -0.0262
    9TCq1    O5  141   1.879   1.208  11.269  0.3726 -0.1667  0.2475
    9TCq1    O6  142   1.823   1.015  11.373 -0.4533 -0.2445 -0.1711
    9TCq1    H1  143   1.428   1.107  10.952 -0.7353 -0.7513 -1.5044
    9TCq1    H2  144   1.725   1.268  11.119  0.4681 -0.1963 -0.5714
    9TCq1    H3  145   1.591   1.011  11.426 -0.9620 -0.3583 -0.0736
    9TCq1    H4  146   1.332   1.130  11.095 -0.5161  0.2588  0.7555
   10MPD2     C  147   1.148   0.794  11.476  0.0751  0.6661  0.1106
   10MPD2    C1  148   1.289   0.788  11.481 -0.1356 -0.0702 -0.3147
   10MPD2    C2  149   1.346   0.686  11.540 -0.4165  0.3560  0.5669
   10MPD2    C3  150   1.276   0.586  11.607  0.0478 -0.8164 -0.2216
   10MPD2    C4  151   1.143   0.583  11.599  0.4159  0.3529 -0.3061
   10MPD2    C5  152   1.084   0.692  11.541 -0.1695 -0.2239 -0.7047
   10MPD2     H  153   1.453   0.672  11.533 -0.4794  1.2575 -2.3235
   10MPD2    H1  154   1.089   0.512  11.661 -0.6390  0.5526 -0.9971
   10MPD2    H2  155   1.093   0.869  11.420 -1.0358 -0.1583  0.0845
   10MPD2    H3  156   0.976   0.703  11.539 -0.2745 -0.9301  0.8334
   10MPD2     N  157   1.332   0.467  11.668 -0.4373 -0.4456  0.6576
   10MPD2    H5  158   1.269   0.394  11.701 -2.2293  0.5331 -0.5737
   10MPD2    N1  159   1.373   0.879  11.406 -0.0908 -0.0378 -0.4370
   10MPD2    H7  160   1.473   0.865  11.420 -0.4725 -2.2979  0.1023
   11TCq1    O1  161   3.075   4.500  13.972  0.0525  0.5102  0.4485
   11TCq1    C1  162   2.944   4.481  13.990 -0.1839  0.1877  0.7632
   11TCq1    O2  163   2.885   4.376  13.968 -0.2813 -0.4128  0.4143
   11TCq1    C2  164   2.887   4.603  13.951  0.0951 -0.0944 -0.2535
   11TCq1    C3  165   2.963   4.709  13.906  0.5375 -0.5449  0.1471
   11TCq1    C4  166   2.905   0.111  13.887  0.3177 -0.4170  0.3354
   11TCq1    C5  167   2.769   0.126  13.902 -0.0884 -0.2982 -0.7051
   11TCq1    C6  168   2.698   0.025  13.956 -0.2087  0.1530  0.1405
   11TCq1    C7  169   2.752   4.622  13.970  0.3002  0.0609 -0.4314
   11TCq1    C8  170   2.559   0.033  13.957 -0.2246 -0.1040  0.7367
   11TCq1    O4  171   2.506   0.142  13.957  0.2744  0.4595 -0.3563
   11TCq1    C9  172   2.981   0.220  13.838  0.1094  0.2550 -0.1793
   11TCq1    O5  173   3.100   0.194  13.808  0.4262  0.2522  0.4181
   11TCq1    O6  174   2.915   0.321  13.803 -0.2809  0.1626  0.1687
   11TCq1    H1  175   3.096   4.592  14.000  2.0062  0.1171  0.3411
   11TCq1    H2  176   3.070   4.715  13.891  0.6619  1.0585  1.6472
   11TCq1    H3  177   2.714   0.215  13.875 -0.3115 -0.2362 -0.0479
   11TCq1    H4  178   2.699   4.544  14.023 -0.4659 -0.4929 -2.0285
   12MPD2     C  179   2.260   4.718  13.935  0.0954 -0.5938 -0.0870
   12MPD2    C1  180   2.348   4.614  13.954 -0.0719  0.2336  0.8575
   12MPD2    C2  181   2.305   4.485  13.954  0.3488 -0.0464  0.2367
   12MPD2    C3  182   2.176   4.451  13.921 -0.7883  1.1092  0.0369
   12MPD2    C4  183   2.091   4.555  13.892 -0.4715  0.3672  0.1440
   12MPD2    C5  184   2.136   4.683  13.887  0.2142 -0.4510 -0.0916
   12MPD2     H  185   2.385   4.415  13.972  0.9546  0.8832  1.2033
   12MPD2    H1  186   1.996   4.537  13.842 -0.5254 -1.8961  1.0797
   12MPD2    H2  187   2.285   0.101  13.931 -0.5336 -0.4393  0.0178
   12MPD2    H3  188   2.087   0.041  13.834 -1.9126 -1.5982  0.1231
   12MPD2     N  189   2.126   4.324  13.904  0.7128 -0.3751 -0.1527
   12MPD2    H5  190   2.034   4.317  13.863  0.4225  1.2363  0.2051
   12MPD2    N1  191   2.488   4.639  13.966 -0.2226 -0.2237  0.4009
   12MPD2    H7  192   2.532   4.548  13.978 -0.6133 -0.7116 -2.0128
   13TCq1    O1  193   2.243   4.603  10.392  0.5142  0.4335 -0.2897
   13TCq1    C1  194   2.183   4.551  10.499  0.5887 -0.4013 -0.3832
   13TCq1    O2  195   2.232   4.469  10.574 -0.1485 -0.0179  0.1709
   13TCq1    C2  196   2.037   4.553  10.474 -0.5871 -0.6790  0.0003
   13TCq1    C3  197   1.990   4.535  10.343 -0.0290 -0.0959  1.1668
   13TCq1    C4  198   1.874   4.471  10.328 -0.2597 -0.1748  0.0318
   13TCq1    C5  199   1.806   4.420  10.430 -0.5571  0.5497 -0.2460
   13TCq1    C6  200   1.844   4.456  10.557 -0.3035 -0.3243 -0.1777
   13TCq1    C7  201   1.964   4.514  10.582 -0.4452  0.1749  0.4191
   13TCq1    C8  202   1.763   4.432  10.674 -0.0241  0.2922 -0.5057
   13TCq1    O4  203   1.786   4.501  10.775  0.6107  0.1635 -0.0059
   13TCq1    C9  204   1.831   4.442  10.193 -0.2957  0.5919  0.5352
   13TCq1    O5  205   1.917   4.458  10.100  0.2396  0.2451 -0.0104
   13TCq1    O6  206   1.721   4.384  10.187  0.5874  0.1663  1.1920
   13TCq1    H1  207   2.179   4.662  10.347 -1.1812  1.4453  3.5031
   13TCq1    H2  208   2.056   4.552  10.259  0.9961 -4.1426  1.1583
   13TCq1    H3  209   1.710   4.372  10.413 -0.1840  0.0183 -0.8821
   13TCq1    H4  210   2.002   4.525  10.683  1.5642  0.7465 -0.3932
   14MPD2     C  211   1.460   4.227  10.660  0.5500  0.6719 -0.0700
   14MPD2    C1  212   1.547   4.315  10.717 -0.0372  0.0568  0.1140
   14MPD2    C2  213   1.517   4.370  10.841  0.0961 -0.2037 -1.0558
   14MPD2    C3  214   1.410   4.330  10.915 -0.4806  0.1870  0.1970
   14MPD2    C4  215   1.314   4.253  10.852 -0.2294 -0.4387 -0.4320
   14MPD2    C5  216   1.337   4.202  10.722 -0.0445  0.2635  0.5277
   14MPD2     H  217   1.590   4.435  10.888 -0.6562  0.1856 -0.4300
   14MPD2    H1  218   1.226   4.222  10.906 -0.5405  0.5447 -0.3686
   14MPD2    H2  219   1.474   4.179  10.563  2.0362  0.7353  0.1185
   14MPD2    H3  220   1.264   4.133  10.684  1.0892  0.3484 -1.7755
   14MPD2     N  221   1.402   4.383  11.046 -0.5927  0.1222  0.0114
   14MPD2    H5  222   1.477   4.450  11.058 -0.5235  0.1105 -0.3501
   14MPD2    N1  223   1.664   4.345  10.642  0.4221 -0.3210 -0.2853
   14MPD2    H7  224   1.668   4.295  10.554  0.4786 -0.3867 -0.2449
   15TCq1    O1  225   3.654   2.996   2.400  0.4127 -0.0365  0.4625
   15TCq1    C1  226   3.539   3.068   2.392 -0.4533 -0.0276 -0.6046
   15TCq1    O2  227   3.447   3.054   2.468  0.1576  0.0644  0.7386
   15TCq1    C2  228   3.526   3.125   2.254 -0.1715  0.0294  0.0214
   15TCq1    C3  229   3.421   3.207   2.235  0.3008  0.6433 -0.6297
   15TCq1    C4  230   3.401   3.252   2.105 -0.0292 -0.1480 -0.9105
   15TCq1    C5  231   3.471   3.208   1.995  0.3707 -1.0563 -0.4679
   15TCq1    C6  232   3.572   3.120   2.030 -0.4212 -0.1952  1.0709
   15TCq1    C7  233   3.611   3.083   2.158  0.5528  0.2442 -0.6463
   15TCq1    C8  234   3.633   3.050   1.914  0.5417  1.0998 -0.4455
   15TCq1    O4  235   3.732   2.983   1.935 -0.5745 -0.3890  0.0409
   15TCq1    C9  236   3.285   3.327   2.069 -0.3431 -0.4372  0.7293
   15TCq1    O5  237   3.258   3.339   1.946  0.3310 -0.0882 -0.2609
   15TCq1    O6  238   3.220   3.385   2.162 -0.0460  0.1894  0.1262
   15TCq1    H1  239   3.735   3.025   2.353  0.1478 -0.1904 -0.0869
   15TCq1    H2  240   3.341   3.225   2.307  1.8680 -1.1144  1.5326
   15TCq1    H3  241   3.458   3.246   1.894  0.6996 -0.3844 -0.2589
   15TCq1    H4  242   3.688   3.007   2.166  0.8591  0.5929 -0.2888
   16MPD2     C  243   3.518   3.036   1.559 -0.0360 -0.4757  0.0353
   16MPD2    C1  244   3.611   3.027   1.661 -0.1203 -0.3832 -0.4019
   16MPD2    C2  245   3.730   2.961   1.641 -0.3717 -0.3205 -0.1666
   16MPD2    C3  246   3.760   2.907   1.522 -0.2222 -1.0244  0.2240
   16MPD2    C4  247   3.665   2.919   1.421 -0.0011  0.4543  0.4857
   16MPD2    C5  248   3.554   2.989   1.434  0.0911 -0.6302  0.2194
   16MPD2     H  249   3.792   2.935   1.726  1.1910 -0.8701 -1.4825
   16MPD2    H1  250   3.681   2.889   1.317 -2.5271 -2.2479  0.8571
   16MPD2    H2  251   3.423   3.085   1.578  0.5918 -0.7268  3.8392
   16MPD2    H3  252   3.479   2.990   1.355  0.3920  1.2390 -0.0307
   16MPD2     N  253   3.890   2.856   1.500  0.2136 -0.0952  0.1462
   16MPD2    H5  254   3.950   2.866   1.581 -1.0061  0.4188  1.0035
   16MPD2    N1  255   3.570   3.073   1.792  0.6213 -0.3993  0.5020
   16MPD2    H7  256   3.483   3.124   1.794  1.6512  1.4899 -3.5364
   17TCq1    O1  257   1.267   4.012  11.381  0.1436 -0.8482 -0.2705
   17TCq1    C1  258   1.394   4.057  11.353 -0.4616  0.6269 -1.1109
   17TCq1    O2  259   1.440   4.151  11.419  0.1573  0.5355  0.3346
   17TCq1    C2  260   1.436   3.997  11.229  0.7410  0.4812 -0.2418
   17TCq1    C3  261   1.390   3.867  11.204  0.1219  0.5882  0.4975
   17TCq1    C4  262   1.437   3.803  11.091 -0.3752 -0.2025  0.0105
   17TCq1    C5  263   1.528   3.872  11.011 -0.0427 -0.0966  0.3098
   17TCq1    C6  264   1.578   3.993  11.047  0.2061 -0.8451 -0.2106
   17TCq1    C7  265   1.536   4.063  11.164 -0.4892  0.0172 -0.3505
   17TCq1    C8  266   1.685   4.062  10.971 -0.0221  0.1166 -0.1399
   17TCq1    O4  267   1.741   4.156  11.027 -0.0455 -0.4531 -0.0747
   17TCq1    C9  268   1.393   3.667  11.066 -0.1591  0.6975 -1.0118
   17TCq1    O5  269   1.460   3.598  10.984 -0.9574  0.1969 -0.0355
   17TCq1    O6  270   1.301   3.615  11.146  0.1309 -0.0356 -0.7343
   17TCq1    H1  271   1.232   3.976  11.297 -0.0187 -2.9926  0.7143
   17TCq1    H2  272   1.323   3.815  11.270 -0.6361 -1.4317 -1.8473
   17TCq1    H3  273   1.566   3.821  10.923  0.8549  0.4392  0.3755
   17TCq1    H4  274   1.577   4.157  11.199  0.9325 -0.3472 -1.0137
   18MPD2     C  275   1.903   4.140  10.792 -0.6122  0.0062  0.4066
   18MPD2    C1  276   1.806   4.049  10.760 -0.6416 -0.1875  0.1330
   18MPD2    C2  277   1.821   3.993  10.629  0.3270  0.0660  0.7091
   18MPD2    C3  278   1.925   4.025  10.545 -0.3793 -0.9355  0.3301
   18MPD2    C4  279   2.007   4.129  10.579 -0.5916  0.5366 -0.1918
   18MPD2    C5  280   1.991   4.182  10.698  0.6086 -0.0235  0.3896
   18MPD2     H  281   1.744   3.929  10.588  0.3501  0.9166 -0.6616
   18MPD2    H1  282   2.081   4.173  10.513 -0.4668  0.1439 -0.3144
   18MPD2    H2  283   1.920   4.180  10.891  0.5886  0.1001  0.1587
   18MPD2    H3  284   2.065   4.259  10.714 -0.7759  1.4599 -0.2424
   18MPD2     N  285   1.963   3.968  10.423 -0.9630  0.0491 -0.5188
   18MPD2    H5  286   2.039   4.020  10.380  0.2196 -0.0737  1.4478
   18MPD2    N1  287   1.707   4.004  10.848  0.6369  0.0312 -0.2244
   18MPD2    H7  288   1.634   3.942  10.814 -0.6447  1.2567  0.3212
   19TMC2    C1  289   3.279   4.158  13.637  0.3898 -0.0052 -0.5145
   19TMC2    C2  290   3.314   4.164  13.503 -0.5864  0.1118  0.0759
   19TMC2    C3  291   3.308   4.050  13.422 -0.1823  0.4926 -0.4315
   19TMC2    C4  292   3.241   4.041  13.686 -0.1420 -0.3459  0.2272
   19TMC2    C5  293   3.225   3.932  13.608 -0.5157  0.4055  0.5457
   19TMC2    C6  294   3.270   3.932  13.479 -0.4412  0.2912 -0.1808
   19TMC2     C  295   3.305   4.278  13.707 -0.3949 -0.0422 -0.0749
   19TMC2     O  296   3.326   4.378  13.640 -0.4140 -0.1827 -0.2220
   19TMC2     H  297   3.365   4.247  13.456  0.9213 -0.6471  0.3474
   19TMC2    H1  298   3.187   4.045  13.780  0.2023  0.1346  0.4077
   19TMC2    H2  299   3.259   3.836  13.430 -0.7899  0.7906 -1.0792
   19TMC2    C7  300   3.155   3.815  13.662 -0.4981 -0.2354 -0.4736
   19TMC2    C8  301   3.372   4.055  13.293 -0.4389  0.2440  0.2546
   19TMC2    O1  302   3.116   3.732  13.584  0.1101  0.0496 -0.2162
   19TMC2    O2  303   3.402   3.952  13.230 -0.3030 -0.1117  0.5018
   19TMC2    O5  304   3.332   4.171  13.245 -0.0068 -0.0795  0.2603
   19TMC2    H5  305   3.275   4.219  13.309 -2.0035 -0.7215 -1.0556
   20MPD2     C  306   3.427   4.493  13.874  0.4518 -0.7524 -0.0622
   20MPD2    C1  307   3.375   4.373  13.923 -0.1758  0.4988 -0.3651
   20MPD2    C2  308   3.377   4.340  14.055 -0.6929  0.4383 -0.9533
   20MPD2    C3  309   3.410   4.440  14.147 -0.2059 -0.3146  1.0748
   20MPD2    C4  310   3.451   4.561  14.100  0.1587 -0.3449 -0.0188
   20MPD2    C5  311   3.462   4.584  13.966  0.0873  0.3124 -0.2806
   20MPD2     H  312   3.341   4.242  14.085  0.5033 -0.5318 -2.7012
   20MPD2    H1  313   3.466   4.639  14.172 -0.0669 -0.8088  0.5286
   20MPD2    H2  314   3.441   4.514  13.768 -3.0626 -0.6951 -0.4992
   20MPD2    H3  315   3.492   4.684  13.937 -2.2088  0.8192 -0.8600
   20MPD2     N  316   3.417   4.423  14.283  0.2192  0.3130 -0.0793
   20MPD2    H5  317   3.457   4.497  14.340  1.5854 -0.6555  0.2183
   20MPD2    N1  318   3.323   4.267  13.840 -0.4005 -0.6399  0.2127
   20MPD2    H7  319   3.323   4.175  13.883  0.7197 -0.7089  0.0771
   21MPD2     C  320   0.729   0.251  14.427 -0.0065  0.4525 -0.0142
   21MPD2    C1  321   0.787   0.131  14.458  0.1911 -0.0140  0.5097
   21MPD2    C2  322   0.732   0.057  14.560 -0.0763 -1.0216  0.2292
   21MPD2    C3  323   0.628   0.105  14.634  0.3117 -0.0757 -0.5253
   21MPD2    C4  324   0.574   0.231  14.606  0.2401  0.0493  0.7116
   21MPD2    C5  325   0.632   0.303  14.498 -0.0725  0.1998 -0.3350
   21MPD2     H  326   0.779   4.687  14.590  0.9082  0.3515  2.9585
   21MPD2    H1  327   0.488   0.279  14.651  1.7856  0.5687  3.1188
   21MPD2    H2  328   0.762   0.310  14.343  2.8108 -0.9084  0.1072
   21MPD2    H3  329   0.591   0.400  14.473  1.4869  0.5311 -1.6141
   21MPD2     N  330   0.571   0.029  14.736  0.2195 -0.5966 -0.6270
   21MPD2    H5  331   0.497   0.069  14.794 -0.2997 -0.5923 -1.2936
   21MPD2    N1  332   0.888   0.065  14.383 -0.2937  0.4320  0.4278
   21MPD2    H7  333   0.908   4.693  14.411 -1.8021 -0.1954 -0.6554
   22TCq2    C1  334   0.610   4.625  14.784  0.3661  0.1622  0.2851
   22TCq2    O2  335   0.701   4.552  14.746  0.2784  0.4042  0.0718
   22TCq2    C2  336   0.546   4.588  14.911  0.3131 -0.1763  0.6755
   22TCq2    C3  337   0.584   4.470  14.954 -0.7848  0.3481 -0.8376
   22TCq2    C4  338   0.550   4.434  15.078 -0.7164 -0.3296  0.3468
   22TCq2    C5  339   0.460   4.505  15.153 -0.2876  0.3513 -0.0927
   22TCq2    C6  340   0.409   4.622  15.101 -0.8810  0.1126 -1.2698
   22TCq2    C7  341   0.470   4.672  14.990 -0.3763  0.2277 -0.2422
   22TCq2    C8  342   0.324   4.705  15.183 -0.1257  0.2452 -1.1423
   22TCq2    O4  343   0.320   4.678  15.300  0.3010 -0.6885  0.2774
   22TCq2    C9  344   0.599   4.307  15.123  0.3201 -0.0945  0.4065
   22TCq2    O5  345   0.635   4.224  15.043  0.4180  0.3837 -0.0545
   22TCq2    O6  346   0.613   4.294  15.250  0.3235  0.1809  0.0588
   22TCq2    H2  347   0.644   4.404  14.891  0.6689  0.8565  0.0173
   22TCq2    H3  348   0.422   4.464  15.246 -2.1333 -1.7588 -1.7608
   22TCq2    H4  349   0.440   0.044  14.946 -1.3791 -0.4572 -1.0312
   23MPD2     C  350   2.158   0.482  14.485  0.1701 -0.4278 -0.4382
   23MPD2    C1  351   2.094   0.554  14.584  0.4251 -0.2205 -0.1167
   23MPD2    C2  352   2.027   0.670  14.549  0.1777 -0.6676  0.4071
   23MPD2    C3  353   2.000   0.701  14.420 -1.1840  0.2452  0.7584
   23MPD2    C4  354   2.051   0.622  14.323 -0.0409 -0.6258 -0.3889
   23MPD2    C5  355   2.126   0.511  14.356  0.4838 -0.1679  0.2425
   23MPD2     H  356   1.990   0.728  14.633 -0.3647 -0.7312  0.2125
   23MPD2    H1  357   2.024   0.647  14.221 -2.8480 -0.8381  0.2972
   23MPD2    H2  358   2.219   0.394  14.504 -0.0529 -1.3234 -3.8153
   23MPD2    H3  359   2.171   0.460  14.271  0.6081 -0.1010  0.2687
   23MPD2     N  360   1.959   0.834  14.384  0.5722  0.6869  0.0463
   23MPD2    H5  361   1.960   0.849  14.284  0.5342 -1.6315 -0.2945
   23MPD2    N1  362   2.094   0.517  14.719 -0.0909 -0.5310 -0.2300
   23MPD2    H7  363   2.024   0.559  14.779  1.2571 -0.1595  1.1146
   24TCq2    C1  364   1.945   0.938  14.474 -0.0004  0.0782  0.0582
   24TCq2    O2  365   1.964   0.947  14.591 -0.7177 -0.2091  0.1700
   24TCq2    C2  366   1.919   1.059  14.399  1.6227  0.4197 -0.0348
   24TCq2    C3  367   1.963   1.174  14.452 -0.2454 -0.1131  1.0512
   24TCq2    C4  368   1.912   1.294  14.412 -0.3506  0.3886 -0.4422
   24TCq2    C5  369   1.817   1.296  14.315 -0.4122 -0.1256 -0.0261
   24TCq2    C6  370   1.776   1.177  14.257  0.4500  0.7807 -0.8972
   24TCq2    C7  371   1.825   1.058  14.294 -0.8079  0.1516  0.7992
   24TCq2    C8  372   1.652   1.171  14.182  0.3079 -0.0155 -0.4375
   24TCq2    O4  373   1.636   1.081  14.096 -0.0718  0.5411  0.3399
   24TCq2    C9  374   1.962   1.420  14.468 -0.9032  0.3218 -0.0184
   24TCq2    O5  375   2.063   1.413  14.548 -0.0548 -0.2415 -0.0883
   24TCq2    O6  376   1.911   1.527  14.425 -0.2920 -0.5503  0.0631
   24TCq2    H2  377   2.029   1.170  14.538 -0.2449 -0.6698  1.0263
   24TCq2    H3  378   1.772   1.389  14.283  2.3500  1.8019  1.6888
   24TCq2    H4  379   1.773   0.968  14.261  1.5076 -1.0260  0.4096
   25TMC2    C1  380   1.551   2.609  12.106  0.6411 -0.2480  0.3217
   25TMC2    C2  381   1.576   2.494  12.180  0.9129  0.2558  0.1670
   25TMC2    C3  382   1.514   2.482  12.299  0.5894 -0.3807  0.5106
   25TMC2    C4  383   1.478   2.709  12.156  0.0808 -0.5895  0.3462
   25TMC2    C5  384   1.410   2.692  12.274 -0.0517 -0.1719 -0.8131
   25TMC2    C6  385   1.426   2.576  12.350  0.0800  0.1199  0.3076
   25TMC2     C  386   1.605   2.616  11.976 -0.1072 -0.4281 -0.1851
   25TMC2     O  387   1.717   2.574  11.959 -0.1520 -0.2153  0.2331
   25TMC2     H  388   1.638   2.417  12.135 -0.4305 -0.4238 -0.5198
   25TMC2    H1  389   1.462   2.797  12.094 -1.5699 -0.4551  0.9447
   25TMC2    H2  390   1.365   2.557  12.437  1.6722 -1.0711  1.1594
   25TMC2    C7  391   1.320   2.787  12.338 -0.7492 -0.1184  0.3144
   25TMC2    C8  392   1.493   2.350  12.356  0.1518 -0.2378 -0.1038
   25TMC2    O1  393   1.303   2.768  12.458 -0.0121 -0.6858  0.2967
   25TMC2    O2  394   1.446   2.254  12.299  0.7298 -0.2214  0.2715
   25TMC2    O5  395   1.496   2.365  12.488 -0.7673 -0.2552 -0.0442
   25TMC2    H5  396   1.544   2.447  12.511 -0.7846 -0.2044 -0.1898
   26MPD2     C  397   1.540   2.699  11.470 -0.8337 -0.1290  0.4360
   26MPD2    C1  398   1.412   2.711  11.526 -0.4168 -0.4467 -0.3555
   26MPD2    C2  399   1.406   2.688  11.665 -0.1233  0.0110 -0.2657
   26MPD2    C3  400   1.521   2.662  11.744 -0.3377  0.0802  0.8551
   26MPD2    C4  401   1.639   2.640  11.676 -0.9957  0.1707 -0.6193
   26MPD2    C5  402   1.659   2.666  11.540 -0.5557 -0.6388  0.4139
   26MPD2     H  403   1.315   2.708  11.721 -0.2786  1.0639 -0.8917
   26MPD2    H1  404   1.732   2.615  11.725 -0.8695 -0.0753 -0.9827
   26MPD2    H2  405   1.549   2.708  11.362  0.2957  0.7630  0.5991
   26MPD2    H3  406   1.757   2.680  11.497 -0.4119  1.8948  1.5842
   26MPD2     N  407   1.506   2.656  11.888  0.1213 -0.3232  0.2523
   26MPD2    H5  408   1.418   2.678  11.935  0.3645  0.3702  0.3862
   26MPD2    N1  409   1.288   2.731  11.450 -0.8357 -0.9467  0.3231
   26MPD2    H7  410   1.292   2.721  11.349  1.1047 -0.6308  0.3664
   27TMC2    C1  411   4.621   0.426  11.731 -0.1505 -0.3137 -0.3103
   27TMC2    C2  412   0.025   0.481  11.717  0.6700 -0.7233  0.7129
   27TMC2    C3  413   0.037   0.617  11.681  0.9179 -0.0898 -0.2934
   27TMC2    C4  414   4.519   0.519  11.729  0.0382 -0.0131 -0.3535
   27TMC2    C5  415   4.533   0.651  11.706  0.5260 -0.3372 -0.7107
   27TMC2    C6  416   4.655   0.699  11.660  0.3115  0.4354 -0.3425
   27TMC2     C  417   4.610   0.332  11.838 -0.3073  0.1307  0.2888
   27TMC2     O  418   4.694   0.245  11.835 -0.2401 -0.3937 -0.0261
   27TMC2     H  419   0.112   0.419  11.734 -0.0318 -2.2143 -1.1060
   27TMC2    H1  420   4.418   0.480  11.736 -0.0639  0.2532 -0.3325
   27TMC2    H2  421   4.681   0.803  11.671  1.4931  0.0544  0.4884
   27TMC2    C7  422   4.487   0.719  11.826  0.9539 -0.8226 -0.5521
   27TMC2    C8  423   0.168   0.678  11.679  0.3698 -0.1879  0.1611
   27TMC2    O1  424   4.456   0.642  11.917 -0.5123  0.0417  0.5577
   27TMC2    O2  425   0.266   0.631  11.737 -0.1991 -0.2236 -0.1977
   27TMC2    O5  426   0.168   0.731  11.554  0.2594 -0.1509  0.5962
   27TMC2    H5  427   0.074   0.734  11.528  0.4947  2.4063  0.0684
   28MPD2     C  428   4.365   0.153  12.250 -0.4199  0.4544  0.0657
   28MPD2    C1  429   4.325   0.281  12.232 -0.8723  0.1386 -0.2147
   28MPD2    C2  430   4.366   0.351  12.121 -0.2874 -0.3299 -0.2445
   28MPD2    C3  431   4.462   0.286  12.038 -0.7499 -1.2651 -0.0480
   28MPD2    C4  432   4.505   0.156  12.060  0.5440  0.6766 -0.0654
   28MPD2    C5  433   4.456   0.091  12.169  0.5518 -0.0325 -0.3753
   28MPD2     H  434   4.333   0.450  12.092  0.8316 -0.5811 -2.3680
   28MPD2    H1  435   4.589   0.109  12.009  0.4199  1.6200 -1.1572
   28MPD2    H2  436   4.330   0.099  12.337  0.5056 -0.2690 -0.0093
   28MPD2    H3  437   4.503   4.723  12.203 -0.9549 -0.7031 -0.1091
   28MPD2     N  438   4.511   0.363  11.930  0.1869  0.0266  0.0196
   28MPD2    H5  439   4.479   0.458  11.918  0.6466  0.0225 -1.2962
   28MPD2    N1  440   4.234   0.336  12.326 -0.1080  0.0520  0.4315
   28MPD2    H7  441   4.214   0.277  12.407  3.0696 -2.0196 -0.3156
   29MPD2     C  442   4.162   2.933  14.506 -0.0631  0.1751  0.2050
   29MPD2    C1  443   4.289   2.890  14.497  0.8182  0.2013 -0.3087
   29MPD2    C2  444   4.389   2.981  14.487 -0.7891  1.0037 -0.1715
   29MPD2    C3  445   4.365   3.117  14.488  0.9520  0.4968  0.6352
   29MPD2    C4  446   4.232   3.163  14.501  0.5112 -0.0325 -0.6680
   29MPD2    C5  447   4.131   3.072  14.513 -0.4330 -0.0084 -0.2372
   29MPD2     H  448   4.489   2.939  14.478 -2.0780 -1.8450 -0.9447
   29MPD2    H1  449   4.213   3.270  14.498  2.0936  0.3154  1.7768
   29MPD2    H2  450   4.074   2.870  14.504 -0.3142  0.5029  1.3754
   29MPD2    H3  451   4.025   3.094  14.507 -0.4387  0.2144  0.6815
   29MPD2     N  452   4.468   3.212  14.481 -0.1226  0.2567  0.7283
   29MPD2    H5  453   4.452   3.311  14.492  0.0736  0.3497  0.1567
   29MPD2    N1  454   4.326   2.753  14.510 -0.2071  0.4508 -0.1361
   29MPD2    H7  455   4.424   2.728  14.497  0.2018  1.2563  1.3332
   30TCq2    C1  456   4.602   3.189  14.448  0.8210  0.6937 -0.1906
   30TCq2    O2  457   4.660   3.091  14.414 -0.2501 -0.0688 -0.3336
   30TCq2    C2  458   4.679   3.306  14.473  0.2743  0.5905 -0.2852
   30TCq2    C3  459   4.653   3.372  14.595  0.3003 -1.1630 -0.3485
   30TCq2    C4  460   4.708   3.495  14.616  0.0434 -0.2268  0.2845
   30TCq2    C5  461   0.067   3.553  14.524 -0.3434  0.0746  0.7374
   30TCq2    C6  462   0.085   3.489  14.403  0.1843  0.0427 -0.0252
   30TCq2    C7  463   0.033   3.366  14.379  0.0543 -0.5912  0.5829
   30TCq2    C8  464   0.111   3.574  14.292 -0.1291  0.1473 -0.1488
   30TCq2    O4  465   0.061   3.554  14.184 -0.3432  0.4607  0.1326
   30TCq2    C9  466   4.696   3.549  14.748  0.4745 -0.2460 -0.6826
   30TCq2    O5  467   0.024   3.665  14.767  0.3530  0.0782  0.2600
   30TCq2    O6  468   4.612   3.498  14.828 -0.8627  0.2806 -0.1122
   30TCq2    H2  469   4.601   3.325  14.677  1.2014  0.2343  1.0130
   30TCq2    H3  470   0.100   3.654  14.545  0.5507  0.1480 -0.9990
   30TCq2    H4  471   0.038   3.314  14.284  0.6688 -0.0957  0.3484
   31MPD2     C  472   2.265   1.906  15.019  0.7396 -0.1350 -0.3295
   31MPD2    C1  473   2.137   1.899  14.957 -0.4757  0.2826  0.1358
   31MPD2    C2  474   2.049   1.800  14.985 -0.2475 -0.4996  0.0799
   31MPD2    C3  475   2.079   1.702  15.073  1.5179  0.3211 -0.1323
   31MPD2    C4  476   2.207   1.708  15.128 -0.0960  0.1096  0.1424
   31MPD2    C5  477   2.292   1.809  15.107 -0.1479 -0.0887  0.1025
   31MPD2     H  478   1.951   1.798  14.938 -0.1745 -0.8470 -0.0595
   31MPD2    H1  479   2.219   1.637  15.208  0.6976 -0.8272 -0.8014
   31MPD2    H2  480   2.344   1.979  15.010  0.7516 -0.0757  0.2524
   31MPD2    H3  481   2.384   1.819  15.164 -1.7625  1.8224  2.4017
   31MPD2     N  482   1.992   1.593  15.114 -0.0585  0.2931 -0.3267
   31MPD2    H5  483   2.032   1.525  15.178 -0.1127  0.9556  0.4095
   31MPD2    N1  484   2.108   2.002  14.864  0.1793  0.5311 -0.0162
   31MPD2    H7  485   2.180   2.068  14.837 -1.1870  1.9812 -0.1075
   32TCq2    C1  486   1.866   1.576  15.067 -0.1373 -0.1490 -0.0609
   32TCq2    O2  487   1.816   1.628  14.971 -0.1028 -0.5730 -0.2116
   32TCq2    C2  488   1.801   1.456  15.119 -0.2096 -0.2314  0.0159
   32TCq2    C3  489   1.690   1.420  15.046 -0.8000 -0.2493  0.3846
   32TCq2    C4  490   1.630   1.302  15.088  0.3339 -0.1165 -0.9266
   32TCq2    C5  491   1.682   1.220  15.185  0.0365 -0.0492  1.3509
   32TCq2    C6  492   1.791   1.267  15.255 -0.5225 -0.5001 -0.5927
   32TCq2    C7  493   1.855   1.388  15.224  0.1895  0.8138  0.0711
   32TCq2    C8  494   1.785   1.242  15.403  0.0215 -0.6232 -0.0806
   32TCq2    O4  495   1.894   1.250  15.461 -0.1680  0.2794  0.3051
   32TCq2    C9  496   1.510   1.255  15.023  0.4724  0.2332  0.0393
   32TCq2    O5  497   1.471   1.145  15.060 -0.3204  0.2757 -0.4229
   32TCq2    O6  498   1.459   1.327  14.931 -0.0937  0.4283 -0.3777
   32TCq2    H2  499   1.640   1.486  14.977  1.0511 -0.2686 -0.9851
   32TCq2    H3  500   1.630   1.127  15.205 -1.3605  0.4079 -0.1389
   32TCq2    H4  501   1.924   1.431  15.296  0.1192 -0.9975  1.2205
   33MPD2     C  502   2.454   3.972   9.771 -0.0450  0.6138 -1.1600
   33MPD2    C1  503   2.331   4.007   9.817  0.4747 -0.5063  0.3032
   33MPD2    C2  504   2.283   4.132   9.790  0.4877  0.1551 -0.0857
   33MPD2    C3  505   2.363   4.216   9.717 -0.0516  0.8013  0.1567
   33MPD2    C4  506   2.480   4.180   9.659 -0.1133  0.1411 -0.2985
   33MPD2    C5  507   2.529   4.062   9.695  0.3163  0.0369  0.4261
   33MPD2     H  508   2.179   4.152   9.813  0.6048 -0.2693  0.8219
   33MPD2    H1  509   2.538   4.239   9.589 -0.1851 -0.1673 -0.6132
   33MPD2    H2  510   2.493   3.872   9.788  1.2692  1.2534 -0.4410
   33MPD2    H3  511   2.624   4.030   9.654 -0.6940 -0.6734 -1.4001
   33MPD2     N  512   2.315   4.343   9.663 -0.0818  0.4507  0.4510
   33MPD2    H5  513   2.370   4.391   9.592 -3.7586  2.9500 -0.7262
   33MPD2    N1  514   2.259   3.915   9.897 -0.4994  1.0802  0.2162
   33MPD2    H7  515   2.307   3.826   9.909 -0.1673  1.0576 -1.2748
   34TCq2    C1  516   2.199   4.412   9.709  0.3374 -0.2350  0.1232
   34TCq2    O2  517   2.109   4.368   9.778 -0.3729 -0.0594  0.0663
   34TCq2    C2  518   2.188   4.545   9.659  1.0961 -0.3889 -0.3546
   34TCq2    C3  519   2.057   4.592   9.650  0.6994 -0.1528 -0.5430
   34TCq2    C4  520   2.034   4.721   9.647  0.2138 -0.2688 -0.1053
   34TCq2    C5  521   2.134   0.087   9.662 -0.1592 -0.4825 -0.4704
   34TCq2    C6  522   2.257   0.038   9.680  0.7267  0.3878 -0.1202
   34TCq2    C7  523   2.292   4.630   9.679  0.1946  0.1979  0.5056
   34TCq2    C8  524   2.365   0.130   9.691  0.5247 -0.6315  0.3170
   34TCq2    O4  525   2.477   0.096   9.659  0.8084 -0.5271  0.7332
   34TCq2    C9  526   1.898   0.040   9.629 -0.5481  0.4159 -0.1260
   34TCq2    O5  527   1.869   0.162   9.620  0.2183  0.0652 -0.2869
   34TCq2    O6  528   1.806   4.677   9.643  0.0432  0.0504 -0.3939
   34TCq2    H2  529   1.970   4.527   9.650  0.7614 -0.2334  0.4114
   34TCq2    H3  530   2.116   0.194   9.655  1.6148 -0.1925 -0.6110
   34TCq2    H4  531   2.390   4.591   9.705 -0.2566 -0.4299  1.2362
   35MPD2     C  532   3.488   0.134  11.635  0.5133 -0.6569 -0.4979
   35MPD2    C1  533   3.502   0.258  11.697  0.9082 -0.1620  0.6042
   35MPD2    C2  534   3.392   0.348  11.679 -0.2754 -0.8263  0.2861
   35MPD2    C3  535   3.278   0.320  11.603  0.3016 -0.0178 -0.9150
   35MPD2    C4  536   3.275   0.198  11.545 -0.3006 -0.6115  0.2227
   35MPD2    C5  537   3.379   0.110  11.559  0.1559 -0.3003 -0.3547
   35MPD2     H  538   3.398   0.449  11.717 -0.4962 -0.5787 -0.3393
   35MPD2    H1  539   3.195   0.172  11.477  0.0646  0.9964 -0.8293
   35MPD2    H2  540   3.554   0.053  11.662 -0.8608 -0.8115  2.2992
   35MPD2    H3  541   3.362   0.009  11.525  2.3902  0.0286 -2.4362
   35MPD2     N  542   3.173   0.417  11.578  0.5461  0.2407  0.5893
   35MPD2    H5  543   3.197   0.507  11.618 -0.4389  1.3127 -1.2015
   35MPD2    N1  544   3.598   0.295  11.789  0.8858  0.3630  0.3503
   35MPD2    H7  545   3.591   0.390  11.825 -2.0022  0.4746 -0.4864
   36TCq2    C1  546   3.046   0.388  11.525  0.1227 -0.6272 -0.1434
   36TCq2    O2  547   2.996   0.287  11.481  0.3396 -0.0224 -0.0129
   36TCq2    C2  548   2.968   0.517  11.513  0.3504  0.1482 -0.3703
   36TCq2    C3  549   2.833   0.506  11.473  0.0486 -0.7168 -0.1495
   36TCq2    C4  550   2.751   0.607  11.508  0.2012 -0.0263  0.4261
   36TCq2    C5  551   2.791   0.716  11.578  0.1273  0.0601  0.6101
   36TCq2    C6  552   2.922   0.723  11.622  0.4282  0.2159 -0.2300
   36TCq2    C7  553   3.013   0.625  11.589 -0.6184 -0.4465 -0.0724
   36TCq2    C8  554   2.964   0.841  11.701  0.9724 -0.3926  0.7062
   36TCq2    O4  555   2.921   0.953  11.672  0.2153  0.3509 -0.3568
   36TCq2    C9  556   2.613   0.589  11.472  0.3474  0.1542 -0.2073
   36TCq2    O5  557   2.539   0.689  11.488 -0.4173  0.2089  0.0226
   36TCq2    O6  558   2.578   0.476  11.425 -0.1864  0.1362  0.0207
   36TCq2    H2  559   2.798   0.415  11.425  0.5698 -0.3803 -1.1713
   36TCq2    H3  560   2.713   0.783  11.611 -1.1453 -1.3967  0.5371
   36TCq2    H4  561   3.107   0.645  11.640 -1.8940  3.5620  0.6871
   37TMC2    C1  562   1.248   0.953  12.097 -0.3376 -0.4411  0.2308
   37TMC2    C2  563   1.299   0.958  11.972  0.7372 -0.1998  0.2027
   37TMC2    C3  564   1.417   1.022  11.958  0.4040 -0.0051 -0.0549
   37TMC2    C4  565   1.301   1.023  12.194  0.7712  0.4075 -0.4922
   37TMC2    C5  566   1.419   1.091  12.177  0.1035  0.5914  0.3959
   37TMC2    C6  567   1.480   1.096  12.058 -0.4138  0.3561 -0.6311
   37TMC2     C  568   1.122   0.887  12.113  0.1088  0.4687 -0.1256
   37TMC2     O  569   1.050   0.856  12.024  0.4188  0.1490  0.1250
   37TMC2     H  570   1.252   0.898  11.894 -1.4603 -0.3799  1.6796
   37TMC2    H1  571   1.250   1.032  12.289  1.4742 -0.7688  0.0041
   37TMC2    H2  572   1.582   1.126  12.037 -0.4537  0.0582 -1.2363
   37TMC2    C7  573   1.502   1.100  12.296 -0.3915  0.5929 -0.1295
   37TMC2    C8  574   1.486   1.015  11.828 -0.2545  0.2133 -0.2416
   37TMC2    O1  575   1.461   1.047  12.397  0.1519 -0.1227  0.2182
   37TMC2    O2  576   1.460   1.093  11.735  0.4060 -0.1317 -0.1323
   37TMC2    O5  577   1.475   0.879  11.808  0.0306 -0.2932  0.3076
   37TMC2    H5  578   1.481   0.821  11.887 -1.0902  0.9936  1.3458
   38MPD2     C  579   0.736   0.751  12.419  0.2607  0.3031  0.1294
   38MPD2    C1  580   0.855   0.758  12.498 -0.1515  0.2814  0.3338
   38MPD2    C2  581   0.970   0.816  12.439 -0.3354 -0.2925 -0.1463
   38MPD2    C3  582   0.971   0.839  12.305  0.0804  0.0603  0.7275
   38MPD2    C4  583   0.859   0.808  12.227  1.1070  0.3802  0.2847
   38MPD2    C5  584   0.743   0.774  12.290  0.5445  0.4140 -0.1179
   38MPD2     H  585   1.056   0.818  12.504 -1.8641 -1.8027  1.9250
   38MPD2    H1  586   0.859   0.828  12.120  1.2787 -0.1315  0.1906
   38MPD2    H2  587   0.646   0.704  12.458  0.2797 -1.2285 -1.6840
   38MPD2    H3  588   0.654   0.753  12.232 -1.1850 -1.3409  3.2023
   38MPD2     N  589   1.096   0.870  12.247 -0.3759  0.3659 -0.0338
   38MPD2    H5  590   1.173   0.879  12.313  0.2361 -2.0413 -0.4153
   38MPD2    N1  591   0.859   0.709  12.634  0.0852  0.1554  0.6190
   38MPD2    H7  592   0.955   0.699  12.667  0.7771  3.3592 -0.3458
   39MPD2     C  593   4.301   2.498   1.379 -0.3808 -0.1779  0.3072
   39MPD2    C1  594   4.247   2.526   1.504  0.4884 -0.4692 -0.5539
   39MPD2    C2  595   4.110   2.524   1.526 -0.6167 -0.6119  0.1869
   39MPD2    C3  596   4.026   2.493   1.421 -0.5565 -0.1182  0.8415
   39MPD2    C4  597   4.081   2.459   1.299  0.3753 -0.3857 -0.5436
   39MPD2    C5  598   4.220   2.465   1.271 -1.3330 -0.0955  0.3644
   39MPD2     H  599   4.066   2.551   1.622  1.5574  1.1122  0.6973
   39MPD2    H1  600   4.017   2.434   1.216  1.0366 -1.3964 -0.7423
   39MPD2    H2  601   4.409   2.501   1.370 -0.4454  1.2464  0.0482
   39MPD2    H3  602   4.270   2.435   1.179 -0.8079  0.1146  0.5799
   39MPD2     N  603   3.885   2.493   1.436  0.3103 -0.1716  0.2546
   39MPD2    H5  604   3.850   2.487   1.340  0.4763  0.6520  0.1434
   39MPD2    N1  605   4.344   2.567   1.605  0.2629  0.7182 -0.3375
   39MPD2    H7  606   4.439   2.550   1.573  0.2855  0.0982  0.0825
   40TCq2    C1  607   4.327   2.620   1.730  0.4612 -0.1167  0.4228
   40TCq2    O2  608   4.225   2.622   1.801  0.1117 -0.2980 -0.0536
   40TCq2    C2  609   4.448   2.674   1.792  0.3196 -0.2798 -0.5675
   40TCq2    C3  610   4.446   2.700   1.927  0.1389  0.3205  0.0837
   40TCq2    C4  611   4.562   2.750   1.978 -0.0580  0.0399 -0.5927
   40TCq2    C5  612   4.675   2.770   1.903  0.2755  0.1604 -0.2384
   40TCq2    C6  613   4.668   2.738   1.770 -0.0195 -0.1341 -0.4068
   40TCq2    C7  614   4.554   2.694   1.705 -0.0279 -1.2729  0.0115
   40TCq2    C8  615   0.060   2.778   1.690 -0.6054 -0.2238  0.2814
   40TCq2    O4  616   0.073   2.738   1.579 -0.4153  0.4034 -0.3124
   40TCq2    C9  617   4.579   2.767   2.123 -0.0748  0.5283  0.7450
   40TCq2    O5  618   4.468   2.758   2.192  0.1716 -0.4271 -0.5989
   40TCq2    O6  619   4.689   2.789   2.179  0.2266 -0.2665  0.0697
   40TCq2    H2  620   4.369   2.666   1.994  0.1457  4.3839  2.1211
   40TCq2    H3  621   0.044   2.790   1.956  0.1592  1.3267 -0.4821
   40TCq2    H4  622   4.543   2.713   1.599 -1.1048  0.7851  0.4942
   41TMC2    C1  623   3.531   1.378  13.300 -0.0034 -0.2844  0.0196
   41TMC2    C2  624   3.585   1.482  13.232  0.3351 -0.0817  0.8368
   41TMC2    C3  625   3.566   1.473  13.094  0.0641 -0.5148  0.3770
   41TMC2    C4  626   3.477   1.266  13.241 -0.0387 -0.8918  0.9587
   41TMC2    C5  627   3.483   1.254  13.108 -0.4420  0.0122  0.6872
   41TMC2    C6  628   3.515   1.362  13.033  0.0858  0.7843 -0.7967
   41TMC2     C  629   3.502   1.401  13.436 -0.0284  0.1186 -0.2560
   41TMC2     O  630   3.571   1.481  13.496 -0.0531 -0.1813 -0.2870
   41TMC2     H  631   3.611   1.571  13.288 -0.4911 -1.2236  3.0301
   41TMC2    H1  632   3.468   1.178  13.303 -1.9167 -0.1772  1.6839
   41TMC2    H2  633   3.525   1.354  12.926 -0.0557  0.2473 -0.7697
   41TMC2    C7  634   3.357   1.197  13.072  0.3552 -0.2788 -0.0844
   41TMC2    C8  635   3.611   1.585  13.003 -0.0702 -0.3301  1.5059
   41TMC2    O1  636   3.282   1.197  13.172 -0.2755 -0.1905  0.5558
   41TMC2    O2  637   3.579   1.603  12.883  0.1974 -1.1139  0.2209
   41TMC2    O5  638   3.705   1.658  13.067 -0.6000 -0.2084  0.1045
   41TMC2    H5  639   3.743   1.615  13.146 -1.4440  0.2361  0.7406
   42MPD2     C  640   3.438   1.344  13.703  0.4452  0.1362  0.0138
   42MPD2    C1  641   3.338   1.336  13.602  0.4391  0.5180 -0.2838
   42MPD2    C2  642   3.208   1.315  13.638 -0.4500  0.2985  0.5795
   42MPD2    C3  643   3.171   1.301  13.774  0.6961  0.1382  0.2731
   42MPD2    C4  644   3.267   1.337  13.872  0.1658 -0.4124  0.2376
   42MPD2    C5  645   3.396   1.348  13.835 -0.0197 -0.4451 -0.5845
   42MPD2     H  646   3.137   1.317  13.556  1.1222 -1.2719 -0.8261
   42MPD2    H1  647   3.233   1.355  13.973 -0.1115 -0.7776  0.2087
   42MPD2    H2  648   3.543   1.369  13.694  0.9575 -2.3448 -0.9468
   42MPD2    H3  649   3.467   1.363  13.915 -0.3085 -0.3641 -0.3388
   42MPD2     N  650   3.033   1.289  13.814  0.1191  0.5538 -0.2029
   42MPD2    H5  651   3.002   1.291  13.911  1.3820 -1.8727  0.2400
   42MPD2    N1  652   3.380   1.347  13.468  0.5643  0.6139  0.6464
   42MPD2    H7  653   3.314   1.330  13.392  0.8489  0.8589  0.3462
   43MPD2     C  654   4.162   4.228   0.978 -0.1501  0.9151  0.2716
   43MPD2    C1  655   4.249   4.127   1.029  0.3334 -0.4321  0.6572
   43MPD2    C2  656   4.207   4.079   1.157 -0.1362 -0.6984 -0.9175
   43MPD2    C3  657   4.091   4.121   1.221 -0.7906 -0.1295  0.3066
   43MPD2    C4  658   4.011   4.213   1.162 -0.2319  0.1396  0.5247
   43MPD2    C5  659   4.049   4.265   1.040 -0.0080 -0.4927  0.4757
   43MPD2     H  660   4.264   3.994   1.193 -2.1008 -1.9800 -0.8472
   43MPD2    H1  661   3.922   4.263   1.197 -0.4357 -0.4862  0.8936
   43MPD2    H2  662   4.186   4.282   0.887  2.2933  1.0271  0.9730
   43MPD2    H3  663   3.991   4.348   1.001  0.0210 -1.0570 -0.7500
   43MPD2     N  664   4.063   4.069   1.350 -0.3481  0.2854 -0.1353
   43MPD2    H5  665   4.112   3.995   1.400 -0.4836  0.7764  0.7321
   43MPD2    N1  666   4.367   4.075   0.968  0.1900 -0.1422 -0.1795
   43MPD2    H7  667   4.413   4.000   1.018  2.4747  0.5376 -1.2555
   44TCq2    C1  668   4.233   3.950   1.802  0.1101  0.0987  0.2365
   44TCq2    O2  669   4.324   3.953   1.718 -0.7421  0.4292 -0.5062
   44TCq2    C2  670   4.110   4.025   1.759 -0.3555 -0.5264 -0.3303
   44TCq2    C3  671   4.038   4.102   1.845  0.0542  0.2874 -0.3735
   44TCq2    C4  672   3.925   4.160   1.801  0.1343 -0.3307 -0.0616
   44TCq2    C5  673   3.894   4.158   1.668  0.0190 -0.1321 -0.5301
   44TCq2    C6  674   3.981   4.095   1.577 -0.6084 -0.2884  0.7704
   44TCq2    C7  675   4.084   4.016   1.624 -0.3443  0.1309  1.0214
   44TCq2    C8  676   3.960   4.112   1.437 -0.2966  0.1674 -0.2829
   44TCq2    O4  677   3.864   4.181   1.405  0.2415 -0.4605  0.1280
   44TCq2    C9  678   3.845   4.240   1.888  0.5814 -0.3181 -1.1419
   44TCq2    O5  679   3.859   4.217   2.013  0.0815 -0.4429  0.1570
   44TCq2    O6  680   3.755   4.316   1.837  0.9450 -0.1283  0.6303
   44TCq2    H2  681   4.070   4.103   1.948 -1.2386  1.0891  0.0105
   44TCq2    H3  682   3.802   4.204   1.637 -0.3357 -0.6277 -0.2200
   44TCq2    H4  683   4.156   3.964   1.562 -0.8315  0.8680 -0.1578
   45TMC2    C1  684   0.292   1.216   9.619 -0.1152  0.2882  0.1166
   45TMC2    C2  685   0.424   1.188   9.608 -0.3701  0.8470 -0.7512
   45TMC2    C3  686   0.513   1.286   9.652 -0.4525 -0.1344  0.2944
   45TMC2    C4  687   0.247   1.322   9.680 -0.5814 -0.2248 -0.3990
   45TMC2    C5  688   0.332   1.428   9.708  0.4162 -0.0102  0.3199
   45TMC2    C6  689   0.468   1.408   9.703  0.1278  0.1959  0.4642
   45TMC2     C  690   0.199   1.116   9.575 -0.4728 -0.1228  0.2007
   45TMC2     O  691   0.243   1.001   9.580  0.4815  0.0656  0.4705
   45TMC2     H  692   0.465   1.094   9.571  0.3952  1.6732 -2.0124
   45TMC2    H1  693   0.148   1.326   9.724  0.4607  0.2519  1.9071
   45TMC2    H2  694   0.550   1.469   9.738 -0.6647  0.7096  1.4099
   45TMC2    C7  695   0.276   1.550   9.754 -0.6715 -1.0289 -0.4248
   45TMC2    C8  696   0.646   1.278   9.602 -0.2638 -0.3151 -0.0197
   45TMC2    O1  697   0.160   1.546   9.785 -0.0827  0.0147 -0.2974
   45TMC2    O2  698   0.730   1.331   9.674  0.1664  0.6423 -0.2358
   45TMC2    O5  699   0.620   1.325   9.478 -0.3365  0.2300  0.7117
   45TMC2    H5  700   0.533   1.294   9.446  0.2546 -1.0991  0.3803
   46MPD2     C  701   4.689   0.952   9.492  0.1148 -0.5581 -0.0566
   46MPD2    C1  702   4.691   1.089   9.501  0.0695  0.4263 -0.2452
   46MPD2    C2  703   4.576   1.161   9.484 -0.5043 -0.2621 -0.0116
   46MPD2    C3  704   4.452   1.103   9.436  0.8233  0.4492  1.0486
   46MPD2    C4  705   4.450   0.972   9.420 -0.0763 -0.1563  0.2060
   46MPD2    C5  706   4.565   0.902   9.451  0.6270 -0.5933  0.2646
   46MPD2     H  707   4.579   1.269   9.493  0.0069 -0.3669  1.0267
   46MPD2    H1  708   4.362   0.918   9.387 -1.3840  1.1313  1.5628
   46MPD2    H2  709   0.042   0.877   9.510  1.8293  0.7228 -1.9150
   46MPD2    H3  710   4.562   0.795   9.436  2.5999 -0.6535  0.3055
   46MPD2     N  711   4.333   1.183   9.447 -0.5568  0.4057 -0.2631
   46MPD2    H5  712   4.344   1.284   9.456 -0.5183  0.4373 -0.6292
   46MPD2    N1  713   0.076   1.166   9.547  0.3955  0.1320  0.1515
   46MPD2    H7  714   0.066   1.266   9.556 -0.5778  0.0281  0.2921
   47TMC2    C1  715   2.849   1.411   8.898 -0.4621 -0.0916 -0.0386
   47TMC2    C2  716   2.975   1.371   8.873  0.1688  0.6554  0.4303
   47TMC2    C3  717   2.992   1.255   8.804  0.2495  0.0865 -0.1829
   47TMC2    C4  718   2.744   1.354   8.829  0.0797  0.7981  0.1636
   47TMC2    C5  719   2.772   1.261   8.736 -0.4934  0.0011  0.4584
   47TMC2    C6  720   2.894   1.201   8.729  0.9623 -0.2478 -0.4135
   47TMC2     C  721   2.824   1.512   8.996  0.1212  0.1310 -0.3819
   47TMC2     O  722   2.708   1.547   8.996 -0.0973 -0.1327  0.2531
   47TMC2     H  723   3.063   1.423   8.908 -0.1501  2.1858 -1.0500
   47TMC2    H1  724   2.640   1.376   8.847 -0.1688  1.0277 -1.5770
   47TMC2    H2  725   2.921   1.117   8.665  0.2926  0.1672 -1.2427
   47TMC2    C7  726   2.666   1.180   8.685 -0.5334 -0.5415 -0.3510
   47TMC2    C8  727   3.128   1.228   8.762  0.1962 -0.4149 -0.8433
   47TMC2    O1  728   2.684   1.067   8.645 -0.1303  0.3769  0.0559
   47TMC2    O2  729   3.203   1.324   8.743  0.1375  0.5855 -0.5298
   47TMC2    O5  730   3.143   1.104   8.719  0.0319  0.7361  0.4274
   47TMC2    H5  731   3.088   1.039   8.769  2.9452 -0.3463  2.2304
   48MPD2     C  732   2.803   1.705   9.219  0.1834  0.1187  0.1216
   48MPD2    C1  733   2.907   1.615   9.203 -0.5121  0.3750 -0.7183
   48MPD2    C2  734   3.018   1.607   9.292  0.8327 -0.3754 -0.3449
   48MPD2    C3  735   3.028   1.708   9.386  0.4200  1.1188  0.3308
   48MPD2    C4  736   2.935   1.805   9.394 -0.3601 -0.2211  0.1897
   48MPD2    C5  737   2.825   1.800   9.314  0.0757  0.0922  0.1687
   48MPD2     H  738   3.096   1.532   9.285  1.5926  0.4177 -0.2458
   48MPD2    H1  739   2.939   1.885   9.466  0.5509  0.8271 -1.0323
   48MPD2    H2  740   2.713   1.708   9.158  0.5604  2.1294 -0.3420
   48MPD2    H3  741   2.742   1.869   9.327  1.5846  2.0850 -0.9475
   48MPD2     N  742   3.139   1.705   9.474  0.2354 -0.0018 -0.3259
   48MPD2    H5  743   3.198   1.623   9.468 -0.3708 -0.5046  0.6389
   48MPD2    N1  744   2.917   1.520   9.097  0.0508 -0.5250 -0.5675
   48MPD2    H7  745   2.993   1.453   9.102  1.6438  1.0914 -3.7363
   49MPD2     C  746   1.460   3.140   9.954 -0.6110 -0.4590  1.0606
   49MPD2    C1  747   1.417   3.029  10.028 -0.0536  0.3192  0.0399
   49MPD2    C2  748   1.343   3.057  10.142 -0.3040  0.4194  0.0321
   49MPD2    C3  749   1.328   3.176  10.208 -0.0858  0.0457 -0.3676
   49MPD2    C4  750   1.387   3.284  10.136  0.5993  0.7217 -0.0054
   49MPD2    C5  751   1.442   3.263  10.015 -0.6540 -0.8487 -0.1179
   49MPD2     H  752   1.299   2.968  10.183 -0.4537  0.8839  0.8817
   49MPD2    H1  753   1.381   3.386  10.173 -0.1375  0.4934  0.5045
   49MPD2    H2  754   1.489   3.139   9.850 -4.0947 -2.1069  0.1002
   49MPD2    H3  755   1.469   3.357   9.968  2.7522 -0.6809  2.1903
   49MPD2     N  756   1.267   3.198  10.332  0.1367  0.2098  0.2149
   49MPD2    H5  757   1.305   3.278  10.381 -0.2222  2.5089 -3.2664
   49MPD2    N1  758   1.432   2.897   9.975 -0.7087 -0.0979  0.0270
   49MPD2    H7  759   1.387   2.823  10.028 -0.6507 -2.6526 -3.5209
   50TCq2    C1  760   1.484   2.863   9.857  0.1004 -0.1395 -0.0558
   50TCq2    O2  761   1.546   2.936   9.780  0.1195  0.0165 -0.4594
   50TCq2    C2  762   1.483   2.722   9.815 -0.7356  0.5969  0.0831
   50TCq2    C3  763   1.508   2.698   9.683 -0.2105 -0.4957 -0.1981
   50TCq2    C4  764   1.537   2.572   9.644 -0.4496  0.2691  0.5972
   50TCq2    C5  765   1.550   2.475   9.737 -0.9243 -0.0184 -0.1659
   50TCq2    C6  766   1.543   2.510   9.868  0.3910 -0.1614  0.0464
   50TCq2    C7  767   1.505   2.630   9.912 -0.0681  0.8113 -0.4147
   50TCq2    C8  768   1.574   2.400   9.961 -0.2637 -0.2289 -0.3703
   50TCq2    O4  769   1.629   2.302   9.913 -0.5659  0.1677  0.5253
   50TCq2    C9  770   1.555   2.547   9.494  0.0892 -0.1011 -0.2920
   50TCq2    O5  771   1.539   2.640   9.411 -0.1021  0.4845 -0.2281
   50TCq2    O6  772   1.573   2.429   9.457 -0.7052  0.2607 -0.3919
   50TCq2    H2  773   1.515   2.781   9.613 -0.1350 -0.4328 -0.1151
   50TCq2    H3  774   1.585   2.377   9.705 -0.3426  0.5596 -1.3122
   50TCq2    H4  775   1.500   2.640  10.020 -0.1790 -0.8267 -0.2612
   51MPD2     C  776   1.418   2.498   1.282  0.7342  0.0551 -0.3035
   51MPD2    C1  777   1.363   2.370   1.292  0.6155 -0.4450 -0.2943
   51MPD2    C2  778   1.296   2.325   1.407 -0.2094  0.0559 -0.4123
   51MPD2    C3  779   1.303   2.405   1.512  0.0976  0.5630  1.6107
   51MPD2    C4  780   1.377   2.517   1.510  0.5807 -0.5865  0.3260
   51MPD2    C5  781   1.439   2.563   1.396 -0.6349 -0.4594  0.1167
   51MPD2     H  782   1.237   2.233   1.405 -5.1310  3.2014  1.1756
   51MPD2    H1  783   1.401   2.561   1.606  4.6039 -1.2843 -0.3605
   51MPD2    H2  784   1.481   2.531   1.199  0.7495 -1.7629 -1.0171
   51MPD2    H3  785   1.507   2.647   1.409  0.0362 -0.6613 -2.0582
   51MPD2     N  786   1.243   2.358   1.628 -0.0738  0.2093 -0.1796
   51MPD2    H5  787   1.267   2.406   1.714  1.0938 -1.2196  0.2838
   51MPD2    N1  788   1.348   2.291   1.175  0.2522 -0.5139 -0.1291
   51MPD2    H7  789   1.299   2.203   1.183 -1.2679  0.2746 -0.8707
   52TCq2    C1  790   1.150   2.255   1.641 -0.1877 -0.1099  0.2579
   52TCq2    O2  791   1.085   2.196   1.555 -0.3350  0.6933  0.0156
   52TCq2    C2  792   1.123   2.221   1.785 -0.6417  0.1655  0.3218
   52TCq2    C3  793   1.033   2.119   1.813 -0.2363  0.0768 -0.6433
   52TCq2    C4  794   1.027   2.059   1.936  0.1269  0.0766  0.4508
   52TCq2    C5  795   1.102   2.108   2.037  0.1393  0.1100 -0.0443
   52TCq2    C6  796   1.187   2.221   2.013  0.2663 -0.3174 -0.0317
   52TCq2    C7  797   1.202   2.274   1.887  0.1568 -0.4365  0.3377
   52TCq2    C8  798   1.305   2.253   2.087 -0.8317  0.0762  0.2838
   52TCq2    O4  799   1.367   2.354   2.058  0.5255  0.4874 -0.0196
   52TCq2    C9  800   0.958   1.934   1.951  0.1302  0.7314  0.2930
   52TCq2    O5  801   0.867   1.901   1.871 -0.2100  0.0214 -0.1824
   52TCq2    O6  802   0.976   1.866   2.053 -0.0836 -0.1654 -0.2464
   52TCq2    H2  803   0.986   2.070   1.728  0.2283  0.3843 -1.0777
   52TCq2    H3  804   1.096   2.065   2.137  0.7453  0.9563  0.3604
   52TCq2    H4  805   1.258   2.365   1.872  0.9628 -0.8417  0.8628
   53TMC2    C1  806   1.768   1.188  12.976 -0.4686 -0.1675 -0.7117
   53TMC2    C2  807   1.846   1.134  13.079  0.4429 -0.1566 -0.5164
   53TMC2    C3  808   1.778   1.049  13.162 -0.1220 -0.0846  0.8478
   53TMC2    C4  809   1.625   1.175  12.966 -0.2500 -0.0675 -0.3274
   53TMC2    C5  810   1.572   1.088  13.061  0.0371 -0.4230  0.2803
   53TMC2    C6  811   1.647   1.010  13.146  0.0551  0.1693  0.0562
   53TMC2     C  812   1.834   1.228  12.849 -0.5405  0.4593 -0.2896
   53TMC2     O  813   1.952   1.259  12.861  0.2691 -0.2395 -0.2975
   53TMC2     H  814   1.954   1.144  13.082  0.3750  0.0987  1.0038
   53TMC2    H1  815   1.564   1.234  12.898 -1.2781  0.7867  1.3555
   53TMC2    H2  816   1.599   0.950  13.223  0.4969 -0.6238 -0.2988
   53TMC2    C7  817   1.442   1.049  13.023 -0.8418 -0.1748 -0.0505
   53TMC2    C8  818   1.870   0.969  13.246 -0.4235 -0.6597  0.1537
   53TMC2    O1  819   1.406   1.092  12.916 -0.6953  0.1572  0.3160
   53TMC2    O2  820   1.989   0.996  13.279  0.3188  0.4727  0.5034
   53TMC2    O5  821   1.825   0.848  13.228  0.2149  0.0096  0.5636
   53TMC2    H5  822   1.886   0.772  13.239 -1.3843 -1.2596  0.7154
   54MPD2     C  823   1.897   1.301  12.563 -0.4411  0.4571  0.6835
   54MPD2    C1  824   1.776   1.247  12.606  0.2437 -0.0351 -0.7044
   54MPD2    C2  825   1.672   1.201  12.520 -0.3204 -0.3675  0.5010
   54MPD2    C3  826   1.698   1.213  12.380 -0.4943 -0.1708 -0.2763
   54MPD2    C4  827   1.817   1.260  12.340 -0.2149 -0.2028  0.3708
   54MPD2    C5  828   1.919   1.294  12.428  0.0905  0.1164 -0.4612
   54MPD2     H  829   1.578   1.167  12.562 -1.6203  1.7265 -0.7186
   54MPD2    H1  830   1.835   1.265  12.233 -2.2315  0.3547  0.0456
   54MPD2    H2  831   1.977   1.328  12.630 -0.6436  0.1160  1.0642
   54MPD2    H3  832   2.020   1.315  12.396  1.0531  1.2030  3.3106
   54MPD2     N  833   1.607   1.177  12.279 -0.3790  0.0933  0.4828
   54MPD2    H5  834   1.624   1.203  12.183  2.3395  0.3563  1.0464
   54MPD2    N1  835   1.751   1.215  12.743  0.6911  0.3313  0.2149
   54MPD2    H7  836   1.660   1.175  12.761  0.9881  0.1028  1.1923
   55MPD2     C  837   2.907   3.200   1.268 -0.2451 -0.2937 -0.0133
   55MPD2    C1  838   2.776   3.185   1.310 -0.6538  0.1058  0.1828
   55MPD2    C2  839   2.676   3.238   1.240 -0.3682 -0.5414 -0.1970
   55MPD2    C3  840   2.703   3.302   1.121  0.0882  0.3618 -0.0888
   55MPD2    C4  841   2.834   3.319   1.077 -0.0442 -0.4069  0.3863
   55MPD2    C5  842   2.935   3.269   1.155  0.3299  0.2991  0.2141
   55MPD2     H  843   2.574   3.216   1.270 -1.1243  1.8783 -1.0475
   55MPD2    H1  844   2.862   3.350   0.977 -0.0886 -0.0800  0.4739
   55MPD2    H2  845   2.990   3.161   1.326  0.5872  0.4724 -0.6865
   55MPD2    H3  846   3.039   3.284   1.128 -0.0919 -0.0568 -1.6712
   55MPD2     N  847   2.594   3.370   1.053 -0.7103 -0.0597 -0.4462
   55MPD2    H5  848   2.505   3.386   1.100  0.4251  1.5702  1.1591
   55MPD2    N1  849   2.759   3.127   1.441  0.9222 -0.8174 -0.1961
   55MPD2    H7  850   2.843   3.095   1.488  2.3142  2.5298 -0.4351
   56TCq2    C1  851   2.634   3.101   1.500  0.8527 -0.8392  0.6708
   56TCq2    O2  852   2.530   3.161   1.484 -0.2359 -0.4059  0.0684
   56TCq2    C2  853   2.642   3.031   1.619 -0.4878  0.3002  0.3038
   56TCq2    C3  854   2.732   2.926   1.624  0.1097 -0.2939  0.6480
   56TCq2    C4  855   2.716   2.832   1.723 -0.5268 -0.3640  0.1643
   56TCq2    C5  856   2.600   2.834   1.809 -1.2207 -0.4111 -0.0314
   56TCq2    C6  857   2.506   2.932   1.781 -0.0240  0.5437  0.3765
   56TCq2    C7  858   2.530   3.037   1.701 -1.1795  0.2614 -0.1876
   56TCq2    C8  859   2.374   2.904   1.830 -0.1372  0.0621  0.4290
   56TCq2    O4  860   2.364   2.833   1.929  0.0885 -0.7691 -0.3363
   56TCq2    C9  861   2.791   2.716   1.711  0.5364  0.4239  0.8818
   56TCq2    O5  862   2.800   2.668   1.593  0.1548 -0.1226  0.0737
   56TCq2    O6  863   2.796   2.643   1.817 -0.3291  0.2505  0.6431
   56TCq2    H2  864   2.819   2.909   1.561  0.5974 -0.8073  1.4498
   56TCq2    H3  865   2.570   2.749   1.869 -0.5387 -1.8246 -1.6825
   56TCq2    H4  866   2.462   3.121   1.692  1.1109  2.0297 -0.9612
   57TMC2    C1  867   1.394   4.431  13.728  0.5245  0.2254 -0.2893
   57TMC2    C2  868   1.491   4.412  13.818  0.1977 -0.3773  0.2324
   57TMC2    C3  869   1.605   4.366  13.765  0.7687  0.2792  0.1873
   57TMC2    C4  870   1.399   4.406  13.594 -0.1109 -0.1382  0.0850
   57TMC2    C5  871   1.515   4.345  13.555  0.2510  0.4748  0.2191
   57TMC2    C6  872   1.617   4.318  13.640 -0.8994  0.8884  0.2236
   57TMC2     C  873   1.271   4.509  13.778 -0.6262  0.0389  0.6130
   57TMC2     O  874   1.282   4.593  13.863 -0.2749  0.3642  0.0262
   57TMC2     H  875   1.483   4.428  13.924 -0.1511 -0.4308  0.2132
   57TMC2    H1  876   1.316   4.429  13.528  0.6419  0.2092 -0.7426
   57TMC2    H2  877   1.710   4.270  13.613 -2.2775 -1.9954  0.6049
   57TMC2    C7  878   1.519   4.300  13.418  0.1226  0.5518 -0.1610
   57TMC2    C8  879   1.699   4.311  13.863  0.0446  0.0486  0.4823
   57TMC2    O1  880   1.411   4.297  13.360  0.1701  0.1811  0.7390
   57TMC2    O2  881   1.671   4.290  13.982  0.4674 -0.4877  0.4178
   57TMC2    O5  882   1.822   4.350  13.821 -0.1040 -0.4005  0.0695
   57TMC2    H5  883   1.822   4.399  13.737  1.9157  1.9329  1.4212
   58MPD2     C  884   0.758   4.580  13.730 -0.3385  0.4545 -0.0025
   58MPD2    C1  885   0.850   4.657  13.800  0.7233  0.6749 -0.1601
   58MPD2    C2  886   0.987   4.621  13.792 -0.0665  0.5514 -0.8727
   58MPD2    C3  887   1.026   4.506  13.730  0.2079 -0.2539  0.4104
   58MPD2    C4  888   0.931   4.429  13.663 -0.1979  0.1143 -0.2964
   58MPD2    C5  889   0.800   4.469  13.665  0.1684 -0.2301  0.1923
   58MPD2     H  890   1.065   4.688  13.828 -0.2538  1.2639 -1.7937
   58MPD2    H1  891   0.958   4.340  13.607  1.3498  1.7302 -2.0856
   58MPD2    H2  892   0.655   4.612  13.724 -0.2217  0.3608 -2.5432
   58MPD2    H3  893   0.728   4.409  13.609 -1.4303  2.3949 -0.5543
   58MPD2     N  894   1.157   4.461  13.717 -0.7406  0.4276 -0.6218
   58MPD2    H5  895   1.165   4.378  13.659 -0.3561  0.8028 -1.1220
   58MPD2    N1  896   0.813   0.048  13.879 -0.8382  0.0706 -0.1710
   58MPD2    H7  897   0.886   0.102  13.925 -1.9222  2.0100 -0.7285
   59MPD2     C  898   3.933   0.546  13.136 -0.4650 -0.3815  0.1993
   59MPD2    C1  899   3.981   0.447  13.213  0.0804 -0.5251 -0.5460
   59MPD2    C2  900   4.020   0.483  13.338 -0.2425 -0.7663  0.2207
   59MPD2    C3  901   4.019   0.609  13.389  0.3853  0.2127 -0.3061
   59MPD2    C4  902   3.968   0.703  13.312  0.5265  0.3770 -0.0254
   59MPD2    C5  903   3.921   0.672  13.187  0.1845 -0.4643  0.3753
   59MPD2     H  904   4.059   0.402  13.399  3.0860  2.7252  2.7289
   59MPD2    H1  905   3.954   0.805  13.345  0.4457  0.4227 -0.2019
   59MPD2    H2  906   3.898   0.528  13.035 -0.6060 -1.7689  0.4905
   59MPD2    H3  907   3.865   0.746  13.131  1.3674  0.7809  0.8102
   59MPD2     N  908   4.079   0.653  13.514 -0.4930  0.3879  1.0842
   59MPD2    H5  909   4.088   0.751  13.538  1.7279  0.0894  1.4311
   59MPD2    N1  910   3.983   0.310  13.174 -0.3023  0.4000 -0.1719
   59MPD2    H7  911   3.997   0.226  13.230  1.8017  1.0437  0.2705
   60TCq2    C1  912   3.974   0.283  13.039 -0.1866  0.2414 -0.4539
   60TCq2    O2  913   3.985   0.357  12.945  0.1690 -0.1160 -0.2658
   60TCq2    C2  914   3.953   0.144  13.011 -0.3428 -0.2288  0.5528
   60TCq2    C3  915   3.866   0.079  13.100 -0.2408  0.2873  0.1131
   60TCq2    C4  916   3.858   4.669  13.094 -0.0541 -0.7197 -0.0123
   60TCq2    C5  917   3.927   4.598  12.998 -0.4861 -0.3101  0.6156
   60TCq2    C6  918   3.998   4.666  12.907  1.2407  0.6808  0.3209
   60TCq2    C7  919   4.019   0.082  12.908  0.3844  0.1146  0.8562
   60TCq2    C8  920   4.045   4.597  12.785  0.0791  0.4382 -0.1875
   60TCq2    O4  921   4.059   4.474  12.784  0.3622  0.0030  0.2616
   60TCq2    C9  922   3.788   4.592  13.196 -0.4603 -0.0139 -0.0384
   60TCq2    O5  923   3.723   4.651  13.281 -0.7408 -0.3467 -0.1196
   60TCq2    O6  924   3.825   4.470  13.217  0.1242  0.1258  0.6602
   60TCq2    H2  925   3.800   0.130  13.169 -0.8613 -0.3765  0.0051
   60TCq2    H3  926   3.923   4.490  12.986  0.1986 -0.6004  3.0440
   60TCq2    H4  927   4.082   0.136  12.839 -0.4219 -1.8750 -1.3990
   61MPD2     C  928   3.338   1.331  15.364  0.1787  0.4176  0.3946
   61MPD2    C1  929   3.249   1.436  15.338  0.0386  0.5235  0.0851
   61MPD2    C2  930   3.232   1.469  15.211  0.0341  0.1904 -0.2061
   61MPD2    C3  931   3.309   1.419  15.105  0.0505 -0.0110  0.2200
   61MPD2    C4  932   3.398   1.310  15.131  0.1861 -0.8220  0.1984
   61MPD2    C5  933   3.415   1.275  15.263  0.3928  0.4947  0.8529
   61MPD2     H  934   3.161   1.549  15.193 -0.0446  0.0898 -0.3353
   61MPD2    H1  935   3.450   1.263  15.048  0.3623 -3.0477  1.5530
   61MPD2    H2  936   3.359   1.304  15.467  0.3409 -0.2980  0.1697
   61MPD2    H3  937   3.468   1.180  15.271 -0.8208 -0.1558  1.1643
   61MPD2     N  938   3.305   1.465  14.970  0.5346 -0.3556 -0.4718
   61MPD2    H5  939   3.371   1.429  14.901 -0.2029 -0.2556 -1.2250
   61MPD2    N1  940   3.166   1.497  15.434 -0.5447 -0.1202  0.5716
   61MPD2    H7  941   3.111   1.579  15.410 -1.3756 -1.2856 -1.4313
   62TCq2    C1  942   3.161   1.454  15.569 -0.7978 -0.5103  0.5225
   62TCq2    O2  943   3.217   1.365  15.629 -0.0108 -0.0319 -0.3346
   62TCq2    C2  944   3.060   1.527  15.645  0.5620 -0.4622 -0.2745
   62TCq2    C3  945   2.991   1.462  15.740  0.4399  0.0754 -0.5029
   62TCq2    C4  946   2.890   1.533  15.800  0.0866  0.8129  0.4293
   62TCq2    C5  947   2.851   1.657  15.760 -0.1882 -0.4328  0.6310
   62TCq2    C6  948   2.938   1.717  15.668  0.0766 -0.8731  0.3406
   62TCq2    C7  949   3.036   1.647  15.603  0.4709  0.1232 -0.0963
   62TCq2    C8  950   2.940   1.862  15.649 -0.3175  0.5004  0.3626
   62TCq2    O4  951   3.032   1.904  15.586 -0.3273 -0.6425  0.6390
   62TCq2    C9  952   2.820   1.461  15.900  0.1423 -0.2427 -0.4465
   62TCq2    O5  953   2.755   1.521  15.988  0.0063 -0.2513  0.1580
   62TCq2    O6  954   2.854   1.342  15.917 -0.1143  0.1894 -0.3646
   62TCq2    H2  955   3.013   1.359  15.768  0.4276  0.4561  0.8829
   62TCq2    H3  956   2.779   1.712  15.820 -0.9855  0.9286 -1.6041
   62TCq2    H4  957   3.115   1.700  15.552  0.8098 -0.0325  0.2691
   63TMC2    C1  958   3.375   1.430  10.774  0.5048  0.0785 -0.0196
   63TMC2    C2  959   3.494   1.478  10.829  0.0420  0.3426  0.2543
   63TMC2    C3  960   3.554   1.591  10.776  0.0990  0.1018 -0.0575
   63TMC2    C4  961   3.306   1.502  10.676 -0.1196  0.5081 -0.2465
   63TMC2    C5  962   3.371   1.610  10.622 -0.1752 -0.6513  0.3647
   63TMC2    C6  963   3.495   1.655  10.669  0.4679 -0.1412  0.7434
   63TMC2     C  964   3.314   1.318  10.849 -0.2725 -0.2671 -0.4151
   63TMC2     O  965   3.328   1.303  10.967  0.4708 -0.1806 -0.5852
   63TMC2     H  966   3.538   1.428  10.915  0.0097 -0.7411 -0.3523
   63TMC2    H1  967   3.211   1.465  10.639  0.4921 -2.9515  1.6095
   63TMC2    H2  968   3.560   1.734  10.632  0.8614 -0.8210 -0.0208
   63TMC2    C7  969   3.314   1.674  10.514 -0.5902 -0.1920 -0.4444
   63TMC2    C8  970   3.689   1.640  10.817  0.2748 -0.1151  0.4703
   63TMC2    O1  971   3.231   1.614  10.451 -0.6093  0.3856  0.1930
   63TMC2    O2  972   3.729   1.750  10.786 -0.0979  0.2456 -0.3239
   63TMC2    O5  973   3.760   1.538  10.869 -0.6724  1.0778  0.2855
   63TMC2    H5  974   3.732   1.446  10.850  1.8807  0.5215 -0.8688
   64MPD2     C  975   3.045   0.885  10.830 -0.6711 -0.5752  0.2642
   64MPD2    C1  976   3.084   0.919  10.705  0.6199  0.1493 -0.4957
   64MPD2    C2  977   3.141   1.043  10.692 -0.2841  0.9459  0.1916
   64MPD2    C3  978   3.179   1.121  10.801 -0.5379  0.2528 -0.0870
   64MPD2    C4  979   3.161   1.081  10.936  0.5886  0.1843  0.3342
   64MPD2    C5  980   3.082   0.967  10.940 -0.2379  0.4750 -0.2969
   64MPD2     H  981   3.163   1.071  10.589 -0.1162 -2.7222 -0.7744
   64MPD2    H1  982   3.188   1.142  11.022  1.8709 -1.8443  1.3842
   64MPD2    H2  983   2.975   0.803  10.844 -2.0050  0.5231  0.0829
   64MPD2    H3  984   3.055   0.933  11.039 -2.6391  2.3764 -0.3198
   64MPD2     N  985   3.245   1.239  10.762 -0.1153  0.0050  0.4433
   64MPD2    H5  986   3.244   1.264  10.664 -2.5939 -1.6753  0.0428
   64MPD2    N1  987   3.048   0.842  10.591  0.2096  0.1094 -0.1126
   64MPD2    H7  988   3.070   0.874  10.498  0.5441  0.6109  0.1394
   65MPD2     C  989   3.434   0.891  16.015  0.1992 -0.0458  0.0646
   65MPD2    C1  990   3.525   0.851  15.921  0.4488  0.2103 -0.6034
   65MPD2    C2  991   3.559   0.716  15.912 -0.8273  0.6301 -0.1630
   65MPD2    C3  992   3.492   0.621  15.999 -0.9411  0.3601 -0.2501
   65MPD2    C4  993   3.407   0.673  16.098  0.2750  0.0064  0.3066
   65MPD2    C5  994   3.378   0.806  16.104 -0.3611  0.3989  0.0854
   65MPD2     H  995   3.616   0.684  15.825  1.0189 -0.3895  1.4134
   65MPD2    H1  996   3.344   0.622  16.170 -0.6614  1.2658  0.3812
   65MPD2    H2  997   3.410   0.996  16.029  0.6547  0.2153 -1.1451
   65MPD2    H3  998   3.321   0.839  16.190 -1.5823 -1.5624  0.0208
   65MPD2     N  999   3.490   0.482  15.978 -0.6549 -0.2689  0.3650
   65MPD2    H5 1000   3.431   0.431  16.044  0.0312 -0.3955  0.8869
   65MPD2    N1 1001   3.570   0.941  15.819 -0.0282 -0.1294  0.2029
   65MPD2    H7 1002   3.619   0.896  15.742 -0.9887  2.4900 -1.9328
   66TCq2    C1 1003   3.555   1.077  15.814  0.3019  0.3281 -0.0306
   66TCq2    O2 1004   3.505   1.154  15.892 -0.1626  0.5821  0.7859
   66TCq2    C2 1005   3.612   1.132  15.698 -0.2151 -0.5701 -0.0890
   66TCq2    C3 1006   3.628   1.062  15.578 -0.2715 -0.3032 -0.0090
   66TCq2    C4 1007   3.691   1.130  15.477  0.0137 -0.4747  0.2603
   66TCq2    C5 1008   3.734   1.260  15.477  0.1926 -0.3627  0.1854
   66TCq2    C6 1009   3.713   1.330  15.594  0.2202 -0.1802  0.3496
   66TCq2    C7 1010   3.651   1.271  15.702  1.2605 -0.9152 -0.0465
   66TCq2    C8 1011   3.729   1.471  15.589 -0.1050 -0.4666 -0.4403
   66TCq2    O4 1012   3.804   1.509  15.499  0.2352  0.2135 -0.1197
   66TCq2    C9 1013   3.708   1.067  15.344 -0.1868 -0.4445 -0.4138
   66TCq2    O5 1014   3.667   0.947  15.321  0.0196 -0.6460 -0.1799
   66TCq2    O6 1015   3.788   1.123  15.260  0.1155 -0.2065  0.2258
   66TCq2    H2 1016   3.585   0.963  15.567 -0.5421 -0.1563 -0.2557
   66TCq2    H3 1017   3.776   1.311  15.391  0.1304 -2.5627 -1.1339
   66TCq2    H4 1018   3.635   1.320  15.798  0.7434 -1.1784  0.0045
   67MPD2     C 1019   3.940   0.282  14.397 -0.4561 -0.1426  0.2997
   67MPD2    C1 1020   3.879   0.397  14.456  0.0736  0.4141 -0.4424
   67MPD2    C2 1021   3.777   0.465  14.389  0.2824 -0.4282 -0.5373
   67MPD2    C3 1022   3.734   0.429  14.269 -0.4868  0.3922 -0.0283
   67MPD2    C4 1023   3.795   0.325  14.212  0.5843  0.1327  0.6156
   67MPD2    C5 1024   3.893   0.251  14.272  0.4191  0.4960 -0.1234
   67MPD2     H 1025   3.723   0.538  14.449  1.9235  0.2705  0.1064
   67MPD2    H1 1026   3.750   0.297  14.118  0.3887  1.9615  0.1641
   67MPD2    H2 1027   4.018   0.218  14.435 -0.0468 -0.5853 -1.2625
   67MPD2    H3 1028   3.931   0.166  14.218 -2.1709 -1.4825  1.1371
   67MPD2     N 1029   3.635   0.496  14.192  0.1717 -0.2940 -0.0355
   67MPD2    H5 1030   3.609   0.449  14.105 -0.3699  0.0539 -0.0604
   67MPD2    N1 1031   3.914   0.435  14.590  1.0456  0.7767  0.0843
   67MPD2    H7 1032   3.860   0.514  14.623 -1.6714 -0.5472 -1.2646
   68TCq2    C1 1033   4.028   0.399  14.661 -0.4738  0.2872 -0.3076
   68TCq2    O2 1034   4.117   0.322  14.634 -0.0558  0.3022 -0.8665
   68TCq2    C2 1035   4.045   0.468  14.787  0.7855 -0.1535 -0.2391
   68TCq2    C3 1036   3.966   0.578  14.824  0.5855 -0.1453 -0.2435
   68TCq2    C4 1037   3.963   0.615  14.953 -0.0318  0.2261 -0.4556
   68TCq2    C5 1038   4.050   0.554  15.040  0.0896  0.2114 -0.6897
   68TCq2    C6 1039   4.129   0.450  14.999 -0.2465  0.1194  1.0014
   68TCq2    C7 1040   4.124   0.400  14.871  0.3269 -0.3436  0.0502
   68TCq2    C8 1041   4.228   0.383  15.086 -0.1765 -0.6103  0.3114
   68TCq2    O4 1042   4.321   0.327  15.033 -0.1530  0.5594  0.1928
   68TCq2    C9 1043   3.883   0.728  14.994  0.3385  0.1543 -0.8729
   68TCq2    O5 1044   3.833   0.721  15.111  0.0391 -0.3745  0.3036
   68TCq2    O6 1045   3.882   0.836  14.926 -0.2581  0.2076 -0.0023
   68TCq2    H2 1046   3.903   0.640  14.762 -0.8165 -1.6200 -0.3016
   68TCq2    H3 1047   4.072   0.594  15.138  1.0388 -1.0202 -0.4052
   68TCq2    H4 1048   4.172   0.307  14.843  0.7218 -0.0212 -0.3538
   69TMC2    C1 1049   0.750   1.491  12.203 -0.5343  0.0521  0.8683
   69TMC2    C2 1050   0.621   1.467  12.177 -0.3552  0.0670 -0.4551
   69TMC2    C3 1051   0.584   1.487  12.048  0.6572  0.0048  0.3583
   69TMC2    C4 1052   0.840   1.496  12.102  0.1735 -0.1603  0.7832
   69TMC2    C5 1053   0.798   1.501  11.971 -0.0457 -0.8301  0.1684
   69TMC2    C6 1054   0.667   1.504  11.943 -0.1779 -0.1900 -0.1561
   69TMC2     C 1055   0.791   1.528  12.339 -0.4768 -0.0012  0.3509
   69TMC2     O 1056   0.709   1.518  12.428  0.1326 -0.4827  0.1302
   69TMC2     H 1057   0.544   1.471  12.254 -3.0281  1.1355 -3.1707
   69TMC2    H1 1058   0.945   1.490  12.128  0.3718  0.2166  0.0786
   69TMC2    H2 1059   0.629   1.492  11.842 -1.0358  0.5841  0.0776
   69TMC2    C7 1060   0.893   1.555  11.876 -0.5865 -0.2486 -0.2336
   69TMC2    C8 1061   0.446   1.458  12.012 -0.4543  0.6280 -0.1490
   69TMC2    O1 1062   0.986   1.612  11.928 -0.4308  0.4892  0.1742
   69TMC2    O2 1063   0.372   1.393  12.086  0.5066 -0.1341  0.7939
   69TMC2    O5 1064   0.407   1.542  11.912 -0.0033 -0.6000 -0.1717
   69TMC2    H5 1065   0.477   1.608  11.894 -0.7009  0.8846  2.4122
   70MPD2     C 1066   1.095   1.710  12.453  0.3573 -0.4162  0.1278
   70MPD2    C1 1067   0.982   1.631  12.467 -0.9705  0.5441  0.0955
   70MPD2    C2 1068   0.955   1.568  12.585  0.0218 -0.0297 -0.1565
   70MPD2    C3 1069   1.030   1.591  12.694  0.1923  0.1686  0.5623
   70MPD2    C4 1070   1.147   1.670  12.678  0.2619  0.3167  0.8787
   70MPD2    C5 1071   1.176   1.728  12.560 -0.1166  0.6575  0.2431
   70MPD2     H 1072   0.866   1.506  12.585  1.1916 -1.6975 -0.6751
   70MPD2    H1 1073   1.216   1.680  12.761 -0.3184  0.6268  1.3216
   70MPD2    H2 1074   1.120   1.771  12.367  0.5649 -0.9856 -0.2143
   70MPD2    H3 1075   1.263   1.793  12.557  0.6091 -0.4045 -1.5570
   70MPD2     N 1076   1.011   1.532  12.823 -0.0679 -0.1414 -0.3239
   70MPD2    H5 1077   1.079   1.562  12.891  0.5552 -2.0721 -0.1116
   70MPD2    N1 1078   0.908   1.602  12.346  1.2387 -0.3587  0.3159
   70MPD2    H7 1079   0.945   1.635  12.257 -2.6025  3.9819  0.3077
   71TMC2    C1 1080   0.046   2.213   1.672 -0.1325  0.2425  0.3708
   71TMC2    C2 1081   0.128   2.304   1.740 -0.5036 -0.1869  0.2049
   71TMC2    C3 1082   0.076   2.368   1.846  0.1496  0.0980 -0.4491
   71TMC2    C4 1083   4.637   2.208   1.700 -0.0683  0.1866  0.4568
   71TMC2    C5 1084   4.584   2.279   1.800  0.0496  0.3649 -0.6740
   71TMC2    C6 1085   4.665   2.355   1.881 -0.5527  0.3399  0.5188
   71TMC2     C 1086   0.090   2.162   1.540 -0.0264 -0.0052  0.3924
   71TMC2     O 1087   0.003   2.139   1.461 -0.4305  0.0648  0.0019
   71TMC2     H 1088   0.234   2.319   1.718 -1.1320  1.4828 -1.7010
   71TMC2    H1 1089   4.569   2.141   1.648  1.6670 -0.5175 -0.8886
   71TMC2    H2 1090   4.631   2.427   1.955 -0.0035  0.8907  0.2404
   71TMC2    C7 1091   4.452   2.261   1.855  0.7171 -0.2875  0.2809
   71TMC2    C8 1092   0.159   2.459   1.923 -0.4400  0.1340 -0.2191
   71TMC2    O1 1093   4.425   2.308   1.964 -0.6772  0.1095 -0.1898
   71TMC2    O2 1094   0.120   2.497   2.032  0.6453 -0.5261  0.2720
   71TMC2    O5 1095   0.216   2.543   1.839 -0.0020  0.0692  0.2238
   71TMC2    H5 1096   0.215   2.516   1.745  0.8307  3.1286 -0.6532
   72MPD2     C 1097   0.457   2.123   1.196  0.3170  1.1987  0.0905
   72MPD2    C1 1098   0.317   2.155   1.192  0.0202  0.5449 -0.3517
   72MPD2    C2 1099   0.246   2.149   1.306  0.6795 -0.3389  0.3375
   72MPD2    C3 1100   0.305   2.134   1.424  0.2154  0.5987 -0.7766
   72MPD2    C4 1101   0.437   2.108   1.438 -0.2151  0.6409 -0.0627
   72MPD2    C5 1102   0.512   2.099   1.319  0.6139 -0.6446 -0.7868
   72MPD2     H 1103   0.139   2.165   1.295  0.6966 -0.4844 -0.0551
   72MPD2    H1 1104   0.488   2.083   1.530 -0.5152  2.4204  0.5797
   72MPD2    H2 1105   0.510   2.138   1.103  0.4791  1.9014  0.2946
   72MPD2    H3 1106   0.619   2.083   1.331  0.7349  0.3308 -0.5632
   72MPD2     N 1107   0.228   2.146   1.535  0.1111  0.1527  0.5643
   72MPD2    H5 1108   0.275   2.150   1.624 -1.2703  0.2910  1.2933
   72MPD2    N1 1109   0.251   2.182   1.073  0.4932 -0.1381 -0.3814
   72MPD2    H7 1110   0.156   2.214   1.087 -0.0971 -1.6860 -0.7496
   73TMC2    C1 1111   3.441   3.565  14.302 -0.2703 -0.1033  0.1037
   73TMC2    C2 1112   3.309   3.570  14.335 -0.0970  0.0819 -0.9925
   73TMC2    C3 1113   3.279   3.638  14.447 -0.0288  0.3474  0.6070
   73TMC2    C4 1114   3.540   3.619  14.382  0.2724  0.5773 -0.9181
   73TMC2    C5 1115   3.504   3.680  14.496 -0.4427  0.0784  0.0999
   73TMC2    C6 1116   3.374   3.684  14.533  0.1193 -0.2097 -0.1703
   73TMC2     C 1117   3.481   3.584  14.161  0.0211  0.0465 -0.0653
   73TMC2     O 1118   3.574   3.660  14.146  0.2216 -0.3483 -0.0099
   73TMC2     H 1119   3.230   3.558  14.261  1.0480 -1.1681 -2.0129
   73TMC2    H1 1120   3.644   3.614  14.354  0.3936 -1.8302 -0.1034
   73TMC2    H2 1121   3.351   3.745  14.620  1.6957  0.3073 -0.1008
   73TMC2    C7 1122   3.569   3.811  14.496  0.9859 -0.2790  0.3726
   73TMC2    C8 1123   3.151   3.714  14.451  0.1081  0.0969 -0.4063
   73TMC2    O1 1124   3.590   3.864  14.603  0.2563 -0.1640  0.3828
   73TMC2    O2 1125   3.156   3.832  14.422  0.0050  0.3040  0.6436
   73TMC2    O5 1126   3.056   3.628  14.424  0.4204  0.3080 -0.1854
   73TMC2    H5 1127   3.080   3.536  14.448 -2.0739 -0.4865 -0.7895
   74MPD2     C 1128   3.415   3.541  13.652 -0.1642 -0.3271  0.8414
   74MPD2    C1 1129   3.481   3.635  13.728 -0.2063  0.0671  0.0344
   74MPD2    C2 1130   3.482   3.620  13.861  0.8702 -0.7293  0.1050
   74MPD2    C3 1131   3.406   3.524  13.929  0.3894 -0.2782 -0.4958
   74MPD2    C4 1132   3.343   3.436  13.851  0.2222  0.0400  0.1329
   74MPD2    C5 1133   3.355   3.440  13.719  0.1229  0.1854 -0.1025
   74MPD2     H 1134   3.550   3.680  13.920 -1.2640  1.3953  0.4003
   74MPD2    H1 1135   3.287   3.356  13.897 -2.1646  1.5801 -0.0821
   74MPD2    H2 1136   3.396   3.564  13.548  1.0222  0.4676  0.8099
   74MPD2    H3 1137   3.288   3.373  13.666 -1.0945  0.7292  0.7266
   74MPD2     N 1138   3.402   3.517  14.070  0.3211 -0.8754 -0.0782
   74MPD2    H5 1139   3.327   3.457  14.103 -2.1853  1.8769 -0.8093
   74MPD2    N1 1140   3.537   3.749  13.667  0.8941  0.1007 -0.5377
   74MPD2    H7 1141   3.538   3.750  13.566  0.5217 -1.0608 -0.5577
   75TCq2    C1 1142   3.564   0.612  14.241 -0.5831  0.0315 -0.3388
   75TCq2    O2 1143   3.586   0.684  14.336 -0.3011  0.6375 -0.0571
   75TCq2    C2 1144   3.455   0.666  14.164 -0.7883 -0.2331  0.2615
   75TCq2    C3 1145   3.388   0.774  14.222  0.1035  0.6922 -0.7564
   75TCq2    C4 1146   3.326   0.869  14.137 -0.3434 -0.6984  0.3828
   75TCq2    C5 1147   3.344   0.861  13.998  0.3829 -0.0707  0.1947
   75TCq2    C6 1148   3.410   0.752  13.949 -0.3576 -0.2794  0.3854
   75TCq2    C7 1149   3.454   0.649  14.031 -0.1987 -0.8523 -0.1346
   75TCq2    C8 1150   3.384   0.718  13.810  0.0843  0.3015 -0.0128
   75TCq2    O4 1151   3.348   0.609  13.773 -0.0070  0.3265 -0.4652
   75TCq2    C9 1152   3.255   0.978  14.200  0.1092 -0.2684  0.4059
   75TCq2    O5 1153   3.249   0.965  14.327 -0.3902  0.5704  0.0039
   75TCq2    O6 1154   3.175   1.042  14.127  0.1243 -0.1967 -0.3968
   75TCq2    H2 1155   3.378   0.787  14.329  0.3046  0.2427 -0.6829
   75TCq2    H3 1156   3.305   0.934  13.929  1.4924  0.3530  0.0160
   75TCq2    H4 1157   3.516   0.569  13.992 -0.4999 -0.8318 -0.6486
   76MPD2     C 1158   2.000   1.829  11.948  0.4736  0.6273 -0.7106
   76MPD2    C1 1159   1.990   1.782  11.816  0.1268  0.2806 -0.0181
   76MPD2    C2 1160   2.097   1.706  11.769 -0.1602 -0.1188  0.4718
   76MPD2    C3 1161   2.216   1.704  11.836 -0.3916 -1.2221 -0.3538
   76MPD2    C4 1162   2.234   1.763  11.951 -0.2512 -0.1982 -0.2771
   76MPD2    C5 1163   2.122   1.821  12.013  0.5646  0.5737  0.6596
   76MPD2     H 1164   2.095   1.660  11.671 -0.8456  0.1614  0.3537
   76MPD2    H1 1165   2.331   1.767  11.999  0.3126  0.8267 -1.5177
   76MPD2    H2 1166   1.917   1.883  11.991 -1.3164 -0.8816 -2.2642
   76MPD2    H3 1167   2.134   1.872  12.107  2.2448  1.1459  0.1364
   76MPD2     N 1168   2.332   1.634  11.791  0.4442 -0.7814  0.1352
   76MPD2    H5 1169   2.409   1.650  11.854  0.9406 -0.4817 -0.5537
   76MPD2    N1 1170   1.876   1.801  11.731  0.2551  0.8329 -0.0965
   76MPD2    H7 1171   1.884   1.769  11.635  2.7469 -0.2946  0.4896
   77TCq2    C1 1172   2.327   1.531  11.708 -0.7192  0.2875  0.2390
   77TCq2    O2 1173   2.228   1.482  11.653 -0.0951 -0.2201  0.4614
   77TCq2    C2 1174   2.458   1.462  11.703  0.5941 -0.9384 -0.0852
   77TCq2    C3 1175   2.576   1.530  11.725 -0.6713 -0.0935  0.7688
   77TCq2    C4 1176   2.689   1.461  11.745  0.4739 -0.2204  0.7939
   77TCq2    C5 1177   2.692   1.321  11.734  0.5747 -1.5197 -0.5088
   77TCq2    C6 1178   2.574   1.259  11.701 -0.1405  0.8505  0.2393
   77TCq2    C7 1179   2.455   1.328  11.682  0.1163  0.1858  0.0863
   77TCq2    C8 1180   2.542   1.118  11.740  0.2037  0.1761 -0.2018
   77TCq2    O4 1181   2.451   1.063  11.685 -0.2399 -0.2374  0.6748
   77TCq2    C9 1182   2.807   1.537  11.766  0.2089 -0.8987 -0.5882
   77TCq2    O5 1183   2.917   1.490  11.725 -0.0131 -0.2932  0.3878
   77TCq2    O6 1184   2.796   1.647  11.825 -0.5429  1.0019 -0.8542
   77TCq2    H2 1185   2.569   1.638  11.726 -1.7273 -0.1553  0.7409
   77TCq2    H3 1186   2.787   1.270  11.748  0.3730 -1.5604  0.6911
   77TCq2    H4 1187   2.364   1.277  11.651 -0.4460  1.6408 -0.6726
   78MPD1     C 1188   3.385   0.553   1.913 -0.4483  0.8091 -0.7822
   78MPD1    C1 1189   3.418   0.617   1.795 -0.2825  0.3547 -0.3407
   78MPD1    C2 1190   3.517   0.715   1.793  0.3238 -0.3941 -0.5193
   78MPD1    C3 1191   3.591   0.739   1.909  1.0289 -0.0610  0.0870
   78MPD1    C4 1192   3.567   0.667   2.030  0.4928 -0.2990 -0.7629
   78MPD1    C5 1193   3.465   0.573   2.028  0.2730  0.2115 -0.4473
   78MPD1     H 1194   3.547   0.770   1.704  0.2930 -0.3175 -0.4820
   78MPD1    H1 1195   3.630   0.682   2.117  0.5998  2.5177 -1.3090
   78MPD1    H2 1196   3.306   0.480   1.917  0.5116 -0.0940  1.6543
   78MPD1    H3 1197   3.439   0.520   2.118  0.8606  0.7137  0.0201
   78MPD1     N 1198   3.701   0.831   1.923 -0.3191 -0.7742 -0.3443
   78MPD1    H5 1199   3.765   0.817   2.001  0.0334 -1.0897 -0.6928
   78MPD1    N1 1200   3.360   0.570   1.676 -0.2394  0.4364  0.8237
   78MPD1    H6 1201   3.282   0.506   1.690 -1.0674  0.9279 -1.5953
   78MPD1    H7 1202   3.342   0.630   1.596 -0.4232 -0.3660  0.2641
   79TCq2    C1 1203   3.736   0.922   1.827  0.2957 -0.1530 -0.4298
   79TCq2    O2 1204   3.694   0.954   1.717  0.6590  0.0214 -0.1474
   79TCq2    C2 1205   3.864   0.982   1.866  0.3207 -0.1299  0.2049
   79TCq2    C3 1206   3.932   0.936   1.975  0.3912  0.5974 -0.4627
   79TCq2    C4 1207   4.049   0.994   2.011  0.4740  0.1297 -0.5868
   79TCq2    C5 1208   4.102   1.096   1.932  1.1527 -0.0207  0.5361
   79TCq2    C6 1209   4.040   1.132   1.817 -0.6638 -0.3105  0.9979
   79TCq2    C7 1210   3.921   1.078   1.774 -0.8470 -0.0525  0.7077
   79TCq2    C8 1211   4.104   1.218   1.720  0.0472  0.2327  0.5719
   79TCq2    O4 1212   4.201   1.275   1.763  0.4056  0.3319  0.0037
   79TCq2    C9 1213   4.123   0.955   2.126  0.1701 -0.0851 -0.0432
   79TCq2    O5 1214   4.081   0.851   2.181  0.1047 -0.3290  0.0875
   79TCq2    O6 1215   4.221   1.027   2.165 -0.4315 -0.0059  0.6948
   79TCq2    H2 1216   3.904   0.848   2.032  0.9368  1.0946  0.5728
   79TCq2    H3 1217   4.190   1.147   1.972  0.0824  0.9990  1.5808
   79TCq2    H4 1218   3.861   1.106   1.688  0.2022  2.5173  0.8025
   80MPD2     C 1219   1.676   0.735  12.852 -0.0613 -0.0334 -0.2884
   80MPD2    C1 1220   1.578   0.755  12.755  0.7366  0.3790 -0.1373
   80MPD2    C2 1221   1.449   0.709  12.787  0.7061  0.2937 -0.5283
   80MPD2    C3 1222   1.416   0.667  12.914  0.4622  0.1791 -0.4279
   80MPD2    C4 1223   1.524   0.642  13.001  0.2009 -0.0152  0.6390
   80MPD2    C5 1224   1.648   0.680  12.968  0.0299 -0.1019  0.4174
   80MPD2     H 1225   1.374   0.717  12.709 -0.8648  1.3093  1.0846
   80MPD2    H1 1226   1.512   0.598  13.099 -0.8575 -1.6066 -0.2188
   80MPD2    H2 1227   1.777   0.772  12.837 -0.0257 -0.6824 -1.6925
   80MPD2    H3 1228   1.724   0.671  13.045  1.8751  0.1686 -1.3698
   80MPD2     N 1229   1.283   0.632  12.950 -0.5798  0.1519 -0.3128
   80MPD2    H5 1230   1.266   0.578  13.035  0.6003 -0.4091 -0.4404
   80MPD2    N1 1231   1.601   0.789  12.622  0.5487 -0.0753 -0.7627
   80MPD2    H7 1232   1.532   0.738  12.569 -0.9726 -0.5452  1.6621
   81TCq2    C1 1233   1.721   0.829  12.561  0.2616 -0.1533  0.2101
   81TCq2    O2 1234   1.822   0.878  12.609 -0.2592  0.0782  0.3653
   81TCq2    C2 1235   1.722   0.825  12.416 -0.8219 -0.0660 -0.2605
   81TCq2    C3 1236   1.828   0.881  12.349 -0.0515  0.5061 -0.3971
   81TCq2    C4 1237   1.821   0.882  12.215  0.2385 -0.6993 -0.4024
   81TCq2    C5 1238   1.714   0.831  12.142  0.3401  0.3839 -0.3125
   81TCq2    C6 1239   1.616   0.769  12.213 -0.1305 -0.3019 -0.5518
   81TCq2    C7 1240   1.619   0.765  12.349 -0.4962  0.2356  0.0130
   81TCq2    C8 1241   1.530   0.686  12.136 -0.7089 -0.6642  0.2124
   81TCq2    O4 1242   1.504   0.717  12.021 -0.1082  0.0061 -0.3378
   81TCq2    C9 1243   1.922   0.956  12.143  0.9373  0.1356 -0.1786
   81TCq2    O5 1244   1.899   0.969  12.019 -0.5935 -0.5183  0.5541
   81TCq2    O6 1245   2.026   0.988  12.204 -0.3341 -0.1316  0.5311
   81TCq2    H2 1246   1.906   0.919  12.414  0.8583 -0.0008 -1.1895
   81TCq2    H3 1247   1.715   0.821  12.034  0.0493  2.9001 -0.5523
   81TCq2    H4 1248   1.548   0.703  12.404  1.0907 -1.3738  0.2481
   82MPD2     C 1249   3.752   0.175  10.701  0.1775 -0.5742  1.1375
   82MPD2    C1 1250   3.877   0.206  10.649  0.8091  0.7361  1.0708
   82MPD2    C2 1251   3.991   0.160  10.713 -0.4492  0.3511 -0.0951
   82MPD2    C3 1252   3.987   0.103  10.838 -0.4699 -0.2168  0.2939
   82MPD2    C4 1253   3.863   0.069  10.887 -0.1030  0.2015 -0.0466
   82MPD2    C5 1254   3.752   0.103  10.816 -0.4796 -0.3802 -0.7651
   82MPD2     H 1255   4.090   0.169  10.670 -0.8365  0.1872 -1.0210
   82MPD2    H1 1256   3.845   0.024  10.984  0.1518 -0.7420 -0.4331
   82MPD2    H2 1257   3.659   0.196  10.648  0.4281  2.2516  1.8338
   82MPD2    H3 1258   3.653   0.072  10.850 -0.4824 -1.0259 -1.3659
   82MPD2     N 1259   4.111   0.087  10.908  0.0664  0.0347  0.1614
   82MPD2    H5 1260   4.102   0.055  11.004  0.6625  0.0441  0.2175
   82MPD2    N1 1261   3.877   0.279  10.528  0.3888  0.3043 -0.9551
   82MPD2    H7 1262   3.792   0.311  10.482  0.3294 -0.3799 -1.3118
   83TCq2    C1 1263   4.242   0.101  10.858  0.3843  0.1286  0.4750
   83TCq2    O2 1264   4.284   0.127  10.746 -0.4389  0.3382 -0.0854
   83TCq2    C2 1265   4.351   0.104  10.955  0.0734 -1.0288 -0.4764
   83TCq2    C3 1266   4.463   0.165  10.923 -0.3573  0.1067 -0.1616
   83TCq2    C4 1267   4.572   0.147  11.004  0.0617  0.2550  0.2024
   83TCq2    C5 1268   4.579   0.050  11.100  0.6549 -0.3443  0.3445
   83TCq2    C6 1269   4.455   0.001  11.133  0.5463 -0.2139 -0.1243
   83TCq2    C7 1270   4.330   0.033  11.070 -0.8383 -0.0133  0.6008
   83TCq2    C8 1271   4.453   4.637  11.246 -0.6070  0.3957 -0.7220
   83TCq2    O4 1272   4.341   4.604  11.282  0.2605  0.2390 -0.3212
   83TCq2    C9 1273   4.704   0.202  10.957  0.2329 -0.1115 -0.2548
   83TCq2    O5 1274   4.693   0.303  10.882  0.9932  0.2291  0.0459
   83TCq2    O6 1275   0.081   0.158  11.015  0.2710 -0.0981 -0.4178
   83TCq2    H2 1276   4.467   0.218  10.828 -0.0214  0.3412 -0.0192
   83TCq2    H3 1277   4.675   0.015  11.135  0.8612 -0.2126 -0.0938
   83TCq2    H4 1278   4.252   4.683  11.086 -0.8942  0.0160  0.4662
   84TCq2    C1 1279   1.181   3.117  10.404 -0.6773  0.9434  0.4054
   84TCq2    O2 1280   1.109   3.035  10.352 -0.1356 -0.3011  0.0429
   84TCq2    C2 1281   1.155   3.164  10.533  0.2901 -0.5762 -0.1878
   84TCq2    C3 1282   1.264   3.202  10.608  0.9677  0.2761 -0.1269
   84TCq2    C4 1283   1.238   3.214  10.740  0.3016  0.2182  0.1426
   84TCq2    C5 1284   1.115   3.191  10.789  0.5753  0.7176  0.4376
   84TCq2    C6 1285   1.009   3.158  10.707 -0.0243 -0.3462 -0.7327
   84TCq2    C7 1286   1.031   3.135  10.579  0.1671  0.9182 -0.1030
   84TCq2    C8 1287   0.878   3.201  10.745  0.1605  0.0048 -0.3853
   84TCq2    O4 1288   0.805   3.217  10.645  0.3031  1.2529  0.6350
   84TCq2    C9 1289   1.346   3.251  10.818 -0.7368 -0.0453  0.2296
   84TCq2    O5 1290   1.462   3.232  10.779  0.0982  0.1706  0.6037
   84TCq2    O6 1291   1.322   3.334  10.910  1.0409  0.4320  0.2803
   84TCq2    H2 1292   1.360   3.221  10.562  1.2149  0.1817  0.3424
   84TCq2    H3 1293   1.105   3.212  10.895  0.6071 -1.0527  0.7896
   84TCq2    H4 1294   0.966   3.075  10.517  1.0441  1.4002 -1.4870
   85MPD2     C 1295   1.245   1.783  16.508  0.1081  0.5120  0.3673
   85MPD2    C1 1296   1.204   1.718  16.401 -0.1712  0.1851  0.1867
   85MPD2    C2 1297   1.210   1.782  16.281  0.0320 -0.6761 -0.0794
   85MPD2    C3 1298   1.246   1.917  16.259  0.9852 -0.2150 -0.4287
   85MPD2    C4 1299   1.290   1.980  16.371 -0.0758  0.4667 -0.2261
   85MPD2    C5 1300   1.283   1.921  16.493 -0.5264  0.3026  0.6335
   85MPD2     H 1301   1.179   1.728  16.192 -1.6944  1.4296 -0.7587
   85MPD2    H1 1302   1.320   2.083  16.387 -0.0831  0.5892 -0.9994
   85MPD2    H2 1303   1.260   1.744  16.608 -1.9038  1.0511  0.8764
   85MPD2    H3 1304   1.310   1.982  16.578  0.0204  0.8593  0.0642
   85MPD2     N 1305   1.241   1.985  16.132 -0.5487  0.4509  0.5668
   85MPD2    H5 1306   1.213   1.936  16.047  2.5430 -0.0466 -0.1873
   85MPD2    N1 1307   1.157   1.577  16.408  0.2053 -0.1790  0.0146
   85MPD2    H7 1308   1.112   1.531  16.329  1.8537 -0.7623 -0.5718
   86TCq2    C1 1309   1.277   2.117  16.114  0.1314  0.2463  0.5257
   86TCq2    O2 1310   1.293   2.215  16.191 -0.0811 -0.5163 -0.4532
   86TCq2    C2 1311   1.297   2.163  15.972 -0.5750  0.8748 -0.0254
   86TCq2    C3 1312   1.284   2.294  15.950 -0.4922  0.0777 -0.2651
   86TCq2    C4 1313   1.296   2.340  15.818  0.5977 -0.2975 -0.0250
   86TCq2    C5 1314   1.343   2.260  15.719  0.6381 -0.8519 -0.0377
   86TCq2    C6 1315   1.339   2.125  15.745  0.0103 -0.0064 -0.5804
   86TCq2    C7 1316   1.327   2.074  15.871 -0.5063  0.2539  0.4318
   86TCq2    C8 1317   1.386   2.027  15.639  0.0876  0.1389 -0.2530
   86TCq2    O4 1318   1.395   1.909  15.671  0.3857  0.0635  0.1092
   86TCq2    C9 1319   1.293   2.481  15.794 -0.0961 -0.1948 -0.1611
   86TCq2    O5 1320   1.233   2.561  15.872 -0.1584  0.3430 -0.1367
   86TCq2    O6 1321   1.369   2.522  15.701 -0.3716  0.0386  0.0344
   86TCq2    H2 1322   1.257   2.373  16.019  1.1322  1.5428 -1.3172
   86TCq2    H3 1323   1.355   2.296  15.618  0.3009 -0.7520 -0.0436
   86TCq2    H4 1324   1.362   1.975  15.895 -0.4685  0.8542  2.8297
   87MPD2     C 1325   2.567   0.703   1.154  0.6789 -0.1228 -0.2713
   87MPD2    C1 1326   2.665   0.661   1.066  0.0595  0.3899 -0.1129
   87MPD2    C2 1327   2.646   0.692   0.936  0.6147 -0.4526 -0.1994
   87MPD2    C3 1328   2.531   0.750   0.888  0.2863 -1.5888  0.2216
   87MPD2    C4 1329   2.434   0.783   0.980 -0.2076 -0.2213  0.7670
   87MPD2    C5 1330   2.450   0.764   1.112 -0.2554  0.8476 -0.1446
   87MPD2     H 1331   2.717   0.650   0.866 -2.2861 -3.2064 -1.4791
   87MPD2    H1 1332   2.346   0.837   0.949  0.3845 -0.5789 -1.4901
   87MPD2    H2 1333   2.583   0.682   1.259 -0.8982 -0.7501 -0.1595
   87MPD2    H3 1334   2.375   0.782   1.187 -1.1995 -0.3290 -0.8012
   87MPD2     N 1335   2.499   0.765   0.753  0.7403  0.3564  0.1673
   87MPD2    H5 1336   2.412   0.815   0.738 -0.4816 -1.2825  1.7751
   87MPD2    N1 1337   2.778   0.587   1.111  0.2505  0.3173  0.2037
   87MPD2    H7 1338   2.759   0.542   1.199  0.9576 -1.0863 -0.3585
   88TCq2    C1 1339   2.897   0.558   1.042 -0.5530  0.2320  0.2046
   88TCq2    O2 1340   2.937   0.603   0.938  0.2593  0.2773 -0.1149
   88TCq2    C2 1341   2.978   0.468   1.116  0.0596 -0.4449  0.6450
   88TCq2    C3 1342   2.933   0.399   1.223 -0.2698 -0.6967  0.5692
   88TCq2    C4 1343   3.016   0.308   1.287  0.5682 -0.5720 -0.2859
   88TCq2    C5 1344   3.146   0.281   1.246  0.6044 -0.5610  0.4988
   88TCq2    C6 1345   3.192   0.361   1.143  0.3137 -0.0586  0.1623
   88TCq2    C7 1346   3.107   0.446   1.071 -0.2239 -0.1029  0.3806
   88TCq2    C8 1347   3.331   0.351   1.111 -0.7991 -0.0320 -0.0563
   88TCq2    O4 1348   3.355   0.381   0.994 -0.0869 -0.3390 -0.4691
   88TCq2    C9 1349   2.969   0.224   1.397 -0.3365 -0.0775  0.1570
   88TCq2    O5 1350   2.842   0.217   1.392 -0.4509 -0.1824 -0.2067
   88TCq2    O6 1351   3.046   0.149   1.456 -0.5091 -1.1086  0.2389
   88TCq2    H2 1352   2.832   0.399   1.263 -0.7438 -0.8323 -0.6405
   88TCq2    H3 1353   3.191   0.201   1.303  0.6567  0.0004  1.2480
   88TCq2    H4 1354   3.147   0.510   0.994  1.2740  0.7480  1.8721
   89MPD2     C 1355   0.295   2.912   1.567 -0.1088 -0.0826  0.5942
   89MPD2    C1 1356   0.254   2.929   1.701 -0.0335 -0.3335  0.1311
   89MPD2    C2 1357   0.325   3.005   1.786 -0.0882  0.0544  0.5160
   89MPD2    C3 1358   0.445   3.055   1.748  0.0365  0.9194  0.0639
   89MPD2    C4 1359   0.494   3.040   1.620 -0.1698 -1.4709  0.0148
   89MPD2    C5 1360   0.420   2.965   1.528 -0.6351 -0.3573 -0.5443
   89MPD2     H 1361   0.296   3.017   1.890  1.1381  0.1587  0.8495
   89MPD2    H1 1362   0.583   3.086   1.579 -0.0889  0.7713  2.7034
   89MPD2    H2 1363   0.251   2.849   1.490  0.7099  0.2873 -0.1721
   89MPD2    H3 1364   0.457   2.943   1.429 -0.1276 -1.0267 -0.2066
   89MPD2     N 1365   0.505   3.142   1.842 -0.1054  0.1679 -0.1886
   89MPD2    H5 1366   0.452   3.164   1.926  0.7987  1.4410  0.0559
   89MPD2    N1 1367   0.143   2.859   1.758  0.2465 -0.7712  0.6934
   89MPD2    H7 1368   0.117   2.891   1.851 -1.3734 -0.0207 -0.0305
   90TCq2    C1 1369   0.605   3.223   1.818  0.0688 -1.2996  0.0113
   90TCq2    O2 1370   0.687   3.224   1.725  0.1707  0.4884  0.0600
   90TCq2    C2 1371   0.616   3.331   1.918 -0.2748  0.8210  0.4311
   90TCq2    C3 1372   0.550   3.317   2.032  0.6509 -0.2733 -0.1870
   90TCq2    C4 1373   0.494   3.425   2.094 -0.1863  0.4003 -0.9496
   90TCq2    C5 1374   0.508   3.549   2.049  0.0696  0.1563 -0.1452
   90TCq2    C6 1375   0.579   3.561   1.931  0.1939  1.1932  0.4231
   90TCq2    C7 1376   0.636   3.453   1.866  0.3116  0.0612  0.5605
   90TCq2    C8 1377   0.546   3.672   1.843 -0.2475 -0.3825  0.2243
   90TCq2    O4 1378   0.622   3.694   1.748 -0.1244  0.0678  0.0854
   90TCq2    C9 1379   0.425   3.406   2.209 -0.0484 -0.2534 -0.8793
   90TCq2    O5 1380   0.400   3.281   2.234 -0.8025 -0.1965  0.0907
   90TCq2    O6 1381   0.375   3.503   2.273 -0.2399  0.3312 -0.6055
   90TCq2    H2 1382   0.533   3.218   2.073 -2.6158 -0.3775 -1.7937
   90TCq2    H3 1383   0.470   3.631   2.108  1.3992 -0.7514  1.9776
   90TCq2    H4 1384   0.675   3.466   1.766 -0.2310 -2.2114  0.0535
   91TMC2    C1 1385   1.466   3.550  16.050 -0.8335  0.2384 -0.0343
   91TMC2    C2 1386   1.429   3.622  15.941  0.2796 -0.4157 -0.1660
   91TMC2    C3 1387   1.399   3.749  15.972 -0.2484  0.1165 -0.3914
   91TMC2    C4 1388   1.445   3.584  16.179  0.1635  0.5682  0.4589
   91TMC2    C5 1389   1.394   3.710  16.204 -0.0844  0.5086 -0.5791
   91TMC2    C6 1390   1.373   3.791  16.100  0.2026  0.0786 -0.0630
   91TMC2     C 1391   1.508   3.413  16.025  0.0727  0.4386  0.3574
   91TMC2     O 1392   1.473   3.347  15.923 -0.3080  0.2073 -0.3320
   91TMC2     H 1393   1.450   3.590  15.840  0.2608  2.9655 -1.2611
   91TMC2    H1 1394   1.470   3.524  16.266  0.0188 -0.5155 -0.2363
   91TMC2    H2 1395   1.345   3.892  16.129 -0.1547  0.0350 -0.2538
   91TMC2    C7 1396   1.322   3.729  16.324  0.3518  1.0549 -0.4539
   91TMC2    C8 1397   1.368   3.829  15.849  0.3774 -0.3605 -0.8602
   91TMC2    O1 1398   1.294   3.840  16.366 -0.3627 -0.6107 -0.1955
   91TMC2    O2 1399   1.393   3.774  15.742 -0.1928  0.0166 -0.1863
   91TMC2    O5 1400   1.254   3.897  15.862  0.2355  0.2774 -0.1021
   91TMC2    H5 1401   1.209   3.904  15.949  0.4423  0.5770 -0.0203
   92MPD2     C 1402   1.582   3.108  16.086 -0.4202  0.2655  0.0955
   92MPD2    C1 1403   1.636   3.220  16.144 -0.6892  0.6603  0.2049
   92MPD2    C2 1404   1.734   3.201  16.245  0.6554 -0.2658  0.2713
   92MPD2    C3 1405   1.762   3.073  16.294  0.0122  0.9142  0.6884
   92MPD2    C4 1406   1.688   2.962  16.240  0.3552 -0.1744 -0.3757
   92MPD2    C5 1407   1.612   2.981  16.129  0.8892  0.1286 -0.5959
   92MPD2     H 1408   1.789   3.284  16.288 -2.2738  1.1429  1.3081
   92MPD2    H1 1409   1.707   2.861  16.275  0.1027  0.1881  0.8142
   92MPD2    H2 1410   1.497   3.123  16.021  0.6272  1.4386 -1.0102
   92MPD2    H3 1411   1.552   2.897  16.096 -0.8618  1.9347 -1.9457
   92MPD2     N 1412   1.869   3.062  16.391 -0.3881  0.3665 -0.3265
   92MPD2    H5 1413   1.903   3.150  16.429 -0.5155  0.2868 -0.0270
   92MPD2    N1 1414   1.603   3.358  16.116  0.3931 -0.4784 -0.1701
   92MPD2    H7 1415   1.640   3.411  16.194 -1.3937 -0.9891  1.0228
   93MPD2     C 1416   2.923   2.857  13.816  0.1421 -0.0093  0.8288
   93MPD2    C1 1417   2.883   2.944  13.917  0.3673  0.3011  0.4916
   93MPD2    C2 1418   2.761   2.930  13.971  0.0374 -0.2008 -0.4818
   93MPD2    C3 1419   2.670   2.844  13.919 -0.4879  1.0015  0.7704
   93MPD2    C4 1420   2.706   2.758  13.818 -0.5433  0.0517 -0.3633
   93MPD2    C5 1421   2.833   2.761  13.769 -0.1450  0.0321 -0.1171
   93MPD2     H 1422   2.732   2.993  14.054  1.0133 -0.7155  0.2425
   93MPD2    H1 1423   2.636   2.689  13.773  0.7426 -1.8988  0.6208
   93MPD2    H2 1424   3.027   2.850  13.785 -0.5194  1.0328 -1.6290
   93MPD2    H3 1425   2.862   2.707  13.679 -0.2937  1.4537 -1.0240
   93MPD2     N 1426   2.537   2.833  13.967 -0.0086  0.3792 -0.6487
   93MPD2    H5 1427   2.481   2.757  13.927 -0.6621  0.7751 -0.4858
   93MPD2    N1 1428   2.970   3.042  13.976 -0.6907  0.0705 -0.5922
   93MPD2    H7 1429   2.928   3.092  14.054  1.0475  0.3597  0.1462
   94TCq2    C1 1430   3.103   3.058  13.946 -0.4923 -0.1794 -0.1291
   94TCq2    O2 1431   3.180   2.993  13.874  0.2491  0.5334  0.7154
   94TCq2    C2 1432   3.171   3.145  14.039 -0.7583 -0.0636  0.9066
   94TCq2    C3 1433   3.095   3.206  14.134  0.3104  0.0038 -0.0256
   94TCq2    C4 1434   3.154   3.256  14.247 -0.7850  0.5288 -0.1346
   94TCq2    C5 1435   3.286   3.234  14.270  0.4647 -0.3751  0.2815
   94TCq2    C6 1436   3.363   3.176  14.173 -0.1232  0.0046 -0.2089
   94TCq2    C7 1437   3.308   3.136  14.059 -0.8158 -0.1173  0.0543
   94TCq2    C8 1438   3.509   3.187  14.175  0.4735  0.0765  0.3067
   94TCq2    O4 1439   3.572   3.166  14.067  0.1936  0.2117  0.0788
   94TCq2    C9 1440   3.068   3.310  14.347 -0.3829  0.0218  0.6023
   94TCq2    O5 1441   3.117   3.375  14.444  0.1415 -0.3203  0.1073
   94TCq2    O6 1442   2.945   3.284  14.324  0.2073  0.4941  0.0669
   94TCq2    H2 1443   2.989   3.225  14.124  0.0479 -1.2551  0.4031
   94TCq2    H3 1444   3.328   3.263  14.366  0.2646  0.6566  0.0648
   94TCq2    H4 1445   3.373   3.076  13.996 -1.3373 -1.1144  0.4649
   95TMC2    C1 1446   2.746   4.492  16.229  0.5081  0.4587 -0.3212
   95TMC2    C2 1447   2.698   4.369  16.191 -0.1644 -0.4962  0.5019
   95TMC2    C3 1448   2.650   4.296  16.295 -0.1896  0.6648  0.1920
   95TMC2    C4 1449   2.765   4.526  16.359 -0.0804 -0.2669  0.3465
   95TMC2    C5 1450   2.709   4.444  16.457 -0.2855  0.7753 -0.7108
   95TMC2    C6 1451   2.652   4.322  16.428  0.2182 -0.0115  0.3398
   95TMC2     C 1452   2.808   4.581  16.136  0.1426 -0.5795 -0.0813
   95TMC2     O 1453   2.883   4.671  16.175  0.1071 -0.6697 -0.4557
   95TMC2     H 1454   2.714   4.328  16.092 -1.7401  0.9647 -0.3426
   95TMC2    H1 1455   2.812   4.621  16.383  1.1542 -0.6838 -0.4162
   95TMC2    H2 1456   2.586   4.268  16.495  0.2900  0.2456  0.6165
   95TMC2    C7 1457   2.711   4.487  16.596  0.1627  0.3813  0.2234
   95TMC2    C8 1458   2.558   4.188  16.261  0.5458 -0.4565 -0.3932
   95TMC2    O1 1459   2.720   4.607  16.617  0.5185  0.1675 -0.3266
   95TMC2    O2 1460   2.529   4.088  16.329 -0.0854  0.5275  0.3200
   95TMC2    O5 1461   2.505   4.219  16.137  0.2926 -0.0557 -0.5382
   95TMC2    H5 1462   2.522   4.311  16.106 -0.1491  0.2809  0.2096
   96MPD2     C 1463   2.939   4.667  15.655 -0.0926 -0.4079  0.3648
   96MPD2    C1 1464   2.998   4.706  15.771 -0.5776 -1.0298  0.3017
   96MPD2    C2 1465   2.938   4.678  15.891 -0.2227  0.4617  0.1060
   96MPD2    C3 1466   2.812   4.616  15.895 -0.1545  0.3129 -0.0642
   96MPD2    C4 1467   2.745   4.586  15.780 -0.0951 -0.5477  0.9845
   96MPD2    C5 1468   2.810   4.620  15.661  0.3007 -0.3208 -0.1442
   96MPD2     H 1469   2.996   4.694  15.981 -1.0306 -1.3692  0.9547
   96MPD2    H1 1470   2.643   4.551  15.774  0.5574 -1.6280 -4.0021
   96MPD2    H2 1471   2.997   4.671  15.563 -1.2453  0.1887 -0.3478
   96MPD2    H3 1472   2.761   4.594  15.567  1.2845  0.8318 -0.9715
   96MPD2     N 1473   2.751   4.571  16.009 -0.0687 -0.3368  0.2552
   96MPD2    H5 1474   2.668   4.513  16.000  0.9174 -1.4212 -1.6776
   96MPD2    N1 1475   3.132   0.031  15.765  0.0062 -0.1495  0.6206
   96MPD2    H7 1476   3.173   0.052  15.675  0.9899 -1.3824  0.7794
   97MPD2     C 1477   0.841   2.322   1.138  0.8449  0.8324  0.3687
   97MPD2    C1 1478   0.928   2.425   1.111 -0.0183 -0.5550  0.6048
   97MPD2    C2 1479   0.965   2.448   0.981 -0.0282 -0.0140  0.5340
   97MPD2    C3 1480   0.918   2.375   0.874 -0.2296 -0.2407  0.7764
   97MPD2    C4 1481   0.812   2.277   0.905  0.3896  0.2885  0.0660
   97MPD2    C5 1482   0.781   2.256   1.037  0.4093 -0.4244  0.0376
   97MPD2     H 1483   1.042   2.523   0.967 -0.3423  0.5536  1.8838
   97MPD2    H1 1484   0.774   2.210   0.829  0.8560 -0.1186  0.1918
   97MPD2    H2 1485   0.817   2.285   1.237  2.4056  0.6798  0.6896
   97MPD2    H3 1486   0.723   2.168   1.062 -0.2450  0.5106  1.8101
   97MPD2     N 1487   0.964   2.402   0.740  0.5302 -0.1410 -0.7488
   97MPD2    H5 1488   0.909   2.362   0.664  0.7008  1.7466 -1.8784
   97MPD2    N1 1489   0.986   2.491   1.219 -0.3207  0.3732  0.1663
   97MPD2    H7 1490   0.947   2.471   1.310 -0.4983  1.0656  0.2377
   98TCq2    C1 1491   1.069   2.481   0.704  0.1797 -0.8255 -0.5220
   98TCq2    O2 1492   1.155   2.543   0.769  0.2716  0.1396  0.3426
   98TCq2    C2 1493   1.067   2.531   0.563  0.4051  0.4672  0.3042
   98TCq2    C3 1494   0.948   2.523   0.492 -0.0084 -0.1809 -0.2181
   98TCq2    C4 1495   0.951   2.576   0.366 -0.7154 -0.3162  0.3717
   98TCq2    C5 1496   1.051   2.650   0.318 -0.0846 -0.0114  0.7809
   98TCq2    C6 1497   1.166   2.659   0.394  0.5171  0.7447 -0.4487
   98TCq2    C7 1498   1.184   2.592   0.513 -0.4495 -0.5015  0.3917
   98TCq2    C8 1499   1.274   2.740   0.344 -0.1435  0.0648 -0.2873
   98TCq2    O4 1500   1.389   2.711   0.377  0.4402 -0.1462 -0.0079
   98TCq2    C9 1501   0.823   2.580   0.299 -0.6006 -0.6317  0.0410
   98TCq2    O5 1502   0.807   2.645   0.191 -0.3940 -0.6525  0.2337
   98TCq2    O6 1503   0.726   2.529   0.359  0.3976  0.8651 -0.1790
   98TCq2    H2 1504   0.855   2.476   0.522 -1.1524  0.9096 -2.0232
   98TCq2    H3 1505   1.039   2.694   0.220  0.0025 -0.3011  0.6386
   98TCq2    H4 1506   1.273   2.598   0.574 -0.1619  1.3511 -0.2039
   99MPD2     C 1507   4.556   3.817   2.179  0.1144 -0.8583  0.6512
   99MPD2    C1 1508   4.431   3.831   2.237 -0.3519 -0.3434 -0.5757
   99MPD2    C2 1509   4.324   3.856   2.159  0.4162  0.3053 -0.2364
   99MPD2    C3 1510   4.338   3.869   2.017  0.5207 -0.0519 -0.8118
   99MPD2    C4 1511   4.456   3.839   1.952 -0.5674 -0.2014  0.1540
   99MPD2    C5 1512   4.566   3.829   2.037 -0.2585 -0.0914 -0.4087
   99MPD2     H 1513   4.228   3.873   2.206 -0.0783 -0.6138 -0.9266
   99MPD2    H1 1514   4.479   3.842   1.846 -1.9292 -0.9986 -0.1561
   99MPD2    H2 1515   4.644   3.804   2.242  0.0351  2.9085  1.5109
   99MPD2    H3 1516   4.663   3.819   1.990 -0.0154  1.9825 -0.3320
   99MPD2     N 1517   4.230   3.911   1.938 -0.2247 -0.5348 -0.7700
   99MPD2    H5 1518   4.138   3.929   1.979  0.7383  0.8319  0.8121
   99MPD2    N1 1519   4.413   3.848   2.376 -0.0887  0.6041 -0.0447
   99MPD2    H7 1520   4.317   3.850   2.409  0.5390  2.5275  1.6966
  100TCq2    C1 1521   4.506   3.874   2.471  0.1863 -0.6498 -0.4673
  100TCq2    O2 1522   4.627   3.901   2.460 -0.5732 -0.1773  0.5528
  100TCq2    C2 1523   4.444   3.919   2.599 -0.1092  0.4695  0.2618
  100TCq2    C3 1524   4.534   3.928   2.702  0.0866  0.0716  0.7619
  100TCq2    C4 1525   4.491   3.979   2.821  0.0750  1.0069 -0.2878
  100TCq2    C5 1526   4.361   4.014   2.836 -0.4182 -0.3934  0.5106
  100TCq2    C6 1527   4.264   3.988   2.734  0.8293  0.3413  0.3650
  100TCq2    C7 1528   4.312   3.951   2.611  0.1015  0.3852  1.0934
  100TCq2    C8 1529   4.119   4.010   2.766 -0.6184  0.0412 -0.1019
  100TCq2    O4 1530   4.094   4.068   2.870 -0.3246 -0.0015  0.4388
  100TCq2    C9 1531   4.582   4.019   2.927  0.3816 -0.6247 -0.0775
  100TCq2    O5 1532   4.528   4.079   3.023  1.0886 -0.3418  0.5726
  100TCq2    O6 1533   4.705   3.988   2.924 -0.1967  0.4127 -0.1979
  100TCq2    H2 1534   4.639   3.900   2.697  0.4131  1.4162  0.0137
  100TCq2    H3 1535   4.328   4.051   2.933 -1.1459 -2.6392  1.1028
  100TCq2    H4 1536   4.245   3.955   2.526  0.9633  1.3377  0.4475
  101MPD2     C 1537   4.684   1.200  13.392 -0.1328 -0.1695  0.3248
  101MPD2    C1 1538   4.566   1.157  13.339 -0.5330 -1.1526 -0.3935
  101MPD2    C2 1539   4.504   1.059  13.404  0.1621 -0.2696 -0.4200
  101MPD2    C3 1540   4.550   1.009  13.526  0.0984  0.1091 -0.0887
  101MPD2    C4 1541   4.667   1.057  13.580 -0.4288  0.5096 -0.4008
  101MPD2    C5 1542   0.009   1.153  13.514 -0.1096 -0.7734  0.4458
  101MPD2     H 1543   4.413   1.017  13.364 -0.8365 -0.9642  2.5859
  101MPD2    H1 1544   4.719   1.031  13.672 -2.7386 -0.7566  0.5464
  101MPD2    H2 1545   0.015   1.270  13.331  0.2892 -0.4095  0.4219
  101MPD2    H3 1546   0.101   1.194  13.554  0.3499 -0.3908 -0.9928
  101MPD2     N 1547   4.475   0.903  13.586 -0.3294 -0.0095  0.7097
  101MPD2    H5 1548   4.409   0.850  13.530  0.6115 -1.9354  1.4253
  101MPD2    N1 1549   4.528   1.205  13.213  0.1931 -0.4839  0.2145
  101MPD2    H7 1550   4.593   1.267  13.166 -1.2313  1.4062  0.7188
  102TCq2    C1 1551   4.624   1.255  12.737  0.7402  0.3173 -0.2319
  102TCq2    O2 1552   4.719   1.261  12.810 -0.5369  0.6700  0.7492
  102TCq2    C2 1553   4.492   1.242  12.807 -0.5442  0.6394  0.1083
  102TCq2    C3 1554   4.379   1.227  12.742 -0.7257  0.0731  0.4304
  102TCq2    C4 1555   4.272   1.224  12.825 -0.7404  0.0142 -0.4626
  102TCq2    C5 1556   4.270   1.215  12.961  0.9432 -0.3907  0.3534
  102TCq2    C6 1557   4.387   1.232  13.027 -0.2622 -0.4037  0.0616
  102TCq2    C7 1558   4.503   1.250  12.949 -0.1619  0.1306  0.3278
  102TCq2    C8 1559   4.399   1.194  13.165  0.2196 -0.2382  0.3582
  102TCq2    O4 1560   4.307   1.122  13.198 -0.7797 -0.3941  0.0644
  102TCq2    C9 1561   4.142   1.204  12.764  0.5594  0.1097 -0.1426
  102TCq2    O5 1562   4.130   1.267  12.657 -0.1143  0.2810  0.3591
  102TCq2    O6 1563   4.052   1.146  12.835 -0.3498  0.3647  0.5512
  102TCq2    H2 1564   4.368   1.229  12.634  1.5709  0.8651  0.2138
  102TCq2    H3 1565   4.176   1.203  13.015  0.4859  3.2409  0.3902
  102TCq2    H4 1566   4.599   1.279  12.991  1.0371 -3.7384  0.2596
  103TMC2    C1 1567   3.018   0.754  12.251 -0.1171  0.1148 -0.1295
  103TMC2    C2 1568   3.032   0.617  12.243  0.0736 -0.5906  0.0437
  103TMC2    C3 1569   3.127   0.572  12.332  0.4148 -0.1174 -0.8087
  103TMC2    C4 1570   3.091   0.843  12.326 -0.0038  0.7220  0.1218
  103TMC2    C5 1571   3.186   0.786  12.406  1.1048  0.3786  0.0537
  103TMC2    C6 1572   3.211   0.654  12.398  0.1305  0.7352  0.4186
  103TMC2     C 1573   2.918   0.823  12.174 -0.1055 -0.6367  0.1039
  103TMC2     O 1574   2.936   0.943  12.159 -0.0704  0.5351  0.2071
  103TMC2     H 1575   2.986   0.556  12.167 -0.1494  0.4924 -0.6968
  103TMC2    H1 1576   3.077   0.950  12.332  0.9391  0.8325  0.2733
  103TMC2    H2 1577   3.291   0.614  12.458  0.2513  2.3984  1.3620
  103TMC2    C7 1578   3.216   0.844  12.535 -0.7835  0.0058 -0.7069
  103TMC2    C8 1579   3.154   0.426  12.330 -0.1744  0.3020  0.2256
  103TMC2    O1 1580   3.319   0.814  12.587 -0.5250 -0.0133 -0.0668
  103TMC2    O2 1581   3.262   0.377  12.358  0.4077 -0.2902  0.0185
  103TMC2    O5 1582   3.038   0.359  12.352  0.5242  0.3250 -0.1807
  103TMC2    H5 1583   2.950   0.396  12.329 -0.0148 -1.2815 -0.6948
  104MPD2     C 1584   2.634   0.678  11.992  0.0237  0.2365  0.5818
  104MPD2    C1 1585   2.723   0.774  12.029  0.6383 -0.4913 -0.3679
  104MPD2    C2 1586   2.711   0.905  11.979  0.0433 -0.0025  0.1421
  104MPD2    C3 1587   2.618   0.931  11.884 -0.1587  0.4748  0.1516
  104MPD2    C4 1588   2.531   0.830  11.845 -0.8283 -0.0413 -0.4121
  104MPD2    C5 1589   2.541   0.705  11.899 -0.4716  0.3982  0.0671
  104MPD2     H 1590   2.776   0.985  12.011 -0.0431 -1.1129  3.1009
  104MPD2    H1 1591   2.460   0.848  11.765  0.3734 -1.9845 -1.9149
  104MPD2    H2 1592   2.647   0.577  12.027  0.2412 -0.6647 -2.0519
  104MPD2    H3 1593   2.479   0.627  11.857 -2.3662  0.7499  2.2389
  104MPD2     N 1594   2.623   1.065  11.841 -0.4887  0.1446 -0.0986
  104MPD2    H5 1595   2.688   1.131  11.881  2.1266 -3.0537  0.9721
  104MPD2    N1 1596   2.833   0.731  12.108  0.1123 -0.0085 -0.2638
  104MPD2    H7 1597   2.849   0.632  12.127 -2.3978  0.0690  2.3785
  105MPD2     C 1598   4.347   4.471   0.040 -0.1103 -0.6025 -0.0563
  105MPD2    C1 1599   4.342   4.604   0.065  0.1364 -0.1731  0.2266
  105MPD2    C2 1600   4.252   4.647   0.161 -0.3100 -0.3468 -0.3024
  105MPD2    C3 1601   4.172   4.567   0.233 -0.3557  0.3492 -0.5497
  105MPD2    C4 1602   4.175   4.436   0.199 -0.7220 -0.5945  0.0585
  105MPD2    C5 1603   4.248   4.393   0.091 -0.4180  0.1259 -0.1514
  105MPD2     H 1604   4.251   0.028   0.189 -0.3245 -0.7839  1.3293
  105MPD2    H1 1605   4.112   4.363   0.251  0.0582  0.8299  3.0246
  105MPD2    H2 1606   4.409   4.430  17.655 -1.5011  0.8572 -1.8965
  105MPD2    H3 1607   4.244   4.286   0.074  0.0364  0.3283 -1.5652
  105MPD2     N 1608   4.096   4.624   0.341 -0.2029  0.6795 -0.1365
  105MPD2    H5 1609   4.092   0.002   0.354  3.2832  0.8646 -0.6200
  105MPD2    N1 1610   4.425   4.706   0.014 -0.4124  0.2107  0.6278
  105MPD2    H7 1611   4.384   0.075   0.026 -2.1632 -0.5026  0.0991
  106TCq2    C1 1612   4.024   4.557   0.437 -0.4283 -0.0554  0.0073
  106TCq2    O2 1613   4.000   4.437   0.457  0.0647  0.2526 -0.2605
  106TCq2    C2 1614   3.933   4.653   0.496  0.3500 -0.1912  0.1369
  106TCq2    C3 1615   3.899   0.044   0.426  0.6504  0.1997  0.0451
  106TCq2    C4 1616   3.846   0.152   0.496  0.7132  0.7408  0.5699
  106TCq2    C5 1617   3.824   0.142   0.634 -0.0476 -0.6362 -0.2614
  106TCq2    C6 1618   3.852   0.019   0.697  0.5197  0.2919 -0.4885
  106TCq2    C7 1619   3.913   4.642   0.633 -0.4422  0.2113 -0.1430
  106TCq2    C8 1620   3.822   0.018   0.842  0.3239 -0.5338 -0.2353
  106TCq2    O4 1621   3.888   4.657   0.902 -0.2205  0.8876 -0.6866
  106TCq2    C9 1622   3.809   0.279   0.438 -0.4104 -0.1144 -1.0365
  106TCq2    O5 1623   3.845   0.304   0.317  0.0408 -0.9557  0.0082
  106TCq2    O6 1624   3.739   0.359   0.509  0.7370  0.1540  0.1001
  106TCq2    H2 1625   3.911   0.057   0.319 -0.3476  0.9772  0.0255
  106TCq2    H3 1626   3.782   0.229   0.683 -3.0968 -2.4971  0.4897
  106TCq2    H4 1627   3.945   4.555   0.689  3.0398 -0.1224 -2.6426
  107TMC2    C1 1628   0.494   3.456  11.695 -0.1107 -0.0947 -0.4168
  107TMC2    C2 1629   0.519   3.329  11.742  0.2255  0.0725 -0.3957
  107TMC2    C3 1630   0.545   3.227  11.654  0.2698  0.2573  0.1530
  107TMC2    C4 1631   0.486   3.480  11.558  0.0366 -0.0467 -0.1186
  107TMC2    C5 1632   0.507   3.374  11.475  0.2886  0.2177 -0.4973
  107TMC2    C6 1633   0.547   3.253  11.521 -0.3256 -0.2624 -0.7231
  107TMC2     C 1634   0.481   3.568  11.789  0.0662 -0.4427  1.1117
  107TMC2     O 1635   0.474   3.536  11.904 -0.1069  0.3996  0.1573
  107TMC2     H 1636   0.510   3.297  11.846 -0.7608 -0.2045 -0.5580
  107TMC2    H1 1637   0.456   3.574  11.514 -2.4094 -0.9206 -0.3484
  107TMC2    H2 1638   0.547   3.168  11.454 -0.1781 -1.4044  0.7211
  107TMC2    C7 1639   0.493   3.402  11.328 -0.4634  0.5817  0.7108
  107TMC2    C8 1640   0.512   3.092  11.694 -0.2587  0.9815  0.1141
  107TMC2    O1 1641   0.449   3.510  11.296 -0.2053 -0.2856  0.2768
  107TMC2    O2 1642   0.411   3.043  11.646 -0.2850  0.0724  0.0621
  107TMC2    O5 1643   0.550   3.067  11.819 -0.4603 -0.2354  0.2309
  107TMC2    H5 1644   0.624   3.126  11.846  0.8913 -2.7127  1.9927
  108MPD2     C 1645   0.562   3.930  11.726 -0.9275  0.5510 -0.4252
  108MPD2    C1 1646   0.529   3.822  11.804 -0.3705 -0.6370  0.0843
  108MPD2    C2 1647   0.510   3.826  11.935  0.2304 -0.4939  0.6586
  108MPD2    C3 1648   0.511   3.947  11.998  0.2223 -0.3147 -0.0702
  108MPD2    C4 1649   0.534   4.059  11.921 -0.0254 -0.4297 -0.1751
  108MPD2    C5 1650   0.573   4.047  11.788 -0.4475  1.3079 -0.4219
  108MPD2     H 1651   0.492   3.737  11.995 -1.5634 -0.7491 -0.2512
  108MPD2    H1 1652   0.521   4.158  11.963 -0.4011  0.0266 -1.3639
  108MPD2    H2 1653   0.586   3.918  11.621 -0.4606 -0.6170 -0.1953
  108MPD2    H3 1654   0.598   4.131  11.724 -1.0512  1.9718  0.2208
  108MPD2     N 1655   0.498   3.964  12.139 -0.1619 -0.0970 -0.2033
  108MPD2    H5 1656   0.479   4.058  12.172 -0.4154 -0.0599 -0.4621
  108MPD2    N1 1657   0.523   3.693  11.732  0.0340  0.0071 -0.1646
  108MPD2    H7 1658   0.552   3.693  11.635  1.0261 -0.7536  0.1282
  109MPD2     C 1659   4.611   1.993   2.020 -0.1052 -0.1754  0.0207
  109MPD2    C1 1660   4.704   1.939   1.934 -0.5124 -0.7826  0.7401
  109MPD2    C2 1661   0.119   1.971   1.956  0.2822 -0.2265 -0.3590
  109MPD2    C3 1662   0.156   2.037   2.072 -0.0690  0.2151  0.1060
  109MPD2    C4 1663   0.059   2.091   2.153  0.2133  0.1311  0.5431
  109MPD2    C5 1664   4.651   2.066   2.125 -0.4681  0.4400  0.1282
  109MPD2     H 1665   0.194   1.921   1.894  0.2985 -0.6707  0.0202
  109MPD2    H1 1666   0.080   2.139   2.249 -0.5667  0.6893  0.4352
  109MPD2    H2 1667   4.506   1.971   2.011  0.0204 -0.1678 -1.4548
  109MPD2    H3 1668   4.566   2.100   2.185 -1.3680 -1.6387  0.0292
  109MPD2     N 1669   0.295   2.040   2.101 -0.1237 -0.4106 -0.1361
  109MPD2    H5 1670   0.355   2.011   2.024 -2.4883  0.4156 -2.2766
  109MPD2    N1 1671   4.654   1.863   1.829  0.7276 -0.2006  0.0885
  109MPD2    H7 1672   4.557   1.834   1.831  0.0808  2.1276  2.0447
  110TCq2    C1 1673   0.341   2.091   2.222  0.2113 -0.2702 -0.2255
  110TCq2    O2 1674   0.283   2.107   2.328  0.0370 -0.1668 -0.3304
  110TCq2    C2 1675   0.482   2.063   2.232  0.8144 -0.3776 -0.0834
  110TCq2    C3 1676   0.528   2.061   2.362 -0.0333  0.0161 -1.1481
  110TCq2    C4 1677   0.656   2.087   2.385 -0.3417  0.2303  0.3832
  110TCq2    C5 1678   0.735   2.133   2.286 -0.0556  0.6905 -1.0840
  110TCq2    C6 1679   0.681   2.151   2.162  0.2153 -0.1844 -0.6274
  110TCq2    C7 1680   0.556   2.105   2.129 -0.3083  0.2125  0.0206
  110TCq2    C8 1681   0.743   2.247   2.070 -0.1156 -0.3949  0.1821
  110TCq2    O4 1682   0.726   2.239   1.949 -0.1784 -0.1259  0.2726
  110TCq2    C9 1683   0.715   2.066   2.517 -0.2061  0.2670  0.0682
  110TCq2    O5 1684   0.838   2.103   2.531  0.2742  0.3785 -0.2906
  110TCq2    O6 1685   0.644   2.014   2.606 -0.0445  0.1710 -0.1467
  110TCq2    H2 1686   0.459   2.021   2.436 -0.2344  0.2792 -1.1952
  110TCq2    H3 1687   0.843   2.130   2.301 -0.3371  0.0615  0.7949
  110TCq2    H4 1688   0.508   2.129   2.035  3.0872 -0.8256 -1.9907
  111TMC2    C1 1689   1.028   1.128  11.595  0.5822  0.0453 -0.3073
  111TMC2    C2 1690   1.136   1.180  11.539 -0.0124  0.7308  0.3635
  111TMC2    C3 1691   1.235   1.247  11.606 -0.0383  0.0939  0.3765
  111TMC2    C4 1692   1.008   1.149  11.734  0.0621 -0.0839 -0.0458
  111TMC2    C5 1693   1.102   1.223  11.801  0.2503  0.0706 -0.5343
  111TMC2    C6 1694   1.215   1.267  11.739  0.5006 -0.3778 -0.3529
  111TMC2     C 1695   0.910   1.127  11.511  0.8466 -0.4906  0.0947
  111TMC2     O 1696   0.917   1.188  11.403  0.3768 -0.0026  0.2818
  111TMC2     H 1697   1.155   1.169  11.433 -1.2117 -0.7116  0.2923
  111TMC2    H1 1698   0.911   1.140  11.782  0.5491 -2.5270  0.4554
  111TMC2    H2 1699   1.282   1.337  11.788 -0.1901  0.7250 -0.9832
  111TMC2    C7 1700   1.075   1.236  11.942  0.1093 -0.0391 -1.2549
  111TMC2    C8 1701   1.334   1.332  11.532 -0.2659  0.2139  0.6642
  111TMC2    O1 1702   0.976   1.177  11.979 -0.0459  0.4721  0.5412
  111TMC2    O2 1703   1.335   1.388  11.420  0.5981 -0.1246  0.7551
  111TMC2    O5 1704   1.450   1.312  11.593 -0.4532 -0.0595  0.0092
  111TMC2    H5 1705   1.455   1.228  11.643  1.6914 -0.2013 -0.4616
  112MPD2     C 1706   0.406   1.081  11.455  0.1724 -0.1872 -0.1724
  112MPD2    C1 1707   0.498   1.159  11.390 -0.1422 -0.8602 -0.0808
  112MPD2    C2 1708   0.629   1.161  11.427 -0.1225  0.0216 -0.3764
  112MPD2    C3 1709   0.666   1.065  11.524 -0.3026 -0.0813  0.3864
  112MPD2    C4 1710   0.570   1.002  11.600  0.2108  0.6491  0.5208
  112MPD2    C5 1711   0.438   1.018  11.574  0.1839 -0.2034  0.1956
  112MPD2     H 1712   0.697   1.219  11.366 -0.4719  0.5187 -0.2861
  112MPD2    H1 1713   0.598   0.945  11.688  0.0956 -1.6408 -0.9341
  112MPD2    H2 1714   0.306   1.067  11.417  1.0004 -0.4148 -2.2325
  112MPD2    H3 1715   0.366   0.965  11.636 -0.7987 -0.5310 -1.2190
  112MPD2     N 1716   0.803   1.065  11.567 -0.3856  0.0375  0.4123
  112MPD2    H5 1717   0.827   1.004  11.645  0.8300 -0.3189 -0.2457
  112MPD2    N1 1718   0.457   1.244  11.279  0.1812  0.3375 -0.2122
  112MPD2    H7 1719   0.528   1.312  11.257  0.5109  0.8349  2.3650
  113MPD2     C 1720   2.881   4.649   1.844  0.0846  0.1011  0.0527
  113MPD2    C1 1721   2.853   4.673   1.708 -0.4931  0.3407 -0.5275
  113MPD2    C2 1722   2.876   4.572   1.623  0.8708  0.0818 -0.2020
  113MPD2    C3 1723   2.937   4.457   1.658 -0.1129 -0.1154 -0.0655
  113MPD2    C4 1724   2.967   4.432   1.784  0.3734  0.2860  0.7863
  113MPD2    C5 1725   2.936   4.528   1.877  0.6517 -0.5300  0.4016
  113MPD2     H 1726   2.849   4.581   1.518  0.7691  0.0788 -0.1757
  113MPD2    H1 1727   3.031   4.347   1.806  0.3798 -0.3851 -1.7191
  113MPD2    H2 1728   2.851   4.711   1.927 -1.3458 -1.5723  0.7815
  113MPD2    H3 1729   2.983   4.523   1.974  0.4341 -1.4042  0.4579
  113MPD2     N 1730   2.957   4.354   1.561  0.1780 -0.3293 -0.0154
  113MPD2    H5 1731   3.011   4.273   1.591  1.5340  0.0887 -1.3182
  113MPD2    N1 1732   2.805   0.073   1.657  0.1260  0.5396 -0.8076
  113MPD2    H7 1733   2.802   0.075   1.555 -0.6966  0.7792 -0.7775
  114TCq2    C1 1734   2.933   4.359   1.421 -0.0251  0.1116 -0.0699
  114TCq2    O2 1735   2.899   4.444   1.343  0.1558 -0.3739 -0.1621
  114TCq2    C2 1736   2.977   4.238   1.353  0.5516  0.0922 -0.5471
  114TCq2    C3 1737   2.989   4.239   1.213  0.2922 -0.3501 -0.6631
  114TCq2    C4 1738   3.030   4.125   1.150 -0.1091 -0.3984 -0.2806
  114TCq2    C5 1739   3.053   4.016   1.225  0.3713 -0.5890 -0.2244
  114TCq2    C6 1740   3.024   4.013   1.364 -0.4372 -0.4188  0.6026
  114TCq2    C7 1741   2.983   4.122   1.428  0.7319 -0.0963  0.4179
  114TCq2    C8 1742   3.023   3.887   1.436  0.4875 -0.3230  0.6016
  114TCq2    O4 1743   2.982   3.897   1.551  0.2708 -0.1542 -0.1839
  114TCq2    C9 1744   3.020   4.121   1.005 -0.2861  1.0638 -0.0955
  114TCq2    O5 1745   2.944   4.212   0.964 -0.2885  0.5287  0.2353
  114TCq2    O6 1746   3.072   4.028   0.939  0.3226  0.2082 -0.2535
  114TCq2    H2 1747   2.974   4.327   1.152  1.8833  1.0170  0.8937
  114TCq2    H3 1748   3.071   3.922   1.175  2.2068 -0.6607  0.5464
  114TCq2    H4 1749   2.970   4.117   1.535 -2.9683 -0.7936 -0.0667
  115TMC2    C1 1750   3.954   2.482  17.510 -0.2322  0.7159 -0.8065
  115TMC2    C2 1751   4.063   2.469  17.426  0.6833  0.5307 -0.7644
  115TMC2    C3 1752   4.163   2.566  17.423  0.1219 -0.4271  0.2243
  115TMC2    C4 1753   3.934   2.600  17.576 -0.3939  0.2466 -0.3381
  115TMC2    C5 1754   4.025   2.701  17.557  0.0127 -0.6259 -0.2297
  115TMC2    C6 1755   4.144   2.686  17.487 -0.1357 -0.4388  0.7147
  115TMC2     C 1756   3.873   2.362  17.546  0.4860 -0.5260  0.5323
  115TMC2     O 1757   3.866   2.272  17.460  0.1600  0.0226 -0.1166
  115TMC2     H 1758   4.073   2.378  17.368  0.2898  0.3155 -0.4976
  115TMC2    H1 1759   3.848   2.598  17.642 -0.7806 -0.7226 -0.8742
  115TMC2    H2 1760   4.223   2.759  17.482  0.0236 -0.5671  1.4454
  115TMC2    C7 1761   4.000   2.825  17.616  0.2061  0.2973  0.6714
  115TMC2    C8 1762   4.275   2.562  17.328 -0.4303  0.5247 -0.5997
  115TMC2    O1 1763   3.914   2.819   0.009  0.4763 -0.3853  0.2444
  115TMC2    O2 1764   4.336   2.664  17.323 -0.2772 -0.8286  1.0311
  115TMC2    O5 1765   4.335   2.438  17.336 -0.3194 -0.8227  0.5633
  115TMC2    H5 1766   4.272   2.364  17.343 -0.5000 -0.5399  1.8890
  116MPD2     C 1767   3.640   2.055   0.190 -0.4336  0.1555  0.4132
  116MPD2    C1 1768   3.642   2.048   0.051  0.0771  0.2088  0.1292
  116MPD2    C2 1769   3.703   2.159  17.683 -0.6130 -0.1365  0.1354
  116MPD2    C3 1770   3.761   2.267   0.053  0.4523  0.1014  0.2755
  116MPD2    C4 1771   3.757   2.270   0.192 -0.6031  0.3345 -0.9674
  116MPD2    C5 1772   3.688   2.166   0.257 -0.5918  0.0874 -0.2547
  116MPD2     H 1773   3.701   2.170  17.575  0.5549  0.2761  0.1602
  116MPD2    H1 1774   3.809   2.347   0.248 -2.7085  0.5583  0.6765
  116MPD2    H2 1775   3.605   1.969   0.247 -1.5338  0.7848  0.6864
  116MPD2    H3 1776   3.672   2.162   0.364  2.5247 -2.2345  0.0946
  116MPD2     N 1777   3.836   2.359  17.680  0.9080 -0.6608  0.2387
  116MPD2    H5 1778   3.856   2.442   0.040  0.3360 -0.2714 -0.1405
  116MPD2    N1 1779   3.582   1.940  17.675 -0.6522 -0.6992  0.4163
  116MPD2    H7 1780   3.542   1.865   0.036 -0.6532 -0.3863  0.8355
  117TMC2    C1 1781   2.598   3.147  13.740 -0.3222  0.9687 -0.0687
  117TMC2    C2 1782   2.626   3.060  13.636  0.3617  0.1897  0.3648
  117TMC2    C3 1783   2.754   3.059  13.589 -0.2980 -0.1307 -0.5979
  117TMC2    C4 1784   2.691   3.239  13.789 -0.6379  0.2754  0.6779
  117TMC2    C5 1785   2.809   3.229  13.735  0.5273 -0.3980  0.3232
  117TMC2    C6 1786   2.846   3.142  13.638  0.1498  0.3798 -0.3888
  117TMC2     C 1787   2.458   3.159  13.774  0.0855 -0.4882  0.3545
  117TMC2     O 1788   2.388   3.058  13.752  0.6497  0.2031 -0.4311
  117TMC2     H 1789   2.550   2.991  13.599 -0.5280  0.7388  1.1761
  117TMC2    H1 1790   2.664   3.298  13.876 -0.1758  0.8954  0.4067
  117TMC2    H2 1791   2.946   3.142  13.596  1.0119 -2.5043  1.6868
  117TMC2    C7 1792   2.902   3.342  13.761  0.2006  0.5906 -0.4034
  117TMC2    C8 1793   2.789   2.997  13.460  0.3176  0.2615 -0.1817
  117TMC2    O1 1794   2.989   3.358  13.677  0.5520 -0.1247  0.0589
  117TMC2    O2 1795   2.790   2.880  13.430 -0.1293 -0.0307  0.6614
  117TMC2    O5 1796   2.759   3.096  13.373 -0.1966  0.2595  0.1233
  117TMC2    H5 1797   2.750   3.183  13.419  2.2426  0.8343 -0.4549
  118MPD2     C 1798   2.913   3.574  14.041 -0.2897 -0.6386 -0.2672
  118MPD2    C1 1799   2.948   3.525  13.919 -0.1341  0.6933  0.1889
  118MPD2    C2 1800   3.014   3.610  13.831 -0.2406  0.7035  0.1314
  118MPD2    C3 1801   3.069   3.734  13.880  1.0131  0.2433 -0.8263
  118MPD2    C4 1802   3.040   3.775  14.013  0.3185  0.5702  0.2912
  118MPD2    C5 1803   2.969   3.691  14.093 -0.8023 -0.4745  0.2659
  118MPD2     H 1804   3.032   3.583  13.728  2.8145 -0.3787  0.9341
  118MPD2    H1 1805   3.086   3.865  14.053  0.2634  1.0722 -0.7987
  118MPD2    H2 1806   2.841   3.524  14.106 -0.7097  1.0785  0.5911
  118MPD2    H3 1807   2.934   3.717  14.192  1.2658  0.3096  0.7994
  118MPD2     N 1808   3.143   3.818  13.799 -0.1338  0.3458  0.4723
  118MPD2    H5 1809   3.171   3.903  13.848  0.4713  1.1014 -1.1731
  118MPD2    N1 1810   2.884   3.406  13.885  0.2147 -0.4163 -0.9245
  118MPD2    H7 1811   2.816   3.364  13.948  0.3986 -0.7644 -0.9572
  119MPD2     C 1812   0.814   0.683  13.624  0.4774 -0.1404 -0.1445
  119MPD2    C1 1813   0.711   0.623  13.690  0.0105 -0.1692 -0.1241
  119MPD2    C2 1814   0.586   0.621  13.630  0.1164  0.5308  0.2560
  119MPD2    C3 1815   0.557   0.688  13.509  0.1473  0.5539 -0.1011
  119MPD2    C4 1816   0.660   0.757  13.448  0.8512  0.4481 -0.9678
  119MPD2    C5 1817   0.786   0.759  13.508 -0.1743  0.1953  0.3210
  119MPD2     H 1818   0.511   0.559  13.677  1.7594 -0.8557  1.0523
  119MPD2    H1 1819   0.626   0.821  13.368  0.3790 -0.1154 -1.2188
  119MPD2    H2 1820   0.913   0.676  13.669  0.1784 -1.9484  0.2257
  119MPD2    H3 1821   0.860   0.817  13.453 -0.0226  1.8251  2.2164
  119MPD2     N 1822   0.428   0.697  13.453 -0.1382  0.7307  0.6578
  119MPD2    H5 1823   0.409   0.756  13.373  0.3379 -0.8267 -0.6007
  119MPD2    N1 1824   0.748   0.553  13.809 -0.5945  0.2548  0.2430
  119MPD2    H7 1825   0.844   0.545  13.843 -0.4142 -0.1355 -0.3752
  120TCq2    C1 1826   0.316   0.657  13.521  0.7131 -0.0655  0.2313
  120TCq2    O2 1827   0.295   0.609  13.630 -0.1137  0.1455 -1.2202
  120TCq2    C2 1828   0.197   0.680  13.443 -0.6942 -0.4362 -0.2456
  120TCq2    C3 1829   0.200   0.684  13.303 -0.1695  0.2478  0.1669
  120TCq2    C4 1830   0.080   0.708  13.243 -0.8473 -0.4956 -0.0078
  120TCq2    C5 1831   4.689   0.696  13.320 -0.2884 -0.5490 -0.9459
  120TCq2    C6 1832   4.694   0.673  13.453 -0.1700 -0.3508  0.3425
  120TCq2    C7 1833   0.084   0.683  13.515  0.3400  0.1925 -0.4336
  120TCq2    C8 1834   4.598   0.577  13.509  0.4411  0.9064 -0.2323
  120TCq2    O4 1835   4.491   0.568  13.450  0.0884 -0.1009  0.2884
  120TCq2    C9 1836   0.062   0.695  13.093 -0.2490  0.2568  0.1870
  120TCq2    O5 1837   0.162   0.656  13.034  0.6395  0.1828  0.4378
  120TCq2    O6 1838   4.673   0.717  13.042 -0.2612  0.0958  0.2270
  120TCq2    H2 1839   0.286   0.713  13.243  0.8036  0.0882  1.4891
  120TCq2    H3 1840   4.596   0.692  13.264 -0.6071 -0.7419 -0.4017
  120TCq2    H4 1841   0.096   0.688  13.622  0.4643  0.2148 -0.4482
  121TMC2    C1 1842   2.132   1.737  14.122  0.7746 -0.5177  0.1225
  121TMC2    C2 1843   2.222   1.638  14.158 -1.0673 -0.3235  0.0983
  121TMC2    C3 1844   2.178   1.510  14.160 -0.0472 -0.6798 -0.6986
  121TMC2    C4 1845   2.004   1.708  14.087  0.5860  0.2301  0.0443
  121TMC2    C5 1846   1.963   1.579  14.096  0.0383 -0.0114  0.3668
  121TMC2    C6 1847   2.049   1.477  14.136  0.4898  0.3701 -0.3095
  121TMC2     C 1848   2.191   1.863  14.100  0.6418  0.3966  0.2747
  121TMC2     O 1849   2.176   1.946  14.194  0.6708 -0.0034  0.1248
  121TMC2     H 1850   2.315   1.667  14.206  1.0882 -1.7394 -3.2309
  121TMC2    H1 1851   1.941   1.785  14.045 -0.5051 -0.9654 -0.5123
  121TMC2    H2 1852   2.002   1.381  14.155 -0.8025  1.3697  1.5605
  121TMC2    C7 1853   1.825   1.535  14.063  0.6067  0.5360 -0.0619
  121TMC2    C8 1854   2.260   1.422  14.240  0.8978 -0.0722  0.1907
  121TMC2    O1 1855   1.805   1.417  14.036 -0.2713  0.0977  0.0915
  121TMC2    O2 1856   2.308   1.463  14.344  0.0246  0.0331  0.5253
  121TMC2    O5 1857   2.218   1.299  14.226 -0.9820 -0.5834  0.1216
  121TMC2    H5 1858   2.197   1.281  14.132 -2.3789  0.1364  0.2803
  122MPD2     C 1859   2.410   2.070  14.057 -0.5907 -0.7346  0.2218
  122MPD2    C1 1860   2.374   1.966  13.968  0.0686 -0.1067  0.1472
  122MPD2    C2 1861   2.442   1.956  13.849 -0.5224  0.1334 -0.0424
  122MPD2    C3 1862   2.547   2.046  13.819  0.6334  0.0554 -0.4636
  122MPD2    C4 1863   2.595   2.135  13.916 -0.3143  0.0450  0.3459
  122MPD2    C5 1864   2.524   2.150  14.033  0.5311 -0.0846 -0.0733
  122MPD2     H 1865   2.411   1.875  13.783  0.9399 -1.3754  1.1066
  122MPD2    H1 1866   2.668   2.211  13.890 -0.2108 -0.6493 -1.3656
  122MPD2    H2 1867   2.358   2.085  14.150  0.2148 -0.5955  0.6495
  122MPD2    H3 1868   2.552   2.222  14.110 -0.9379  0.0464  0.3437
  122MPD2     N 1869   2.603   2.054  13.686 -0.6033  0.4457 -0.4400
  122MPD2    H5 1870   2.692   2.101  13.671  1.2184 -3.0708 -0.5900
  122MPD2    N1 1871   2.278   1.862  13.992  0.0714 -0.6504  0.3355
  122MPD2    H7 1872   2.270   1.786  13.926 -1.3124  0.6991 -1.0691
  123MPD2     C 1873   4.679   3.852  10.591  0.6211  0.2673  0.6188
  123MPD2    C1 1874   4.632   3.901  10.472 -0.6642  0.0025 -0.7708
  123MPD2    C2 1875   4.720   3.939  10.368  0.4560  0.1669 -0.5323
  123MPD2    C3 1876   0.129   3.943  10.394  0.1087  0.4294  0.3681
  123MPD2    C4 1877   0.176   3.897  10.513 -0.1182 -0.2844 -0.3002
  123MPD2    C5 1878   0.093   3.846  10.604 -0.2177  0.2162  0.0428
  123MPD2     H 1879   4.685   3.960  10.268  0.2185  0.9327 -0.2936
  123MPD2    H1 1880   0.283   3.893  10.531 -0.0845  0.0620 -0.4179
  123MPD2    H2 1881   4.612   3.809  10.665  0.7858  0.1636  0.7088
  123MPD2    H3 1882   0.133   3.803  10.695 -2.4156 -2.9437 -0.4757
  123MPD2     N 1883   0.209   3.996  10.288 -0.2409 -0.1440 -0.6801
  123MPD2    H5 1884   0.164   4.019  10.200 -0.8363 -0.3318 -0.4210
  123MPD2    N1 1885   4.492   3.892  10.454 -1.0047  0.2216  0.5664
  123MPD2    H7 1886   4.443   3.848  10.532  1.7766  0.5427  2.4956
  124TCq2    C1 1887   0.343   4.028  10.298  0.0816 -0.0806  0.1415
  124TCq2    O2 1888   0.420   4.008  10.395  0.2994  0.0516 -0.4163
  124TCq2    C2 1889   0.390   4.098  10.179  0.7798 -0.0834  0.7576
  124TCq2    C3 1890   0.518   4.071  10.125  0.0128 -0.2012  0.2423
  124TCq2    C4 1891   0.533   4.092   9.987  0.0714  0.1992 -0.1561
  124TCq2    C5 1892   0.433   4.135   9.910 -0.1573 -0.2552  0.4571
  124TCq2    C6 1893   0.305   4.157   9.963 -0.5959 -0.1150 -0.2864
  124TCq2    C7 1894   0.285   4.143  10.095 -0.1025  0.5045 -0.8716
  124TCq2    C8 1895   0.188   4.187   9.879 -0.1050  0.9163  0.6285
  124TCq2    O4 1896   0.076   4.149   9.915  0.2162 -0.4469  0.0967
  124TCq2    C9 1897   0.656   4.066   9.925 -0.4834  0.1253  0.8523
  124TCq2    O5 1898   0.660   4.058   9.800 -0.5820 -0.1659 -0.0847
  124TCq2    O6 1899   0.752   4.064  10.004  0.5842 -0.1370 -0.3224
  124TCq2    H2 1900   0.595   4.031  10.189  0.0278  1.4647  1.2664
  124TCq2    H3 1901   0.455   4.142   9.804 -0.3003 -1.6896  0.3367
  124TCq2    H4 1902   0.187   4.174  10.129  0.3810  1.4258 -0.3169
  125TMC2    C1 1903   2.273   0.454   8.746  0.2577 -0.0504 -0.2133
  125TMC2    C2 1904   2.179   0.366   8.689  0.4628 -0.1050  0.3467
  125TMC2    C3 1905   2.080   0.421   8.618  0.2624 -0.1155  0.1159
  125TMC2    C4 1906   2.261   0.591   8.714  0.0614 -0.3157  0.2696
  125TMC2    C5 1907   2.157   0.638   8.638  0.4044 -0.9388  0.3511
  125TMC2    C6 1908   2.063   0.553   8.597 -0.1696 -0.3460  0.4587
  125TMC2     C 1909   2.400   0.392   8.772  1.0801 -0.1982 -0.2343
  125TMC2     O 1910   2.417   0.279   8.730 -0.4075 -0.2129 -0.4276
  125TMC2     H 1911   2.189   0.258   8.688 -0.6202 -0.1788 -1.4765
  125TMC2    H1 1912   2.326   0.667   8.756 -0.9076 -0.7598  2.6112
  125TMC2    H2 1913   1.993   0.588   8.522  2.9130  0.4033 -2.1168
  125TMC2    C7 1914   2.138   0.784   8.617 -0.2224 -0.8539  0.2060
  125TMC2    C8 1915   1.997   0.335   8.532  0.3888  0.4288 -0.4331
  125TMC2    O1 1916   2.028   0.827   8.594  0.3214  0.5143  0.1935
  125TMC2    O2 1917   1.966   0.222   8.568 -0.1693 -0.0475  0.7634
  125TMC2    O5 1918   2.037   0.369   8.403  0.0766  0.2269  0.6259
  125TMC2    H5 1919   2.089   0.452   8.404 -0.3815  0.5277 -0.5624
  126MPD1     C 1920   2.796   0.305   9.084  0.3200  0.9338 -0.3486
  126MPD1    C1 1921   2.767   0.444   9.095 -0.5040  0.7761  0.2456
  126MPD1    C2 1922   2.668   0.494   9.019  0.1027 -0.1913  0.1256
  126MPD1    C3 1923   2.591   0.415   8.937  0.0018 -0.4004  0.5566
  126MPD1    C4 1924   2.618   0.281   8.939 -0.0933 -0.2638  0.8825
  126MPD1    C5 1925   2.715   0.225   9.021 -0.0081 -0.4365 -0.4200
  126MPD1     H 1926   2.650   0.601   9.022 -0.1935 -0.2595  0.8063
  126MPD1    H1 1927   2.556   0.206   8.891  0.2665 -0.7549  1.1870
  126MPD1    H2 1928   2.885   0.264   9.129 -1.3575  0.2691  2.3128
  126MPD1    H3 1929   2.735   0.119   9.033 -1.4128 -0.6919 -0.3219
  126MPD1     N 1930   2.484   0.465   8.858 -0.2149 -0.1051  0.1457
  126MPD1    H5 1931   2.460   0.563   8.869  3.3247  0.6395  1.0854
  126MPD1    N1 1932   2.864   0.535   9.149 -0.3511  0.6476 -0.4156
  126MPD1    H6 1933   2.809   0.614   9.183  0.0358  0.3446  0.9102
  126MPD1    H7 1934   2.913   0.505   9.233  0.8807  1.9032 -0.6955
  127MPD2     C 1935   3.505   1.001   9.680  0.0567  0.0100 -0.1294
  127MPD2    C1 1936   3.372   1.043   9.677 -0.1285 -0.2102  0.1078
  127MPD2    C2 1937   3.340   1.174   9.696  0.1302  0.1501  0.1705
  127MPD2    C3 1938   3.447   1.269   9.707  0.2111 -0.1885  0.4988
  127MPD2    C4 1939   3.579   1.233   9.709 -0.1650 -0.0745 -0.1813
  127MPD2    C5 1940   3.607   1.099   9.693 -0.1182 -0.0784 -0.1727
  127MPD2     H 1941   3.237   1.207   9.691  0.4938  0.9007 -2.1945
  127MPD2    H1 1942   3.662   1.303   9.716  1.0582 -1.7678  2.1948
  127MPD2    H2 1943   3.544   0.904   9.653 -2.1756  0.0328 -3.4088
  127MPD2    H3 1944   3.705   1.055   9.687  0.4942  1.1900  0.5560
  127MPD2     N 1945   3.411   1.409   9.710 -0.1743  0.0108  0.2857
  127MPD2    H5 1946   3.311   1.424   9.713 -0.2860 -0.1477 -2.8771
  127MPD2    N1 1947   3.277   0.950   9.637 -0.0983 -0.9762 -0.4140
  127MPD2    H7 1948   3.315   0.856   9.631  0.5625 -0.8741  2.2122
  128TCq2    C1 1949   3.141   0.960   9.659 -0.6789 -0.6774  0.2605
  128TCq2    O2 1950   3.074   1.048   9.720  0.4614  0.0270  0.0170
  128TCq2    C2 1951   3.080   0.830   9.637  0.9645 -0.9401 -0.1882
  128TCq2    C3 1952   3.122   0.740   9.548  0.7315  0.2801  0.9195
  128TCq2    C4 1953   3.046   0.628   9.516 -0.3196 -0.8954  0.0915
  128TCq2    C5 1954   2.926   0.605   9.579  0.6068  0.0765  0.1392
  128TCq2    C6 1955   2.882   0.698   9.667  0.0431 -0.0861 -0.1462
  128TCq2    C7 1956   2.959   0.808   9.699  0.4725  0.0998 -0.1050
  128TCq2    C8 1957   2.753   0.678   9.740 -0.6986 -0.6192  0.3853
  128TCq2    O4 1958   2.714   0.767   9.812  0.1751  0.1564  0.3528
  128TCq2    C9 1959   3.090   0.528   9.416 -0.4509 -0.7337  0.0191
  128TCq2    O5 1960   3.003   0.438   9.388  0.0591  0.1613 -0.3374
  128TCq2    O6 1961   3.210   0.538   9.376 -0.2367 -0.0505  0.4235
  128TCq2    H2 1962   3.214   0.759   9.494  1.1749 -0.6703  1.3570
  128TCq2    H3 1963   2.863   0.524   9.543  1.7182 -0.4540 -0.6409
  128TCq2    H4 1964   2.913   0.896   9.742  1.2778  0.6722 -0.4063
  129MPD2     C 1965   0.659   1.840   1.164  0.1698  0.3329  0.4795
  129MPD2    C1 1966   0.777   1.822   1.236 -0.0956 -0.0820 -0.8890
  129MPD2    C2 1967   0.895   1.869   1.181 -0.5969  0.2508 -0.2968
  129MPD2    C3 1968   0.894   1.931   1.054  0.1966  0.3500 -0.5056
  129MPD2    C4 1969   0.782   1.926   0.980 -0.5723 -0.7612 -0.1770
  129MPD2    C5 1970   0.664   1.885   1.039  0.3174 -0.1512 -0.8371
  129MPD2     H 1971   0.988   1.867   1.236 -0.1676  3.8076 -0.9260
  129MPD2    H1 1972   0.771   1.968   0.880  0.3918 -2.0783 -0.8209
  129MPD2    H2 1973   0.560   1.827   1.206  0.0091  1.0456  0.3195
  129MPD2    H3 1974   0.567   1.909   0.996 -1.3316 -1.4392  2.1666
  129MPD2     N 1975   1.019   1.980   0.998  0.2239 -0.0423 -0.4336
  129MPD2    H5 1976   1.087   1.987   1.073  0.2082  1.9246 -0.5986
  129MPD2    N1 1977   0.791   1.767   1.365 -0.2203  0.2503 -0.8253
  129MPD2    H7 1978   0.882   1.778   1.409 -2.1005  2.8559  2.4563
  130TCq2    C1 1979   0.690   1.693   1.421 -0.4900  0.2372 -1.3072
  130TCq2    O2 1980   0.586   1.670   1.367 -0.4671  0.6758  0.4868
  130TCq2    C2 1981   0.715   1.628   1.545 -0.2316  0.1870 -0.3129
  130TCq2    C3 1982   0.841   1.618   1.594  0.4954  0.5304 -0.0905
  130TCq2    C4 1983   0.860   1.522   1.695 -0.1125  0.2830 -0.0135
  130TCq2    C5 1984   0.753   1.438   1.745 -0.0292 -1.0294 -0.6433
  130TCq2    C6 1985   0.632   1.455   1.685  0.0916  0.7481 -0.8600
  130TCq2    C7 1986   0.611   1.541   1.582 -0.0671  0.6994  0.4152
  130TCq2    C8 1987   0.523   1.364   1.715  0.2793  0.2822 -0.5457
  130TCq2    O4 1988   0.438   1.343   1.629 -0.5846  0.1028 -0.0900
  130TCq2    C9 1989   0.988   1.514   1.764  0.1957 -0.2052  0.1564
  130TCq2    O5 1990   0.992   1.462   1.880 -0.0728 -0.1056 -0.1308
  130TCq2    O6 1991   1.083   1.576   1.711  0.2735 -0.3685  0.0434
  130TCq2    H2 1992   0.930   1.671   1.562  1.1380 -1.0378 -0.9246
  130TCq2    H3 1993   0.766   1.367   1.825 -0.4562 -0.9271 -0.4865
  130TCq2    H4 1994   0.510   1.554   1.544  0.3196  0.2660 -0.7883
  131MPD2     C 1995   4.197   4.506   9.831 -0.1705  0.2197  0.4540
  131MPD2    C1 1996   4.308   4.442   9.875 -0.1058  0.1062 -0.1015
  131MPD2    C2 1997   4.301   4.325   9.951 -0.4359 -0.3201  0.0136
  131MPD2    C3 1998   4.178   4.276   9.990  0.4342  0.1516 -0.0766
  131MPD2    C4 1999   4.067   4.333   9.938  0.4516 -0.6166 -1.0030
  131MPD2    C5 2000   4.077   4.452   9.866  0.3014  1.2243  0.1697
  131MPD2     H 2001   4.385   4.262   9.978  0.4337  0.7533 -0.2151
  131MPD2    H1 2002   3.965   4.303   9.962  0.5163 -0.0717 -0.0294
  131MPD2    H2 2003   4.199   4.602   9.781 -1.9270 -0.5907 -1.2212
  131MPD2    H3 2004   3.989   4.490   9.815 -0.0302 -0.1794 -0.2937
  131MPD2     N 2005   4.184   4.163  10.070 -0.0460 -0.4661  0.4759
  131MPD2    H5 2006   4.274   4.138  10.110  0.7847  0.4980 -0.7730
  131MPD2    N1 2007   4.435   4.502   9.840  0.8747 -0.3225  0.2074
  131MPD2    H7 2008   4.439   4.591   9.793 -2.1060  0.5562  1.6157
  132TCq2    C1 2009   0.300   4.548   9.876  0.0090 -0.0078 -0.2552
  132TCq2    O2 2010   0.309   4.448   9.945 -0.1094  0.4906  0.0375
  132TCq2    C2 2011   0.175   4.583   9.825 -0.2040 -0.1728  0.0113
  132TCq2    C3 2012   0.153   4.683   9.734  0.0024 -0.1121  0.4049
  132TCq2    C4 2013   0.031   4.695   9.676  0.0417  0.2154 -0.1703
  132TCq2    C5 2014   4.639   4.629   9.721 -0.5073  0.0101  0.6020
  132TCq2    C6 2015   4.661   4.541   9.822 -0.3676  0.5110 -0.3332
  132TCq2    C7 2016   0.065   4.514   9.875 -0.1355  0.0270  0.1411
  132TCq2    C8 2017   4.555   4.458   9.875 -0.3790  0.2148  0.2934
  132TCq2    O4 2018   4.582   4.361   9.942  0.4551  0.4103 -1.1021
  132TCq2    C9 2019   0.016   0.065   9.567 -0.7926  1.3628  0.7684
  132TCq2    O5 2020   0.120   0.128   9.529  0.1166  0.7619 -0.3160
  132TCq2    O6 2021   4.622   0.084   9.529 -0.2901  0.1451 -0.7183
  132TCq2    H2 2022   0.233   0.013   9.684 -0.6950  0.7784  0.2457
  132TCq2    H3 2023   4.547   4.638   9.664  0.4407 -0.3892 -1.0038
  132TCq2    H4 2024   0.093   4.434   9.943 -1.8385  0.6615  1.5824
  133MPD2     C 2025   4.354   2.006   9.261 -0.7230 -0.3239 -0.3782
  133MPD2    C1 2026   4.224   2.002   9.303 -0.1770 -0.3236  0.3747
  133MPD2    C2 2027   4.175   1.880   9.352 -0.2269  0.1810  0.0579
  133MPD2    C3 2028   4.258   1.772   9.375 -0.0110 -0.4439 -0.3708
  133MPD2    C4 2029   4.389   1.787   9.329  1.0755 -0.6540  0.2952
  133MPD2    C5 2030   4.433   1.897   9.273 -0.2293  0.0836 -0.6470
  133MPD2     H 2031   4.071   1.877   9.385  0.7905  0.7926  3.3477
  133MPD2    H1 2032   4.464   1.709   9.343  2.4999  0.3930 -1.4888
  133MPD2    H2 2033   4.397   2.093   9.213 -2.1384  0.1178 -0.8287
  133MPD2    H3 2034   4.535   1.895   9.237  0.2198  1.2086  0.5673
  133MPD2     N 2035   4.222   1.643   9.435 -0.1339 -0.2218 -0.0209
  133MPD2    H5 2036   4.298   1.575   9.440 -2.2790 -2.5016  1.2357
  133MPD2    N1 2037   4.149   2.121   9.291  0.6870 -0.1100 -0.1195
  133MPD2    H7 2038   4.196   2.205   9.260 -0.4907  0.1413 -1.2113
  134TCq2    C1 2039   4.011   2.132   9.301  0.3649  0.1895 -0.5498
  134TCq2    O2 2040   3.923   2.047   9.321 -0.2759 -0.0882 -0.5503
  134TCq2    C2 2041   3.980   2.265   9.277  0.4054 -0.0445 -0.3614
  134TCq2    C3 2042   4.058   2.356   9.205 -0.4461  0.0581  0.4146
  134TCq2    C4 2043   4.013   2.482   9.185  0.0987  0.1466  0.7883
  134TCq2    C5 2044   3.888   2.519   9.234 -0.2451 -0.2468  0.2959
  134TCq2    C6 2045   3.814   2.430   9.305  0.4652  0.8887 -0.7234
  134TCq2    C7 2046   3.863   2.308   9.343 -0.4880 -0.1353 -0.3601
  134TCq2    C8 2047   3.681   2.457   9.344  0.7927 -0.2329  0.3088
  134TCq2    O4 2048   3.615   2.367   9.392 -0.1935 -0.1251 -0.2583
  134TCq2    C9 2049   4.078   2.561   9.086 -0.3511 -0.4131  0.4062
  134TCq2    O5 2050   4.201   2.535   9.055  0.6169 -0.0521 -0.0125
  134TCq2    O6 2051   4.008   2.653   9.028  0.1120 -0.3854 -0.0916
  134TCq2    H2 2052   4.142   2.317   9.150  0.3259  1.5058  0.5852
  134TCq2    H3 2053   3.846   2.611   9.195  0.4629 -0.0922 -0.1058
  134TCq2    H4 2054   3.800   2.240   9.398  1.1995 -0.0256  1.7098
  135MPD2     C 2055   2.683   2.597   9.345 -0.6431  0.0887  0.6902
  135MPD2    C1 2056   2.640   2.468   9.342  0.0325  0.0497 -0.2682
  135MPD2    C2 2057   2.720   2.368   9.287  0.3961 -0.4161 -0.0260
  135MPD2    C3 2058   2.848   2.394   9.246  0.2121  0.6074 -0.9349
  135MPD2    C4 2059   2.893   2.529   9.255  0.4881 -0.2482 -0.3463
  135MPD2    C5 2060   2.813   2.625   9.297 -0.0050  0.0200  0.2770
  135MPD2     H 2061   2.676   2.270   9.300  0.1964 -0.2598  0.4735
  135MPD2    H1 2062   2.996   2.546   9.226  0.5255 -1.8496 -1.1550
  135MPD2    H2 2063   2.621   2.680   9.376 -2.4963 -1.0075 -0.0708
  135MPD2    H3 2064   2.845   2.729   9.303  2.4367 -0.6717 -0.6273
  135MPD2     N 2065   2.940   2.288   9.219 -0.7879 -0.2880 -0.4239
  135MPD2    H5 2066   3.038   2.310   9.200 -0.9503  0.2791 -0.6063
  135MPD2    N1 2067   2.514   2.430   9.391 -0.0344  1.1525  0.3067
  135MPD2    H7 2068   2.502   2.330   9.401 -1.4501  1.1417 -1.3009
  136TCq2    C1 2069   2.402   2.504   9.425 -0.0022 -0.0799  0.2975
  136TCq2    O2 2070   2.384   2.625   9.417  0.6351 -0.5786 -0.1174
  136TCq2    C2 2071   2.288   2.420   9.443 -0.2639 -0.6935  0.4432
  136TCq2    C3 2072   2.172   2.455   9.374 -0.1422  0.2093  0.6229
  136TCq2    C4 2073   2.087   2.345   9.353 -0.6712 -1.2544 -0.4882
  136TCq2    C5 2074   2.100   2.227   9.421 -0.6059 -0.7376  0.1254
  136TCq2    C6 2075   2.204   2.211   9.514  0.1347  0.2106  0.5600
  136TCq2    C7 2076   2.296   2.311   9.521 -0.1200 -0.0926 -0.0451
  136TCq2    C8 2077   2.191   2.115   9.624  0.9325  0.1480 -0.3955
  136TCq2    O4 2078   2.284   2.112   9.705  0.5767 -0.4217 -0.3000
  136TCq2    C9 2079   1.973   2.364   9.270 -0.5476 -0.0941  1.0929
  136TCq2    O5 2080   1.895   2.267   9.260 -0.7503 -0.6917 -0.1601
  136TCq2    O6 2081   1.966   2.466   9.199 -0.4102 -0.8434 -0.3030
  136TCq2    H2 2082   2.159   2.550   9.323  0.1496 -0.5584 -0.8935
  136TCq2    H3 2083   2.028   2.147   9.407 -1.6259  0.0981  0.6398
  136TCq2    H4 2084   2.385   2.294   9.581 -1.2589 -1.3365  1.2968
  137MPD2     C 2085   2.100   0.394   9.037 -0.6803 -0.7153 -0.8333
  137MPD2    C1 2086   2.017   0.495   8.995 -0.1194  0.4052 -0.5465
  137MPD2    C2 2087   2.063   0.628   8.994 -0.1166  0.1560 -0.4548
  137MPD2    C3 2088   2.195   0.659   9.018 -0.5721 -0.4877  0.1006
  137MPD2    C4 2089   2.273   0.559   9.069 -0.0181 -0.2987  0.3246
  137MPD2    C5 2090   2.226   0.427   9.074  0.0155 -0.0122 -0.1299
  137MPD2     H 2091   2.001   0.713   8.967  0.7402  0.8781 -0.1703
  137MPD2    H1 2092   2.379   0.578   9.087 -0.2606  1.2908  0.0854
  137MPD2    H2 2093   2.071   0.290   9.049 -1.6750 -0.3055  0.4211
  137MPD2    H3 2094   2.289   0.345   9.107  2.3512  1.9651  0.4281
  137MPD2     N 2095   2.249   0.789   9.014 -0.1673 -0.3514  0.2577
  137MPD2    H5 2096   2.186   0.868   9.026 -1.0122 -0.8704 -0.8787
  137MPD2    N1 2097   1.882   0.459   8.973  0.4994  0.2426 -0.0418
  137MPD2    H7 2098   1.865   0.359   8.962  1.6994 -0.0506  0.8046
  138TCq2    C1 2099   1.784   0.544   8.930  0.0131  0.5220  0.2456
  138TCq2    O2 2100   1.792   0.663   8.913 -0.0798  0.1854 -0.1658
  138TCq2    C2 2101   1.671   0.472   8.868 -0.0633  0.4096 -0.3528
  138TCq2    C3 2102   1.645   0.495   8.736 -0.2623 -0.1506  1.2651
  138TCq2    C4 2103   1.566   0.406   8.673 -0.2731 -0.0075  0.4213
  138TCq2    C5 2104   1.501   0.312   8.737 -1.3784 -0.1600  0.4089
  138TCq2    C6 2105   1.519   0.291   8.866 -0.6270  0.3873 -0.0752
  138TCq2    C7 2106   1.613   0.367   8.931 -0.1008 -0.3932  0.2032
  138TCq2    C8 2107   1.447   0.193   8.936  0.6182  0.2056  0.5284
  138TCq2    O4 2108   1.409   0.098   8.866  0.6336  0.1144 -0.1491
  138TCq2    C9 2109   1.552   0.430   8.528  0.2680 -0.2966  0.1963
  138TCq2    O5 2110   1.604   0.533   8.481 -0.5664  0.1449 -0.1721
  138TCq2    O6 2111   1.501   0.335   8.462 -0.1735 -0.0718  0.4385
  138TCq2    H2 2112   1.703   0.573   8.689 -0.3528 -0.7566  0.1568
  138TCq2    H3 2113   1.419   0.268   8.682 -1.6489 -1.3290  1.7578
  138TCq2    H4 2114   1.618   0.373   9.039  0.5835 -1.9241  0.2642
  139TMC2    C1 2115   2.468   4.397  13.619  0.3214  0.2874  0.0935
  139TMC2    C2 2116   2.605   4.411  13.604 -0.5547 -0.1787 -0.0788
  139TMC2    C3 2117   2.645   4.542  13.591  0.0786 -0.5059  0.7927
  139TMC2    C4 2118   2.376   4.496  13.619  0.4301 -0.2351  0.0602
  139TMC2    C5 2119   2.428   4.618  13.598 -0.4629  0.2439  0.9412
  139TMC2    C6 2120   2.558   4.647  13.610 -0.3895 -0.3172  0.1618
  139TMC2     C 2121   2.426   4.258  13.620  0.0406  0.1180 -0.0892
  139TMC2     O 2122   2.500   4.184  13.678  0.4287 -0.2372 -0.1700
  139TMC2     H 2123   2.671   4.325  13.611 -0.2742 -0.0071 -0.6203
  139TMC2    H1 2124   2.269   4.482  13.636  0.1332  1.5936 -0.3090
  139TMC2    H2 2125   2.583   0.029  13.612 -0.4630 -0.2704 -1.5138
  139TMC2    C7 2126   2.338   0.009  13.593 -0.1684  0.0642 -0.1250
  139TMC2    C8 2127   2.778   4.569  13.627  0.1190  0.1172 -0.3996
  139TMC2    O1 2128   2.392   0.118  13.615  0.2230  0.7729 -0.2135
  139TMC2    O2 2129   2.844   4.474  13.672 -0.6961 -0.3178  0.1196
  139TMC2    O5 2130   2.809   4.646  13.523 -0.2844  0.6085 -0.4289
  139TMC2    H5 2131   2.730   4.671  13.471 -0.2209  2.6310  0.4487
  140MPD2     C 2132   2.113   4.110  13.494  0.6460  0.2494 -0.3436
  140MPD2    C1 2133   2.237   4.108  13.556  0.1494  0.3110  0.3218
  140MPD2    C2 2134   2.287   3.984  13.592 -0.4217 -0.3043  0.0093
  140MPD2    C3 2135   2.224   3.864  13.567  0.1993  1.1625  0.2974
  140MPD2    C4 2136   2.101   3.867  13.497  0.0479  0.4649  0.0198
  140MPD2    C5 2137   2.048   3.992  13.469  0.0091 -0.1977  0.1222
  140MPD2     H 2138   2.380   3.974  13.647  1.2871  0.4401 -2.7111
  140MPD2    H1 2139   2.048   3.776  13.472  1.2726 -0.4745  0.8885
  140MPD2    H2 2140   2.066   4.205  13.469 -0.7131 -0.4629 -0.4856
  140MPD2    H3 2141   1.952   4.005  13.421 -1.5003 -1.7471  2.7385
  140MPD2     N 2142   2.282   3.738  13.595  0.1996 -0.5173 -0.3696
  140MPD2    H5 2143   2.382   3.738  13.615 -0.3721  2.4016  2.5769
  140MPD2    N1 2144   2.305   4.232  13.562  0.0491  0.3142 -0.2712
  140MPD2    H7 2145   2.261   4.306  13.507 -0.6117  1.8521  2.3552
  141TCq2    C1 2146   2.927   1.241  13.738 -0.7138  0.2031 -0.1308
  141TCq2    O2 2147   2.933   1.217  13.618 -0.2442  0.1329  0.1974
  141TCq2    C2 2148   2.798   1.259  13.793  0.3287 -0.0577 -0.2813
  141TCq2    C3 2149   2.691   1.211  13.724  0.5803 -0.0986  1.0735
  141TCq2    C4 2150   2.567   1.227  13.782  0.2297  0.9660  0.6189
  141TCq2    C5 2151   2.556   1.274  13.908  0.1814 -0.0893 -0.2231
  141TCq2    C6 2152   2.662   1.321  13.980 -0.2278 -0.0915  0.9016
  141TCq2    C7 2153   2.789   1.320  13.920  0.5895  0.0060  0.3198
  141TCq2    C8 2154   2.639   1.417  14.082 -0.0484  0.0773 -0.7806
  141TCq2    O4 2155   2.525   1.462  14.077  0.0006 -0.2009  0.2844
  141TCq2    C9 2156   2.443   1.191  13.710 -0.4267  0.3153 -0.0873
  141TCq2    O5 2157   2.452   1.112  13.618  0.7991  0.1879  0.7831
  141TCq2    O6 2158   2.332   1.212  13.767  0.2458  0.3970  0.5200
  141TCq2    H2 2159   2.702   1.154  13.633  2.2741 -0.0786  1.2615
  141TCq2    H3 2160   2.458   1.277  13.954  0.1806 -1.2523 -0.1564
  141TCq2    H4 2161   2.866   1.386  13.956  0.3277 -0.6381  2.0544
  142MPD2     C 2162   4.300   3.562   9.964 -0.0242  0.3158 -0.0721
  142MPD2    C1 2163   4.196   3.643  10.005  0.0266  0.1512  0.0625
  142MPD2    C2 2164   4.173   3.765   9.936  0.9819  0.8591  0.0460
  142MPD2    C3 2165   4.260   3.811   9.832 -0.2505  0.1377  0.8692
  142MPD2    C4 2166   4.374   3.729   9.804 -0.1912 -0.1347  0.9475
  142MPD2    C5 2167   4.386   3.607   9.869  0.1218 -0.2267 -0.1371
  142MPD2     H 2168   4.089   3.823   9.972  0.6325  0.0140  0.6108
  142MPD2    H1 2169   4.444   3.761   9.729  0.2980 -1.0371  1.0210
  142MPD2    H2 2170   4.318   3.470  10.019  0.3134 -0.8619 -2.1723
  142MPD2    H3 2171   4.470   3.539   9.856  0.8262  0.4281  0.9575
  142MPD2     N 2172   4.246   3.931   9.756  0.3759 -0.2497 -0.7159
  142MPD2    H5 2173   4.334   3.954   9.711  1.3826  2.8058  2.8756
  142MPD2    N1 2174   4.119   3.600  10.114  0.1908 -0.1951  0.0515
  142MPD2    H7 2175   4.160   3.525  10.169 -1.8507 -1.2912  0.0711
  143TCq2    C1 2176   4.133   4.011   9.754  0.6651  0.0458 -0.3066
  143TCq2    O2 2177   4.021   3.987   9.799  0.3778  0.0011 -0.3254
  143TCq2    C2 2178   4.146   4.113   9.654 -0.1876  0.1879 -0.2559
  143TCq2    C3 2179   4.035   4.130   9.573  0.3871  0.9245 -0.4018
  143TCq2    C4 2180   4.060   4.181   9.448  0.6892  0.3394  0.2396
  143TCq2    C5 2181   4.185   4.223   9.413 -0.7140 -0.2454  1.1456
  143TCq2    C6 2182   4.283   4.222   9.503 -0.3457 -0.0289 -0.7524
  143TCq2    C7 2183   4.272   4.161   9.623 -0.1628  0.3659 -0.7961
  143TCq2    C8 2184   4.414   4.284   9.468 -0.7742  0.2947 -0.5153
  143TCq2    O4 2185   4.429   4.340   9.362  0.1504 -0.4743 -0.0717
  143TCq2    C9 2186   3.959   4.200   9.357  0.1558 -0.8385 -0.3742
  143TCq2    O5 2187   3.980   4.204   9.234 -0.2635 -0.0234 -0.2141
  143TCq2    O6 2188   3.848   4.158   9.401 -0.2253 -0.0042  0.1798
  143TCq2    H2 2189   3.933   4.112   9.605  0.6332 -3.0927 -1.8995
  143TCq2    H3 2190   4.196   4.258   9.311  0.4105  0.7223  1.6020
  143TCq2    H4 2191   4.344   4.164   9.704 -1.2699  0.8583  0.1808
  144MPD2     C 2192   3.323   3.474   0.958 -0.0744  0.0197 -0.2690
  144MPD2    C1 2193   3.324   3.336   0.949  0.0811  0.1005 -0.9385
  144MPD2    C2 2194   3.423   3.273   1.027 -0.1737  0.1043 -0.1311
  144MPD2    C3 2195   3.514   3.349   1.097  0.3576  0.3310  0.1556
  144MPD2    C4 2196   3.508   3.484   1.115  0.2372 -0.1846 -0.0708
  144MPD2    C5 2197   3.411   3.545   1.037 -0.5022 -0.4022 -0.4827
  144MPD2     H 2198   3.422   3.165   1.037  0.7864  0.1235  0.1440
  144MPD2    H1 2199   3.585   3.552   1.151 -0.1105 -0.3939  1.0527
  144MPD2    H2 2200   3.255   3.534   0.897 -0.0831  0.4279  0.1409
  144MPD2    H3 2201   3.396   3.652   1.039 -0.4727 -0.4561  3.6452
  144MPD2     N 2202   3.626   3.288   1.160 -0.5777 -0.0446 -0.0388
  144MPD2    H5 2203   3.680   3.346   1.225 -1.7404  1.0134 -0.0200
  144MPD2    N1 2204   3.240   3.258   0.867 -0.0607 -0.6348  0.3137
  144MPD2    H7 2205   3.256   3.159   0.847 -1.2117 -1.2865  2.7094
  145TCq2    C1 2206   3.673   3.163   1.138 -0.2644  0.2266 -0.1770
  145TCq2    O2 2207   3.651   3.093   1.039 -0.1658  0.0208  0.5841
  145TCq2    C2 2208   3.803   3.139   1.197  0.0880 -0.6294  0.9254
  145TCq2    C3 2209   3.900   3.076   1.119  0.0965 -0.2958  0.0461
  145TCq2    C4 2210   4.027   3.105   1.157  0.1360  0.4375  0.0112
  145TCq2    C5 2211   4.062   3.175   1.275  0.0759 -0.1393  0.0357
  145TCq2    C6 2212   3.960   3.220   1.351  0.6638  0.6679 -0.1638
  145TCq2    C7 2213   3.827   3.209   1.314 -0.3201  0.0573 -0.0137
  145TCq2    C8 2214   3.993   3.224   1.490  0.3180  0.6420  0.5715
  145TCq2    O4 2215   4.109   3.191   1.524  0.7130  0.2264 -0.3156
  145TCq2    C9 2216   4.136   3.060   1.072 -0.0363 -0.5427  0.0764
  145TCq2    O5 2217   4.096   2.986   0.982  0.3610  0.0439 -0.0447
  145TCq2    O6 2218   4.251   3.090   1.110 -0.9410 -0.1079 -0.2862
  145TCq2    H2 2219   3.875   3.033   1.022  0.5052 -2.0208  0.7151
  145TCq2    H3 2220   4.167   3.182   1.298  0.4858  0.3914 -1.9309
  145TCq2    H4 2221   3.748   3.262   1.367  0.1585 -1.1990  1.9454
  146TMC2    C1 2222   4.448   2.647  13.181  0.1520 -0.1240 -0.2145
  146TMC2    C2 2223   4.404   2.770  13.141  0.1930 -0.0261 -0.2322
  146TMC2    C3 2224   4.390   2.789  13.009 -0.4982  0.2274 -0.4035
  146TMC2    C4 2225   4.476   2.546  13.088  0.1148 -0.0853  0.5249
  146TMC2    C5 2226   4.460   2.584  12.955 -0.7736  0.3272  0.2471
  146TMC2    C6 2227   4.418   2.704  12.916 -0.2121  0.8502 -0.8334
  146TMC2     C 2228   4.479   2.623  13.318 -0.0545 -0.3963 -0.2007
  146TMC2     O 2229   4.432   2.695  13.403  0.0431  0.8495  0.1852
  146TMC2     H 2230   4.375   2.844  13.215 -0.7754 -1.3874  0.7479
  146TMC2    H1 2231   4.512   2.445  13.102  2.0994  0.3898 -1.0733
  146TMC2    H2 2232   4.413   2.746  12.817 -1.1543  2.7439  0.0242
  146TMC2    C7 2233   4.515   2.511  12.846  0.0947 -0.2950 -0.6171
  146TMC2    C8 2234   4.354   2.918  12.964 -0.9590 -0.4460 -0.5100
  146TMC2    O1 2235   4.550   2.572  12.744 -0.1289  0.3416 -0.0548
  146TMC2    O2 2236   4.237   2.952  12.963 -0.2589  0.2420 -0.3745
  146TMC2    O5 2237   4.457   2.990  13.016  0.2857 -0.4953  0.6052
  146TMC2    H5 2238   4.542   2.946  13.035  1.1677  0.7672 -0.4507
  147MPD2     C 2239   4.596   2.060  12.604  0.1926 -0.0937 -0.2839
  147MPD2    C1 2240   4.580   2.030  12.731 -0.0098  0.1201 -0.8060
  147MPD2    C2 2241   4.547   2.135  12.816  0.1395  0.1651  0.0128
  147MPD2    C3 2242   4.539   2.269  12.772  0.0251  0.7069  0.0400
  147MPD2    C4 2243   4.551   2.287  12.642  0.8095  0.0439  0.0325
  147MPD2    C5 2244   4.582   2.183  12.553 -0.2133  0.4283 -0.0079
  147MPD2     H 2245   4.521   2.116  12.920 -0.9015 -1.4923 -0.5611
  147MPD2    H1 2246   4.554   2.387  12.599 -1.7873  0.9551  1.9536
  147MPD2    H2 2247   4.616   1.988  12.525  1.0456 -0.6189  0.4179
  147MPD2    H3 2248   4.604   2.205  12.449 -0.0077 -0.9924 -0.2669
  147MPD2     N 2249   4.508   2.377  12.868  0.4704 -0.3052  0.3874
  147MPD2    H5 2250   4.478   2.352  12.962 -3.4859  0.4264 -0.7048
  147MPD2    N1 2251   4.608   1.898  12.772 -0.2246 -0.4789 -0.4738
  147MPD2    H7 2252   4.651   1.838  12.703  1.6229 -0.4086  0.5962
  148MPD2     C 2253   0.537   0.487  10.971 -0.2128 -0.0409 -0.1628
  148MPD2    C1 2254   0.588   0.400  10.878  0.2011 -0.1828  0.3728
  148MPD2    C2 2255   0.518   0.282  10.838 -0.0866 -0.2960 -0.6051
  148MPD2    C3 2256   0.394   0.260  10.898  0.0180 -0.1898 -0.2055
  148MPD2    C4 2257   0.345   0.335  11.001  0.0696 -0.2024 -0.6195
  148MPD2    C5 2258   0.427   0.445  11.035  0.3703 -0.5226  0.7346
  148MPD2     H 2259   0.558   0.224  10.756  1.8500  1.7276 -1.0873
  148MPD2    H1 2260   0.250   0.325  11.053 -0.1561 -1.0064 -1.1818
  148MPD2    H2 2261   0.584   0.581  10.995 -3.1250  1.1772  0.7142
  148MPD2    H3 2262   0.397   0.519  11.109 -1.5628  0.0403 -0.6117
  148MPD2     N 2263   0.307   0.161  10.855 -0.0063 -0.0132  0.7184
  148MPD2    H5 2264   0.218   0.156  10.903 -0.0062  1.2789  0.8518
  148MPD2    N1 2265   0.710   0.436  10.804 -0.4109  0.4089 -0.0708
  148MPD2    H7 2266   0.729   0.366  10.733 -0.2141  0.2459  0.1431
  149TCq2    C1 2267   0.801   0.534  10.831 -1.3156 -0.0664 -0.2005
  149TCq2    O2 2268   0.795   0.613  10.926  0.3146  0.1441  0.6786
  149TCq2    C2 2269   0.928   0.528  10.750  0.0109 -0.7423  0.4592
  149TCq2    C3 2270   1.012   0.642  10.737 -0.1347 -0.6544 -0.1888
  149TCq2    C4 2271   1.130   0.625  10.676  0.8807 -0.4144 -0.4469
  149TCq2    C5 2272   1.165   0.507  10.618 -0.4559  0.5194  0.7398
  149TCq2    C6 2273   1.085   0.396  10.637  0.0518  0.4816  0.1689
  149TCq2    C7 2274   0.974   0.411  10.716 -0.1685  0.0226 -0.2531
  149TCq2    C8 2275   1.094   0.279  10.546  0.1348 -0.1644  0.0173
  149TCq2    O4 2276   1.210   0.256  10.514 -0.3168  0.8350 -0.2165
  149TCq2    C9 2277   1.201   0.740  10.617  0.5975  0.6692  0.1668
  149TCq2    O5 2278   1.150   0.847  10.647  0.0350 -0.0439  0.3344
  149TCq2    O6 2279   1.289   0.718  10.527 -0.2461 -0.1669 -0.2269
  149TCq2    H2 2280   0.986   0.734  10.788 -0.2540 -0.0556 -1.3249
  149TCq2    H3 2281   1.242   0.493  10.544 -0.7265  2.5377  0.0580
  149TCq2    H4 2282   0.915   0.323  10.736  0.6033 -0.5004 -0.2848
  150MPD2     C 2283   1.955   4.678  12.114  0.3104 -0.2421 -0.1002
  150MPD2    C1 2284   1.905   0.085  12.123  0.2651 -0.2039 -1.1231
  150MPD2    C2 2285   1.974   0.180  12.199  0.3046 -0.1505  0.0314
  150MPD2    C3 2286   2.093   0.156  12.265 -0.6194 -0.1865 -0.0753
  150MPD2    C4 2287   2.137   0.026  12.248  0.2542  0.3618  0.5976
  150MPD2    C5 2288   2.072   4.657  12.170  0.2757  0.9064 -0.0264
  150MPD2     H 2289   1.952   0.286  12.203 -0.9205 -0.4137  0.0048
  150MPD2    H1 2290   2.232   4.720  12.291 -0.6855 -0.1100  2.3360
  150MPD2    H2 2291   1.922   4.594  12.054 -0.4294  1.4845 -2.0846
  150MPD2    H3 2292   2.108   4.555  12.161 -2.2282 -0.0438  0.7658
  150MPD2     N 2293   2.152   0.252  12.352 -0.3039 -0.6347 -0.8188
  150MPD2    H5 2294   2.099   0.338  12.352  1.3266  0.3717  2.5612
  150MPD2    N1 2295   1.780   0.107  12.065  0.6105 -0.5996  0.0541
  150MPD2    H7 2296   1.745   0.023  12.018  1.0304 -1.0373  0.5227
  151TCq2    C1 2297   2.268   0.236  12.427  0.1834  0.0422 -0.2759
  151TCq2    O2 2298   2.345   0.138  12.434  0.1657  0.3609  0.2046
  151TCq2    C2 2299   2.300   0.355  12.498  0.1734  0.1735 -0.3194
  151TCq2    C3 2300   2.203   0.439  12.542 -0.0969 -0.9623 -0.0538
  151TCq2    C4 2301   2.254   0.559  12.587  0.9516 -0.3001 -0.1632
  151TCq2    C5 2302   2.387   0.578  12.609  0.5340  0.2097 -0.3190
  151TCq2    C6 2303   2.474   0.484  12.573 -0.0713  0.6022  0.1635
  151TCq2    C7 2304   2.437   0.374  12.504  0.0160 -0.0647 -0.1813
  151TCq2    C8 2305   2.614   0.508  12.598 -0.1084 -0.4300 -0.2584
  151TCq2    O4 2306   2.650   0.620  12.617 -0.1786  0.0200  0.8275
  151TCq2    C9 2307   2.177   0.661  12.640 -0.2228  0.1807 -0.2785
  151TCq2    O5 2308   2.050   0.643  12.650 -0.2056 -0.4088  0.4567
  151TCq2    O6 2309   2.227   0.772  12.664  0.4800 -0.3859 -0.3092
  151TCq2    H2 2310   2.103   0.400  12.555 -0.4126 -0.2663 -0.3913
  151TCq2    H3 2311   2.427   0.660  12.667  1.8779 -0.1334 -0.7708
  151TCq2    H4 2312   2.508   0.308  12.455  0.9815  2.1553 -1.7924
  152MPD2     C 2313   1.920   4.244  12.391  1.3553  0.3675  0.4755
  152MPD2    C1 2314   1.902   4.368  12.442 -0.0553 -0.6685  0.9113
  152MPD2    C2 2315   1.776   4.425  12.452 -0.6355 -0.6540 -0.1532
  152MPD2    C3 2316   1.665   4.347  12.428 -0.2659  0.1645  0.2329
  152MPD2    C4 2317   1.686   4.227  12.357 -0.3905 -0.4627 -0.0040
  152MPD2    C5 2318   1.809   4.173  12.344  0.6932  0.0426  0.6326
  152MPD2     H 2319   1.761   4.526  12.488  3.9482 -0.6480  1.7381
  152MPD2    H1 2320   1.600   4.176  12.316 -1.5490  1.1354  0.4457
  152MPD2    H2 2321   2.020   4.201  12.388  1.5589  0.8274  0.6965
  152MPD2    H3 2322   1.831   4.074  12.307 -0.4489 -0.1875  0.5931
  152MPD2     N 2323   1.540   4.407  12.425 -0.4530  0.5420  0.2912
  152MPD2    H5 2324   1.541   4.508  12.436  0.1378  0.6021 -0.2775
  152MPD2    N1 2325   2.011   4.441  12.484  0.0904 -0.7944 -0.5024
  152MPD2    H7 2326   2.101   4.394  12.488 -0.5381 -1.8269  1.0107
  153TCq2    C1 2327   2.014   4.570  12.533 -0.8364  0.5029  0.1318
  153TCq2    O2 2328   1.932   4.659  12.530 -0.3899 -0.3909 -0.4348
  153TCq2    C2 2329   2.130   4.612  12.604 -0.2378  0.8608  0.7228
  153TCq2    C3 2330   2.224   4.521  12.636  0.8428 -0.3252  0.7238
  153TCq2    C4 2331   2.312   4.552  12.732 -0.4584 -0.7376 -0.1180
  153TCq2    C5 2332   2.319   4.670  12.797  0.1272  0.4382  0.2500
  153TCq2    C6 2333   2.225   0.040  12.760 -0.5314 -0.1780 -1.0110
  153TCq2    C7 2334   2.124   0.010  12.669  0.4861 -0.3173  0.8987
  153TCq2    C8 2335   2.240   0.181  12.809 -0.8306  0.0367 -1.4207
  153TCq2    O4 2336   2.146   0.259  12.798  0.0339 -0.3639  0.3212
  153TCq2    C9 2337   2.410   4.450  12.763  0.7625  0.4619  0.7281
  153TCq2    O5 2338   2.500   4.473  12.849 -0.1126  0.2476  0.0093
  153TCq2    O6 2339   2.389   4.338  12.706 -0.3344  0.2346 -0.1392
  153TCq2    H2 2340   2.229   4.422  12.593  0.0076 -0.9571  2.0741
  153TCq2    H3 2341   2.388   4.686  12.879  0.6152 -1.8767  0.2887
  153TCq2    H4 2342   2.044   0.079  12.643  1.5449  0.6436  0.2146
  154MPD2     C 2343   3.669   4.278   0.988 -0.6029  0.4243  0.2115
  154MPD2    C1 2344   3.551   4.304   1.060  0.0701 -0.2406  0.1198
  154MPD2    C2 2345   3.479   4.423   1.032  0.2495  0.4076 -0.0831
  154MPD2    C3 2346   3.515   4.508   0.924 -0.0899  0.2140 -0.2513
  154MPD2    C4 2347   3.624   4.472   0.848 -0.4071 -0.4448 -0.2750
  154MPD2    C5 2348   3.695   4.360   0.879 -0.4677  0.1470  0.1228
  154MPD2     H 2349   3.390   4.439   1.092 -0.4212  0.7550 -1.1763
  154MPD2    H1 2350   3.646   4.530   0.760  3.1380 -1.1963  0.0885
  154MPD2    H2 2351   3.738   4.195   1.000  0.3871  1.0513 -1.2153
  154MPD2    H3 2352   3.778   4.324   0.820  0.5661  2.5135  0.1314
  154MPD2     N 2353   3.430   4.621   0.899 -1.1506 -0.1571 -0.1083
  154MPD2    H5 2354   3.371   4.645   0.978 -0.6459  1.4537 -0.2162
  154MPD2    N1 2355   3.529   4.219   1.171  0.5669  0.5326 -0.0066
  154MPD2    H7 2356   3.585   4.135   1.173  0.2300  0.2751 -1.3796
  155TCq2    C1 2357   3.433   4.236   1.267  0.8110 -0.5228  0.4810
  155TCq2    O2 2358   3.342   4.315   1.267 -0.1711  0.4898  0.1096
  155TCq2    C2 2359   3.440   4.139   1.377 -0.1157  0.5273  0.2558
  155TCq2    C3 2360   3.333   4.151   1.459  0.5733 -0.0262  0.3126
  155TCq2    C4 2361   3.341   4.080   1.576  0.0596  0.6530  1.0117
  155TCq2    C5 2362   3.453   4.009   1.604 -0.3120 -0.6007 -0.0048
  155TCq2    C6 2363   3.563   4.016   1.520  1.3251  0.0966  0.1585
  155TCq2    C7 2364   3.563   4.083   1.407 -0.3406 -1.3043  0.6647
  155TCq2    C8 2365   3.669   3.919   1.538 -0.3493  0.0483 -1.1580
  155TCq2    O4 2366   3.729   3.879   1.437  0.0188  0.2985  0.6737
  155TCq2    C9 2367   3.231   4.087   1.669 -0.0378  0.4580 -0.1231
  155TCq2    O5 2368   3.153   4.184   1.656 -0.6250  0.6948  0.0326
  155TCq2    O6 2369   3.222   4.005   1.763 -0.0646  0.3719 -0.4435
  155TCq2    H2 2370   3.241   4.196   1.424  1.9866  0.3788 -2.8334
  155TCq2    H3 2371   3.463   3.967   1.703 -0.7311  1.1652  0.7720
  155TCq2    H4 2372   3.638   4.065   1.330  0.4974  0.8955  0.9747
  156MPD2     C 2373   2.515   1.910  11.620 -0.5473  0.1521 -0.2654
  156MPD2    C1 2374   2.414   1.986  11.566  0.0778 -0.0361 -0.0746
  156MPD2    C2 2375   2.333   2.059  11.656  0.1079  0.0939 -0.4053
  156MPD2    C3 2376   2.346   2.055  11.792  0.9182 -0.1534 -0.3971
  156MPD2    C4 2377   2.458   1.989  11.841  0.6468 -0.3177  0.0671
  156MPD2    C5 2378   2.532   1.904  11.756  0.3305 -0.7086  0.5539
  156MPD2     H 2379   2.256   2.125  11.617 -0.1145  1.0885  1.6802
  156MPD2    H1 2380   2.495   1.986  11.943  0.8765  1.8896  0.0395
  156MPD2    H2 2381   2.574   1.849  11.553  1.2410  0.6043  0.9120
  156MPD2    H3 2382   2.611   1.846  11.802  0.1307 -0.2151  1.5339
  156MPD2     N 2383   2.256   2.132  11.872 -0.6519  0.2472 -0.4293
  156MPD2    H5 2384   2.178   2.182  11.831 -1.5822  0.0239  1.0721
  156MPD2    N1 2385   2.400   1.980  11.427 -0.1038 -0.6682  0.3606
  156MPD2    H7 2386   2.475   1.929  11.382  0.7085  1.0167 -0.2019
  157TCq2    C1 2387   2.303   2.045  11.353 -0.6099  0.1356  0.4146
  157TCq2    O2 2388   2.196   2.081  11.393  0.8577 -0.1113  0.2667
  157TCq2    C2 2389   2.318   2.062  11.210  0.0724  0.3023  0.4757
  157TCq2    C3 2390   2.441   2.097  11.157 -0.6601  0.7279  0.6344
  157TCq2    C4 2391   2.447   2.145  11.031 -0.2478  0.0924  0.2859
  157TCq2    C5 2392   2.333   2.146  10.950 -0.2301  0.0180  0.5175
  157TCq2    C6 2393   2.212   2.114  11.003  0.4555  0.3689  0.7301
  157TCq2    C7 2394   2.199   2.077  11.137  0.3030  0.5465  0.2896
  157TCq2    C8 2395   2.095   2.165  10.931  0.9096 -0.2885  0.1179
  157TCq2    O4 2396   2.112   2.246  10.840 -0.7929 -0.0513 -0.3329
  157TCq2    C9 2397   2.575   2.191  10.967  0.6602 -0.7441 -0.4052
  157TCq2    O5 2398   2.684   2.204  11.027  0.1363  0.5175  0.3530
  157TCq2    O6 2399   2.563   2.234  10.852 -0.2410 -0.1651 -0.1838
  157TCq2    H2 2400   2.530   2.107  11.218 -0.0941  0.4816 -0.1397
  157TCq2    H3 2401   2.339   2.177  10.847  0.6558  0.8040  0.8020
  157TCq2    H4 2402   2.106   2.070  11.192 -0.8778 -3.0758 -2.2016
  158TMC2    C1 2403   2.922   0.606  14.096  0.3590  0.1101  0.0727
  158TMC2    C2 2404   3.017   0.665  14.016  0.2577 -0.6354  0.6210
  158TMC2    C3 2405   2.998   0.798  13.996  0.1018  0.2118 -0.3539
  158TMC2    C4 2406   2.835   0.680  14.174  0.3972  0.1696 -0.2827
  158TMC2    C5 2407   2.840   0.817  14.162 -0.2243 -0.4937  0.2129
  158TMC2    C6 2408   2.910   0.872  14.066 -0.5620 -0.5348 -0.5186
  158TMC2     C 2409   2.927   0.465  14.109  0.1442  0.1364 -0.0836
  158TMC2     O 2410   3.041   0.415  14.099  0.1226  0.2190 -0.7196
  158TMC2     H 2411   3.085   0.612  13.951 -1.6961  0.5098 -2.3758
  158TMC2    H1 2412   2.780   0.645  14.261  0.6605  0.5650  0.0431
  158TMC2    H2 2413   2.891   0.976  14.042  0.4930  0.2726  2.1082
  158TMC2    C7 2414   2.725   0.889  14.214  0.5715  0.8505 -0.7679
  158TMC2    C8 2415   3.048   0.868  13.878 -0.4740  0.0891  0.5605
  158TMC2    O1 2416   2.740   0.970  14.306 -0.6562  0.5096 -0.3248
  158TMC2    O2 2417   3.033   0.823  13.765  0.1922 -0.3323 -0.2734
  158TMC2    O5 2418   3.067   0.997  13.911  0.1111 -0.8927 -0.1099
  158TMC2    H5 2419   3.089   1.013  14.006  1.7779 -1.0709 -0.4713
  159MPD2     C 2420   2.746   0.067  14.366  0.0848 -0.5626  0.1151
  159MPD2    C1 2421   2.641   0.151  14.329 -0.3266 -0.1764 -0.0159
  159MPD2    C2 2422   2.664   0.263  14.251 -0.3514 -0.4945 -0.1867
  159MPD2    C3 2423   2.792   0.292  14.222  0.1230  0.0918  0.3398
  159MPD2    C4 2424   2.901   0.216  14.262 -0.2792  0.2708  0.0627
  159MPD2    C5 2425   2.877   0.103  14.337 -0.5456  0.4054 -0.0089
  159MPD2     H 2426   2.588   0.337  14.227  2.0563  1.6681 -1.1810
  159MPD2    H1 2427   3.000   0.247  14.230 -0.1876 -0.9805 -0.8780
  159MPD2    H2 2428   2.728   4.712  14.440  2.3212 -3.0593 -1.9491
  159MPD2    H3 2429   2.960   0.044  14.374 -0.4570 -1.4354 -3.1199
  159MPD2     N 2430   2.804   0.412  14.150  0.1166  0.1811  0.2649
  159MPD2    H5 2431   2.720   0.468  14.141 -0.5689 -0.6816  1.2315
  159MPD2    N1 2432   2.519   0.101  14.368 -0.1614  0.5750 -0.0439
  159MPD2    H7 2433   2.525   0.012  14.416 -1.4677  1.0455  0.9828
  160TMC2    C1 2434   2.670   4.022   0.636  0.1798  0.3144  0.1406
  160TMC2    C2 2435   2.799   3.973   0.595 -0.2455  0.3418 -0.0109
  160TMC2    C3 2436   2.885   3.923   0.689  0.9248 -0.0852 -0.2174
  160TMC2    C4 2437   2.625   4.006   0.766  0.2564  0.4357  0.4940
  160TMC2    C5 2438   2.706   3.938   0.848  0.1668  0.0405  0.1431
  160TMC2    C6 2439   2.842   3.899   0.817 -0.4187  0.4848 -0.0218
  160TMC2     C 2440   2.574   4.046   0.524 -0.1449 -0.2856  1.0634
  160TMC2     O 2441   2.605   4.004   0.412 -0.0105  0.0392  0.4316
  160TMC2     H 2442   2.831   3.985   0.492 -0.9029  0.1495 -0.2366
  160TMC2    H1 2443   2.522   4.023   0.797 -0.7683 -1.0932 -2.1007
  160TMC2    H2 2444   2.904   3.847   0.889  0.4073  2.8390  0.9784
  160TMC2    C7 2445   2.662   3.926   0.982  0.2082  0.0153 -0.3093
  160TMC2    C8 2446   3.010   3.867   0.639  0.2620 -0.3540  0.1649
  160TMC2    O1 2447   2.583   4.009   1.026  0.7871 -0.1028 -0.7859
  160TMC2    O2 2448   3.022   3.816   0.527  0.4783  0.2172 -0.3120
  160TMC2    O5 2449   3.101   3.860   0.734 -0.8616  0.3203  0.5079
  160TMC2    H5 2450   3.093   3.928   0.805  0.5747 -1.3615  2.3029
  161MPD2     C 2451   2.316   4.067   0.394 -0.2213 -0.1748 -0.3349
  161MPD2    C1 2452   2.350   4.139   0.511  0.1968 -0.1438  0.0184
  161MPD2    C2 2453   2.252   4.225   0.564 -0.3923 -0.4823  0.5084
  161MPD2    C3 2454   2.132   4.241   0.500  0.0676 -0.5303 -0.1416
  161MPD2    C4 2455   2.107   4.170   0.385 -0.4650  0.1186  0.5779
  161MPD2    C5 2456   2.196   4.092   0.331  0.1782  0.7509  0.4977
  161MPD2     H 2457   2.263   4.275   0.660  0.0992  0.0249  0.1905
  161MPD2    H1 2458   2.007   4.156   0.345 -0.5932  0.1297  0.8896
  161MPD2    H2 2459   2.375   3.983   0.362  0.4802  0.5909 -1.0327
  161MPD2    H3 2460   2.176   4.031   0.244  0.2880 -1.0440  1.7265
  161MPD2     N 2461   2.020   4.309   0.556  0.1318  0.2558  0.3660
  161MPD2    H5 2462   1.927   4.294   0.519  0.1337 -1.1052  0.9140
  161MPD2    N1 2463   2.461   4.112   0.575 -0.8045  0.7349 -0.6358
  161MPD2    H7 2464   2.470   4.152   0.668 -0.4184  1.5011 -1.0129
  162TMC2    C1 2465   4.706   1.692   0.933 -0.3091  0.5412  0.3638
  162TMC2    C2 2466   4.646   1.809   0.917  0.3394  0.5687  0.1464
  162TMC2    C3 2467   4.513   1.808   0.887  0.3427  0.5991 -0.1049
  162TMC2    C4 2468   4.643   1.572   0.930 -0.1068 -0.3988  0.5865
  162TMC2    C5 2469   4.508   1.582   0.904  0.3612 -0.1894 -0.5509
  162TMC2    C6 2470   4.437   1.694   0.881  0.3666 -0.5919 -0.6556
  162TMC2     C 2471   0.128   1.699   0.925 -0.3430  0.2789 -0.0972
  162TMC2     O 2472   0.178   1.806   0.920  0.3728  0.6561  0.5323
  162TMC2     H 2473   4.701   1.901   0.903  0.2375  0.4055 -1.3514
  162TMC2    H1 2474   4.688   1.478   0.958 -3.3847 -2.3154 -0.5370
  162TMC2    H2 2475   4.329   1.698   0.877  0.4259 -0.2246 -2.2126
  162TMC2    C7 2476   4.422   1.470   0.929 -0.2821 -0.5170 -0.3960
  162TMC2    C8 2477   4.455   1.933   0.883 -0.3143 -0.0577  0.0527
  162TMC2    O1 2478   4.335   1.441   0.847 -0.6647  0.5156 -0.1141
  162TMC2    O2 2479   4.513   2.034   0.920  0.3011  0.3239  0.1098
  162TMC2    O5 2480   4.324   1.921   0.838  0.4776 -0.4397 -0.4301
  162TMC2    H5 2481   4.312   1.848   0.774  0.2093 -0.6036 -0.1920
  163MPD2     C 2482   0.581   1.493   0.810  1.0694  0.2967  0.1545
  163MPD2    C1 2483   0.486   1.393   0.810 -0.3919 -0.2283 -0.4593
  163MPD2    C2 2484   0.358   1.421   0.855 -0.0321  0.4322  0.6354
  163MPD2    C3 2485   0.326   1.552   0.887  0.2616  0.7392  0.7142
  163MPD2    C4 2486   0.423   1.651   0.910 -0.1444  0.3889 -0.7585
  163MPD2    C5 2487   0.551   1.615   0.871  0.6711  0.6098 -0.1350
  163MPD2     H 2488   0.275   1.351   0.858  1.2749 -1.0758  1.3199
  163MPD2    H1 2489   0.392   1.753   0.933 -1.7775 -0.3091  0.1734
  163MPD2    H2 2490   0.684   1.468   0.787  0.2374 -1.8597 -1.2231
  163MPD2    H3 2491   0.636   1.681   0.889 -0.0277  1.6987 -0.8415
  163MPD2     N 2492   0.188   1.573   0.908  0.5990 -0.1776  0.1229
  163MPD2    H5 2493   0.128   1.493   0.895  0.0849  0.3058 -0.4833
  163MPD2    N1 2494   0.538   1.263   0.781 -0.1088  0.7555 -0.2266
  163MPD2    H7 2495   0.628   1.251   0.736  0.3842  1.2469  0.6378
  164TCq2    C1 2496   1.240   0.358  10.997 -0.3374 -0.3821 -0.1469
  164TCq2    O2 2497   1.174   0.269  11.057 -0.2170  0.3757  0.3642
  164TCq2    C2 2498   1.244   0.494  11.045  0.2842 -0.6860  0.8520
  164TCq2    C3 2499   1.330   0.589  10.989 -0.2658 -0.1527 -0.3414
  164TCq2    C4 2500   1.296   0.721  10.998 -0.0267 -0.0582 -0.0605
  164TCq2    C5 2501   1.183   0.756  11.060 -0.2114 -0.2102 -0.2316
  164TCq2    C6 2502   1.104   0.660  11.115 -0.1845  0.2473  0.7052
  164TCq2    C7 2503   1.133   0.530  11.114  0.4781 -0.1464  0.5528
  164TCq2    C8 2504   0.971   0.701  11.165 -0.0106  0.2587  0.5149
  164TCq2    O4 2505   0.918   0.809  11.130  0.4947 -0.7532  0.2959
  164TCq2    C9 2506   1.383   0.830  10.947 -0.1579  0.5287 -0.6257
  164TCq2    O5 2507   1.341   0.946  10.944  0.3470 -0.5317  0.0350
  164TCq2    O6 2508   1.479   0.786  10.870  0.1671  0.1576 -0.4411
  164TCq2    H2 2509   1.428   0.560  10.953  0.2284  2.0180 -0.7839
  164TCq2    H3 2510   1.163   0.861  11.075 -1.1527 -0.4430  0.1508
  164TCq2    H4 2511   1.066   0.447  11.136  0.1740 -0.5320 -1.7588
  165MPD2     C 2512   1.465   2.015   2.319  0.3432  0.2488  0.2828
  165MPD2    C1 2513   1.453   2.134   2.249  0.3871  0.9881  0.1708
  165MPD2    C2 2514   1.548   2.227   2.262  0.0626 -0.3804 -0.3134
  165MPD2    C3 2515   1.654   2.209   2.347 -0.1935 -0.3032 -0.4508
  165MPD2    C4 2516   1.658   2.096   2.425  0.5358  0.9897  0.1848
  165MPD2    C5 2517   1.568   2.000   2.418  0.0886  0.3311 -0.1858
  165MPD2     H 2518   1.544   2.314   2.197  0.2853  0.5445  0.8944
  165MPD2    H1 2519   1.733   2.091   2.504 -0.7119  0.5809  1.3485
  165MPD2    H2 2520   1.394   1.936   2.297 -0.5083  1.3393 -0.8866
  165MPD2    H3 2521   1.571   1.916   2.487  0.4462  0.3075 -0.2287
  165MPD2     N 2522   1.758   2.296   2.354 -0.2290 -0.0564  0.9197
  165MPD2    H5 2523   1.846   2.255   2.383 -0.4585 -2.0068 -1.1540
  165MPD2    N1 2524   1.341   2.145   2.161  0.2194 -0.0134 -0.1745
  165MPD2    H7 2525   1.281   2.063   2.155 -1.0527  0.6981  2.8256
  166TCq2    C1 2526   1.758   2.428   2.302 -0.6391  0.0623  0.1052
  166TCq2    O2 2527   1.666   2.496   2.262 -0.3977  0.3550 -0.3101
  166TCq2    C2 2528   1.874   2.506   2.338 -0.5697 -0.0437  0.2600
  166TCq2    C3 2529   1.954   2.471   2.433  0.1924 -0.2021 -0.0318
  166TCq2    C4 2530   2.079   2.519   2.438  0.5219  0.5770 -0.0521
  166TCq2    C5 2531   2.110   2.631   2.367  0.2681 -0.3692 -0.0056
  166TCq2    C6 2532   2.014   2.687   2.284 -0.3450  0.0580  0.0956
  166TCq2    C7 2533   1.896   2.620   2.263  0.6340  0.2187 -0.9153
  166TCq2    C8 2534   2.021   2.822   2.242 -0.2429  0.3567  0.2117
  166TCq2    O4 2535   1.913   2.877   2.228  0.2604  0.6842 -0.0644
  166TCq2    C9 2536   2.171   2.464   2.536  0.2896 -0.1097  0.1402
  166TCq2    O5 2537   2.147   2.350   2.594 -0.0662 -0.6712 -0.3287
  166TCq2    O6 2538   2.267   2.541   2.558  0.5211 -0.0586 -0.3645
  166TCq2    H2 2539   1.919   2.402   2.510 -0.9294  2.1303  1.5418
  166TCq2    H3 2540   2.207   2.674   2.388 -1.2057  0.3331  5.2144
  166TCq2    H4 2541   1.819   2.668   2.204  0.4430 -0.2209 -1.0208
  167TMC2    C1 2542   4.397   0.850  12.539  0.1563  0.5096  0.8938
  167TMC2    C2 2543   4.401   0.892  12.667 -0.0990 -0.5135 -0.7903
  167TMC2    C3 2544   4.434   0.809  12.768  0.0426  0.4458  0.0117
  167TMC2    C4 2545   4.429   0.716  12.514  0.3930 -1.0528  0.3901
  167TMC2    C5 2546   4.467   0.633  12.621 -0.2858 -0.2828 -0.8116
  167TMC2    C6 2547   4.468   0.678  12.748 -0.7127 -0.4085  0.4293
  167TMC2     C 2548   4.377   0.945  12.427  0.3418  0.5365 -0.1857
  167TMC2     O 2549   4.351   1.060  12.460 -0.1870 -0.3082  0.0587
  167TMC2     H 2550   4.357   0.990  12.683 -2.2557 -1.6207  0.0794
  167TMC2    H1 2551   4.435   0.675  12.414  2.9462 -0.5016  0.3087
  167TMC2    H2 2552   4.480   0.610  12.832 -0.2940 -1.8774 -0.8366
  167TMC2    C7 2553   4.464   0.489  12.597  0.2935 -0.5165 -0.5604
  167TMC2    C8 2554   4.357   0.829  12.898  0.6558 -0.3994  0.0353
  167TMC2    O1 2555   4.431   0.420  12.690 -0.4102  0.2334 -0.4357
  167TMC2    O2 2556   4.244   0.861  12.902  0.5414  0.2507  0.6078
  167TMC2    O5 2557   4.415   0.768  13.004  0.2440  0.4747  0.4706
  167TMC2    H5 2558   4.505   0.731  12.993 -0.0506  0.3734 -1.7002
  168MPD2     C 2559   4.372   1.086  12.149  0.6435 -0.3176  0.4400
  168MPD2    C1 2560   4.407   0.953  12.178 -0.3903  0.4040  0.9889
  168MPD2    C2 2561   4.446   0.879  12.070 -0.4972 -0.3832  0.5088
  168MPD2    C3 2562   4.441   0.929  11.939  0.5357  0.0784  0.2979
  168MPD2    C4 2563   4.424   1.063  11.915  0.6078  0.8418  0.1609
  168MPD2    C5 2564   4.371   1.140  12.022  0.0619  0.4956 -0.0006
  168MPD2     H 2565   4.452   0.772  12.085  0.4923 -0.3683  0.1979
  168MPD2    H1 2566   4.450   1.108  11.819  0.2722 -1.1254 -0.8488
  168MPD2    H2 2567   4.334   1.153  12.226  0.2371  1.1545 -1.0271
  168MPD2    H3 2568   4.351   1.244  12.002 -2.0239  0.0883 -0.0664
  168MPD2     N 2569   4.472   0.855  11.819 -0.1405  0.2430  0.0569
  168MPD2    H5 2570   4.477   0.903  11.729 -0.1851 -0.0020 -0.0789
  168MPD2    N1 2571   4.410   0.892  12.303  0.0718  0.2774  0.3172
  168MPD2    H7 2572   4.426   0.794  12.284  0.3559  0.1567  1.1601
  169MPD1     C 2573   2.551   0.850   9.363 -0.1465 -0.1892  0.3349
  169MPD1    C1 2574   2.652   0.765   9.358 -0.2040 -0.5837 -0.2337
  169MPD1    C2 2575   2.622   0.630   9.361  0.3454  0.3935  0.0835
  169MPD1    C3 2576   2.500   0.583   9.395 -0.1289  1.0326  0.1893
  169MPD1    C4 2577   2.397   0.667   9.411  0.6157  0.1671  0.1377
  169MPD1    C5 2578   2.420   0.797   9.384  0.6215  0.3903  0.0457
  169MPD1     H 2579   2.703   0.560   9.346 -1.4328 -2.2952  2.9677
  169MPD1    H1 2580   2.296   0.632   9.428  0.7455 -0.5853 -0.6458
  169MPD1    H2 2581   2.557   0.957   9.350 -1.0994 -0.1317  0.3787
  169MPD1    H3 2582   2.335   0.864   9.388  1.3173  1.5177 -3.9107
  169MPD1     N 2583   2.473   0.442   9.383  0.4994  0.4250 -0.4285
  169MPD1    H5 2584   2.559   0.389   9.374 -0.3787 -0.9087 -0.9374
  169MPD1    N1 2585   2.782   0.811   9.326 -0.1303  1.1860 -0.8536
  169MPD1    H6 2586   2.793   0.910   9.343 -0.9094  0.7035  2.4346
  169MPD1    H7 2587   2.858   0.755   9.365 -0.2433  0.5553 -1.5500
  170MPD1     C 2588   0.760   2.656  13.286 -0.8589  0.3493 -0.0498
  170MPD1    C1 2589   0.824   2.771  13.259  0.1666  0.1632 -0.0308
  170MPD1    C2 2590   0.845   2.863  13.370 -0.6120  0.0415 -0.0653
  170MPD1    C3 2591   0.800   2.823  13.499  0.6448 -0.2362 -0.1008
  170MPD1    C4 2592   0.733   2.708  13.511  0.4168 -0.2888 -0.1150
  170MPD1    C5 2593   0.712   2.631  13.408 -0.1424 -0.1631 -0.2819
  170MPD1     H 2594   0.886   2.962  13.352  1.6063 -0.7875  0.3154
  170MPD1    H1 2595   0.698   2.671  13.607 -0.4166  1.8468  0.4179
  170MPD1    H2 2596   0.753   2.575  13.214  1.1841 -1.1147  1.3907
  170MPD1    H3 2597   0.656   2.540  13.429  0.2139 -0.2756  0.1598
  170MPD1     N 2598   0.796   2.920  13.604  0.3892 -0.2410 -0.6807
  170MPD1    H5 2599   0.833   3.013  13.584 -0.5570  0.0918 -0.8966
  170MPD1    N1 2600   0.857   2.807  13.132  0.2612  0.3173  0.3992
  170MPD1    H6 2601   0.941   2.863  13.127 -1.8996  3.6109  1.2205
  170MPD1    H7 2602   0.861   2.732  13.063 -2.6339  0.3707  0.1633
  171MPD1     C 2603   3.762   4.267  15.740  0.0936 -0.4544  0.1716
  171MPD1    C1 2604   3.731   4.143  15.690  0.0398  0.0843 -0.0542
  171MPD1    C2 2605   3.779   4.030  15.755  0.6085 -0.7061 -0.0546
  171MPD1    C3 2606   3.877   4.049  15.854  0.3520  0.1624  0.3333
  171MPD1    C4 2607   3.899   4.171  15.910 -0.2935  0.3082 -0.6161
  171MPD1    C5 2608   3.836   4.277  15.853 -0.3268 -0.8794  0.1817
  171MPD1     H 2609   3.750   3.932  15.718 -0.9018  0.4700 -2.0334
  171MPD1    H1 2610   3.957   4.174  16.001 -0.3354  2.4246 -0.6600
  171MPD1    H2 2611   3.717   4.356  15.700 -0.9301 -0.3547  1.5318
  171MPD1    H3 2612   3.849   4.370  15.907  0.0891 -0.5237 -0.5397
  171MPD1     N 2613   3.936   3.941  15.920 -0.2681 -0.0117 -0.4520
  171MPD1    H5 2614   3.996   3.956  16.001 -0.0619 -3.4805  0.0606
  171MPD1    N1 2615   3.650   4.121  15.578  0.4043 -0.5101 -0.7392
  171MPD1    H6 2616   3.678   4.174  15.495  0.5337 -0.0919 -0.4269
  171MPD1    H7 2617   3.669   4.027  15.543 -0.4610 -0.5898 -1.0119
  172MPD1     C 2618   3.469   2.740   0.562 -0.0147  0.0117  0.4971
  172MPD1    C1 2619   3.424   2.855   0.504 -0.4910 -0.1218  0.1200
  172MPD1    C2 2620   3.454   2.969   0.562  0.2825  0.3850  0.5710
  172MPD1    C3 2621   3.540   2.978   0.675  0.7035  0.1367  0.1710
  172MPD1    C4 2622   3.588   2.857   0.724  0.4530  0.9668 -0.2679
  172MPD1    C5 2623   3.552   2.743   0.669  0.1481  0.8940 -0.3493
  172MPD1     H 2624   3.430   3.055   0.500  1.1900  0.2640  0.0458
  172MPD1    H1 2625   3.665   2.858   0.800 -0.1807 -0.5288  0.4010
  172MPD1    H2 2626   3.463   2.647   0.508  0.3050  0.7072 -0.7182
  172MPD1    H3 2627   3.587   2.643   0.693  1.5040  1.1126 -1.4248
  172MPD1     N 2628   3.601   3.096   0.722 -0.6029  0.6548 -0.1468
  172MPD1    H5 2629   3.663   3.096   0.803  0.1516 -0.6241 -0.7133
  172MPD1    N1 2630   3.368   2.854   0.374 -0.1380 -0.2860 -0.5539
  172MPD1    H6 2631   3.319   2.765   0.363  1.9528 -1.4633 -0.4097
  172MPD1    H7 2632   3.317   2.941   0.362 -2.1273 -1.4961 -0.7804
  173MPD1     C 2633   0.352   3.049  14.224  0.2789 -0.2931  0.2598
  173MPD1    C1 2634   0.395   2.929  14.282  0.3315 -0.5728 -0.6914
  173MPD1    C2 2635   0.378   2.916  14.420  1.0624 -0.5170 -0.1651
  173MPD1    C3 2636   0.327   3.018  14.499  0.3910 -0.1825 -0.0143
  173MPD1    C4 2637   0.289   3.140  14.438  0.0600 -0.5276  0.3201
  173MPD1    C5 2638   0.307   3.154  14.304  0.1547  0.0171  0.0323
  173MPD1     H 2639   0.407   2.820  14.461  0.5826 -1.4153 -1.9142
  173MPD1    H1 2640   0.257   3.225  14.496  1.2711 -1.1192  1.8370
  173MPD1    H2 2641   0.365   3.066  14.118 -1.1058  1.2407  0.3379
  173MPD1    H3 2642   0.295   3.256  14.270 -1.4918 -0.1273  0.2094
  173MPD1     N 2643   0.311   2.992  14.637  0.3975 -0.3599  0.3978
  173MPD1    H5 2644   0.339   2.900  14.672  2.6568 -0.4778 -1.7323
  173MPD1    N1 2645   0.410   2.818  14.203  0.4712  0.1928 -0.8485
  173MPD1    H6 2646   0.453   2.834  14.112  0.0497 -0.5853 -1.1928
  173MPD1    H7 2647   0.463   2.738  14.238 -1.5188 -1.1700 -0.9603
  174MPD1     C 2648   0.888   2.940  15.290 -1.2233 -0.2441  0.0547
  174MPD1    C1 2649   0.779   2.892  15.354 -0.1488 -0.2362  0.7672
  174MPD1    C2 2650   0.672   2.873  15.278 -0.0153  0.5097  0.7334
  174MPD1    C3 2651   0.674   2.884  15.143 -0.3384  0.0436 -0.0462
  174MPD1    C4 2652   0.792   2.918  15.079  0.3548  0.0095 -1.3646
  174MPD1    C5 2653   0.896   2.945  15.154 -0.6142 -0.1921  0.2082
  174MPD1     H 2654   0.582   2.852  15.335 -0.5598 -0.8479 -0.6368
  174MPD1    H1 2655   0.805   2.931  14.972  3.8964  2.0414 -0.6753
  174MPD1    H2 2656   0.977   2.978  15.339 -0.3864 -2.0988 -0.0181
  174MPD1    H3 2657   0.989   2.980  15.112 -0.5982 -0.0464  0.3630
  174MPD1     N 2658   0.557   2.857  15.065 -0.0416  0.1101 -0.1184
  174MPD1    H5 2659   0.563   2.871  14.965 -1.3884  0.3626 -0.1668
  174MPD1    N1 2660   0.771   2.921  15.489  0.4579  0.5154 -0.4245
  174MPD1    H6 2661   0.860   2.897  15.534  0.1538  2.6332  1.3090
  174MPD1    H7 2662   0.695   2.886  15.547  1.1016  0.7238  0.5516
  175MPD1     C 2663   2.656   3.929  15.806 -0.6803 -0.0706  0.0516
  175MPD1    C1 2664   2.784   3.902  15.852  0.3890 -0.6828  0.3009
  175MPD1    C2 2665   2.805   3.896  15.990  0.4297  0.1970  0.3256
  175MPD1    C3 2666   2.702   3.892  16.077  0.2501 -0.0314  0.6359
  175MPD1    C4 2667   2.578   3.931  16.030  0.4465 -0.2649  0.0829
  175MPD1    C5 2668   2.558   3.946  15.898 -0.7374 -0.2373  0.3747
  175MPD1     H 2669   2.907   3.881  16.021  0.4567  1.6812  0.9394
  175MPD1    H1 2670   2.491   3.942  16.094  0.6200 -1.9470  0.6177
  175MPD1    H2 2671   2.641   3.964  15.705  0.1754  1.3703  0.4186
  175MPD1    H3 2672   2.463   3.985  15.863  0.0062  1.8804  0.7017
  175MPD1     N 2673   2.716   3.876  16.217 -0.6699  0.1633 -0.3660
  175MPD1    H5 2674   2.638   3.915  16.270  0.7113  0.0580  1.7703
  175MPD1    N1 2675   2.890   3.915  15.756 -0.4901 -0.1290  0.5061
  175MPD1    H6 2676   2.863   3.892  15.661  1.1995 -0.6283  0.1533
  175MPD1    H7 2677   2.963   3.849  15.781  0.9941  1.1859 -0.3922
  176MPD1     C 2678   0.611   1.991   0.268  0.0272  0.1845 -0.7339
  176MPD1    C1 2679   0.511   1.916   0.220  0.4166  0.1963 -0.6888
  176MPD1    C2 2680   0.455   1.937   0.096  0.1738 -0.7056  0.0679
  176MPD1    C3 2681   0.522   2.017   0.003  0.2740 -0.1923 -0.5383
  176MPD1    C4 2682   0.640   2.079   0.046  0.2933  0.7187 -0.5617
  176MPD1    C5 2683   0.672   2.073   0.178 -0.5919  0.5380 -0.4526
  176MPD1     H 2684   0.372   1.877   0.058 -0.6684 -0.4095  1.4328
  176MPD1    H1 2685   0.701   2.138  17.673  2.1970  0.1712  0.6836
  176MPD1    H2 2686   0.671   1.980   0.358  2.4865  1.7107 -2.1842
  176MPD1    H3 2687   0.767   2.119   0.199  0.0860 -1.0948  0.0847
  176MPD1     N 2688   0.469   2.027  17.561  0.3077 -0.0339 -0.3149
  176MPD1    H5 2689   0.385   1.972  17.546  0.9185 -0.6631 -1.3545
  176MPD1    N1 2690   0.438   1.844   0.317 -0.1533 -0.1107 -0.0214
  176MPD1    H6 2691   0.399   1.760   0.274 -3.3579  0.7466  1.2698
  176MPD1    H7 2692   0.511   1.804   0.376  0.4152 -0.5666 -1.0169
  177MPD1     C 2693   3.899   2.231  10.067  0.0932 -0.3014 -0.0635
  177MPD1    C1 2694   3.941   2.102  10.034  0.5738 -0.5998  0.1042
  177MPD1    C2 2695   3.845   2.015   9.990  0.2778 -0.1241  0.8788
  177MPD1    C3 2696   3.718   2.049   9.967 -0.2790 -0.4172 -0.3258
  177MPD1    C4 2697   3.676   2.174  10.007 -0.2406 -0.3803 -0.2975
  177MPD1    C5 2698   3.771   2.265  10.052 -0.3553  0.2591  0.4047
  177MPD1     H 2699   3.874   1.912   9.973  1.0902  0.0518  1.1845
  177MPD1    H1 2700   3.577   2.211   9.985  0.4999  1.2976 -0.8415
  177MPD1    H2 2701   3.969   2.305  10.102  1.1362 -1.4063  0.1932
  177MPD1    H3 2702   3.748   2.367  10.080 -0.6000 -0.1484  1.6816
  177MPD1     N 2703   3.634   1.959   9.898  0.1703  0.2621  0.4267
  177MPD1    H5 2704   3.680   1.872   9.874  0.9831  0.8423 -0.0985
  177MPD1    N1 2705   4.066   2.064  10.077 -0.1093  0.4062  0.5128
  177MPD1    H6 2706   4.113   2.006  10.008 -3.5990 -1.1778 -0.5865
  177MPD1    H7 2707   4.122   2.142  10.110 -0.1341  0.3701  0.6392
  178MPD1     C 2708   0.544   1.498   0.429 -0.7785 -0.9396 -0.2444
  178MPD1    C1 2709   0.626   1.603   0.432 -0.9988  0.5364 -0.2872
  178MPD1    C2 2710   0.699   1.638   0.325 -0.8629  0.1843  0.7581
  178MPD1    C3 2711   0.679   1.583   0.198  0.2549 -0.1305 -0.0494
  178MPD1    C4 2712   0.599   1.471   0.190 -0.0342 -0.4483  0.0102
  178MPD1    C5 2713   0.535   1.440   0.307 -0.6676 -0.7124  0.4180
  178MPD1     H 2714   0.764   1.722   0.343  1.2724 -0.9499 -1.7444
  178MPD1    H1 2715   0.577   1.414   0.100 -1.9842  1.3859 -0.6966
  178MPD1    H2 2716   0.490   1.465   0.517 -0.6577  0.4531  0.3581
  178MPD1    H3 2717   0.476   1.349   0.298  0.5469 -1.2166 -2.4870
  178MPD1     N 2718   0.744   1.630   0.085 -0.0091  0.2921  0.0206
  178MPD1    H5 2719   0.724   1.589  17.689 -0.4815 -0.1631  0.3309
  178MPD1    N1 2720   0.620   1.687   0.545  0.2366  0.1462 -0.6577
  178MPD1    H6 2721   0.705   1.741   0.558 -0.3055  0.5062  1.3110
  178MPD1    H7 2722   0.607   1.636   0.632 -1.2895 -1.4839 -1.8426
  179MPD1     C 2723   4.680   0.692  16.119 -0.7803  0.4553  0.1133
  179MPD1    C1 2724   4.618   0.587  16.050  0.5432 -0.3411  0.0616
  179MPD1    C2 2725   4.674   0.461  16.055 -0.4853 -0.0071 -0.2388
  179MPD1    C3 2726   0.075   0.446  16.105  0.4380  0.4245  0.4759
  179MPD1    C4 2727   0.137   0.543  16.176 -0.1850  0.9803 -0.3545
  179MPD1    C5 2728   0.078   0.671  16.175 -0.3347 -0.2603  0.1490
  179MPD1     H 2729   4.631   0.376  16.004  2.4275 -0.7486 -1.4572
  179MPD1    H1 2730   0.236   0.542  16.221 -0.9806  0.3096  1.3728
  179MPD1    H2 2731   4.631   0.785  16.144  0.3264  1.5436 -1.8061
  179MPD1    H3 2732   0.119   0.754  16.232 -1.5535 -0.4513  1.2987
  179MPD1     N 2733   0.139   0.320  16.116  0.3114 -0.0278 -0.6617
  179MPD1    H5 2734   0.211   0.314  16.187  0.5139 -0.0636 -0.8701
  179MPD1    N1 2735   4.484   0.604  16.007 -0.7991 -0.0268 -0.1626
  179MPD1    H6 2736   4.456   0.701  16.010  0.9949  0.4560  0.8089
  179MPD1    H7 2737   4.463   0.559  15.918 -1.5794  0.1773 -0.0812
  180MPD1     C 2738   0.461   1.482  15.573  0.6693 -0.3372  0.1727
  180MPD1    C1 2739   0.515   1.510  15.451 -0.2213 -0.7085 -0.0312
  180MPD1    C2 2740   0.435   1.572  15.359  0.2527  0.5990 -0.1711
  180MPD1    C3 2741   0.299   1.595  15.379  0.1118  0.8663 -0.3392
  180MPD1    C4 2742   0.245   1.554  15.498  0.8019  0.0283  0.1703
  180MPD1    C5 2743   0.326   1.504  15.597  0.3083 -0.2449 -0.3342
  180MPD1     H 2744   0.486   1.607  15.270 -0.2456 -3.9778 -2.2189
  180MPD1    H1 2745   0.149   1.591  15.532  1.5839  1.3272  0.9513
  180MPD1    H2 2746   0.524   1.433  15.647 -0.3035 -1.2386  0.4091
  180MPD1    H3 2747   0.292   1.454  15.687 -1.7948  2.6277  0.4538
  180MPD1     N 2748   0.227   1.664  15.275  0.6966 -0.3129 -0.0375
  180MPD1    H5 2749   0.279   1.684  15.190  1.8052  0.2914  0.7756
  180MPD1    N1 2750   0.652   1.486  15.432  0.7353 -0.1074  0.3137
  180MPD1    H6 2751   0.692   1.444  15.515 -0.7842 -0.9994  0.5907
  180MPD1    H7 2752   0.673   1.440  15.343  1.6849 -1.5691  1.2967
  181MPD1     C 2753   1.785   3.273   9.651 -0.2737  0.8102 -0.1267
  181MPD1    C1 2754   1.846   3.170   9.728 -0.5098 -0.5554  0.6366
  181MPD1    C2 2755   1.982   3.176   9.754  0.0176 -0.5659  0.2385
  181MPD1    C3 2756   2.055   3.275   9.681  0.2214  0.9903  0.3793
  181MPD1    C4 2757   1.996   3.347   9.580  0.2283  0.4185 -0.2129
  181MPD1    C5 2758   1.863   3.346   9.565  0.2907 -0.7246  0.2748
  181MPD1     H 2759   2.021   3.125   9.841 -0.7333  0.4182  1.1403
  181MPD1    H1 2760   2.051   3.420   9.522 -1.8072  1.0865 -1.3388
  181MPD1    H2 2761   1.677   3.287   9.650 -0.4010 -0.1693 -0.1806
  181MPD1    H3 2762   1.802   3.421   9.517  1.5328  1.7221  2.5731
  181MPD1     N 2763   2.193   3.299   9.708  0.2861 -0.6577 -0.1750
  181MPD1    H5 2764   2.241   3.372   9.654 -0.2563 -2.0693 -2.5775
  181MPD1    N1 2765   1.763   3.089   9.807 -0.5472 -0.3930 -0.5625
  181MPD1    H6 2766   1.828   3.022   9.848 -0.8745  0.9985  2.2681
  181MPD1    H7 2767   1.681   3.046   9.764 -1.6413  0.4576  0.6641
  182MPD1     C 2768   2.294   1.249   0.441  0.1278  0.3901 -0.1390
  182MPD1    C1 2769   2.407   1.307   0.388 -0.2651  0.0425 -0.2998
  182MPD1    C2 2770   2.491   1.379   0.460 -0.2945 -0.3944  0.5800
  182MPD1    C3 2771   2.479   1.391   0.598  0.6759 -0.5150  0.4034
  182MPD1    C4 2772   2.368   1.328   0.655  0.3680 -0.3220  0.0202
  182MPD1    C5 2773   2.281   1.257   0.575 -0.0425  0.0990 -0.5433
  182MPD1     H 2774   2.584   1.411   0.415 -0.5022  1.0727  1.2137
  182MPD1    H1 2775   2.350   1.329   0.762  3.4853 -1.6266  0.5735
  182MPD1    H2 2776   2.221   1.192   0.385  1.9637 -2.7789  0.7093
  182MPD1    H3 2777   2.195   1.217   0.627  0.6184 -2.1629 -1.2140
  182MPD1     N 2778   2.578   1.449   0.681 -0.3757 -0.7169  0.0477
  182MPD1    H5 2779   2.552   1.451   0.779  1.8558  1.9476  0.5939
  182MPD1    N1 2780   2.417   1.299   0.247 -0.6273 -0.0120 -0.5592
  182MPD1    H6 2781   2.508   1.315   0.205 -1.1468 -0.5944 -1.9039
  182MPD1    H7 2782   2.376   1.213   0.213  0.9916 -0.7872 -0.5538
  183MPD1     C 2783   4.340   3.876   9.322  0.3573  0.4363  0.1765
  183MPD1    C1 2784   4.215   3.928   9.290  0.2536  0.1320  0.3615
  183MPD1    C2 2785   4.108   3.869   9.347 -0.3337  0.3610 -0.1565
  183MPD1    C3 2786   4.127   3.775   9.448 -0.0500  0.4784  0.3466
  183MPD1    C4 2787   4.255   3.740   9.493 -0.2132 -0.4425 -0.5811
  183MPD1    C5 2788   4.357   3.792   9.424 -0.3939 -0.4208  0.3679
  183MPD1     H 2789   4.007   3.895   9.317 -0.7346 -0.5323  0.4182
  183MPD1    H1 2790   4.269   3.676   9.580 -2.6543  0.0719  0.1924
  183MPD1    H2 2791   4.427   3.910   9.267  1.2182  0.8159  1.7869
  183MPD1    H3 2792   4.456   3.781   9.465  0.4068  1.7465 -0.9688
  183MPD1     N 2793   4.015   3.729   9.519 -0.0024 -0.8534  0.1731
  183MPD1    H5 2794   3.928   3.772   9.489  1.3184  1.6102 -0.1447
  183MPD1    N1 2795   4.195   4.003   9.179  0.2407  0.0118  0.1719
  183MPD1    H6 2796   4.275   4.063   9.157 -0.7235  1.2160 -0.0318
  183MPD1    H7 2797   4.115   4.062   9.198 -0.6696 -1.6864  1.6116
  184MPD1     C 2798   2.441   0.905  10.545  0.4010  0.1444  0.3817
  184MPD1    C1 2799   2.356   0.834  10.462 -0.5464 -0.1014 -0.0650
  184MPD1    C2 2800   2.408   0.749  10.368 -1.0288  0.6350  0.2646
  184MPD1    C3 2801   2.544   0.724  10.356  0.4861  0.2703 -1.1646
  184MPD1    C4 2802   2.629   0.804  10.433 -0.4381 -0.8746  0.4775
  184MPD1    C5 2803   2.577   0.896  10.528 -0.2559  0.1116 -0.0338
  184MPD1     H 2804   2.337   0.723  10.290 -0.4432 -0.3063  0.0493
  184MPD1    H1 2805   2.736   0.806  10.416 -0.2345  1.5066  2.0488
  184MPD1    H2 2806   2.396   0.970  10.619  0.5951  0.6063  0.0965
  184MPD1    H3 2807   2.652   0.951  10.583 -0.2997  0.6481 -0.5201
  184MPD1     N 2808   2.598   0.643  10.252  0.3302  0.2383 -0.8463
  184MPD1    H5 2809   2.698   0.651  10.237  0.2941  1.7109 -0.2816
  184MPD1    N1 2810   2.222   0.881  10.449 -0.2902  0.3301  0.3103
  184MPD1    H6 2811   2.154   0.809  10.426  1.4530 -0.9958 -0.6907
  184MPD1    H7 2812   2.183   0.922  10.534 -2.0638 -0.0066 -0.3527
  185MPD1     C 2813   2.329   4.435   9.990 -1.0610  0.6613 -0.4032
  185MPD1    C1 2814   2.467   4.430   9.978 -0.2926 -0.0188 -0.0400
  185MPD1    C2 2815   2.528   4.552   9.985  0.9806 -0.2363  0.3658
  185MPD1    C3 2816   2.456   4.669  10.002  0.7948  0.3497  0.3570
  185MPD1    C4 2817   2.320   4.666  10.020 -0.2019 -0.8398 -0.2247
  185MPD1    C5 2818   2.257   4.546  10.019 -0.1060  0.8402  0.3337
  185MPD1     H 2819   2.636   4.559   9.977  0.8738  1.3088  0.3134
  185MPD1    H1 2820   2.259   0.020  10.064  1.1284  0.1460 -0.1115
  185MPD1    H2 2821   2.268   4.345   9.996  1.1309 -0.6183  2.4872
  185MPD1    H3 2822   2.149   4.548  10.030 -0.2581  0.0478 -1.0162
  185MPD1     N 2823   2.514   0.075  10.009  0.2429  0.5638 -0.3350
  185MPD1    H5 2824   2.458   0.153  10.040 -0.0017  0.4204 -0.4208
  185MPD1    N1 2825   2.542   4.312   9.985  0.0095 -0.1262 -0.4143
  185MPD1    H6 2826   2.500   4.235   9.932  0.3726 -1.9218  1.9098
  185MPD1    H7 2827   2.632   4.331   9.942  1.3688 -2.0366  1.5810
  186MPD1     C 2828   0.963   4.693  16.218 -0.1163 -0.3341  0.2405
  186MPD1    C1 2829   0.871   4.688  16.312  0.4776  0.0390 -0.1141
  186MPD1    C2 2830   0.844   0.085  16.392  0.2258 -0.0340 -0.3447
  186MPD1    C3 2831   0.920   0.201  16.368 -0.6989 -0.1013  0.2884
  186MPD1    C4 2832   1.003   0.202  16.259  0.0609 -0.5241  0.1023
  186MPD1    C5 2833   1.028   0.087  16.187  1.1190 -0.4206 -0.1023
  186MPD1     H 2834   0.773   0.069  16.472  1.8851 -1.1787  0.8990
  186MPD1    H1 2835   1.061   0.290  16.234 -0.9931 -0.4517 -2.1600
  186MPD1    H2 2836   0.986   4.609  16.154 -1.1682 -1.9797  2.0696
  186MPD1    H3 2837   1.093   0.079  16.101  1.6314 -1.1834  0.3579
  186MPD1     N 2838   0.918   0.314  16.456 -0.2259  0.0135 -0.4880
  186MPD1    H5 2839   0.988   0.385  16.437  0.4954 -0.1829  1.4501
  186MPD1    N1 2840   0.799   4.569  16.336  0.4018 -0.1064  0.0010
  186MPD1    H6 2841   0.865   4.492  16.347  0.7459  0.6830  3.4831
  186MPD1    H7 2842   0.736   4.583  16.415  0.0857  0.0337 -0.2785
  187MPD1     C 2843   0.179   2.316   0.036 -0.6198 -0.1302 -0.1433
  187MPD1    C1 2844   0.302   2.319  17.674 -0.2006  0.3629  0.0520
  187MPD1    C2 2845   0.312   2.373  17.552 -0.3779  0.0599  0.4778
  187MPD1    C3 2846   0.197   2.414  17.482 -0.1928  0.6917  1.0549
  187MPD1    C4 2847   0.074   2.395  17.535  0.9294  0.0756 -0.1252
  187MPD1    C5 2848   0.072   2.351  17.664 -0.0003 -0.6631 -0.6992
  187MPD1     H 2849   0.413   2.388  17.513 -1.1664  2.0652 -0.7893
  187MPD1    H1 2850   4.706   2.435  17.494 -0.3831 -1.9463  0.8366
  187MPD1    H2 2851   0.162   2.285   0.138 -1.2206  1.4210  0.2291
  187MPD1    H3 2852   4.703   2.338   0.026  0.8823  0.9286  1.0699
  187MPD1     N 2853   0.198   2.489  17.358 -0.0950 -0.5438 -0.4575
  187MPD1    H5 2854   0.108   2.496  17.312  0.1217 -2.2543 -1.1790
  187MPD1    N1 2855   0.414   2.300   0.057 -0.2429  0.1094  0.4387
  187MPD1    H6 2856   0.492   2.272  17.693 -0.1240 -1.0651  1.1733
  187MPD1    H7 2857   0.404   2.233   0.133 -0.2320 -1.9727 -1.3884
  188MPD1     C 2858   0.459   2.263  10.627 -0.0085 -0.0983  0.9424
  188MPD1    C1 2859   0.367   2.293  10.523  0.2530 -0.0423 -0.0698
  188MPD1    C2 2860   0.298   2.191  10.460 -0.3792  0.2578  0.1570
  188MPD1    C3 2861   0.338   2.062  10.469 -0.4387 -0.3186 -1.1718
  188MPD1    C4 2862   0.427   2.032  10.567  0.0688  0.4163 -0.4904
  188MPD1    C5 2863   0.468   2.126  10.655 -0.7086  0.0113  0.2820
  188MPD1     H 2864   0.233   2.225  10.380 -0.9949 -0.0489  0.5273
  188MPD1    H1 2865   0.437   1.927  10.590 -1.4504  0.8805  2.3316
  188MPD1    H2 2866   0.479   2.335  10.706  0.4984  0.2873  0.4634
  188MPD1    H3 2867   0.524   2.111  10.746 -1.9376 -0.8935  0.8772
  188MPD1     N 2868   0.296   1.961  10.383  0.0966 -0.0285  0.2040
  188MPD1    H5 2869   0.336   1.871  10.406 -1.7334 -0.2767  2.4825
  188MPD1    N1 2870   0.315   2.423  10.519  0.1693  0.2861 -0.6659
  188MPD1    H6 2871   0.307   2.426  10.418 -0.6017 -2.8214 -0.6841
  188MPD1    H7 2872   0.391   2.480  10.556  0.6967 -0.1411 -1.1111
  189MPD1     C 2873   2.315   2.265   0.059  0.0872  0.6517 -0.5000
  189MPD1    C1 2874   2.214   2.282   0.153  0.0142  0.0194 -0.1832
  189MPD1    C2 2875   2.168   2.409   0.178  0.1710 -1.0902  0.1037
  189MPD1    C3 2876   2.200   2.518   0.104 -0.3963  0.3624  0.2089
  189MPD1    C4 2877   2.292   2.496   0.006  0.2858  0.1430 -0.4688
  189MPD1    C5 2878   2.345   2.372  17.678  0.1065  0.3774  0.5598
  189MPD1     H 2879   2.112   2.426   0.270 -0.2750  0.7530 -0.5132
  189MPD1    H1 2880   2.345   2.572  17.643  2.7362 -0.4250  1.0310
  189MPD1    H2 2881   2.350   2.165   0.038 -0.7461 -0.0515  1.4371
  189MPD1    H3 2882   2.412   2.362  17.594 -0.9158 -1.4943 -0.0403
  189MPD1     N 2883   2.152   2.647   0.141  0.1972 -0.3991  0.2215
  189MPD1    H5 2884   2.090   2.650   0.222  0.2546  3.1199  0.1345
  189MPD1    N1 2885   2.177   2.172   0.233  0.6685  0.3436 -0.1260
  189MPD1    H6 2886   2.077   2.173   0.248  0.9867  2.3032  2.0269
  189MPD1    H7 2887   2.219   2.088   0.194  1.2308  1.2010 -1.3924
  190MPD1     C 2888   0.235   1.081  15.282  0.2809 -0.1607  0.2899
  190MPD1    C1 2889   0.365   1.042  15.307 -0.7061  0.0296 -0.3589
  190MPD1    C2 2890   0.422   1.070  15.428  0.2007 -0.7528  1.0597
  190MPD1    C3 2891   0.342   1.111  15.530  0.2595 -0.5443  0.4664
  190MPD1    C4 2892   0.216   1.153  15.507 -0.3641 -0.1176 -0.1606
  190MPD1    C5 2893   0.170   1.150  15.382  0.0081 -0.1644  1.0557
  190MPD1     H 2894   0.528   1.062  15.447  0.2266  0.7436  1.5705
  190MPD1    H1 2895   0.157   1.203  15.584  0.9218  0.6625  0.3220
  190MPD1    H2 2896   0.199   1.071  15.181 -1.6206  0.8257  0.8695
  190MPD1    H3 2897   0.073   1.190  15.357  0.1140  1.3448  3.1219
  190MPD1     N 2898   0.407   1.132  15.650  0.7496 -0.0035 -0.4570
  190MPD1    H5 2899   0.507   1.114  15.651  0.8169  0.2996 -3.5873
  190MPD1    N1 2900   0.447   0.997  15.202 -0.0012 -0.0397  0.2003
  190MPD1    H6 2901   0.516   0.935  15.242  0.3740 -0.0275 -0.4311
  190MPD1    H7 2902   0.397   0.954  15.124  0.5992 -1.3597  0.5472
  191MPD1     C 2903   4.616   3.404  13.480 -0.5293  0.4498  0.4995
  191MPD1    C1 2904   4.552   3.505  13.420  0.5181  0.3400 -0.1079
  191MPD1    C2 2905   4.597   3.552  13.295  0.7156  0.5108  0.8026
  191MPD1    C3 2906   4.709   3.504  13.234  0.0570 -0.6644  0.4441
  191MPD1    C4 2907   0.056   3.419  13.316  0.0360 -0.7697 -0.4441
  191MPD1    C5 2908   0.011   3.371  13.435  0.3802 -0.0280  1.0184
  191MPD1     H 2909   4.539   3.623  13.238  0.3485 -0.2669  0.2107
  191MPD1    H1 2910   0.160   3.401  13.293  0.3324 -1.2885  1.3209
  191MPD1    H2 2911   4.579   3.359  13.571  1.1785  2.0070  1.9668
  191MPD1    H3 2912   0.075   3.312  13.499 -1.3935 -2.7337  0.2759
  191MPD1     N 2913   0.021   3.560  13.114 -0.6060 -0.6020 -0.3972
  191MPD1    H5 2914   4.670   3.617  13.075 -1.8791 -2.2257 -0.3630
  191MPD1    N1 2915   4.435   3.553  13.472  0.3134 -0.6156  0.5565
  191MPD1    H6 2916   4.416   3.650  13.448  1.3731 -0.6996 -0.6446
  191MPD1    H7 2917   4.435   3.539  13.573  4.6987 -0.1172  0.6494
  192MPD1     C 2918   4.354   3.898  12.323  0.5398 -0.4269 -0.6028
  192MPD1    C1 2919   4.435   3.793  12.274 -0.2667  0.5828 -0.1238
  192MPD1    C2 2920   4.547   3.760  12.346 -0.3300 -0.1950 -0.3294
  192MPD1    C3 2921   4.563   3.813  12.468 -0.7405 -1.1595 -0.1730
  192MPD1    C4 2922   4.480   3.913  12.521  0.4117  0.1767 -0.1479
  192MPD1    C5 2923   4.375   3.956  12.445 -0.3377 -0.1529 -0.6020
  192MPD1     H 2924   4.617   3.686  12.308  2.3403  1.9964  0.3261
  192MPD1    H1 2925   4.497   3.963  12.616  1.2400 -0.6617  0.1409
  192MPD1    H2 2926   4.271   3.929  12.262 -0.1768 -3.7621 -1.2649
  192MPD1    H3 2927   4.312   4.038  12.477 -0.4572 -0.5800  0.2720
  192MPD1     N 2928   4.658   3.752  12.545 -0.0668 -0.2463 -0.7581
  192MPD1    H5 2929   4.723   3.689  12.499 -1.0165 -0.7035 -1.4784
  192MPD1    N1 2930   4.421   3.740  12.145  0.1563  0.7076  1.0166
  192MPD1    H6 2931   4.451   3.644  12.134 -2.6571 -0.2020  1.4652
  192MPD1    H7 2932   4.324   3.739  12.116  0.4675 -0.0835  0.0193
  193MPD1     C 2933   3.907   3.651  16.291 -0.2289  0.1210 -0.3128
  193MPD1    C1 2934   3.895   3.785  16.315 -0.4293 -0.7025 -0.1424
  193MPD1    C2 2935   3.949   3.845  16.427 -0.0640  0.4106  0.1113
  193MPD1    C3 2936   4.043   3.774  16.496 -0.2254  0.8477  0.3813
  193MPD1    C4 2937   4.053   3.640  16.466  0.5835 -0.1746  0.2518
  193MPD1    C5 2938   3.979   3.579  16.377 -0.0361  0.1764 -0.4621
  193MPD1     H 2939   3.933   3.950  16.443  2.3117  0.7595  0.1845
  193MPD1    H1 2940   4.116   3.584  16.534  2.6367 -1.1001 -2.3998
  193MPD1    H2 2941   3.857   3.603  16.207 -0.7690  1.8835 -0.9953
  193MPD1    H3 2942   3.986   3.471  16.368  0.6424 -0.1045  3.6202
  193MPD1     N 2943   4.126   3.827  16.600 -0.5490  0.4936 -0.2621
  193MPD1    H5 2944   4.183   3.760  16.651 -0.0665  0.4217 -0.9051
  193MPD1    N1 2945   3.826   3.857  16.217 -0.1481 -0.6552 -0.3591
  193MPD1    H6 2946   3.757   3.799  16.169 -0.9258  2.0526 -2.5266
  193MPD1    H7 2947   3.788   3.948  16.245 -2.3067 -1.3011 -1.1415
  194MPD1     C 2948   2.868   1.208  17.314 -0.6405 -0.9888 -0.0548
  194MPD1    C1 2949   2.742   1.169  17.346 -0.0807 -0.1431  0.5029
  194MPD1    C2 2950   2.722   1.053  17.416  0.0727 -0.6322 -0.4847
  194MPD1    C3 2951   2.825   0.969  17.451  0.3493 -0.9347  0.6294
  194MPD1    C4 2952   2.955   1.003  17.401  0.2892 -0.7074 -0.3330
  194MPD1    C5 2953   2.975   1.123  17.335 -0.2034  0.4356 -0.7919
  194MPD1     H 2954   2.624   1.025  17.452  0.1161 -0.2184 -0.0465
  194MPD1    H1 2955   3.035   0.936  17.430  0.2661 -0.1600  0.9631
  194MPD1    H2 2956   2.879   1.309  17.277 -0.3814 -1.1697 -0.4709
  194MPD1    H3 2957   3.071   1.161  17.304  0.6173 -0.9009  0.1177
  194MPD1     N 2958   2.804   0.844  17.509 -0.1714 -0.5136 -0.2692
  194MPD1    H5 2959   2.888   0.788  17.520 -0.3117 -0.0040  3.3905
  194MPD1    N1 2960   2.636   1.265  17.345  0.2935 -0.4525 -0.1817
  194MPD1    H6 2961   2.649   1.323  17.263 -0.1008  1.2840  0.9726
  194MPD1    H7 2962   2.543   1.225  17.334 -0.0148 -0.2201  1.4376
  195MPD1     C 2963   4.369   2.735   0.194 -0.3386 -0.4390 -0.2388
  195MPD1    C1 2964   4.431   2.671   0.086  1.0281 -0.9009  0.2369
  195MPD1    C2 2965   4.387   2.551   0.036  0.7050 -0.8484 -0.3476
  195MPD1    C3 2966   4.284   2.488   0.114 -0.2865 -0.3766  0.0308
  195MPD1    C4 2967   4.236   2.546   0.227 -0.0151  0.2533  0.3914
  195MPD1    C5 2968   4.268   2.673   0.262 -0.3711 -0.2241  0.0167
  195MPD1     H 2969   4.433   2.505  17.643 -0.0515  1.3430 -1.9056
  195MPD1    H1 2970   4.166   2.496   0.293  0.4535  1.7221  1.9917
  195MPD1    H2 2971   4.408   2.833   0.220  1.1160 -0.9464 -0.4952
  195MPD1    H3 2972   4.231   2.735   0.343 -0.6688 -1.0551  0.5100
  195MPD1     N 2973   4.236   2.353   0.103 -0.3289 -0.3085 -0.6894
  195MPD1    H5 2974   4.170   2.318   0.172  0.4340 -1.3306 -0.4755
  195MPD1    N1 2975   4.517   2.744   0.009 -0.2434 -0.0500  0.3436
  195MPD1    H6 2976   4.572   2.685  17.642  0.3177  1.7783 -0.9307
  195MPD1    H7 2977   4.580   2.802   0.064  0.0222  0.1740 -0.1969
  196MPD1     C 2978   4.705   1.515   0.557 -0.4317  0.6887 -0.1053
  196MPD1    C1 2979   4.599   1.605   0.546 -0.4950  0.8765 -0.0456
  196MPD1    C2 2980   4.623   1.742   0.542 -0.6806 -0.5464  0.3589
  196MPD1    C3 2981   0.027   1.786   0.568 -0.1524  0.4980 -0.2579
  196MPD1    C4 2982   0.126   1.693   0.581 -0.1528 -0.2380 -0.0308
  196MPD1    C5 2983   0.107   1.557   0.576  0.1498 -0.3825  0.2685
  196MPD1     H 2984   4.535   1.803   0.525  1.0059  1.8778  0.3780
  196MPD1    H1 2985   0.234   1.700   0.592 -0.1303 -1.9216  0.8698
  196MPD1    H2 2986   4.675   1.411   0.565 -0.4504  0.8594  2.0624
  196MPD1    H3 2987   0.181   1.484   0.604  1.1212  0.8100  0.8176
  196MPD1     N 2988   0.064   1.914   0.593  0.1962 -0.4789  0.0012
  196MPD1    H5 2989   0.160   1.924   0.624 -0.2016  0.9686  0.7727
  196MPD1    N1 2990   4.470   1.552   0.512  0.0370  0.2359  0.6360
  196MPD1    H6 2991   4.454   1.468   0.568  0.2443  0.5687  1.1831
  196MPD1    H7 2992   4.397   1.614   0.545  0.9579  0.0579  3.0170
  197MPD1     C 2993   3.558   4.563   0.117 -0.5155  0.0930 -0.1755
  197MPD1    C1 2994   3.517   4.696   0.094  0.0442  0.0543 -0.1526
  197MPD1    C2 2995   3.393   0.002   0.038 -0.8227  0.5825 -0.4408
  197MPD1    C3 2996   3.307   4.621   0.024  0.1267  0.4287 -0.0797
  197MPD1    C4 2997   3.342   4.485   0.055 -0.3249 -0.8613  0.1203
  197MPD1    C5 2998   3.463   4.460   0.115  0.3587  0.3980 -0.1651
  197MPD1     H 2999   3.356   0.103   0.022 -0.6101  0.6129 -0.7433
  197MPD1    H1 3000   3.275   4.401   0.043 -0.5830 -0.5330 -0.7762
  197MPD1    H2 3001   3.659   4.535   0.143 -0.1703  1.1877 -0.3555
  197MPD1    H3 3002   3.495   4.361   0.144  2.0143  1.1904  0.7442
  197MPD1     N 3003   3.184   4.644  17.663  0.4607 -0.1205 -0.6426
  197MPD1    H5 3004   3.126   4.561  17.660 -0.4961  0.5135  0.4393
  197MPD1    N1 3005   3.615   0.071   0.088  0.1159 -0.5190  0.5776
  197MPD1    H6 3006   3.703   0.047   0.133 -1.1888 -3.4504  1.5340
  197MPD1    H7 3007   3.574   0.157   0.125 -1.1356 -1.1195  0.5810
  198MPD1     C 3008   1.182   2.322  17.103 -0.4507  0.4807 -0.3408
  198MPD1    C1 3009   1.220   2.330  16.969  1.5642 -0.0603  0.0253
  198MPD1    C2 3010   1.204   2.448  16.901 -0.9143 -0.6469 -0.1310
  198MPD1    C3 3011   1.126   2.545  16.961 -0.0230 -0.3360  0.0090
  198MPD1    C4 3012   1.066   2.535  17.083  0.7470 -0.3016 -0.0575
  198MPD1    C5 3013   1.099   2.417  17.146 -0.3654  0.8638 -0.0380
  198MPD1     H 3014   1.230   2.460  16.797 -1.4242 -0.9344 -0.2880
  198MPD1    H1 3015   1.007   2.614  17.128  0.2293 -0.5186 -0.3561
  198MPD1    H2 3016   1.203   2.246  17.177 -0.3593 -0.5417 -1.4211
  198MPD1    H3 3017   1.070   2.417  17.250 -1.5645 -0.9842 -0.3711
  198MPD1     N 3018   1.103   2.658  16.887 -0.0718  0.0534 -0.5876
  198MPD1    H5 3019   1.135   2.660  16.791 -0.8700  2.0216 -0.8164
  198MPD1    N1 3020   1.308   2.227  16.918  0.4967  0.7791 -0.1235
  198MPD1    H6 3021   1.318   2.222  16.816  1.5991  0.1946  0.0111
  198MPD1    H7 3022   1.276   2.135  16.947  0.6292  0.3966 -1.1880
  199MPD1     C 3023   2.814   3.559   9.593 -0.0153 -0.0806 -0.4023
  199MPD1    C1 3024   2.720   3.460   9.555 -0.4213  0.4989 -0.6267
  199MPD1    C2 3025   2.587   3.496   9.526  0.6903  0.2155  0.0135
  199MPD1    C3 3026   2.547   3.627   9.541 -0.3394 -0.4907 -0.6155
  199MPD1    C4 3027   2.639   3.722   9.573 -0.5655 -0.1857  0.1229
  199MPD1    C5 3028   2.767   3.690   9.593 -0.3152 -0.2140 -0.2776
  199MPD1     H 3029   2.517   3.428   9.478  0.4564  0.9562 -0.6851
  199MPD1    H1 3030   2.623   3.829   9.566 -1.1563 -0.2173  1.0067
  199MPD1    H2 3031   2.918   3.537   9.615 -0.6515 -1.3177  1.4009
  199MPD1    H3 3032   2.839   3.769   9.609 -0.5891 -0.3613  1.6275
  199MPD1     N 3033   2.422   3.687   9.510  0.0395 -0.4477  0.3871
  199MPD1    H5 3034   2.415   3.787   9.521  0.1593 -0.6712  2.3680
  199MPD1    N1 3035   2.777   3.332   9.542  0.0940  0.3831  0.1426
  199MPD1    H6 3036   2.709   3.258   9.529 -0.2038  0.3339  2.0446
  199MPD1    H7 3037   2.841   3.315   9.620  1.2326  0.6159 -0.7322
  200MPD1     C 3038   1.485   3.864  15.414  0.2450  0.1412 -0.2563
  200MPD1    C1 3039   1.424   3.801  15.308 -0.3277  0.5842 -0.8982
  200MPD1    C2 3040   1.448   3.856  15.180  0.3052 -0.2135  0.2274
  200MPD1    C3 3041   1.535   3.963  15.157 -0.2201 -0.3144 -0.4533
  200MPD1    C4 3042   1.596   4.021  15.263  0.0445 -0.4016 -0.3372
  200MPD1    C5 3043   1.567   3.974  15.386 -0.0216  0.8167  0.2239
  200MPD1     H 3044   1.401   3.806  15.096  2.6808 -2.0008 -0.0313
  200MPD1    H1 3045   1.657   4.109  15.248  0.8934 -0.5927  1.9953
  200MPD1    H2 3046   1.457   3.842  15.516  2.9020 -0.2733  0.3766
  200MPD1    H3 3047   1.609   4.027  15.471 -0.2327 -1.1802  1.5737
  200MPD1     N 3048   1.558   4.002  15.019 -0.5139  0.4498  0.2064
  200MPD1    H5 3049   1.503   3.964  14.943  1.3209  0.1670 -0.9878
  200MPD1    N1 3050   1.315   3.718  15.338 -0.5426  0.0427 -0.2135
  200MPD1    H6 3051   1.297   3.647  15.266  0.4285 -0.1639 -0.2446
  200MPD1    H7 3052   1.337   3.676  15.428 -0.6883  0.3144 -0.0509
  201MPD1     C 3053   3.883   3.410  13.021 -0.4712  0.2163  0.9250
  201MPD1    C1 3054   4.005   3.358  12.986  0.0332  0.5652  0.1060
  201MPD1    C2 3055   4.024   3.222  13.005  0.2378  0.0649  0.0837
  201MPD1    C3 3056   3.940   3.146  13.072 -0.3265  0.1216  0.3563
  201MPD1    C4 3057   3.825   3.198  13.127  0.4750  0.0278  0.2497
  201MPD1    C5 3058   3.789   3.327  13.090  0.4034 -0.3524  0.0777
  201MPD1     H 3059   4.115   3.177  12.969  0.5454 -1.5689  2.9735
  201MPD1    H1 3060   3.748   3.161  13.194  2.2149 -0.6208  1.8835
  201MPD1    H2 3061   3.846   3.510  13.004 -4.0742 -1.4552 -1.1868
  201MPD1    H3 3062   3.692   3.376  13.103  1.5452  1.6142  1.2028
  201MPD1     N 3063   3.978   3.016  13.087  0.0501  0.2847  0.2190
  201MPD1    H5 3064   4.066   2.997  13.040 -0.9840 -0.4147 -1.4245
  201MPD1    N1 3065   4.088   3.440  12.911  0.3297 -0.4267  0.0060
  201MPD1    H6 3066   4.180   3.410  12.944  0.2807 -0.9531 -0.3394
  201MPD1    H7 3067   4.083   3.538  12.938 -1.9913  0.2268 -2.7268
  202MPD1     C 3068   4.665   2.570   9.327  0.4868  0.3359 -0.2604
  202MPD1    C1 3069   4.589   2.681   9.350  0.3377  0.0544 -0.2598
  202MPD1    C2 3070   4.504   2.681   9.457  0.6517 -0.7843  0.0168
  202MPD1    C3 3071   4.514   2.584   9.551  0.3146  0.2693 -0.6278
  202MPD1    C4 3072   4.598   2.475   9.533  0.7953 -0.5562  0.0973
  202MPD1    C5 3073   4.673   2.458   9.412 -0.0278  0.2407  1.0328
  202MPD1     H 3074   4.442   2.767   9.476  0.1607 -1.1521  0.0721
  202MPD1    H1 3075   4.598   2.395   9.606 -0.5326  1.5703  2.4284
  202MPD1    H2 3076   4.718   2.561   9.233 -2.8265  0.7577 -2.1584
  202MPD1    H3 3077   0.010   2.370   9.393 -0.5173  0.2644 -0.5699
  202MPD1     N 3078   4.436   2.578   9.677  0.6482 -0.5445 -0.0011
  202MPD1    H5 3079   4.443   2.498   9.740 -1.5336 -1.3209 -0.7417
  202MPD1    N1 3080   4.551   2.769   9.247 -0.0582  0.7929 -0.0223
  202MPD1    H6 3081   4.630   2.789   9.186  0.8775 -1.3809  0.4834
  202MPD1    H7 3082   4.528   2.863   9.278  2.1868  1.5555 -0.6476
  203MPD1     C 3083   2.684   3.507  13.099 -0.9403  0.9741 -0.2143
  203MPD1    C1 3084   2.778   3.435  13.162 -1.1933 -0.5694 -0.1649
  203MPD1    C2 3085   2.810   3.310  13.112  0.1201 -0.3188  0.3261
  203MPD1    C3 3086   2.730   3.247  13.021 -0.3806  0.5629  0.1513
  203MPD1    C4 3087   2.621   3.316  12.969 -0.8419  0.5879 -1.0495
  203MPD1    C5 3088   2.596   3.448  13.014 -0.9225  0.0641 -0.5837
  203MPD1     H 3089   2.897   3.257  13.148 -0.0929 -1.3085 -0.6174
  203MPD1    H1 3090   2.552   3.272  12.899 -0.2099 -1.0516 -0.6399
  203MPD1    H2 3091   2.662   3.609  13.126  0.1735  1.4487 -1.0937
  203MPD1    H3 3092   2.505   3.499  12.983 -0.4167  1.6447  0.5257
  203MPD1     N 3093   2.770   3.115  12.985  0.2536  0.1208 -0.0006
  203MPD1    H5 3094   2.857   3.067  13.006  0.8768  1.1457 -0.2374
  203MPD1    N1 3095   2.866   3.504  13.248 -0.2846  0.0606  0.6182
  203MPD1    H6 3096   2.812   3.557  13.315 -1.1041 -1.8087  1.4415
  203MPD1    H7 3097   2.920   3.433  13.299  0.1786 -1.6765 -2.2679
  204MPD1     C 3098   2.733   4.493   0.306  0.5650 -0.6212  0.6328
  204MPD1    C1 3099   2.737   4.365   0.294 -0.1742 -0.1330 -0.2914
  204MPD1    C2 3100   2.625   4.298   0.236 -0.2366  0.1982 -0.1555
  204MPD1    C3 3101   2.520   4.368   0.183  0.0106 -0.3118 -0.4012
  204MPD1    C4 3102   2.524   4.508   0.183 -0.2628  1.1075  0.4251
  204MPD1    C5 3103   2.635   4.565   0.243 -0.2632 -0.1916 -0.6511
  204MPD1     H 3104   2.614   4.191   0.224  1.9302 -0.1684  1.0856
  204MPD1    H1 3105   2.444   4.562   0.135 -1.4114  1.6691  2.9900
  204MPD1    H2 3106   2.820   4.540   0.350 -0.7691 -0.0345  2.6013
  204MPD1    H3 3107   2.627   4.673   0.244  2.0918 -0.0285  1.3819
  204MPD1     N 3108   2.420   4.289   0.123 -0.2549  0.0352  0.4588
  204MPD1    H5 3109   2.435   4.189   0.117 -1.4069 -0.2922  2.5729
  204MPD1    N1 3110   2.835   4.288   0.359  0.3782  0.0870 -0.3977
  204MPD1    H6 3111   2.869   4.218   0.294  0.6779 -0.8861  0.8121
  204MPD1    H7 3112   2.913   4.348   0.384 -0.8688  1.2465  0.7352
  205MPD1     C 3113   1.651   3.073  16.628  0.4161  0.6025  0.8298
  205MPD1    C1 3114   1.669   3.199  16.677 -0.3024  0.3841 -0.0255
  205MPD1    C2 3115   1.741   3.209  16.796  0.3750  0.0537  0.4963
  205MPD1    C3 3116   1.785   3.097  16.861 -0.4072 -0.2166 -0.4192
  205MPD1    C4 3117   1.760   2.968  16.812  0.4354  0.3161  0.0375
  205MPD1    C5 3118   1.691   2.961  16.694  0.2856 -0.1660 -0.1528
  205MPD1     H 3119   1.766   3.310  16.824  2.7976 -0.5308  0.4301
  205MPD1    H1 3120   1.799   2.880  16.861  1.4870  0.6157 -0.2562
  205MPD1    H2 3121   1.608   3.049  16.531 -0.1060  1.6974  0.7922
  205MPD1    H3 3122   1.687   2.863  16.649  0.1179  0.2313 -0.9946
  205MPD1     N 3123   1.857   3.100  16.983 -0.3760  0.5217 -0.3172
  205MPD1    H5 3124   1.898   3.012  17.013 -2.3456  0.1862  1.4248
  205MPD1    N1 3125   1.614   3.301  16.598 -0.0906 -0.0323  0.4187
  205MPD1    H6 3126   1.527   3.273  16.554  0.2370  0.7890 -0.7586
  205MPD1    H7 3127   1.597   3.383  16.656  1.8075  1.0092 -0.4846
  206MPD1     C 3128   1.898   2.031  16.533  1.2495  0.5263  0.1373
  206MPD1    C1 3129   1.893   1.920  16.611 -0.2203  0.5691 -0.2220
  206MPD1    C2 3130   1.910   1.794  16.555 -0.1750 -0.3148  0.2326
  206MPD1    C3 3131   1.925   1.778  16.420 -0.8237 -0.6794  0.3247
  206MPD1    C4 3132   1.909   1.886  16.340 -0.4842 -0.0360  0.0974
  206MPD1    C5 3133   1.904   2.014  16.397 -0.6128  0.2634  0.1647
  206MPD1     H 3134   1.911   1.704  16.616 -0.5326 -0.8144 -0.4936
  206MPD1    H1 3135   1.920   1.873  16.233 -0.3608 -0.4360  0.1608
  206MPD1    H2 3136   1.903   2.133  16.570  1.5282 -0.1638  2.0234
  206MPD1    H3 3137   1.904   2.104  16.337  1.8815 -0.3926 -0.8161
  206MPD1     N 3138   1.926   1.653  16.360 -0.1317  0.2945 -0.0942
  206MPD1    H5 3139   1.896   1.645  16.263  0.0358  0.1933 -0.1373
  206MPD1    N1 3140   1.869   1.930  16.750 -0.6911 -0.2610 -1.1830
  206MPD1    H6 3141   1.796   1.863  16.776  0.4480 -0.8521  0.5056
  206MPD1    H7 3142   1.836   2.023  16.775  0.6326  0.2861 -1.5221
  207MPD1     C 3143   3.261   3.178  10.601  0.4179  0.2195 -0.6282
  207MPD1    C1 3144   3.271   3.229  10.477 -0.7417  0.4497 -0.2523
  207MPD1    C2 3145   3.378   3.307  10.449 -0.6182 -0.0177 -0.0628
  207MPD1    C3 3146   3.479   3.321  10.539 -0.2218 -0.0648  0.4540
  207MPD1    C4 3147   3.474   3.261  10.661 -0.4011 -0.0774 -0.2500
  207MPD1    C5 3148   3.364   3.183  10.694 -0.2997  0.5692 -0.2926
  207MPD1     H 3149   3.394   3.336  10.346 -0.7262 -0.9488 -0.3485
  207MPD1    H1 3150   3.557   3.275  10.729 -0.7404  1.6424 -0.1967
  207MPD1    H2 3151   3.170   3.127  10.630 -0.2996  0.9584 -1.6055
  207MPD1    H3 3152   3.365   3.123  10.784  2.7523  2.3181  0.8621
  207MPD1     N 3153   3.602   3.393  10.509  0.0828 -0.3543  0.1568
  207MPD1    H5 3154   3.673   3.395  10.581 -0.6570 -1.5313  0.9076
  207MPD1    N1 3155   3.158   3.220  10.396  0.2271 -0.0117  0.5335
  207MPD1    H6 3156   3.116   3.127  10.396  2.7047 -1.1092 -0.6511
  207MPD1    H7 3157   3.176   3.228  10.297  1.4776 -1.6240  0.6432
  208MPD1     C 3158   2.054   2.710   0.688  0.4767 -0.3210  0.4404
  208MPD1    C1 3159   2.089   2.574   0.698  0.0824  0.4704 -0.1175
  208MPD1    C2 3160   2.198   2.534   0.615 -0.0307 -0.2012  0.4681
  208MPD1    C3 3161   2.260   2.631   0.543 -0.8853 -0.8800  0.3066
  208MPD1    C4 3162   2.229   2.762   0.540 -0.2409  0.1258  0.2564
  208MPD1    C5 3163   2.123   2.806   0.622  0.0736  0.6206  0.4687
  208MPD1     H 3164   2.232   2.431   0.614 -1.3944 -0.6545  0.4285
  208MPD1    H1 3165   2.293   2.842   0.504  1.0917 -0.8207  0.5318
  208MPD1    H2 3166   1.964   2.735   0.742  0.3111 -2.4318  1.1471
  208MPD1    H3 3167   2.085   2.907   0.612 -1.6600 -0.0241  0.5650
  208MPD1     N 3168   2.373   2.591   0.460  0.2531 -0.1077 -0.0747
  208MPD1    H5 3169   2.405   2.496   0.473  0.0215 -0.2388 -0.4758
  208MPD1    N1 3170   1.998   2.489   0.759 -0.5858 -0.2668  0.0588
  208MPD1    H6 3171   2.054   2.417   0.806  0.6272  0.1285 -0.7939
  208MPD1    H7 3172   1.934   2.521   0.831  0.8313 -2.4320  2.2995
  209MPD1     C 3173   0.233   4.074  11.727  0.1403 -0.2211 -0.6156
  209MPD1    C1 3174   0.247   4.134  11.615  0.0993 -0.1291 -0.5470
  209MPD1    C2 3175   0.191   4.087  11.497  0.5541  0.5010 -0.5746
  209MPD1    C3 3176   0.095   3.987  11.499 -0.0364 -0.1395 -0.3531
  209MPD1    C4 3177   0.070   3.936  11.629 -0.3251 -0.6434 -0.0340
  209MPD1    C5 3178   0.140   3.979  11.738 -0.1631  1.2997  0.0041
  209MPD1     H 3179   0.224   4.138  11.407 -1.0584  0.3789 -1.2436
  209MPD1    H1 3180   4.722   3.855  11.637  1.7349 -2.2248  2.0228
  209MPD1    H2 3181   0.297   4.099  11.810 -1.3294 -3.3187  1.4994
  209MPD1    H3 3182   0.129   3.937  11.838  0.0991 -1.2159 -1.0553
  209MPD1     N 3183   0.058   3.921  11.375  0.3061 -0.6654  0.5428
  209MPD1    H5 3184   0.100   3.951  11.288 -1.8531 -1.4669 -0.7737
  209MPD1    N1 3185   0.353   4.229  11.606 -0.2310  0.8505  0.1271
  209MPD1    H6 3186   0.379   4.276  11.693 -1.5089 -0.8356  1.3999
  209MPD1    H7 3187   0.362   4.292  11.527  1.2030  1.0333  0.4308
  210MPD1     C 3188   0.653   3.810  10.774 -0.2580 -0.7797 -0.7721
  210MPD1    C1 3189   0.566   3.718  10.723  0.3295  0.0693  0.4730
  210MPD1    C2 3190   0.443   3.701  10.780  0.8076  0.3268  0.2872
  210MPD1    C3 3191   0.411   3.774  10.889 -0.7529  0.1252  0.3379
  210MPD1    C4 3192   0.498   3.867  10.940  0.4425  0.1895 -0.0693
  210MPD1    C5 3193   0.624   3.882  10.882  0.0409 -0.7197 -0.3325
  210MPD1     H 3194   0.382   3.618  10.743  0.5727  0.5048  0.2761
  210MPD1    H1 3195   0.472   3.935  11.021  0.5058  0.9959 -0.7280
  210MPD1    H2 3196   0.750   3.833  10.730  0.5363 -0.6199  1.0683
  210MPD1    H3 3197   0.706   3.945  10.915 -0.2727  0.3338 -1.5414
  210MPD1     N 3198   0.292   3.763  10.960 -0.6649  0.8616  0.3877
  210MPD1    H5 3199   0.277   3.826  11.039  0.0977  0.2413  1.0262
  210MPD1    N1 3200   0.593   3.656  10.601 -1.0346 -0.3154 -0.1564
  210MPD1    H6 3201   0.547   3.570  10.572  0.1000 -1.4570  1.3953
  210MPD1    H7 3202   0.694   3.649  10.588 -0.8306  1.9993  0.1929
  211MPD1     C 3203   2.742   2.694  16.954 -0.4917  0.4209  0.5069
  211MPD1    C1 3204   2.757   2.830  16.921 -0.4878  1.0532 -1.0329
  211MPD1    C2 3205   2.660   2.888  16.834 -0.1692  0.5504  0.0414
  211MPD1    C3 3206   2.547   2.816  16.794 -0.5006 -0.3302  0.1439
  211MPD1    C4 3207   2.537   2.683  16.827  0.5084  0.5396  0.0568
  211MPD1    C5 3208   2.633   2.626  16.905 -0.2383 -0.2824  0.3696
  211MPD1     H 3209   2.675   2.984  16.787  0.0132  0.7504  0.5038
  211MPD1    H1 3210   2.449   2.626  16.801  1.5162 -0.1026 -1.9085
  211MPD1    H2 3211   2.807   2.650  17.029 -1.5024 -0.6643  0.7348
  211MPD1    H3 3212   2.607   2.526  16.938 -2.4981  0.3582  0.5588
  211MPD1     N 3213   2.449   2.889  16.723  0.1289  0.0442 -0.0695
  211MPD1    H5 3214   2.474   2.985  16.703 -1.0149  0.2269 -0.6328
  211MPD1    N1 3215   2.878   2.904  16.943 -0.6659  0.6669 -0.0071
  211MPD1    H6 3216   2.858   3.003  16.933 -0.4290  0.6066 -1.1073
  211MPD1    H7 3217   2.925   2.888  17.032 -1.5346  0.1454  0.3617
  212MPD1     C 3218   1.917   1.398  16.980 -1.5283  0.1586 -0.4171
  212MPD1    C1 3219   2.005   1.292  16.992  0.2351  0.2226  0.4218
  212MPD1    C2 3220   1.957   1.177  17.054 -0.1151 -0.5942 -0.7820
  212MPD1    C3 3221   1.827   1.172  17.103 -0.0191  0.1246  0.1358
  212MPD1    C4 3222   1.742   1.280  17.085 -0.1547  0.4569 -0.3477
  212MPD1    C5 3223   1.789   1.394  17.028 -0.3418 -0.6748  0.0502
  212MPD1     H 3224   2.030   1.097  17.054 -1.1897 -1.5751 -0.9313
  212MPD1    H1 3225   1.643   1.277  17.127 -0.4010  1.7853 -0.8322
  212MPD1    H2 3226   1.952   1.483  16.923  1.5384 -1.8036 -1.4859
  212MPD1    H3 3227   1.717   1.474  17.022  1.1969  0.8217  1.7648
  212MPD1     N 3228   1.764   1.058  17.152  0.1562  0.2547  0.1064
  212MPD1    H5 3229   1.666   1.069  17.176 -0.1218 -0.0769 -0.8636
  212MPD1    N1 3230   2.126   1.299  16.926 -0.3068 -0.7861  0.3930
  212MPD1    H6 3231   2.197   1.235  16.961 -0.6530 -0.8065  1.0496
  212MPD1    H7 3232   2.160   1.395  16.922  1.3171 -1.3320  1.4466
  213MPD1     C 3233   4.297   1.751  16.213  0.6250  0.0313  0.5776
  213MPD1    C1 3234   4.418   1.747  16.148  0.2063  0.2201 -0.2601
  213MPD1    C2 3235   4.411   1.798  16.018  0.0284 -0.0833  0.2501
  213MPD1    C3 3236   4.295   1.808  15.942  0.1539 -0.4609  0.4002
  213MPD1    C4 3237   4.179   1.794  16.008 -0.8236 -0.2077  0.0627
  213MPD1    C5 3238   4.179   1.763  16.144  0.4039  0.1534  0.1508
  213MPD1     H 3239   4.505   1.812  15.966 -0.1467 -0.9861 -0.2949
  213MPD1    H1 3240   4.083   1.818  15.963 -0.8092  0.3801  0.3468
  213MPD1    H2 3241   4.284   1.721  16.316  2.3150 -0.1948  0.7197
  213MPD1    H3 3242   4.087   1.751  16.200  0.5584  0.8422  0.5678
  213MPD1     N 3243   4.293   1.845  15.806  0.7878 -0.2242  0.0538
  213MPD1    H5 3244   4.384   1.873  15.770  0.9384 -0.4146  0.2916
  213MPD1    N1 3245   4.528   1.769  16.234 -0.3125  0.3333  0.0456
  213MPD1    H6 3246   4.528   1.710  16.317  0.2194  0.8518  0.4158
  213MPD1    H7 3247   4.620   1.765  16.190  0.5111  2.5369  1.5974
  214MPD1     C 3248   3.520   1.724  15.183 -0.3855 -0.5982  0.7640
  214MPD1    C1 3249   3.538   1.858  15.214 -0.0397  0.1205 -0.8602
  214MPD1    C2 3250   3.666   1.886  15.268 -0.0736  0.0873 -0.0564
  214MPD1    C3 3251   3.774   1.798  15.264  0.5347 -0.1369  0.2030
  214MPD1    C4 3252   3.755   1.671  15.223  0.6788  0.1084  0.2310
  214MPD1    C5 3253   3.625   1.637  15.183 -0.1350  0.5746  0.2613
  214MPD1     H 3254   3.678   1.987  15.306 -0.2693  1.0467 -2.4966
  214MPD1    H1 3255   3.835   1.599  15.213  0.2725 -0.1128 -1.3838
  214MPD1    H2 3256   3.423   1.680  15.166  0.0843 -0.9244 -1.0404
  214MPD1    H3 3257   3.607   1.533  15.160 -3.1637  1.0183  0.7247
  214MPD1     N 3258   3.909   1.828  15.313 -0.4495 -0.1279  0.0555
  214MPD1    H5 3259   3.974   1.750  15.320  1.5928  1.6299  0.4373
  214MPD1    N1 3260   3.430   1.945  15.226 -0.2215  0.3213 -0.2914
  214MPD1    H6 3261   3.363   1.917  15.154  0.5354  1.5494 -1.4634
  214MPD1    H7 3262   3.461   2.041  15.215  1.4054 -0.3590 -1.7658
  215MPD1     C 3263   0.584   2.983  10.658  0.0052 -0.6286 -0.1280
  215MPD1    C1 3264   0.564   2.940  10.786  0.6499  0.0635 -0.0939
  215MPD1    C2 3265   0.467   2.993  10.867  0.6969 -0.1914 -0.4372
  215MPD1    C3 3266   0.375   3.089  10.822 -0.4082  0.4122 -0.5988
  215MPD1    C4 3267   0.397   3.137  10.698 -0.3288 -0.3943 -0.1587
  215MPD1    C5 3268   0.501   3.094  10.618  0.1895  0.4371  1.2204
  215MPD1     H 3269   0.446   2.947  10.963 -0.4058 -3.1189 -2.0575
  215MPD1    H1 3270   0.344   3.222  10.656  0.5050 -1.0918 -2.6293
  215MPD1    H2 3271   0.662   2.930  10.605  0.7699  1.0950 -0.7310
  215MPD1    H3 3272   0.519   3.129  10.517  1.3573  1.1902  1.6887
  215MPD1     N 3273   0.276   3.143  10.912 -0.4545 -0.1276  0.0393
  215MPD1    H5 3274   0.275   3.105  11.006 -0.9751 -0.6034 -0.1567
  215MPD1    N1 3275   0.638   2.828  10.838  0.4670 -0.2333 -0.3253
  215MPD1    H6 3276   0.666   2.846  10.934 -0.4115  1.4438 -0.3801
  215MPD1    H7 3277   0.723   2.809  10.784  1.3538  1.5652  0.4461
  216MPD1     C 3278   2.317   1.145  17.640 -0.8794 -0.6338 -0.1298
  216MPD1    C1 3279   2.190   1.184  17.680  0.3167  0.3777  0.6276
  216MPD1    C2 3280   2.120   1.095   0.072  0.6358  0.6444  0.0343
  216MPD1    C3 3281   2.180   0.982   0.127  0.6514 -0.0158 -0.3070
  216MPD1    C4 3282   2.313   0.958   0.096  0.3907 -0.5080  0.5418
  216MPD1    C5 3283   2.380   1.036   0.007  0.1831 -0.4258 -0.4730
  216MPD1     H 3284   2.017   1.122   0.093 -0.0712 -0.5082 -1.9894
  216MPD1    H1 3285   2.375   0.878   0.136  0.5433 -0.9411 -0.5535
  216MPD1    H2 3286   2.378   1.203  17.571 -1.9688  0.5852 -0.0705
  216MPD1    H3 3287   2.482   1.011  17.673  0.3764 -1.2583  0.9425
  216MPD1     N 3288   2.089   0.892   0.196  1.2171 -0.3830  0.3660
  216MPD1    H5 3289   1.992   0.922   0.202  1.4111  0.7624 -2.1937
  216MPD1    N1 3290   2.121   1.287  17.617  0.4803 -0.0468 -1.2712
  216MPD1    H6 3291   2.055   1.323  17.685  1.2114  0.9193 -1.0736
  216MPD1    H7 3292   2.182   1.361  17.583  4.6292 -1.1291  3.6589
  217MPD1     C 3293   2.926   1.665   8.468  0.3077  0.1851 -0.0480
  217MPD1    C1 3294   3.018   1.602   8.548 -0.5941  0.2919  0.3205
  217MPD1    C2 3295   3.050   1.663   8.669  0.7157 -0.4532 -0.5127
  217MPD1    C3 3296   2.974   1.772   8.711 -0.6367 -0.3125 -0.0554
  217MPD1    C4 3297   2.869   1.816   8.636  0.0450  0.4161 -0.9782
  217MPD1    C5 3298   2.851   1.768   8.509 -0.1785  0.2439 -0.3147
  217MPD1     H 3299   3.130   1.615   8.725 -0.0551 -0.0325  0.9344
  217MPD1    H1 3300   2.805   1.893   8.676  0.5959  0.0157  0.6746
  217MPD1    H2 3301   2.898   1.640   8.366 -0.1668 -0.6475  0.2885
  217MPD1    H3 3302   2.777   1.816   8.446 -0.5654  0.1805  0.0865
  217MPD1     N 3303   3.000   1.842   8.830  0.2382 -0.2458 -0.5702
  217MPD1    H5 3304   2.958   1.934   8.837  3.2995  1.1580 -0.5917
  217MPD1    N1 3305   3.091   1.496   8.486 -0.5276  0.3296  0.8433
  217MPD1    H6 3306   3.036   1.436   8.425 -1.1467 -1.0171  2.7597
  217MPD1    H7 3307   3.135   1.422   8.540  2.0453  0.8368 -0.5389
  218MPD1     C 3308   3.729   3.241  13.716  0.4707 -0.0424 -0.3757
  218MPD1    C1 3309   3.780   3.352  13.647 -0.9640 -0.7299 -0.1523
  218MPD1    C2 3310   3.897   3.326  13.576 -0.1173 -0.2825  0.4230
  218MPD1    C3 3311   3.945   3.200  13.541  0.3303 -0.6907 -0.4746
  218MPD1    C4 3312   3.867   3.095  13.584 -0.2589 -0.6255  0.5869
  218MPD1    C5 3313   3.769   3.115  13.675  0.0991 -0.3282  0.5919
  218MPD1     H 3314   3.954   3.411  13.540  0.6518 -0.6678  0.7206
  218MPD1    H1 3315   3.898   2.993  13.563 -0.7597 -0.6342 -0.1025
  218MPD1    H2 3316   3.655   3.246  13.796  1.4920  0.7330  0.5155
  218MPD1    H3 3317   3.723   3.024  13.710 -1.8737 -0.0363 -1.1940
  218MPD1     N 3318   4.059   3.190  13.460  0.5400  0.5958  0.1091
  218MPD1    H5 3319   4.109   3.275  13.435  0.3454  0.9927  1.0819
  218MPD1    N1 3320   3.748   3.480  13.687 -0.0004  0.3995  0.7959
  218MPD1    H6 3321   3.646   3.490  13.692 -0.3217 -2.9955  1.1018
  218MPD1    H7 3322   3.779   3.548  13.618  0.5939  0.9928  1.6540
  219MPD1     C 3323   4.525   3.466  12.659 -0.0369 -0.3930  0.3914
  219MPD1    C1 3324   4.460   3.541  12.752 -0.5267  0.0323 -0.5472
  219MPD1    C2 3325   4.445   3.491  12.879 -0.0466 -0.1417 -0.0094
  219MPD1    C3 3326   4.516   3.383  12.922  0.5937 -0.2692 -0.1648
  219MPD1    C4 3327   4.599   3.317  12.828 -0.5608  0.1730 -0.4059
  219MPD1    C5 3328   4.601   3.360  12.701  0.7882  0.5779 -0.6857
  219MPD1     H 3329   4.377   3.547  12.942  1.7802 -1.8106  3.4533
  219MPD1    H1 3330   4.660   3.240  12.874  0.1714  1.1910  0.3186
  219MPD1    H2 3331   4.518   3.490  12.554  1.4180  1.4893  0.7277
  219MPD1    H3 3332   4.665   3.302  12.636  1.3268  0.6496 -0.2170
  219MPD1     N 3333   4.499   3.314  13.042  0.0745 -0.3001  0.0554
  219MPD1    H5 3334   4.570   3.246  13.067 -0.9952 -1.1466  0.7570
  219MPD1    N1 3335   4.384   3.643  12.708 -0.1739  0.3959  0.0429
  219MPD1    H6 3336   4.388   3.703  12.790 -2.4790 -0.6966  0.9521
  219MPD1    H7 3337   4.436   3.693  12.635 -2.0923  0.0635 -1.5567
  220MPD1     C 3338   4.394   3.038   9.836  0.4218 -0.2639  0.5702
  220MPD1    C1 3339   4.307   3.148   9.824  0.3664  0.3546 -0.1901
  220MPD1    C2 3340   4.239   3.180   9.939  0.2529 -0.2259 -0.6183
  220MPD1    C3 3341   4.235   3.105  10.049  0.4159 -0.3035  0.6582
  220MPD1    C4 3342   4.321   2.992  10.057 -0.2569 -0.0395  0.0269
  220MPD1    C5 3343   4.409   2.976   9.956 -0.2499 -0.3375 -1.1576
  220MPD1     H 3344   4.173   3.265   9.942  0.4453 -0.1228  0.6229
  220MPD1    H1 3345   4.324   2.934  10.148 -1.7673 -0.7358 -0.3612
  220MPD1    H2 3346   4.461   3.000   9.760 -0.2186  0.2535 -0.2634
  220MPD1    H3 3347   4.487   2.902   9.971  0.9920  1.2615  0.2148
  220MPD1     N 3348   4.139   3.120  10.150  0.3944  0.1859 -0.8152
  220MPD1    H5 3349   4.129   3.041  10.212  0.3388  1.3302  0.6520
  220MPD1    N1 3350   4.284   3.212   9.698  0.0996 -0.3086 -0.7229
  220MPD1    H6 3351   4.361   3.233   9.634 -0.4306  1.6191 -0.7033
  220MPD1    H7 3352   4.239   3.301   9.716 -0.4096 -0.4449 -1.3222
  221MPD1     C 3353   1.774   2.469  16.835 -0.1474  0.0797  0.0892
  221MPD1    C1 3354   1.755   2.368  16.742  0.5675 -0.5415  0.1609
  221MPD1    C2 3355   1.800   2.388  16.614  0.2074  0.3982 -0.1130
  221MPD1    C3 3356   1.836   2.511  16.563 -0.1766  0.4448  0.3567
  221MPD1    C4 3357   1.840   2.616  16.654 -0.1351  0.0986 -0.0259
  221MPD1    C5 3358   1.821   2.591  16.793 -0.7267  0.1620  0.3700
  221MPD1     H 3359   1.796   2.305  16.544  2.0653 -0.7629  1.1699
  221MPD1    H1 3360   1.868   2.719  16.633  0.7432  0.2785  1.9921
  221MPD1    H2 3361   1.766   2.462  16.943  0.7255 -2.2379 -0.0109
  221MPD1    H3 3362   1.822   2.670  16.867  2.7755  0.2812  0.1822
  221MPD1     N 3363   1.874   2.539  16.430 -0.3395 -0.2727  0.2378
  221MPD1    H5 3364   1.921   2.626  16.409 -0.6627  0.2344  1.5901
  221MPD1    N1 3365   1.729   2.234  16.782 -0.3619  0.2816 -0.0372
  221MPD1    H6 3366   1.691   2.218  16.875 -0.2033 -1.7693 -0.3259
  221MPD1    H7 3367   1.693   2.176  16.707  1.8625 -0.7180 -0.3456
  222MPD1     C 3368   2.764   1.380  17.011 -0.3493 -0.4242  0.3589
  222MPD1    C1 3369   2.645   1.313  16.991 -0.0259  0.1115 -0.1464
  222MPD1    C2 3370   2.534   1.348  17.051  0.0893 -0.3136 -0.3108
  222MPD1    C3 3371   2.521   1.473  17.113  0.5639 -0.2031 -0.1306
  222MPD1    C4 3372   2.635   1.552  17.110  0.7166 -0.5945 -0.0270
  222MPD1    C5 3373   2.755   1.507  17.055  0.2319  0.5736  0.5851
  222MPD1     H 3374   2.447   1.284  17.040 -0.7543  0.8174 -0.1772
  222MPD1    H1 3375   2.635   1.643  17.168  1.4249 -1.8345  1.9257
  222MPD1    H2 3376   2.858   1.331  16.987  0.3418  1.9668 -1.8489
  222MPD1    H3 3377   2.845   1.565  17.063  0.6519  0.1592 -1.1264
  222MPD1     N 3378   2.412   1.521  17.197 -0.0581  0.1970  0.2289
  222MPD1    H5 3379   2.420   1.616  17.231 -0.4361  0.5482 -0.6724
  222MPD1    N1 3380   2.653   1.190  16.926 -0.3187 -0.5365 -0.6829
  222MPD1    H6 3381   2.570   1.147  16.887  0.3782 -0.6778 -2.0385
  222MPD1    H7 3382   2.731   1.203  16.862 -0.4781 -0.0256 -0.7781
  223MPD1     C 3383   1.657   1.035  17.620 -0.6911  1.0718 -0.4942
  223MPD1    C1 3384   1.789   1.010  17.588  0.0615  0.2993 -0.1983
  223MPD1    C2 3385   1.856   1.113  17.530 -0.5418  0.1641 -0.0725
  223MPD1    C3 3386   1.792   1.222  17.475  0.7720 -0.2206 -0.2198
  223MPD1    C4 3387   1.658   1.248  17.502  0.0210 -0.7557  0.0687
  223MPD1    C5 3388   1.594   1.151  17.576  0.3423 -0.1924  0.7618
  223MPD1     H 3389   1.961   1.105  17.505 -1.1162 -1.0698 -2.1097
  223MPD1    H1 3390   1.606   1.341  17.482  1.8670  0.2692  0.0819
  223MPD1    H2 3391   1.603   0.956  17.670  0.2567 -0.1323 -1.3866
  223MPD1    H3 3392   1.493   1.182  17.601  0.7164  2.5529 -1.0181
  223MPD1     N 3393   1.879   1.309  17.409 -0.1521 -0.5772 -0.1905
  223MPD1    H5 3394   1.977   1.284  17.410  0.7239  2.8604 -0.0187
  223MPD1    N1 3395   1.853   0.892  17.639  0.3703  0.1733 -0.2112
  223MPD1    H6 3396   1.793   0.813  17.664 -0.4816  0.8103 -0.2466
  223MPD1    H7 3397   1.924   0.848  17.580  0.1350 -0.8902  0.2963
  224MPD1     C 3398   3.885   3.653   9.202 -0.7352 -0.1780  0.6377
  224MPD1    C1 3399   3.762   3.681   9.260 -0.2271  0.5234  0.5067
  224MPD1    C2 3400   3.702   3.583   9.335  0.3285 -0.5205 -0.1489
  224MPD1    C3 3401   3.774   3.469   9.379  0.3193  0.3246 -0.2146
  224MPD1    C4 3402   3.901   3.453   9.323 -0.3916 -0.2258 -0.1415
  224MPD1    C5 3403   3.960   3.548   9.245 -0.0502 -0.3539 -0.2007
  224MPD1     H 3404   3.597   3.605   9.354  0.7603 -1.5154  3.3891
  224MPD1    H1 3405   3.954   3.360   9.340  1.5062  0.8328 -0.2945
  224MPD1    H2 3406   3.939   3.724   9.140 -0.5732  0.0621  1.0554
  224MPD1    H3 3407   4.058   3.520   9.209 -0.3790 -2.9853  0.8984
  224MPD1     N 3408   3.726   3.373   9.465  0.2115  0.1430 -0.0504
  224MPD1    H5 3409   3.792   3.299   9.485 -1.0167 -0.2769  2.3770
  224MPD1    N1 3410   3.688   3.792   9.219 -0.5779 -0.3713 -0.0779
  224MPD1    H6 3411   3.740   3.877   9.196 -0.3279 -0.6221 -0.4320
  224MPD1    H7 3412   3.633   3.812   9.302 -1.4586 -2.0409 -0.2591
  225MPD1     C 3413   4.575   4.276  12.965 -0.3814 -0.2172  0.3148
  225MPD1    C1 3414   4.555   4.150  12.913  0.0072 -0.4141  0.0437
  225MPD1    C2 3415   4.430   4.119  12.858 -0.1737 -0.0800 -0.2291
  225MPD1    C3 3416   4.340   4.226  12.824  0.0119 -0.0589 -0.3079
  225MPD1    C4 3417   4.375   4.356  12.870  0.8394  0.3359  0.2028
  225MPD1    C5 3418   4.492   4.380  12.939 -0.1252  0.1299 -0.5229
  225MPD1     H 3419   4.404   4.016  12.838  1.4597 -0.7074  0.9313
  225MPD1    H1 3420   4.322   4.447  12.842 -1.4331 -1.2237 -0.5563
  225MPD1    H2 3421   4.666   4.294  13.020 -0.6051  0.0783  0.5809
  225MPD1    H3 3422   4.526   4.480  12.963  0.2214 -0.3441  0.9148
  225MPD1     N 3423   4.223   4.214  12.748  0.3983  0.2581  0.2285
  225MPD1    H5 3424   4.178   4.302  12.723 -0.9101 -0.7721 -1.0644
  225MPD1    N1 3425   4.642   4.044  12.951  0.0154 -0.5684  0.1649
  225MPD1    H6 3426   0.017   4.067  12.959 -0.3070 -0.0762  2.8598
  225MPD1    H7 3427   4.644   3.972  12.880  0.3885  0.6369 -1.0346
  226MPD1     C 3428   2.989   3.495  10.238  0.1547  0.5214 -0.5978
  226MPD1    C1 3429   3.047   3.563  10.346 -0.3692  0.4080  0.2272
  226MPD1    C2 3430   3.028   3.697  10.352  0.2691  0.1798  0.0227
  226MPD1    C3 3431   2.992   3.765  10.238  0.4722  0.3068  0.0897
  226MPD1    C4 3432   2.964   3.699  10.120  0.5198  0.5435 -0.1022
  226MPD1    C5 3433   2.957   3.565  10.126  0.2365  0.0564 -0.2914
  226MPD1     H 3434   3.046   3.756  10.441  0.4655  0.6518 -0.3292
  226MPD1    H1 3435   2.935   3.753  10.030 -1.6256  0.2805  0.4302
  226MPD1    H2 3436   2.980   3.387  10.235  0.4575  0.4638  0.5225
  226MPD1    H3 3437   2.921   3.516  10.036 -0.7413  2.7481 -1.3655
  226MPD1     N 3438   2.994   3.908  10.241 -0.1491 -0.2350 -0.8235
  226MPD1    H5 3439   3.017   3.946  10.332 -0.9253  0.9770 -1.1319
  226MPD1    N1 3440   3.065   3.482  10.453 -0.4188 -0.4025 -0.3765
  226MPD1    H6 3441   3.128   3.517  10.526 -0.6471 -2.2412  0.6955
  226MPD1    H7 3442   3.101   3.391  10.424  0.0362 -0.2837 -0.1925
  227MPD1     C 3443   2.718   4.324  10.916 -0.6604  0.0005  0.0576
  227MPD1    C1 3444   2.647   4.260  10.813  0.2891  0.7921 -0.3139
  227MPD1    C2 3445   2.712   4.262  10.687 -0.6856 -0.7170 -0.4846
  227MPD1    C3 3446   2.837   4.321  10.666  0.1855  0.0975  0.0661
  227MPD1    C4 3447   2.904   4.379  10.772 -0.4040 -0.0108 -0.3275
  227MPD1    C5 3448   2.845   4.381  10.895  0.5265  0.6926 -0.5057
  227MPD1     H 3449   2.661   4.216  10.604 -0.0436  1.1472 -1.9065
  227MPD1    H1 3450   3.002   4.425  10.765  0.0146 -0.7820  0.3779
  227MPD1    H2 3451   2.674   4.350  11.012 -1.8571  1.4571 -0.8642
  227MPD1    H3 3452   2.887   4.433  10.980  2.1417 -1.0481 -0.2315
  227MPD1     N 3453   2.888   4.312  10.536  0.1564  0.2089  0.2093
  227MPD1    H5 3454   2.827   4.274  10.464  1.9268  2.4896 -2.4884
  227MPD1    N1 3455   2.509   4.239  10.837  0.0992  0.1574  0.1131
  227MPD1    H6 3456   2.461   4.329  10.835  1.6253  0.9296 -1.3050
  227MPD1    H7 3457   2.501   4.216  10.936  0.5781 -0.7973 -0.0703
  228MPD1     C 3458   0.677   1.955  12.488 -0.3610  0.0659 -0.2308
  228MPD1    C1 3459   0.554   1.981  12.444 -0.3209  0.5845  0.3610
  228MPD1    C2 3460   0.444   1.927  12.510 -0.8372  0.2958  0.4578
  228MPD1    C3 3461   0.457   1.841  12.615 -0.2140  0.9527  0.1294
  228MPD1    C4 3462   0.583   1.799  12.646 -0.2470  0.7699 -0.0517
  228MPD1    C5 3463   0.691   1.856  12.583  0.0623  0.3837  0.5824
  228MPD1     H 3464   0.344   1.954  12.477 -0.7278 -0.1065 -0.2147
  228MPD1    H1 3465   0.614   1.723  12.717 -0.7622 -0.5402 -1.2402
  228MPD1    H2 3466   0.769   1.987  12.441  0.6101  0.5756  2.0078
  228MPD1    H3 3467   0.786   1.816  12.615 -0.1260  0.8533  1.7268
  228MPD1     N 3468   0.341   1.793  12.679  0.4963 -0.0824  0.6104
  228MPD1    H5 3469   0.264   1.858  12.670  0.1910 -0.3490  1.2472
  228MPD1    N1 3470   0.530   2.093  12.360 -0.0862 -0.6201 -0.5801
  228MPD1    H6 3471   0.611   2.110  12.301 -0.7209 -1.2103 -1.6181
  228MPD1    H7 3472   0.447   2.087  12.301  0.3212 -0.7191 -1.1388
  229MPD1     C 3473   0.182   0.542  15.768 -0.1657 -0.4526 -0.0934
  229MPD1    C1 3474   0.167   0.508  15.636 -0.4311  0.4755 -0.1918
  229MPD1    C2 3475   0.261   0.427  15.579 -0.3067 -0.0873  0.8161
  229MPD1    C3 3476   0.380   0.392  15.644  0.6687  0.1819  0.0093
  229MPD1    C4 3477   0.393   0.421  15.774  0.2811 -0.3211  0.0666
  229MPD1    C5 3478   0.297   0.503  15.839  0.0910  0.4729  0.3017
  229MPD1     H 3479   0.244   0.420  15.472 -0.3228  2.6096  0.6331
  229MPD1    H1 3480   0.485   0.396  15.826  0.1765  0.6236  0.7139
  229MPD1    H2 3481   0.118   0.619  15.808  1.2073 -0.9895  3.1687
  229MPD1    H3 3482   0.301   0.534  15.943  0.4336  0.3823  0.3153
  229MPD1     N 3483   0.485   0.326  15.578 -0.4960  0.5936  0.2023
  229MPD1    H5 3484   0.563   0.295  15.634 -1.1871 -0.2052  0.7191
  229MPD1    N1 3485   0.038   0.521  15.577  0.6461 -0.0154 -0.1393
  229MPD1    H6 3486   0.034   0.508  15.476  2.4265 -0.5349 -0.1339
  229MPD1    H7 3487   0.008   0.615  15.602  1.6222 -0.4291  2.5847
  230MPD1     C 3488   1.280   4.576  15.825 -0.9109 -0.1359 -0.4278
  230MPD1    C1 3489   1.300   4.550  15.692  0.4710  0.1298  0.1516
  230MPD1    C2 3490   1.195   4.586  15.606  0.4725  0.6529  0.3035
  230MPD1    C3 3491   1.081   4.651  15.653 -0.1385 -0.0342  0.0467
  230MPD1    C4 3492   1.073   4.673  15.791  1.1649  0.4383  1.3396
  230MPD1    C5 3493   1.176   4.649  15.873  0.3274 -0.3760 -0.3957
  230MPD1     H 3494   1.201   4.552  15.503 -1.7540  0.6248  0.1683
  230MPD1    H1 3495   0.985   4.717  15.837  2.1861  0.4441  3.2768
  230MPD1    H2 3496   1.353   4.560  15.903 -1.1092  1.4565  0.0902
  230MPD1    H3 3497   1.176   4.671  15.979 -0.1802 -0.6447 -0.3420
  230MPD1     N 3498   0.972   4.687  15.569 -0.0778 -0.5973 -0.4288
  230MPD1    H5 3499   0.989   4.680  15.469  0.4068 -0.6149 -0.3448
  230MPD1    N1 3500   1.393   4.458  15.648  0.0882 -0.0252 -0.0192
  230MPD1    H6 3501   1.473   4.485  15.706 -3.6139  4.3618  3.0804
  230MPD1    H7 3502   1.412   4.457  15.549 -0.1382 -1.7697 -0.0387
  231MPD1     C 3503   3.369   2.171  15.692 -0.2047  0.2794 -0.5162
  231MPD1    C1 3504   3.397   2.093  15.584 -0.3612 -0.4288  0.1538
  231MPD1    C2 3505   3.518   2.112  15.516  0.1971 -0.1804  0.2322
  231MPD1    C3 3506   3.604   2.208  15.563  0.7033 -0.0501 -0.0557
  231MPD1    C4 3507   3.579   2.278  15.676 -0.0123  0.8524  0.6580
  231MPD1    C5 3508   3.455   2.273  15.730  0.1020  0.3684 -0.2293
  231MPD1     H 3509   3.536   2.082  15.413  0.6553 -2.7815  1.0937
  231MPD1    H1 3510   3.642   2.346  15.732 -0.4554 -0.2247  2.4901
  231MPD1    H2 3511   3.269   2.163  15.733 -0.9471  1.5879 -2.0555
  231MPD1    H3 3512   3.431   2.345  15.807  0.5092  0.7459 -0.4584
  231MPD1     N 3513   3.720   2.230  15.489  0.1722  0.5637 -0.5820
  231MPD1    H5 3514   3.739   2.171  15.408  0.0617 -0.6308  0.2590
  231MPD1    N1 3515   3.298   2.012  15.525  1.0801 -0.3391 -0.3033
  231MPD1    H6 3516   3.224   1.990  15.592  1.1446  0.3280 -0.0163
  231MPD1    H7 3517   3.343   1.924  15.502 -0.0485 -0.4651 -2.0571
  232MPD1     C 3518   0.969   0.446   0.678  0.8396 -0.0565  0.4825
  232MPD1    C1 3519   0.900   0.544   0.607  0.1509 -0.0168 -0.6436
  232MPD1    C2 3520   0.768   0.517   0.575  1.0228  0.1320 -0.5982
  232MPD1    C3 3521   0.707   0.396   0.594  0.4753 -0.1948 -0.0565
  232MPD1    C4 3522   0.776   0.303   0.667  0.0879 -0.1177 -0.4985
  232MPD1    C5 3523   0.900   0.332   0.716  0.5881  0.1040  0.0615
  232MPD1     H 3524   0.695   0.590   0.541  1.2206  0.9126  0.6362
  232MPD1    H1 3525   0.732   0.209   0.700 -1.2720  0.6903 -0.0088
  232MPD1    H2 3526   1.071   0.450   0.714  1.0044  0.5139 -0.0498
  232MPD1    H3 3527   0.959   0.260   0.771  0.4082  2.1301  2.9207
  232MPD1     N 3528   0.569   0.379   0.561 -0.4968  0.4750  0.0481
  232MPD1    H5 3529   0.509   0.454   0.530  0.5429  1.0106 -0.6603
  232MPD1    N1 3530   0.945   0.677   0.613 -0.8933 -0.3340 -0.3209
  232MPD1    H6 3531   0.906   0.724   0.532 -2.0667 -2.4224 -0.9689
  232MPD1    H7 3532   1.046   0.688   0.605 -0.7093 -0.4622  1.8493
  233MPD1     C 3533   2.533   0.568   1.975  0.0918  0.6646 -0.3028
  233MPD1    C1 3534   2.655   0.501   1.963 -0.0970  0.0284  1.1076
  233MPD1    C2 3535   2.769   0.576   1.930 -0.0235  0.6985 -0.1102
  233MPD1    C3 3536   2.762   0.709   1.885  0.1406 -0.7228 -0.3733
  233MPD1    C4 3537   2.637   0.774   1.893  0.7356  0.1510  0.2590
  233MPD1    C5 3538   2.534   0.704   1.953 -0.5185  0.4581 -0.0571
  233MPD1     H 3539   2.865   0.524   1.925 -1.1291 -1.2057 -1.5908
  233MPD1    H1 3540   2.623   0.872   1.850  0.4955 -0.3435 -0.7898
  233MPD1    H2 3541   2.448   0.507   2.004  1.8386 -0.7473  1.8514
  233MPD1    H3 3542   2.443   0.762   1.959  0.4314  1.8840  0.8629
  233MPD1     N 3543   2.867   0.785   1.826 -0.7563 -0.2827  0.4571
  233MPD1    H5 3544   2.855   0.880   1.792 -1.1214  0.5362  2.8627
  233MPD1    N1 3545   2.660   0.366   1.995 -0.2008 -0.3686  0.3935
  233MPD1    H6 3546   2.579   0.315   1.960 -0.0171 -0.1661 -0.3401
  233MPD1    H7 3547   2.737   0.319   1.947  0.0656  1.3693 -0.8798
  234MPD1     C 3548   0.029   1.877   9.548 -0.6534  0.1123 -0.3434
  234MPD1    C1 3549   4.722   2.014   9.547 -0.3878  0.3087  0.1024
  234MPD1    C2 3550   4.594   2.053   9.574  0.0452 -0.7504 -0.2873
  234MPD1    C3 3551   4.496   1.969   9.623  0.1636 -0.2245 -0.5653
  234MPD1    C4 3552   4.526   1.834   9.638 -0.3299 -0.3167  0.5389
  234MPD1    C5 3553   4.652   1.791   9.598  0.6091 -0.2343  0.0595
  234MPD1     H 3554   4.564   2.154   9.551  1.9872  0.1702  1.1914
  234MPD1    H1 3555   4.449   1.763   9.667 -0.8304 -0.1823 -0.4268
  234MPD1    H2 3556   0.125   1.837   9.518 -0.3469  0.5239  0.0774
  234MPD1    H3 3557   4.667   1.684   9.590 -0.1370 -0.3533  0.2289
  234MPD1     N 3558   4.363   2.024   9.649 -0.0781  0.1019 -0.1269
  234MPD1    H5 3559   4.345   2.122   9.631 -2.7687 -0.4860 -0.6159
  234MPD1    N1 3560   0.093   2.097   9.483  0.3266 -0.2187  0.3764
  234MPD1    H6 3561   0.092   2.196   9.506 -0.8957 -0.6373  2.1577
  234MPD1    H7 3562   0.187   2.062   9.502  0.6662  0.8625  0.6835
  235MPD1     C 3563   3.527   3.724  10.673 -0.0779  0.9120  0.2718
  235MPD1    C1 3564   3.516   3.756  10.537 -0.6072 -0.9345  0.0482
  235MPD1    C2 3565   3.626   3.818  10.474 -0.1549  0.1651 -0.7345
  235MPD1    C3 3566   3.746   3.835  10.539 -0.3730 -0.5169  0.2793
  235MPD1    C4 3567   3.758   3.791  10.673 -0.3310  0.2169 -0.5203
  235MPD1    C5 3568   3.651   3.729  10.729  0.0681  0.9200 -0.8044
  235MPD1     H 3569   3.613   3.864  10.376 -2.0461  0.9228 -0.1176
  235MPD1    H1 3570   3.847   3.806  10.734 -0.0855  0.0469 -0.8363
  235MPD1    H2 3571   3.442   3.693  10.733  0.7213  0.0477  0.9600
  235MPD1    H3 3572   3.656   3.708  10.835  0.4229 -2.4401 -1.5106
  235MPD1     N 3573   3.857   3.900  10.488  0.1929  0.2675  0.2435
  235MPD1    H5 3574   3.843   3.924  10.391 -1.2204  1.5676  0.7840
  235MPD1    N1 3575   3.390   3.746  10.473  0.4774 -0.1873 -0.1138
  235MPD1    H6 3576   3.408   3.738  10.374 -1.9683 -1.4914 -0.4356
  235MPD1    H7 3577   3.333   3.672  10.513  0.3080  0.2677  0.5028
  236MPD1     C 3578   4.380   0.230  10.246 -0.0719 -0.1214 -0.6314
  236MPD1    C1 3579   4.354   0.100  10.287  0.5760 -0.3263  0.3354
  236MPD1    C2 3580   4.448   0.037  10.366 -0.6098 -0.2205  0.3116
  236MPD1    C3 3581   4.572   0.095  10.389 -0.4108 -0.1521 -0.1813
  236MPD1    C4 3582   4.602   0.220  10.341 -0.4179  0.0872  0.0679
  236MPD1    C5 3583   4.503   0.286  10.271 -0.0416  0.2987  0.0019
  236MPD1     H 3584   4.422   4.665  10.412  2.4364 -0.7479  0.9296
  236MPD1    H1 3585   4.689   0.279  10.366  0.0973 -1.0107  0.8659
  236MPD1    H2 3586   4.308   0.295  10.197  0.7537  0.9595 -0.4204
  236MPD1    H3 3587   4.520   0.390  10.244 -2.0559  0.8150  0.7011
  236MPD1     N 3588   4.677   0.035  10.455  0.5751  0.3149 -0.1484
  236MPD1    H5 3589   0.025   0.102  10.482  0.2940  0.1764  0.9531
  236MPD1    N1 3590   4.225   0.060  10.299 -0.5328  0.3232  0.2976
  236MPD1    H6 3591   4.222   4.681  10.305 -2.5364  0.3376 -0.3522
  236MPD1    H7 3592   4.158   0.083  10.226  1.8340 -0.8990 -2.2481
  237MPD1     C 3593   4.098   3.287  14.850 -0.5748 -0.1588 -0.3688
  237MPD1    C1 3594   4.079   3.291  14.984  0.2811 -0.4768 -0.1487
  237MPD1    C2 3595   3.949   3.314  15.023 -0.1370  0.4471 -0.4460
  237MPD1    C3 3596   3.841   3.346  14.943 -0.0911  0.3018 -0.7018
  237MPD1    C4 3597   3.870   3.350  14.808  0.2343  0.6301  0.0363
  237MPD1    C5 3598   3.994   3.309  14.769 -0.1205 -0.4210  0.2579
  237MPD1     H 3599   3.923   3.284  15.124  0.5402  0.6056 -0.2264
  237MPD1    H1 3600   3.791   3.382  14.741 -1.4970  0.1602  1.8464
  237MPD1    H2 3601   4.191   3.250  14.808 -0.5126  0.8029 -1.0873
  237MPD1    H3 3602   4.017   3.304  14.663 -2.6044 -2.0317 -0.2160
  237MPD1     N 3603   3.714   3.392  14.994  0.0279  0.5242 -0.3383
  237MPD1    H5 3604   3.644   3.423  14.928  1.0955  1.6117 -0.9480
  237MPD1    N1 3605   4.180   3.237  15.068  0.2260 -0.7584 -0.1181
  237MPD1    H6 3606   4.168   3.257  15.167 -3.0358  1.3270 -0.9283
  237MPD1    H7 3607   4.274   3.254  15.032 -0.1324 -0.6553 -0.9961
  238MPD1     C 3608   1.043   1.464  15.622 -0.6357  0.5896  0.2082
  238MPD1    C1 3609   0.946   1.453  15.721  0.9089 -0.0095  0.3661
  238MPD1    C2 3610   0.844   1.542  15.724  0.8965  0.1228  0.2237
  238MPD1    C3 3611   0.847   1.656  15.646 -0.1723 -0.2530 -0.5890
  238MPD1    C4 3612   0.953   1.676  15.552 -0.2204 -0.9695 -0.0251
  238MPD1    C5 3613   1.043   1.576  15.541 -0.2871 -0.4407  0.7770
  238MPD1     H 3614   0.771   1.547  15.804 -1.0815  1.0947 -1.6390
  238MPD1    H1 3615   0.951   1.759  15.483  0.7216  0.1562  1.3031
  238MPD1    H2 3616   1.111   1.380  15.619 -0.5447  0.6131  1.5277
  238MPD1    H3 3617   1.120   1.590  15.466 -0.2231  0.6004  1.0383
  238MPD1     N 3618   0.753   1.755  15.645 -0.6879  0.2594 -0.2222
  238MPD1    H5 3619   0.767   1.838  15.588 -0.2101  1.3662  1.5143
  238MPD1    N1 3620   0.933   1.336  15.804 -0.2540 -0.2943  0.4781
  238MPD1    H6 3621   1.025   1.294  15.810 -0.3127 -0.7886 -2.0422
  238MPD1    H7 3622   0.894   1.343  15.898 -1.0797  1.8695 -0.0159
  239MPD1     C 3623   1.211   3.482  15.622  0.1862  0.1027 -0.1334
  239MPD1    C1 3624   1.242   3.364  15.563  0.4604  0.2022 -0.3101
  239MPD1    C2 3625   1.173   3.319  15.451 -0.1553 -1.0208 -0.2849
  239MPD1    C3 3626   1.080   3.406  15.385  0.4099  0.2742  0.0417
  239MPD1    C4 3627   1.053   3.531  15.446 -0.3843 -0.4995  0.3323
  239MPD1    C5 3628   1.125   3.567  15.562  0.0059 -0.2455  0.2435
  239MPD1     H 3629   1.198   3.223  15.407  1.3899 -0.7265 -0.0533
  239MPD1    H1 3630   0.977   3.599  15.409 -0.5613 -0.5501  0.6021
  239MPD1    H2 3631   1.270   3.515  15.706 -0.4931  0.4245  0.2150
  239MPD1    H3 3632   1.106   3.670  15.593  0.4872 -0.9843  2.9552
  239MPD1     N 3633   1.011   3.374  15.270 -0.0661  0.9173 -0.8773
  239MPD1    H5 3634   0.946   3.445  15.236 -2.5737 -0.6083  0.7178
  239MPD1    N1 3635   1.324   3.276  15.637 -0.3864  0.5534  0.1577
  239MPD1    H6 3636   1.374   3.301  15.722  2.0438  1.3694 -1.5157
  239MPD1    H7 3637   1.375   3.205  15.587 -2.3666 -1.2958  0.7514
  240MPD1     C 3638   1.198   2.430  14.891 -0.2936  0.5088 -0.2496
  240MPD1    C1 3639   1.214   2.409  15.024 -0.1999  0.2584  0.6416
  240MPD1    C2 3640   1.088   2.428  15.091 -0.6250  0.1940 -0.5277
  240MPD1    C3 3641   0.979   2.494  15.036 -0.2202  0.2757  0.2973
  240MPD1    C4 3642   0.975   2.527  14.902 -0.7363 -0.3511  0.4512
  240MPD1    C5 3643   1.092   2.495  14.833  0.0832 -0.3016  0.5163
  240MPD1     H 3644   1.082   2.396  15.194 -1.5634 -1.0242 -0.9514
  240MPD1    H1 3645   0.891   2.566  14.846 -1.2145  1.1725  2.1993
  240MPD1    H2 3646   1.278   2.410  14.820 -1.4329  0.6980 -1.5838
  240MPD1    H3 3647   1.090   2.513  14.726  3.0538  1.1705  0.7022
  240MPD1     N 3648   0.863   2.493  15.113  1.0703 -0.5247 -0.1385
  240MPD1    H5 3649   0.870   2.465  15.211 -0.0822  0.1250  0.1261
  240MPD1    N1 3650   1.317   2.335  15.089  0.0759 -0.2644 -0.7982
  240MPD1    H6 3651   1.403   2.344  15.035 -0.4807 -2.5917 -2.0448
  240MPD1    H7 3652   1.328   2.369  15.185  2.4051  2.0991 -1.8738
  241MPD1     C 3653   0.507   2.362  15.975 -0.2300 -0.8950 -0.4460
  241MPD1    C1 3654   0.543   2.247  15.910  0.3614 -1.4758  0.0131
  241MPD1    C2 3655   0.545   2.261  15.771  0.2856 -0.2092 -0.7591
  241MPD1    C3 3656   0.497   2.382  15.714 -0.3346 -0.1606  0.3573
  241MPD1    C4 3657   0.440   2.485  15.786  0.0913  0.7571 -0.9964
  241MPD1    C5 3658   0.454   2.471  15.918 -0.4408 -0.5643  0.1684
  241MPD1     H 3659   0.594   2.186  15.709 -2.4250 -1.2216 -1.6400
  241MPD1    H1 3660   0.396   2.570  15.734 -1.5652  2.1366  2.6889
  241MPD1    H2 3661   0.515   2.373  16.082 -2.2254  1.8707 -0.5773
  241MPD1    H3 3662   0.413   2.549  15.982  1.9288 -1.1183  2.3884
  241MPD1     N 3663   0.498   2.401  15.572  0.6152 -0.0594 -0.7276
  241MPD1    H5 3664   0.451   2.480  15.528 -0.4035  1.2658  2.7570
  241MPD1    N1 3665   0.608   2.136  15.968 -0.1984  0.3169  0.5859
  241MPD1    H6 3666   0.593   2.123  16.068 -2.8396 -1.9646 -0.1233
  241MPD1    H7 3667   0.568   2.051  15.930  0.8453  0.5905 -1.1380
  242MPD1     C 3668   4.439   1.441  16.361 -0.3485  0.0258  0.5210
  242MPD1    C1 3669   4.565   1.385  16.389  0.1441 -0.0802 -0.2322
  242MPD1    C2 3670   4.626   1.301  16.298 -1.1797 -0.5671 -0.1144
  242MPD1    C3 3671   4.558   1.259  16.182  0.2520 -0.0688  0.0352
  242MPD1    C4 3672   4.443   1.329  16.149  0.0257  0.0777  0.4703
  242MPD1    C5 3673   4.383   1.413  16.240  0.2612  0.5239  0.0152
  242MPD1     H 3674   0.002   1.266  16.322 -1.0777 -0.1437  0.0824
  242MPD1    H1 3675   4.386   1.317  16.058 -0.6602  0.7027  0.8169
  242MPD1    H2 3676   4.399   1.507  16.438 -0.3226 -1.5025  1.8348
  242MPD1    H3 3677   4.296   1.472  16.215 -0.4366 -0.2374  0.6416
  242MPD1     N 3678   4.609   1.166  16.090 -0.2520 -0.4167  0.0115
  242MPD1    H5 3679   4.559   1.152  16.003 -1.7744  0.5601  0.7426
  242MPD1    N1 3680   4.627   1.417  16.513  0.1470 -0.0590  0.4705
  242MPD1    H6 3681   0.004   1.424  16.496 -0.3253  0.0679 -2.2637
  242MPD1    H7 3682   4.602   1.509  16.550 -0.0870 -0.0056  0.1856
  243MPD1     C 3683   2.176   0.679  17.613 -0.5613  0.1222  0.1597
  243MPD1    C1 3684   2.084   0.676  17.512 -1.0618  0.4806 -0.0561
  243MPD1    C2 3685   1.995   0.562  17.498  0.3411  0.1264  0.6744
  243MPD1    C3 3686   2.010   0.450  17.570  0.0983 -0.2474  0.1205
  243MPD1    C4 3687   2.098   0.444  17.672 -0.1877  0.9373  0.2649
  243MPD1    C5 3688   2.182   0.560  17.690  0.0774  0.2453  1.1037
  243MPD1     H 3689   1.930   0.564  17.411  0.2006  0.7992  0.7978
  243MPD1    H1 3690   2.119   0.350   0.029  0.7656  0.2752 -1.3501
  243MPD1    H2 3691   2.234   0.767  17.639  2.0781 -1.3799 -0.5976
  243MPD1    H3 3692   2.260   0.552   0.070  1.5992 -0.6666 -0.6159
  243MPD1     N 3693   1.923   0.347  17.545  0.0642 -0.0628  0.5568
  243MPD1    H5 3694   1.876   0.343  17.456 -0.4781 -0.5575  0.8684
  243MPD1    N1 3695   2.062   0.793  17.437 -0.6731  0.3359 -0.2581
  243MPD1    H6 3696   2.033   0.791  17.339 -0.4474  2.3070 -0.3669
  243MPD1    H7 3697   2.135   0.863  17.451 -1.8182  1.0839  1.8744
  244MPD1     C 3698   1.328   4.188   0.139  0.3150 -0.1796  0.3022
  244MPD1    C1 3699   1.370   4.166   0.009 -0.3478  0.0327 -0.0727
  244MPD1    C2 3700   1.458   4.265  17.648  0.9174  0.4671  0.2977
  244MPD1    C3 3701   1.506   4.376   0.026 -0.3221 -0.2330 -0.3584
  244MPD1    C4 3702   1.466   4.387   0.153  0.5731  0.3060 -0.1843
  244MPD1    C5 3703   1.369   4.298   0.209  0.6637 -0.3664  0.1300
  244MPD1     H 3704   1.487   4.258  17.544 -1.3690 -0.0885 -0.2913
  244MPD1    H1 3705   1.493   4.471   0.215 -1.6057 -0.2601  1.5418
  244MPD1    H2 3706   1.245   4.134   0.183 -0.0445  0.8819  0.9050
  244MPD1    H3 3707   1.328   4.312   0.309  1.0229 -0.8821  0.3479
  244MPD1     N 3708   1.586   4.467  17.645 -0.1817  0.4459 -0.3891
  244MPD1    H5 3709   1.588   4.454  17.545  0.0723 -2.1046 -0.0678
  244MPD1    N1 3710   1.317   4.067  17.626 -0.1029  0.4708  0.2271
  244MPD1    H6 3711   1.381   4.038  17.552  2.0204 -0.3050  2.3767
  244MPD1    H7 3712   1.294   3.989  17.688  0.2094  0.5222  0.4099
  245MPD1     C 3713   3.530   0.509  13.242  0.2819  0.7928  0.2072
  245MPD1    C1 3714   3.604   0.498  13.359  0.1652 -0.3808 -0.1753
  245MPD1    C2 3715   3.650   0.614  13.415  0.1008 -0.0204  0.0198
  245MPD1    C3 3716   3.643   0.732  13.351 -0.8104 -0.0341 -0.0171
  245MPD1    C4 3717   3.585   0.748  13.227 -0.6723 -0.0571 -0.0157
  245MPD1    C5 3718   3.519   0.631  13.183 -0.4977  0.3062 -0.0096
  245MPD1     H 3719   3.720   0.610  13.498  1.6467 -2.4262 -1.3854
  245MPD1    H1 3720   3.564   0.840  13.173 -1.1028 -0.2229 -0.1299
  245MPD1    H2 3721   3.492   0.421  13.191  1.5695 -0.6888  1.8060
  245MPD1    H3 3722   3.470   0.642  13.087 -0.0762  0.4555 -0.2089
  245MPD1     N 3723   3.674   0.845  13.421  0.0568 -0.3934  0.4798
  245MPD1    H5 3724   3.671   0.835  13.522 -0.8848  0.0911  0.5043
  245MPD1    N1 3725   3.604   0.380  13.439  0.1431 -0.7759 -0.4549
  245MPD1    H6 3726   3.691   0.376  13.493  0.4200 -0.5359 -0.8811
  245MPD1    H7 3727   3.596   0.300  13.377 -2.6397  0.3121 -1.4818
  246MPD1     C 3728   3.256   2.737   9.399  0.5071 -0.2582  0.4919
  246MPD1    C1 3729   3.349   2.817   9.339  0.2212  0.4675 -0.0565
  246MPD1    C2 3730   3.473   2.759   9.310  0.5690  0.6443  0.1870
  246MPD1    C3 3731   3.512   2.633   9.350  0.6412 -0.1495  1.0697
  246MPD1    C4 3732   3.414   2.559   9.413  0.5969  0.6860  1.0150
  246MPD1    C5 3733   3.296   2.615   9.446 -0.2335 -0.3362 -0.3397
  246MPD1     H 3734   3.547   2.810   9.249  0.5130 -0.7955 -1.0753
  246MPD1    H1 3735   3.428   2.462   9.460 -1.7046  1.6232  3.6161
  246MPD1    H2 3736   3.152   2.766   9.410  0.7009  0.2776  0.9063
  246MPD1    H3 3737   3.224   2.556   9.502 -0.1080 -1.8322 -1.7582
  246MPD1     N 3738   3.641   2.589   9.317  0.1984  0.8416  0.0637
  246MPD1    H5 3739   3.710   2.654   9.282  0.1091  1.4474  1.0084
  246MPD1    N1 3740   3.300   2.934   9.280  0.3102 -0.3999 -0.0700
  246MPD1    H6 3741   3.223   2.977   9.330  0.3790 -1.5711  1.0462
  246MPD1    H7 3742   3.373   3.003   9.263 -1.8505  2.1558  0.9904
  247MPD1     C 3743   2.606   4.430  17.103 -0.6049  0.8504  0.1155
  247MPD1    C1 3744   2.609   4.306  17.037 -0.4878  0.2514 -0.2341
  247MPD1    C2 3745   2.640   4.295  16.899  0.3446 -0.3628 -0.1989
  247MPD1    C3 3746   2.668   4.406  16.827  0.3664 -0.8014 -0.0746
  247MPD1    C4 3747   2.654   4.527  16.893 -0.3386 -0.3061  0.1338
  247MPD1    C5 3748   2.629   4.540  17.027 -0.4766 -0.2600 -0.7709
  247MPD1     H 3749   2.639   4.200  16.847 -0.6111  0.0439 -0.9356
  247MPD1    H1 3750   2.665   4.619  16.836  1.4088 -0.4700  0.2142
  247MPD1    H2 3751   2.590   4.432  17.210  1.7514  0.9516  0.4656
  247MPD1    H3 3752   2.623   4.638  17.073  1.7697 -0.7097  0.5105
  247MPD1     N 3753   2.704   4.384  16.682  0.4516  0.1980  0.4124
  247MPD1    H5 3754   2.721   4.292  16.645  0.7737  0.5321 -0.2714
  247MPD1    N1 3755   2.571   4.200  17.119  0.1625 -0.1524  1.0593
  247MPD1    H6 3756   2.625   4.215  17.204  1.3663  1.4526 -0.0089
  247MPD1    H7 3757   2.601   4.106  17.093  0.3964 -0.0124  0.8250
  248MPD1     C 3758   4.003   3.641   1.817 -0.3590  1.1678 -0.0426
  248MPD1    C1 3759   3.942   3.733   1.900 -0.1894  0.1353 -0.3027
  248MPD1    C2 3760   3.844   3.820   1.857 -0.2087 -0.2080  0.0221
  248MPD1    C3 3761   3.810   3.819   1.723 -0.0370 -1.0909  0.4094
  248MPD1    C4 3762   3.874   3.728   1.638 -0.0563  0.5118 -0.1149
  248MPD1    C5 3763   3.966   3.640   1.683  0.1771 -0.4743 -0.2760
  248MPD1     H 3764   3.796   3.895   1.919  1.2402  0.7303 -0.0035
  248MPD1    H1 3765   3.866   3.727   1.530 -0.0340  0.0633 -0.1109
  248MPD1    H2 3766   4.072   3.563   1.846 -0.4121  1.3985  0.6945
  248MPD1    H3 3767   4.011   3.579   1.606  0.1439  1.6747 -1.9986
  248MPD1     N 3768   3.710   3.910   1.673  0.3266  0.1557 -0.5750
  248MPD1    H5 3769   3.661   3.967   1.741  0.8013 -0.5818  0.3781
  248MPD1    N1 3770   3.993   3.749   2.028 -0.3745  0.0388 -0.4969
  248MPD1    H6 3771   4.003   3.654   2.065  0.6027  0.4099  0.1963
  248MPD1    H7 3772   3.945   3.810   2.094 -1.5225 -1.1365 -0.2306
  249MPD1     C 3773   1.686   2.236  10.447  0.6017  0.7048  0.6061
  249MPD1    C1 3774   1.586   2.333  10.451 -0.0756  0.1817  0.1514
  249MPD1    C2 3775   1.544   2.396  10.339 -0.0027  0.6955 -0.6281
  249MPD1    C3 3776   1.593   2.361  10.213 -0.0804 -0.3230  0.2542
  249MPD1    C4 3777   1.688   2.263  10.211  0.3487  0.0667  0.0094
  249MPD1    C5 3778   1.734   2.201  10.333  0.7019 -0.9482  0.6917
  249MPD1     H 3779   1.478   2.479  10.362 -1.6724 -0.2317 -2.0414
  249MPD1    H1 3780   1.732   2.232  10.117  3.7034  1.4141  1.1374
  249MPD1    H2 3781   1.727   2.193  10.538 -0.3755 -3.3135 -0.8707
  249MPD1    H3 3782   1.794   2.111  10.324  0.5465 -0.9281 -0.6108
  249MPD1     N 3783   1.541   2.426  10.096 -0.1271 -0.7233  0.4493
  249MPD1    H5 3784   1.480   2.506  10.108 -0.4952 -1.1174  1.1750
  249MPD1    N1 3785   1.570   2.396  10.573  0.5855 -0.0325 -0.5078
  249MPD1    H6 3786   1.474   2.425  10.554  1.0343  0.4130 -2.1130
  249MPD1    H7 3787   1.561   2.326  10.647 -0.1979  1.5554  0.9019
  250MPD2     C 3788   2.428   3.490  12.710 -0.0474 -0.2740 -0.5528
  250MPD2    C1 3789   2.315   3.538  12.768  1.1104 -0.4742  0.4246
  250MPD2    C2 3790   2.209   3.452  12.796  0.2725 -0.3958 -0.0701
  250MPD2    C3 3791   2.207   3.321  12.752  0.2840 -0.4641  0.1358
  250MPD2    C4 3792   2.324   3.268  12.699 -0.0077  0.0385  0.4393
  250MPD2    C5 3793   2.424   3.356  12.674 -0.3658 -0.0201  0.0004
  250MPD2     H 3794   2.117   3.481  12.847 -1.1327 -0.9051 -2.3035
  250MPD2    H1 3795   2.344   3.165  12.671 -1.8063 -0.0949 -0.3442
  250MPD2    H2 3796   2.514   3.550  12.682  0.1297 -0.2107  0.1247
  250MPD2    H3 3797   2.512   3.308  12.632 -0.3437  0.3204 -0.3318
  250MPD2     N 3798   2.100   3.226  12.760  0.2114  0.3813  0.6730
  250MPD2    H5 3799   2.137   3.138  12.726  1.5732  1.6214 -1.0451
  250MPD2    N1 3800   2.322   3.670  12.818  0.4054 -0.0974  0.1397
  250MPD2    H7 3801   2.410   3.721  12.809  0.8946 -1.0548 -0.5297
  251TMC3    C1 3802   2.264   3.874  12.931 -0.3172  0.4925  0.0063
  251TMC3    C2 3803   2.163   3.964  12.955 -0.0676  0.2993 -0.0915
  251TMC3    C3 3804   2.177   4.045  13.065 -0.1142  1.1296 -0.9775
  251TMC3    C4 3805   2.372   3.868  13.013 -0.4435 -0.1850 -0.1501
  251TMC3    C5 3806   2.376   3.943  13.127 -0.3970  0.5934  0.2399
  251TMC3    C6 3807   2.277   4.026  13.157 -0.4173 -0.3993  0.0036
  251TMC3     C 3808   2.221   3.751  12.866  0.6435  0.2259  0.2705
  251TMC3     O 3809   2.105   3.716  12.874 -0.0165  0.3775  0.8086
  251TMC3     H 3810   2.095   3.997  12.877 -0.3741 -0.2098 -0.0357
  251TMC3    H1 3811   2.450   3.795  12.998 -0.0180  0.2021  0.1868
  251TMC3    H2 3812   2.277   4.066  13.258  0.1820 -1.3534  0.3804
  251TMC3    C7 3813   2.426   3.868  13.240 -0.3706 -0.1726 -0.3317
  251TMC3    C8 3814   2.057   4.095  13.125  0.2409 -0.2640 -0.9217
  251TMC3    O1 3815   2.393   3.751  13.242  0.0310  0.0880 -0.2226
  251TMC3    O2 3816   2.074   4.191  13.196 -0.0372 -0.4323  0.3983
  252TMC3    C1 3817   2.367   0.244   9.385 -0.3868  0.5560  0.3803
  252TMC3    C2 3818   2.487   0.184   9.380  0.4305 -0.2604 -0.0368
  252TMC3    C3 3819   2.494   0.064   9.310  0.0325  0.3999  0.0781
  252TMC3    C4 3820   2.255   0.187   9.329 -0.1642 -0.6635 -0.4726
  252TMC3    C5 3821   2.261   0.057   9.287  0.2011 -0.1755  0.3770
  252TMC3    C6 3822   2.382   4.722   9.264 -0.2388  0.2697  0.8428
  252TMC3     C 3823   2.354   0.384   9.403 -0.3889  0.6335  0.3749
  252TMC3     O 3824   2.244   0.427   9.429 -0.2639  0.6168  0.1006
  252TMC3     H 3825   2.575   0.227   9.427  1.6494 -0.3007 -2.2868
  252TMC3    H1 3826   2.159   0.237   9.324 -0.2549 -0.6894  1.2352
  252TMC3    H2 3827   2.401   4.620   9.231 -2.6509 -0.4741  1.7671
  252TMC3    C7 3828   2.137   4.703   9.288 -0.3936 -0.3376 -1.1697
  252TMC3    C8 3829   2.605   4.698   9.324  0.1226 -0.0537 -0.2201
  252TMC3    O1 3830   2.036   0.052   9.278  0.2137  0.3210  0.2124
  252TMC3    O2 3831   2.636   4.625   9.227  0.4596 -0.0189 -0.4994
  253MPD2     C 3832   3.342   3.778  15.563 -1.1822  0.7643  1.2307
  253MPD2    C1 3833   3.225   3.708  15.541  0.4930  0.2286 -0.2515
  253MPD2    C2 3834   3.155   3.661  15.647  0.6240  0.0221 -0.3208
  253MPD2    C3 3835   3.208   3.669  15.775 -0.9996  0.9844 -0.3024
  253MPD2    C4 3836   3.327   3.729  15.792 -0.0174  0.8480 -0.3526
  253MPD2    C5 3837   3.398   3.788  15.687 -0.8071 -0.4818  0.3084
  253MPD2     H 3838   3.061   3.609  15.628  0.0085  0.8284  0.5685
  253MPD2    H1 3839   3.361   3.763  15.889 -2.4121  1.3451  0.3182
  253MPD2    H2 3840   3.410   3.823  15.492 -0.9970  0.3823  1.1665
  253MPD2    H3 3841   3.487   3.844  15.713  0.7870 -2.2247 -1.4735
  253MPD2     N 3842   3.138   3.617  15.891  1.1116  0.0838 -0.2125
  253MPD2    H5 3843   3.190   3.616  15.978  2.8993  1.0808 -1.2699
  253MPD2    N1 3844   3.166   3.707  15.408 -0.1749  0.4022 -0.1858
  253MPD2    H7 3845   3.074   3.665  15.404  0.5885 -1.2320 -0.7096
  254TMC3    C1 3846   2.972   3.516  16.016  0.0925  0.0789 -0.4813
  254TMC3    C2 3847   2.837   3.499  16.031 -0.5971 -0.5552  0.5507
  254TMC3    C3 3848   2.787   3.425  16.123  0.2364  0.1713  0.0888
  254TMC3    C4 3849   3.055   3.469  16.105 -0.2654  0.4976 -0.1089
  254TMC3    C5 3850   3.006   3.406  16.213  0.1147  0.2961 -0.2540
  254TMC3    C6 3851   2.875   3.382  16.224  0.6015  0.6151 -0.0674
  254TMC3     C 3852   3.008   3.572  15.893  0.5783  0.2223  0.1326
  254TMC3     O 3853   2.920   3.581  15.809 -0.2194 -0.3375 -0.3607
  254TMC3     H 3854   2.772   3.541  15.955 -1.8174  1.5636  2.7760
  254TMC3    H1 3855   3.163   3.484  16.100 -0.4944  1.4169 -2.3291
  254TMC3    H2 3856   2.839   3.349  16.320 -1.9639  2.8615 -0.2585
  254TMC3    C7 3857   3.079   3.409  16.342  0.3390  0.2655  0.4127
  254TMC3    C8 3858   2.658   3.463  16.175  0.0788 -0.2388 -0.5885
  254TMC3    O1 3859   3.036   3.334  16.424 -0.4377  0.1987 -0.5085
  254TMC3    O2 3860   2.637   3.423  16.288 -0.2641 -0.0265 -0.7778
  255MPD2     C 3861   1.895   1.567   9.085  0.4063 -0.4530  0.0637
  255MPD2    C1 3862   1.870   1.445   9.149 -0.7084  0.8217  0.5745
  255MPD2    C2 3863   1.970   1.348   9.116  0.4211 -0.1486  0.7622
  255MPD2    C3 3864   2.084   1.361   9.043  0.2340 -0.4146 -0.1995
  255MPD2    C4 3865   2.093   1.477   8.974  0.1340  0.6077  0.7469
  255MPD2    C5 3866   2.007   1.578   9.000  1.0988 -0.6423 -0.3976
  255MPD2     H 3867   1.959   1.252   9.166  0.1208  0.2053  1.3828
  255MPD2    H1 3868   2.176   1.506   8.910  0.5845 -0.5038  0.8269
  255MPD2    H2 3869   1.840   1.660   9.093 -0.0838 -0.7295 -0.0950
  255MPD2    H3 3870   2.017   1.671   8.945  0.1215 -0.8035 -0.8363
  255MPD2     N 3871   2.190   1.265   9.051  0.2983 -0.2011  0.2852
  255MPD2    H5 3872   2.178   1.175   9.097 -0.7557  0.1343  0.6827
  255MPD2    N1 3873   1.775   1.439   9.250  0.2938 -0.7574 -0.5822
  255MPD2    H7 3874   1.730   1.528   9.273  0.5198 -1.4470  2.5938
  256TMC3    C1 3875   1.656   1.355   9.422  0.7737  0.3552  0.4773
  256TMC3    C2 3876   1.686   1.469   9.497  0.0989  0.3699 -0.9422
  256TMC3    C3 3877   1.654   1.466   9.628 -0.6314 -0.6828  0.6796
  256TMC3    C4 3878   1.583   1.254   9.479 -0.5100  0.4034 -0.7199
  256TMC3    C5 3879   1.550   1.257   9.606 -0.5818  0.3989  1.0323
  256TMC3    C6 3880   1.592   1.357   9.692 -0.8398  0.6409 -0.1057
  256TMC3     C 3881   1.730   1.321   9.307 -0.2311 -0.5996 -0.1227
  256TMC3     O 3882   1.757   1.207   9.273 -0.3269 -0.5817 -0.3080
  256TMC3     H 3883   1.744   1.552   9.458 -0.2381  0.7996 -0.5250
  256TMC3    H1 3884   1.564   1.163   9.424  1.3420 -1.0865  1.1049
  256TMC3    H2 3885   1.567   1.358   9.797  0.7096  2.7567  0.2421
  256TMC3    C7 3886   1.469   1.138   9.655 -0.0596  0.3772  0.8713
  256TMC3    C8 3887   1.744   1.539   9.718 -0.0298 -0.0582  0.1620
  256TMC3    O1 3888   1.461   1.042   9.584  0.0981  0.2092  0.2378
  256TMC3    O2 3889   1.785   1.473   9.814 -0.6575 -0.2263 -0.3328
  257MPD2     C 3890   1.010   3.648  13.476  0.4246 -0.4576  0.3662
  257MPD2    C1 3891   0.977   3.528  13.410 -0.6112  0.7933  0.6041
  257MPD2    C2 3892   0.874   3.453  13.461 -0.1076  0.4806  0.6116
  257MPD2    C3 3893   0.810   3.481  13.578  0.6272 -0.6339  0.4700
  257MPD2    C4 3894   0.854   3.592  13.647  0.6333  0.2130 -0.1507
  257MPD2    C5 3895   0.952   3.676  13.595 -0.3916 -0.6032 -0.0235
  257MPD2     H 3896   0.860   3.364  13.401 -2.1122  0.7999  0.6164
  257MPD2    H1 3897   0.812   3.619  13.744 -0.0560 -0.3553 -0.2890
  257MPD2    H2 3898   1.073   3.723  13.429 -1.1267  3.0636  3.9599
  257MPD2    H3 3899   0.975   3.770  13.644  0.5738 -0.8090 -0.0770
  257MPD2     N 3900   0.718   3.383  13.625  0.2422  0.5204 -0.0823
  257MPD2    H5 3901   0.703   3.312  13.554  0.9410  0.8089 -0.5174
  257MPD2    N1 3902   1.034   3.485  13.290 -0.1475 -1.0380  0.9680
  257MPD2    H7 3903   0.987   3.409  13.242 -0.1058  0.2028 -1.0337
  258TMC3    C1 3904   0.643   3.243  13.800  0.6805 -0.2961  0.3903
  258TMC3    C2 3905   0.695   3.138  13.728  0.3698 -0.1577 -0.1238
  258TMC3    C3 3906   0.723   3.026  13.801 -0.0220 -0.6610 -0.3463
  258TMC3    C4 3907   0.616   3.241  13.937 -0.2446  0.5409  0.1159
  258TMC3    C5 3908   0.650   3.123  14.001  0.3355 -0.3738  0.6542
  258TMC3    C6 3909   0.708   3.017  13.938  0.0181 -0.1025  0.2113
  258TMC3     C 3910   0.665   3.377  13.751  0.2030 -0.7633 -0.1081
  258TMC3     O 3911   0.671   3.466  13.836 -1.0546  0.6885  0.0792
  258TMC3     H 3912   0.695   3.137  13.620  1.6335  0.9474 -0.1293
  258TMC3    H1 3913   0.567   3.315  13.999 -0.3695 -1.0978  1.9729
  258TMC3    H2 3914   0.723   2.922  13.988  1.8005  0.2641  0.3597
  258TMC3    C7 3915   0.668   3.145  14.144  0.1615  1.1071 -0.3411
  258TMC3    C8 3916   0.735   2.900  13.725  0.4780 -0.2309 -0.1197
  258TMC3    O1 3917   0.619   3.238  14.206 -0.2954  0.0741  0.1911
  258TMC3    O2 3918   0.684   2.805  13.779 -0.5902  0.3077  0.2398
  259MPD2     C 3919   3.638   1.016   0.780 -0.1649 -0.1821 -0.4833
  259MPD2    C1 3920   3.681   0.890   0.806  0.6838 -0.1830 -0.2753
  259MPD2    C2 3921   3.754   0.826   0.707  0.2523  0.2742  0.0188
  259MPD2    C3 3922   3.792   0.885   0.591  0.8913  0.5075  0.4277
  259MPD2    C4 3923   3.748   1.009   0.562 -0.2735  0.8131  0.2774
  259MPD2    C5 3924   3.668   1.069   0.656  0.0008 -0.1012 -0.1596
  259MPD2     H 3925   3.785   0.724   0.724 -0.7554  0.2039  1.3531
  259MPD2    H1 3926   3.761   1.069   0.473  1.3412  0.0452  0.0075
  259MPD2    H2 3927   3.580   1.080   0.845  0.4294  0.4759 -0.6055
  259MPD2    H3 3928   3.638   1.172   0.637 -1.6691 -0.6220 -0.3345
  259MPD2     N 3929   3.886   0.821   0.513  0.3333  0.3233  0.0228
  259MPD2    H5 3930   3.912   0.727   0.543 -1.7891 -0.6495 -1.1531
  259MPD2    N1 3931   3.634   0.822   0.917 -0.2743  0.0353 -0.6145
  259MPD2    H7 3932   3.561   0.857   0.978  0.2326  1.8102 -1.0486
  260TMC3    C1 3933   4.034   0.782   0.338 -0.3007  0.0018 -0.5559
  260TMC3    C2 3934   4.130   0.842   0.266  0.0119  0.1775 -0.3020
  260TMC3    C3 3935   4.224   0.766   0.204  0.5749  0.0793  0.9090
  260TMC3    C4 3936   4.032   0.642   0.356 -0.7615 -0.2382 -0.0044
  260TMC3    C5 3937   4.122   0.572   0.280 -0.3047  0.6439 -0.2158
  260TMC3    C6 3938   4.210   0.633   0.198  0.4245 -0.1770 -0.2824
  260TMC3     C 3939   3.940   0.875   0.395  0.7163  0.5397 -1.3199
  260TMC3     O 3940   3.941   0.993   0.358 -0.3698  0.5827  0.2939
  260TMC3     H 3941   4.133   0.950   0.252 -0.4898  0.2266 -0.0131
  260TMC3    H1 3942   3.953   0.608   0.421  1.2965 -2.5049  1.3197
  260TMC3    H2 3943   4.283   0.576   0.142 -0.4076 -0.2744 -1.2674
  260TMC3    C7 3944   4.156   0.435   0.317 -0.1129 -0.6482 -0.4049
  260TMC3    C8 3945   4.358   0.821   0.207  0.6492  0.6722 -0.6047
  260TMC3    O1 3946   4.209   0.373   0.225  0.5814 -0.0900 -0.1705
  260TMC3    O2 3947   4.368   0.940   0.222 -0.6989  0.5902 -0.0369
  261MPD2     C 3948   1.320   3.279  12.537 -0.1483 -0.2592  0.2848
  261MPD2    C1 3949   1.447   3.327  12.561  0.6851 -0.0917 -0.8519
  261MPD2    C2 3950   1.467   3.461  12.539  0.1551  0.1404 -0.1344
  261MPD2    C3 3951   1.375   3.543  12.479  0.2316  0.3075  0.6356
  261MPD2    C4 3952   1.248   3.498  12.452 -0.2215 -0.2558  0.3439
  261MPD2    C5 3953   1.227   3.366  12.487  0.1649 -0.6644  0.0225
  261MPD2     H 3954   1.562   3.502  12.573 -0.3770 -1.3462  3.1069
  261MPD2    H1 3955   1.176   3.559  12.400 -2.1062 -1.1320  1.9143
  261MPD2    H2 3956   1.288   3.179  12.565 -0.7248 -0.1641 -0.0269
  261MPD2    H3 3957   1.124   3.331  12.485 -0.0872  0.1471 -2.0460
  261MPD2     N 3958   1.430   3.665  12.447  0.3541  0.6955 -0.1702
  261MPD2    H5 3959   1.528   3.674  12.470  0.5264 -0.1391 -0.5791
  261MPD2    N1 3960   1.553   3.253  12.612  0.3830  0.0720 -0.3540
  261MPD2    H7 3961   1.646   3.293  12.617 -0.1915  1.3068  0.3816
  262TMC3    C1 3962   1.455   3.870  12.344  0.1595  0.6540 -1.0069
  262TMC3    C2 3963   1.400   3.961  12.258 -0.2229  0.3836  0.1679
  262TMC3    C3 3964   1.481   4.007  12.152 -0.9786 -0.5002  0.1438
  262TMC3    C4 3965   1.587   3.826  12.329  0.4164  0.3089  0.2801
  262TMC3    C5 3966   1.654   3.868  12.218  0.3814  0.3129 -0.2970
  262TMC3    C6 3967   1.604   3.954  12.129 -0.0566  0.3436  0.2882
  262TMC3     C 3968   1.363   3.764  12.382 -0.0217 -0.2765  0.1475
  262TMC3     O 3969   1.244   3.770  12.350  0.4796  0.1711  0.3632
  262TMC3     H 3970   1.298   3.995  12.276 -1.8184 -2.7223 -2.8445
  262TMC3    H1 3971   1.635   3.767  12.406 -0.4995 -0.7446  0.0363
  262TMC3    H2 3972   1.653   3.984  12.036 -0.3460 -2.1490 -0.6598
  262TMC3    C7 3973   1.777   3.790  12.183  0.1994  0.2463  0.6735
  262TMC3    C8 3974   1.455   4.141  12.094 -0.1714 -0.0569 -0.4945
  262TMC3    O1 3975   1.843   3.743  12.273 -0.0366  0.2890 -0.5595
  262TMC3    O2 3976   1.552   4.185  12.034  0.0753 -0.3092  0.2949
  263MPD2     C 3977   2.459   2.760  11.706  1.0238  0.2305  0.8092
  263MPD2    C1 3978   2.571   2.755  11.624 -0.0654  0.0498 -0.1770
  263MPD2    C2 3979   2.552   2.785  11.487  0.4836  0.7941  0.3192
  263MPD2    C3 3980   2.425   2.831  11.438  0.6586  0.2689  0.3549
  263MPD2    C4 3981   2.325   2.828  11.527  0.0854  0.8720 -0.4100
  263MPD2    C5 3982   2.336   2.798  11.658  0.2305  0.2731 -0.5671
  263MPD2     H 3983   2.629   2.801  11.413 -1.2025  0.4913 -1.4872
  263MPD2    H1 3984   2.222   2.856  11.505 -0.9790 -2.1811  0.6351
  263MPD2    H2 3985   2.449   2.748  11.814 -1.2443 -1.5386  0.4023
  263MPD2    H3 3986   2.247   2.796  11.721  0.1106 -2.7808 -0.8374
  263MPD2     N 3987   2.422   2.902  11.313  0.1513  0.4604 -0.2285
  263MPD2    H5 3988   2.503   2.892  11.253 -1.1117  1.7835 -2.1566
  263MPD2    N1 3989   2.696   2.714  11.674 -0.0612 -0.4304  0.0881
  263MPD2    H7 3990   2.694   2.671  11.766 -1.8713  2.2047  1.2634
  264TMC3    C1 3991   2.386   3.084  11.184 -0.0314  0.0547  0.2703
  264TMC3    C2 3992   2.447   3.195  11.239  0.3123 -0.1677  0.8303
  264TMC3    C3 3993   2.541   3.263  11.168  0.5113  0.3551 -0.1131
  264TMC3    C4 3994   2.420   3.030  11.069  0.2222  0.4757 -0.2477
  264TMC3    C5 3995   2.520   3.104  10.997 -0.3355 -0.3858 -0.5276
  264TMC3    C6 3996   2.573   3.218  11.044 -0.4282 -0.7653  0.6928
  264TMC3     C 3997   2.333   3.004  11.285  0.0104 -0.1572  0.9498
  264TMC3     O 3998   2.261   3.051  11.368 -0.1305 -0.1887 -0.3747
  264TMC3     H 3999   2.417   3.223  11.339  1.3924 -3.3495  2.0387
  264TMC3    H1 4000   2.372   2.939  11.037 -0.2806  0.8894 -0.6757
  264TMC3    H2 4001   2.645   3.263  10.976  1.1748 -1.3961  1.9760
  264TMC3    C7 4002   2.560   3.049  10.870 -0.2276  1.0314  0.0208
  264TMC3    C8 4003   2.612   3.380  11.208  0.3943  0.1209 -0.2536
  264TMC3    O1 4004   2.672   3.084  10.831  0.1807 -0.0390 -0.0170
  264TMC3    O2 4005   2.711   3.421  11.152  0.2649 -0.3530 -0.6877
  265MPD2     C 4006   4.058   3.109  15.766 -0.0233 -0.0806  0.3427
  265MPD2    C1 4007   4.165   3.181  15.800 -0.3616  0.7753  0.3291
  265MPD2    C2 4008   4.286   3.142  15.750 -0.4474  0.1712  0.0009
  265MPD2    C3 4009   4.297   3.048  15.648 -0.3481  0.3259 -1.4697
  265MPD2    C4 4010   4.190   2.971  15.624 -0.6823  0.6043  0.4825
  265MPD2    C5 4011   4.068   2.999  15.686 -0.1076 -0.1494 -0.6983
  265MPD2     H 4012   4.376   3.189  15.788  0.5518  0.1989 -2.4304
  265MPD2    H1 4013   4.200   2.888  15.556 -0.2966 -0.1716  1.4875
  265MPD2    H2 4014   3.961   3.117  15.815  0.8638  1.1960  1.8833
  265MPD2    H3 4015   3.972   2.961  15.652 -1.0575 -0.7917  2.7510
  265MPD2     N 4016   4.421   3.007  15.588 -0.6597 -0.1522  0.0402
  265MPD2    H5 4017   4.418   2.921  15.534  1.1913 -1.3666  1.8818
  265MPD2    N1 4018   4.149   3.287  15.900  0.2801  0.0846  0.0631
  265MPD2    H7 4019   4.235   3.307  15.950 -0.2122 -1.0822  1.3669
  266TMC3    C1 4020   4.055   3.490  15.968 -0.2981 -0.0537  0.0429
  266TMC3    C2 4021   4.158   3.506  16.059 -0.2118 -0.1182 -0.1141
  266TMC3    C3 4022   4.171   3.642  16.096 -0.1960  0.6837 -0.0644
  266TMC3    C4 4023   3.972   3.591  15.924  1.1221 -0.2052  0.8997
  266TMC3    C5 4024   4.001   3.718  15.958  0.5815  0.9270  0.2900
  266TMC3    C6 4025   4.105   3.744  16.039  0.1732 -0.1230 -0.2791
  266TMC3     C 4026   4.039   3.360  15.913 -0.4406 -0.1825 -0.5050
  266TMC3     O 4027   3.936   3.353  15.849 -0.3194  0.6404  0.4633
  266TMC3     H 4028   4.207   3.418  16.100 -2.5137  0.4257  3.7765
  266TMC3    H1 4029   3.883   3.571  15.866  1.6558  1.6733 -0.5705
  266TMC3    H2 4030   4.137   3.848  16.047 -2.5048  0.6511  0.4991
  266TMC3    C7 4031   3.933   3.814  15.877  0.6592  0.1766 -0.3347
  266TMC3    C8 4032   4.293   3.672  16.170 -0.3836  0.6644  0.4124
  266TMC3    O1 4033   3.898   3.774  15.765 -0.1521  0.1189  0.1813
  266TMC3    O2 4034   4.358   3.573  16.205  0.0876  0.5961 -0.6727
  267MPD2     C 4035   2.198   4.573   0.403 -0.1168  0.6740  0.5253
  267MPD2    C1 4036   2.230   4.675   0.494 -0.3798  0.7666 -0.3163
  267MPD2    C2 4037   2.181   0.080   0.474 -0.4468  0.1627  0.2777
  267MPD2    C3 4038   2.112   0.112   0.354  0.0107  0.7149  0.5724
  267MPD2    C4 4039   2.089   0.010   0.265  0.2702 -0.4149  0.3001
  267MPD2    C5 4040   2.124   4.602   0.292 -0.0077 -0.5155 -0.1798
  267MPD2     H 4041   2.217   0.149   0.548  3.3085 -1.4919 -0.0062
  267MPD2    H1 4042   2.032   0.035   0.176  0.6083 -0.0256  0.1904
  267MPD2    H2 4043   2.223   4.469   0.421 -1.7026  0.0007 -1.2468
  267MPD2    H3 4044   2.096   4.519   0.228  0.0572 -2.5141  2.4106
  267MPD2     N 4045   2.058   0.244   0.320 -0.8688 -0.0195 -0.3956
  267MPD2    H5 4046   2.006   0.251   0.233  0.4215 -0.6819 -1.2258
  267MPD2    N1 4047   2.320   4.640   0.600 -0.3712 -0.4786  0.3700
  267MPD2    H7 4048   2.389   4.574   0.567 -0.6705 -2.1107  3.0003
  268TMC3    C1 4049   2.468   4.674   0.757  0.9081 -0.7858 -0.3035
  268TMC3    C2 4050   2.567   4.681   0.665 -0.1659  0.6793  0.2049
  268TMC3    C3 4051   2.692   4.646   0.711  0.4390 -0.1406 -0.3492
  268TMC3    C4 4052   2.481   4.655   0.886 -0.0666  0.0627  0.1305
  268TMC3    C5 4053   2.606   4.616   0.930 -0.1506  0.5693 -0.2715
  268TMC3    C6 4054   2.712   4.606   0.844 -0.2526  0.3327  0.2393
  268TMC3     C 4055   2.336   4.718   0.712 -0.0195  0.1035 -0.6028
  268TMC3     O 4056   2.251   0.043   0.790  0.1461  0.0066 -0.0850
  268TMC3     H 4057   2.546   4.691   0.559 -0.8883 -3.6518 -0.0576
  268TMC3    H1 4058   2.394   4.640   0.948  1.1146  1.5323  2.1419
  268TMC3    H2 4059   2.807   4.582   0.891  0.0848 -0.4937 -0.8626
  268TMC3    C7 4060   2.628   4.616   1.075  0.2257 -0.0783  0.5992
  268TMC3    C8 4061   2.809   4.679   0.630 -0.4858  0.0220 -0.1853
  268TMC3    O1 4062   2.737   4.578   1.116  0.5666 -0.1883  0.2991
  268TMC3    O2 4063   2.920   4.645   0.663  0.0776  0.8207  0.5822
  269MPD2     C 4064   2.150   3.627  15.662 -1.0587  0.1063  0.4610
  269MPD2    C1 4065   2.040   3.714  15.688  0.2346  0.4532  0.3363
  269MPD2    C2 4066   2.062   3.846  15.709 -0.4232 -0.2542  0.4075
  269MPD2    C3 4067   2.187   3.905  15.697  0.0577 -0.3065 -0.1393
  269MPD2    C4 4068   2.292   3.820  15.664  0.1248  0.3949 -0.2850
  269MPD2    C5 4069   2.273   3.686  15.651 -0.2632  0.4391 -0.3636
  269MPD2     H 4070   1.979   3.916  15.722 -0.2746 -0.5925  3.0390
  269MPD2    H1 4071   2.396   3.849  15.658 -0.3946  2.2821 -0.2133
  269MPD2    H2 4072   2.141   3.519  15.657  0.6267 -0.0015 -0.1884
  269MPD2    H3 4073   2.356   3.620  15.630 -0.3183  0.5380 -0.8972
  269MPD2     N 4074   2.196   4.042  15.715  0.2069  0.4106 -0.2145
  269MPD2    H5 4075   2.111   4.089  15.744  0.1371  2.1852 -3.2081
  269MPD2    N1 4076   1.911   3.656  15.698 -0.3170 -0.5217 -0.2361
  269MPD2    H7 4077   1.909   3.555  15.709 -0.6133 -0.6025 -1.0536
  270TMC3    C1 4078   1.683   3.628  15.678  0.5787 -0.4881 -0.3794
  270TMC3    C2 4079   1.640   3.603  15.553 -0.2097 -0.9272 -0.2658
  270TMC3    C3 4080   1.605   3.470  15.518 -0.4434  0.2342 -0.2147
  270TMC3    C4 4081   1.714   3.527  15.761 -0.1799  0.4363 -0.0599
  270TMC3    C5 4082   1.686   3.398  15.728 -0.0701 -0.1536  1.0718
  270TMC3    C6 4083   1.628   3.364  15.610 -0.2102 -0.4539  0.1243
  270TMC3     C 4084   1.788   3.723  15.691  0.0614  0.1697 -0.4909
  270TMC3     O 4085   1.767   3.839  15.657  0.5002 -0.5742 -0.4023
  270TMC3     H 4086   1.641   3.676  15.473  2.5882 -1.3938 -0.6560
  270TMC3    H1 4087   1.773   3.554  15.848 -0.4275 -0.1153  0.2792
  270TMC3    H2 4088   1.624   3.257  15.588  0.5085  0.0640 -2.4618
  270TMC3    C7 4089   1.769   3.300  15.790  0.2853  0.1497  0.2841
  270TMC3    C8 4090   1.608   3.445  15.378 -0.1006  0.2766 -0.3691
  270TMC3    O1 4091   1.879   3.343  15.823 -0.2400  0.1750 -0.1756
  270TMC3    O2 4092   1.656   3.529  15.298 -0.7272  0.0043 -0.2274
  271MPD2     C 4093   1.346   3.928  13.968  0.2259  1.2207  0.3793
  271MPD2    C1 4094   1.252   3.834  13.989  0.1438 -0.7213 -0.0846
  271MPD2    C2 4095   1.121   3.853  13.949 -0.5274  0.0266 -0.2248
  271MPD2    C3 4096   1.095   3.979  13.891  0.1642  0.1705 -0.7537
  271MPD2    C4 4097   1.194   4.080  13.882  0.1154  0.4948  0.3893
  271MPD2    C5 4098   1.321   4.047  13.906  0.1471 -0.2643 -0.0652
  271MPD2     H 4099   1.039   3.785  13.964 -0.2357 -0.4440 -0.7808
  271MPD2    H1 4100   1.165   4.177  13.844  2.9163  0.1846 -2.5439
  271MPD2    H2 4101   1.443   3.918  14.016  0.0103  2.3908  1.0767
  271MPD2    H3 4102   1.404   4.116  13.901  0.7024 -0.9726 -0.7494
  271MPD2     N 4103   0.964   4.022  13.856 -0.7246  0.2602 -0.2805
  271MPD2    H5 4104   0.963   4.118  13.824 -1.0551 -0.8691 -3.5886
  271MPD2    N1 4105   1.284   3.713  14.053  0.6274  0.5123 -0.0477
  271MPD2    H7 4106   1.211   3.648  14.081  2.1144 -0.1869  2.1453
  272TMC3    C1 4107   1.419   3.548  14.156  0.2457 -0.5408  0.5052
  272TMC3    C2 4108   1.540   3.482  14.132  0.3611  0.6651 -0.1537
  272TMC3    C3 4109   1.599   3.424  14.237  0.0801 -0.1446 -0.3972
  272TMC3    C4 4110   1.357   3.547  14.272  0.0300 -0.0903 -0.2869
  272TMC3    C5 4111   1.431   3.493  14.380  0.0386  0.5088  0.3061
  272TMC3    C6 4112   1.552   3.438  14.367 -0.0093  0.3840 -0.3544
  272TMC3     C 4113   1.415   3.670  14.083  0.6030 -0.0572 -0.0649
  272TMC3     O 4114   1.525   3.719  14.048  0.1941 -0.5246 -0.0777
  272TMC3     H 4115   1.588   3.486  14.035 -3.5728  0.7328 -2.0948
  272TMC3    H1 4116   1.266   3.601  14.295  1.0121 -0.6496  5.0097
  272TMC3    H2 4117   1.612   3.393  14.445  1.3947  1.2901 -0.9116
  272TMC3    C7 4118   1.377   3.510  14.511 -0.2859  0.4881 -0.7699
  272TMC3    C8 4119   1.745   3.401  14.222  0.2156 -0.9103 -0.7049
  272TMC3    O1 4120   1.263   3.543  14.527 -0.1304 -0.1365  0.4153
  272TMC3    O2 4121   1.803   3.458  14.125  0.1773 -0.5975 -0.4414
  273MPD2     C 4122   3.436   1.347  11.893  0.3104 -0.5707 -0.2798
  273MPD2    C1 4123   3.402   1.481  11.908 -0.3523  0.0755  0.3044
  273MPD2    C2 4124   3.423   1.568  11.799  0.8207  0.0157  0.2164
  273MPD2    C3 4125   3.463   1.519  11.670 -0.4713  0.8748  0.2563
  273MPD2    C4 4126   3.492   1.382  11.655 -0.5835  0.3143 -0.1444
  273MPD2    C5 4127   3.471   1.295  11.769  0.1185  0.2948 -1.1111
  273MPD2     H 4128   3.435   1.675  11.809 -0.6843  0.2420 -0.4648
  273MPD2    H1 4129   3.519   1.330  11.564  0.7580  0.3267  0.2565
  273MPD2    H2 4130   3.437   1.279  11.978  1.1811 -1.5099 -1.0379
  273MPD2    H3 4131   3.482   1.188  11.759  0.2467  0.0541  1.6374
  273MPD2     N 4132   3.490   1.619  11.572 -0.8945 -0.1328 -0.7779
  273MPD2    H5 4133   3.463   1.712  11.604  0.4053  0.9076 -2.7054
  273MPD2    N1 4134   3.364   1.543  12.025  0.1442 -0.1627 -0.6816
  273MPD2    H7 4135   3.361   1.644  12.017 -0.4686 -0.2760 -1.9318
  274TMC3    C1 4136   3.580   1.721  11.385 -0.5129  0.2077  0.0684
  274TMC3    C2 4137   3.580   1.712  11.249  0.2209  0.5873 -0.8932
  274TMC3    C3 4138   3.564   1.834  11.179 -0.1807  0.1175 -0.2929
  274TMC3    C4 4139   3.584   1.843  11.453  0.4474 -0.3041  0.5143
  274TMC3    C5 4140   3.587   1.958  11.380  0.0333 -0.6816  0.7818
  274TMC3    C6 4141   3.569   1.954  11.242 -0.4749  0.1705  0.2110
  274TMC3     C 4142   3.547   1.593  11.451  0.0420  0.3151 -1.0428
  274TMC3     O 4143   3.553   1.488  11.385  0.4621  0.1070 -0.2653
  274TMC3     H 4144   3.590   1.616  11.200  1.7477  1.5598 -2.4675
  274TMC3    H1 4145   3.597   1.840  11.561 -1.1324 -0.5635  0.6856
  274TMC3    H2 4146   3.519   2.040  11.197 -0.7161 -0.1521 -0.1388
  274TMC3    C7 4147   3.533   2.071  11.462  0.1715  0.4124  0.0772
  274TMC3    C8 4148   3.487   1.815  11.055 -0.1546 -0.1812  0.5557
  274TMC3    O1 4149   3.416   2.097  11.435  0.0913  0.2257  0.0412
  274TMC3    O2 4150   3.424   1.712  11.048  0.3607  0.0905 -0.0904
  275MPD2     C 4151   3.003   4.365  14.366 -0.0431  0.2934  0.1931
  275MPD2    C1 4152   2.924   4.450  14.438 -0.4076 -0.9485 -0.7836
  275MPD2    C2 4153   2.787   4.459  14.429 -0.0981  0.4536 -0.3403
  275MPD2    C3 4154   2.718   4.371  14.351  0.0091 -0.2806 -0.1386
  275MPD2    C4 4155   2.798   4.293  14.264 -0.2051  0.2379  0.3747
  275MPD2    C5 4156   2.936   4.283  14.279 -0.2732  0.3468 -0.3064
  275MPD2     H 4157   2.735   4.520  14.503 -0.9929 -0.1557 -0.4716
  275MPD2    H1 4158   2.762   4.240  14.177 -1.1598 -0.2115  1.0486
  275MPD2    H2 4159   3.111   4.354  14.375  0.0986  1.1528 -0.4885
  275MPD2    H3 4160   2.996   4.235  14.202  0.8285  1.1283  0.0782
  275MPD2     N 4161   2.577   4.362  14.351  0.4830 -0.3174 -0.1609
  275MPD2    H5 4162   2.539   4.286  14.295 -0.8269  1.7317 -2.0184
  275MPD2    N1 4163   2.980   4.550  14.524 -0.1975 -0.2460 -0.5879
  275MPD2    H7 4164   2.919   4.615  14.573 -0.0432 -0.6844  0.1866
  276TMC3    C1 4165   3.125   4.663  14.657  0.1738 -0.1389  0.1702
  276TMC3    C2 4166   3.009   0.005  14.693 -0.0777 -1.0507 -0.1906
  276TMC3    C3 4167   2.958   0.005  14.812  0.6402  0.1699  0.0949
  276TMC3    C4 4168   3.216   4.630  14.755  0.0762  0.1029  1.0166
  276TMC3    C5 4169   3.169   4.654  14.883  0.1544 -0.3258 -0.2441
  276TMC3    C6 4170   3.042   4.689  14.911 -0.0714  0.6649 -0.0499
  276TMC3     C 4171   3.112   4.557  14.559 -0.3999 -0.3337  0.0448
  276TMC3     O 4172   3.186   4.466  14.575  0.8103 -0.4171  0.0128
  276TMC3     H 4173   2.950   0.047  14.613  1.9269 -2.7618 -2.6063
  276TMC3    H1 4174   3.314   4.590  14.734  0.7493  2.1082  0.3403
  276TMC3    H2 4175   3.010   4.701  15.014  1.4512 -0.9797  0.6187
  276TMC3    C7 4176   3.255   4.639  14.997 -0.4278  0.1981  0.4043
  276TMC3    C8 4177   2.845   4.658  14.804 -0.3696  0.2306  0.2587
  276TMC3    O1 4178   3.198   4.629  15.103  0.1085 -0.4972 -0.0170
  276TMC3    O2 4179   2.775   4.682  14.708  0.0800  0.2680 -0.1782
  277MPD2     C 4180   0.246   3.275  13.699  0.6459  0.7731  1.1000
  277MPD2    C1 4181   0.183   3.387  13.748 -0.4930  0.0513 -0.1945
  277MPD2    C2 4182   0.107   3.385  13.867  0.4374  0.3247 -0.0356
  277MPD2    C3 4183   0.079   3.259  13.917 -0.5084 -0.2865 -0.2898
  277MPD2    C4 4184   0.147   3.148  13.873  0.1011 -0.6610 -0.2506
  277MPD2    C5 4185   0.227   3.157  13.764 -0.1760 -0.0489  0.0047
  277MPD2     H 4186   0.062   3.475  13.906 -0.1253  0.9254 -2.0763
  277MPD2    H1 4187   0.150   3.064  13.941 -1.7594  0.1558  0.8477
  277MPD2    H2 4188   0.308   3.288  13.611  0.0972 -0.9253  0.4696
  277MPD2    H3 4189   0.288   3.070  13.746 -1.5890 -1.0554  0.1229
  277MPD2     N 4190   4.699   3.242  14.013 -1.3533 -0.3555 -0.4026
  277MPD2    H5 4191   4.696   3.148  14.052  3.0462 -0.5728 -0.5852
  277MPD2    N1 4192   0.203   3.510  13.679  0.4913  0.3029  0.2304
  277MPD2    H7 4193   0.260   3.499  13.595  0.2420  1.3340 -0.0822
  278TMC3    C1 4194   4.487   3.257  14.093 -0.5102 -0.1197 -0.5269
  278TMC3    C2 4195   4.473   3.121  14.076  0.2987 -0.0913 -0.0687
  278TMC3    C3 4196   4.348   3.065  14.090  0.0639 -0.1897  0.2774
  278TMC3    C4 4197   4.379   3.338  14.125 -0.2127 -0.4304 -0.1188
  278TMC3    C5 4198   4.255   3.278  14.135  0.3481 -0.0363  0.4668
  278TMC3    C6 4199   4.240   3.138  14.135  0.1798 -0.4504  0.4176
  278TMC3     C 4200   4.592   3.320  14.024 -0.1056  0.7181 -0.1525
  278TMC3     O 4201   4.567   3.429  13.974 -0.4139  0.1658 -0.0108
  278TMC3     H 4202   4.556   3.053  14.061  0.9302  0.7069 -0.1660
  278TMC3    H1 4203   4.385   3.446  14.125  0.1773 -0.4487 -1.1694
  278TMC3    H2 4204   4.149   3.081  14.152 -0.5846  0.8351  0.6261
  278TMC3    C7 4205   4.160   3.342  14.221  0.8572  0.6317 -0.9191
  278TMC3    C8 4206   4.332   2.919  14.054 -0.6357 -0.1396  0.3749
  278TMC3    O1 4207   4.208   3.421  14.301 -0.1251 -0.2178  0.5990
  278TMC3    O2 4208   4.413   2.852  14.115  0.1306 -0.3107  0.0808
  279MPD2     C 4209   4.226   3.389   0.685 -0.0655  0.6497  0.0065
  279MPD2    C1 4210   4.119   3.474   0.671 -0.1960  0.8603 -1.0191
  279MPD2    C2 4211   4.105   3.546   0.553  0.0721 -0.0618  1.0174
  279MPD2    C3 4212   4.181   3.527   0.445 -0.5432  0.0824  0.1246
  279MPD2    C4 4213   4.286   3.438   0.456  0.2504 -0.3170 -0.3967
  279MPD2    C5 4214   4.310   3.374   0.576  0.4097  0.7764 -0.2857
  279MPD2     H 4215   4.036   3.630   0.552  0.2169  0.0609  1.2843
  279MPD2    H1 4216   4.350   3.425   0.370 -1.4231 -0.6992 -1.5771
  279MPD2    H2 4217   4.250   3.327   0.771 -2.4336  1.1278  0.9939
  279MPD2    H3 4218   4.388   3.300   0.587 -0.4998 -0.3773 -1.5331
  279MPD2     N 4219   4.146   3.583   0.324 -0.3654 -0.1679 -0.1380
  279MPD2    H5 4220   4.208   3.567   0.245 -1.2488 -1.3715 -0.6035
  279MPD2    N1 4221   4.013   3.481   0.769  0.4032 -0.0499 -0.1005
  279MPD2    H7 4222   3.945   3.552   0.744 -1.1678 -0.8614  1.9153
  280TMC3    C1 4223   3.838   3.395   0.878  0.0436 -0.2035 -0.0190
  280TMC3    C2 4224   3.767   3.292   0.809  0.8766  0.5583 -0.1993
  280TMC3    C3 4225   3.652   3.329   0.742  0.5581  0.2434 -0.3321
  280TMC3    C4 4226   3.783   3.523   0.875 -0.6911  0.3194  0.1447
  280TMC3    C5 4227   3.674   3.557   0.800 -0.7734  0.0612 -1.0720
  280TMC3    C6 4228   3.601   3.461   0.735  0.2561 -0.3392  0.5819
  280TMC3     C 4229   3.979   3.383   0.852  0.5043  0.0362 -0.6021
  280TMC3     O 4230   4.036   3.272   0.862 -0.2230 -0.4629 -0.1896
  280TMC3     H 4231   3.820   3.199   0.796 -0.3542 -0.1429 -0.1525
  280TMC3    H1 4232   3.833   3.602   0.931  1.8982  0.2020 -1.9806
  280TMC3    H2 4233   3.506   3.480   0.687  0.2394  1.0525  1.1784
  280TMC3    C7 4234   3.633   3.695   0.808  0.2077  0.5087 -0.2451
  280TMC3    C8 4235   3.565   3.224   0.682  0.0743 -0.3283  0.0316
  280TMC3    O1 4236   3.676   3.769   0.894 -0.7117  0.4085 -0.4772
  280TMC3    O2 4237   3.469   3.264   0.620  0.0801 -0.6638  0.5900
  281TMC3    C1 4238   2.324   3.513  13.584  0.1195 -0.1556  0.3477
  281TMC3    C2 4239   2.450   3.551  13.560  0.0578  0.3893 -0.2842
  281TMC3    C3 4240   2.527   3.479  13.466  0.4543 -0.2423  0.7073
  281TMC3    C4 4241   2.268   3.398  13.530  0.0208  0.4557  0.1517
  281TMC3    C5 4242   2.350   3.328  13.446 -0.7998 -0.1275  0.0274
  281TMC3    C6 4243   2.472   3.370  13.409  0.1979 -0.3524  0.3070
  281TMC3     C 4244   2.224   3.615  13.597 -0.3001 -0.3954  0.3739
  281TMC3     O 4245   2.105   3.589  13.594 -0.1907 -0.3142 -0.4762
  281TMC3     H 4246   2.505   3.627  13.615 -1.2715 -1.4479  3.6158
  281TMC3    H1 4247   2.166   3.365  13.550  1.2198 -1.5614  3.0109
  281TMC3    H2 4248   2.530   3.311  13.339 -1.7249 -1.0181 -0.7189
  281TMC3    C7 4249   2.313   3.198  13.399 -0.2211 -0.2118 -0.1392
  281TMC3    C8 4250   2.672   3.468  13.478  0.7131 -0.0197  0.1323
  281TMC3    O1 4251   2.368   3.156  13.299 -0.8173  0.5632 -0.4259
  281TMC3    O2 4252   2.710   3.351  13.466  0.5564  0.0429  0.0158
  282MPD2     C 4253   4.331   0.235  15.563 -0.1372  0.1936 -0.3119
  282MPD2    C1 4254   4.224   0.319  15.568 -0.2432 -0.4450 -0.2700
  282MPD2    C2 4255   4.184   0.379  15.449  0.0563  0.2411 -0.0914
  282MPD2    C3 4256   4.251   0.350  15.333  0.0233 -0.0816 -0.4124
  282MPD2    C4 4257   4.353   0.259  15.330  0.4574  0.3628  0.0848
  282MPD2    C5 4258   4.391   0.204  15.451 -0.1672  1.0986  0.5002
  282MPD2     H 4259   4.082   0.414  15.443 -0.9440 -2.4905  1.2000
  282MPD2    H1 4260   4.403   0.238  15.236 -1.6038 -0.6921 -0.7962
  282MPD2    H2 4261   4.369   0.189  15.653  2.5141  1.7030 -0.6759
  282MPD2    H3 4262   4.470   0.131  15.443 -1.1209  0.0411  0.6604
  282MPD2     N 4263   4.188   0.400  15.218 -0.5203  0.0198 -0.0065
  282MPD2    H5 4264   4.105   0.458  15.226 -0.3586  0.3838 -0.9920
  282MPD2    N1 4265   4.152   0.342  15.686  0.4616  0.6298 -0.5133
  282MPD2    H7 4266   4.066   0.394  15.669  0.8757  0.9165 -1.7135
  283TMC3    C1 4267   4.060   0.331  15.901  0.5957  0.0954  0.3780
  283TMC3    C2 4268   4.036   0.460  15.916 -0.1469  0.3843  0.3651
  283TMC3    C3 4269   3.947   0.496  16.013 -0.0131  1.0782  0.1137
  283TMC3    C4 4270   3.989   0.237  15.976  0.2253  0.1906 -0.6348
  283TMC3    C5 4271   3.882   0.278  16.052 -0.3557 -0.5536 -0.2976
  283TMC3    C6 4272   3.862   0.411  16.087  0.2239  0.0090 -0.1792
  283TMC3     C 4273   4.168   0.285  15.810  0.3054  0.2436  0.3057
  283TMC3     O 4274   4.250   0.205  15.855  0.4133  0.3842  0.6588
  283TMC3     H 4275   4.099   0.530  15.863 -2.1424  2.0060  0.1485
  283TMC3    H1 4276   4.009   0.132  15.959  5.2748  0.7867  1.7195
  283TMC3    H2 4277   3.772   0.439  16.141  2.1090  4.7994  0.4425
  283TMC3    C7 4278   3.766   0.193  16.074  0.0099  0.2704  0.3052
  283TMC3    C8 4279   3.914   0.629  16.041  0.7454 -0.0848  0.0824
  283TMC3    O1 4280   3.698   0.229  16.169 -0.1081  0.1044  0.5777
  283TMC3    O2 4281   3.878   0.638  16.156  0.2496  0.2232  0.0818
  284MPD2     C 4282   2.431   4.520  12.196 -0.1222  0.4266 -0.6212
  284MPD2    C1 4283   2.522   4.471  12.109 -0.1921  0.0546 -0.7558
  284MPD2    C2 4284   2.510   4.334  12.073 -0.0926 -0.2960 -0.2417
  284MPD2    C3 4285   2.414   4.248  12.123  0.5537 -0.5177 -0.1747
  284MPD2    C4 4286   2.326   4.301  12.216  0.3585  0.3782 -1.0487
  284MPD2    C5 4287   2.338   4.436  12.249  0.2213 -0.1670 -0.3456
  284MPD2     H 4288   2.585   4.293  12.006  3.1086  1.6349  2.1686
  284MPD2    H1 4289   2.261   4.237  12.274  0.7009 -0.9566 -2.1440
  284MPD2    H2 4290   2.427   4.623  12.232 -2.2844  0.1823 -0.1513
  284MPD2    H3 4291   2.264   4.489  12.308  0.0092 -0.4262 -0.3746
  284MPD2     N 4292   2.418   4.105  12.108  0.5933  1.0553  0.2315
  284MPD2    H5 4293   2.375   4.049  12.180 -1.1094  1.0546 -0.7889
  284MPD2    N1 4294   2.615   4.538  12.036 -0.0918  0.0455  0.6264
  284MPD2    H7 4295   2.668   4.482  11.970 -2.1141 -1.0024 -0.0936
  285TMC3    C1 4296   2.759   0.001  11.977 -0.4609  0.0951  0.2654
  285TMC3    C2 4297   2.840   4.631  11.909 -0.0121 -0.0786  1.0463
  285TMC3    C3 4298   2.947   4.689  11.852 -0.1323  0.0988  0.0807
  285TMC3    C4 4299   2.795   0.131  12.010 -0.3722  0.0398  0.0587
  285TMC3    C5 4300   2.912   0.167  11.952  0.6140  1.0019 -0.9393
  285TMC3    C6 4301   2.991   0.097  11.871 -0.0182  0.6661 -0.5926
  285TMC3     C 4302   2.631   4.676  12.040  0.0719 -0.5633  0.3028
  285TMC3     O 4303   2.574   0.026  12.119 -0.0401  0.0725 -0.2917
  285TMC3     H 4304   2.812   4.527  11.894 -1.1409  0.4333 -0.3772
  285TMC3    H1 4305   2.728   0.201  12.060 -0.0082 -0.8853  1.8621
  285TMC3    H2 4306   3.058   0.150  11.805  1.2668  0.5877  0.6460
  285TMC3    C7 4307   2.932   0.315  11.956  0.8642  0.2061  0.0386
  285TMC3    C8 4308   3.000   4.611  11.743  0.0585 -0.5078  0.1754
  285TMC3    O1 4309   2.833   0.378  11.917 -0.1568 -0.0175  0.6020
  285TMC3    O2 4310   2.939   4.514  11.691 -0.0805  0.1165 -0.0359
  286MPD2     C 4311   3.185   2.895   2.090  0.1273 -0.0694  0.0196
  286MPD2    C1 4312   3.147   2.919   1.963 -0.1891  0.4438 -0.2061
  286MPD2    C2 4313   3.217   2.861   1.863 -0.2850 -0.5441  0.8008
  286MPD2    C3 4314   3.333   2.790   1.883  0.0138 -1.5204 -0.1289
  286MPD2    C4 4315   3.378   2.766   2.013 -0.0461  0.0840 -0.1908
  286MPD2    C5 4316   3.303   2.825   2.112 -0.6958  0.3827  0.1714
  286MPD2     H 4317   3.189   2.887   1.761  1.2409 -1.4850  0.1249
  286MPD2    H1 4318   3.467   2.706   2.031 -0.3446 -0.0720  0.7788
  286MPD2    H2 4319   3.126   2.946   2.164  2.0529  1.9357  0.1855
  286MPD2    H3 4320   3.331   2.816   2.216  0.9881  0.6056 -0.2568
  286MPD2     N 4321   3.406   2.728   1.777 -0.0506  0.8119  0.2479
  286MPD2    H5 4322   3.487   2.674   1.806 -1.0784 -0.1257  1.3907
  286MPD2    N1 4323   3.044   3.013   1.931  0.0560  0.2126 -0.4125
  286MPD2    H7 4324   3.027   3.039   1.835 -0.2946 -1.8462 -0.9044
  287TMC3    C1 4325   3.461   2.664   1.553 -0.3339  0.0638  0.1659
  287TMC3    C2 4326   3.408   2.627   1.433 -0.1223  0.0905 -0.4326
  287TMC3    C3 4327   3.496   2.566   1.347  0.8476 -0.1562 -0.6447
  287TMC3    C4 4328   3.588   2.634   1.595  0.2552  0.2879 -0.0416
  287TMC3    C5 4329   3.670   2.573   1.502 -0.6701 -0.8381 -0.9780
  287TMC3    C6 4330   3.626   2.540   1.377  0.2212  0.9113  0.0753
  287TMC3     C 4331   3.360   2.721   1.645  0.5381  0.2245 -0.6095
  287TMC3     O 4332   3.259   2.754   1.592  0.4241 -0.2091 -0.1473
  287TMC3     H 4333   3.308   2.648   1.395 -0.5860  0.2041  0.8588
  287TMC3    H1 4334   3.612   2.664   1.696 -1.5162 -2.2962  1.1627
  287TMC3    H2 4335   3.694   2.492   1.307 -0.4587 -0.4370  0.3373
  287TMC3    C7 4336   3.813   2.544   1.541  0.4503 -0.2386  0.1907
  287TMC3    C8 4337   3.453   2.519   1.218 -0.2980  0.9052 -0.2416
  287TMC3    O1 4338   3.841   2.568   1.657  0.3964 -0.5904  0.9018
  287TMC3    O2 4339   3.512   2.420   1.175 -0.3062  0.0884 -0.0572
  288TMC3    C1 4340   0.332   2.862  15.013  0.4836  0.6726 -0.4847
  288TMC3    C2 4341   0.199   2.853  15.056  0.1077  0.1664  0.6218
  288TMC3    C3 4342   0.096   2.919  14.994  0.6117 -0.1702  0.1275
  288TMC3    C4 4343   0.357   2.955  14.916 -0.0980  0.1176  0.7578
  288TMC3    C5 4344   0.253   3.029  14.864 -0.0567  0.7321 -0.3504
  288TMC3    C6 4345   0.119   3.010  14.897 -0.3831 -0.0333  0.0265
  288TMC3     C 4346   0.431   2.847  15.114  0.1490 -0.0415 -0.6217
  288TMC3     O 4347   0.396   2.814  15.224 -0.8979  0.0688  0.3263
  288TMC3     H 4348   0.175   2.784  15.136 -2.4778  0.0636 -0.2345
  288TMC3    H1 4349   0.451   2.968  14.864 -0.3453 -1.3489 -0.0518
  288TMC3    H2 4350   0.039   3.077  14.866 -0.1688  0.4780  0.5772
  288TMC3    C7 4351   0.268   3.083  14.731  0.1729 -0.2157  0.2470
  288TMC3    C8 4352   4.705   2.965  15.073  0.9936  0.1258  0.8511
  288TMC3    O1 4353   0.239   3.205  14.717 -0.4663 -0.4461  0.4236
  288TMC3    O2 4354   4.685   3.084  15.089 -0.0666  0.0501  0.0145
  289MPD2     C 4355   0.034   2.147  15.169 -0.2854  0.2629 -0.1317
  289MPD2    C1 4356   0.092   2.256  15.101 -0.2748  0.4172  0.2900
  289MPD2    C2 4357   0.039   2.290  14.980 -0.7856  0.4619  0.2918
  289MPD2    C3 4358   4.647   2.232  14.933 -0.3481  1.2613 -0.4343
  289MPD2    C4 4359   4.601   2.120  14.992 -0.3784 -0.1065  0.1554
  289MPD2    C5 4360   4.656   2.077  15.105  0.0858 -0.6324  0.5818
  289MPD2     H 4361   0.078   2.381  14.934 -0.5675 -0.0956 -0.6365
  289MPD2    H1 4362   4.519   2.062  14.950 -0.2526 -1.0299  1.1959
  289MPD2    H2 4363   0.068   2.106  15.263 -0.2812  2.5491  0.8649
  289MPD2    H3 4364   4.609   1.988  15.146  2.4948 -1.8343  0.7298
  289MPD2     N 4365   4.600   2.265  14.803 -0.0654 -0.1079 -0.1237
  289MPD2    H5 4366   4.539   2.196  14.761  0.9620  0.1554 -2.0726
  289MPD2    N1 4367   0.204   2.320  15.168 -0.5665 -0.6946 -0.0355
  289MPD2    H7 4368   0.240   2.272  15.249 -1.3305 -0.7502  0.2697
  290TMC3    C1 4369   4.511   2.405  14.626  0.5222  0.1706  0.4248
  290TMC3    C2 4370   4.444   2.529  14.614  0.1560 -0.0462  0.4237
  290TMC3    C3 4371   4.330   2.524  14.537  0.0861  0.1134 -0.3109
  290TMC3    C4 4372   4.479   2.300  14.551 -0.2865  0.2349  0.0955
  290TMC3    C5 4373   4.375   2.311  14.462  0.9554  0.2686  0.3096
  290TMC3    C6 4374   4.289   2.417  14.468  0.1383  0.2678  0.1964
  290TMC3     C 4375   4.605   2.395  14.741 -0.7451 -0.2922  0.1279
  290TMC3     O 4376   4.654   2.501  14.778  0.2357  0.6106  0.2698
  290TMC3     H 4377   4.481   2.607  14.680  0.8779  0.0785 -0.1392
  290TMC3    H1 4378   4.545   2.215  14.539 -3.3619 -1.6564 -3.3126
  290TMC3    H2 4379   4.193   2.416  14.418  1.0437 -1.0467 -1.5655
  290TMC3    C7 4380   4.354   2.204  14.364  0.1480  0.4045  0.2502
  290TMC3    C8 4381   4.248   2.645  14.515  0.2873  0.3617 -0.3289
  290TMC3    O1 4382   4.294   2.225  14.258 -0.3469  0.0452  0.6228
  290TMC3    O2 4383   4.138   2.635  14.460  0.0936 -0.2676  0.0203
  291MPD2     C 4384   3.853   1.820   0.635 -0.9402 -0.3470  0.1504
  291MPD2    C1 4385   3.805   1.767   0.520 -0.7210 -0.8691  0.7232
  291MPD2    C2 4386   3.846   1.815   0.401  0.1056  0.3701 -0.4972
  291MPD2    C3 4387   3.936   1.920   0.396 -0.2002  0.0914 -0.2666
  291MPD2    C4 4388   3.978   1.980   0.514  0.0375 -0.1392  0.1568
  291MPD2    C5 4389   3.933   1.928   0.631  0.3385  0.5233 -0.1952
  291MPD2     H 4390   3.803   1.774   0.311  3.1802 -1.1567 -1.2834
  291MPD2    H1 4391   4.038   2.071   0.510  1.7260 -1.3312 -1.8637
  291MPD2    H2 4392   3.826   1.793   0.736  0.6952 -0.6851  0.5081
  291MPD2    H3 4393   3.970   1.959   0.728 -1.1078 -2.4108  1.2615
  291MPD2     N 4394   3.999   1.971   0.279  0.3983  0.4761 -0.4836
  291MPD2    H5 4395   4.062   2.049   0.289 -2.7643  2.7654  1.4782
  291MPD2    N1 4396   3.727   1.651   0.518  0.2491  0.1448 -0.1805
  291MPD2    H7 4397   3.690   1.619   0.429  0.3965  0.1227 -0.2337
  292TMC3    C1 4398   3.602   1.473   0.598  0.9336  0.2147  0.5763
  292TMC3    C2 4399   3.519   1.427   0.696  0.3236  0.0498  0.4456
  292TMC3    C3 4400   3.416   1.351   0.649 -0.2922  0.2154 -1.4540
  292TMC3    C4 4401   3.605   1.425   0.471 -0.0552  0.0771  0.0138
  292TMC3    C5 4402   3.508   1.339   0.439 -0.0340  0.4912  0.2728
  292TMC3    C6 4403   3.407   1.302   0.522 -0.2952 -0.4609  0.4542
  292TMC3     C 4404   3.691   1.574   0.629  0.5655  0.0460  0.1893
  292TMC3     O 4405   3.734   1.581   0.748  0.0320 -0.3635 -0.4456
  292TMC3     H 4406   3.508   1.476   0.792  0.6895 -0.3475  0.6872
  292TMC3    H1 4407   3.684   1.444   0.399  1.2185  0.4335  1.4926
  292TMC3    H2 4408   3.335   1.228   0.489  0.3803 -1.5643  1.4562
  292TMC3    C7 4409   3.501   1.271   0.308  0.6231 -0.8050  0.0298
  292TMC3    C8 4410   3.306   1.320   0.741 -0.0359  0.0864  0.4144
  292TMC3    O1 4411   3.610   1.262   0.256  0.2934 -0.6609  0.9399
  292TMC3    O2 4412   3.340   1.327   0.857 -0.4358  0.0801  0.0633
  293MPD2     C 4413   1.197   3.092  13.025  0.6486 -0.4435 -0.1026
  293MPD2    C1 4414   1.075   3.094  13.087 -0.5993  0.0756  0.0226
  293MPD2    C2 4415   1.065   3.125  13.221 -0.0185 -0.2226  0.6887
  293MPD2    C3 4416   1.181   3.163  13.287 -0.0707  0.5898 -0.4407
  293MPD2    C4 4417   1.299   3.167  13.215  0.1074 -0.4909  0.4316
  293MPD2    C5 4418   1.311   3.137  13.084  0.3361  0.6856 -0.6813
  293MPD2     H 4419   0.968   3.125  13.271 -1.0985 -0.5321 -1.4331
  293MPD2    H1 4420   1.387   3.208  13.264  0.0965 -0.6242  0.5642
  293MPD2    H2 4421   1.205   3.066  12.920 -1.0141 -1.9915  0.1597
  293MPD2    H3 4422   1.398   3.149  13.020  1.3967 -1.2153  0.3795
  293MPD2     N 4423   1.187   3.208  13.423  0.3459 -0.6208 -0.5442
  293MPD2    H5 4424   1.279   3.241  13.449  0.1763 -0.6887  0.1194
  293MPD2    N1 4425   0.970   3.082  12.994 -0.0391  0.8161  0.3869
  293MPD2    H7 4426   0.993   3.064  12.897  0.4375  0.4234  0.5727
  294TMC3    C1 4427   0.763   3.120  12.897  0.1030  0.0500  0.0489
  294TMC3    C2 4428   0.627   3.122  12.905  0.1753 -0.3872 -0.3171
  294TMC3    C3 4429   0.552   3.133  12.794 -0.0343  0.2717  0.0554
  294TMC3    C4 4430   0.821   3.141  12.773 -0.2334 -1.0801 -0.0746
  294TMC3    C5 4431   0.743   3.146  12.663 -0.2510 -0.0718 -0.0632
  294TMC3    C6 4432   0.608   3.143  12.668  0.6679 -0.5326  0.0938
  294TMC3     C 4433   0.841   3.118  13.014 -0.3818 -0.4016  1.3821
  294TMC3     O 4434   0.780   3.139  13.114 -0.3266  0.2781  0.0044
  294TMC3     H 4435   0.576   3.109  13.000  1.9594 -0.9181  0.5817
  294TMC3    H1 4436   0.927   3.162  12.767  0.0378 -2.5364 -0.5432
  294TMC3    H2 4437   0.544   3.147  12.581 -0.2599  1.3392  0.8490
  294TMC3    C7 4438   0.794   3.143  12.531 -0.3590  0.1298  0.0924
  294TMC3    C8 4439   0.415   3.112  12.802 -0.1169  0.2277 -0.2687
  294TMC3    O1 4440   0.716   3.161  12.439 -0.2884  0.6964  0.4736
  294TMC3    O2 4441   0.354   3.160  12.894  0.2050  0.0228  0.0516
  295MPD2     C 4442   1.237   2.405   0.111 -0.2679  0.4167  0.2341
  295MPD2    C1 4443   1.367   2.396   0.165 -0.4932  0.7693 -0.0773
  295MPD2    C2 4444   1.380   2.345   0.295  0.0137  0.1276 -0.4407
  295MPD2    C3 4445   1.271   2.292   0.364 -0.2219 -0.9690  0.2267
  295MPD2    C4 4446   1.149   2.293   0.302 -1.0218 -0.8478  0.1295
  295MPD2    C5 4447   1.133   2.346   0.179  0.3129 -0.5373 -0.3529
  295MPD2     H 4448   1.476   2.354   0.345 -0.6685 -2.6373  1.4270
  295MPD2    H1 4449   1.063   2.246   0.349 -0.6006 -0.9351  0.8209
  295MPD2    H2 4450   1.213   2.443   0.013  1.1972 -1.8725 -1.0000
  295MPD2    H3 4451   1.033   2.352   0.138  0.6522  1.9484 -0.8152
  295MPD2     N 4452   1.268   2.246   0.499  0.1171  0.4125  0.7441
  295MPD2    H5 4453   1.183   2.219   0.546 -0.2215  3.0236  1.6352
  295MPD2    N1 4454   1.469   2.450   0.092 -1.0338 -0.4088 -0.3700
  295MPD2    H7 4455   1.443   2.505   0.012 -1.2441 -1.1967 -0.8440
  296TMC3    C1 4456   1.332   2.192   0.717 -0.6971  0.3804  0.4018
  296TMC3    C2 4457   1.389   2.264   0.821 -0.2973 -0.1357 -0.7156
  296TMC3    C3 4458   1.329   2.253   0.944  0.0821  0.1083  0.3808
  296TMC3    C4 4459   1.218   2.115   0.733 -0.3037 -0.5262 -0.3300
  296TMC3    C5 4460   1.162   2.104   0.855  0.0960  0.7726 -0.2401
  296TMC3    C6 4461   1.215   2.179   0.963  0.2410 -0.3943 -0.8575
  296TMC3     C 4462   1.375   2.220   0.579  0.1068  0.1137 -0.1022
  296TMC3     O 4463   1.494   2.245   0.561  0.0271  0.5013  0.8664
  296TMC3     H 4464   1.478   2.323   0.800 -1.0227  2.0885  2.4808
  296TMC3    H1 4465   1.180   2.043   0.662 -3.3611  1.2705 -0.5190
  296TMC3    H2 4466   1.167   2.183   1.060  0.0805  1.6332 -1.0078
  296TMC3    C7 4467   1.040   2.028   0.874 -0.2929  0.2954  0.7102
  296TMC3    C8 4468   1.391   2.322   1.052 -0.7933 -0.4739 -0.1366
  296TMC3    O1 4469   0.975   2.024   0.768 -0.1050  0.0938  0.4647
  296TMC3    O2 4470   1.478   2.403   1.023 -0.5700  0.3401 -0.0308
  297MPD2     C 4471   3.308   3.997  16.796 -0.7075 -0.5838  0.6514
  297MPD2    C1 4472   3.254   4.017  16.667  0.3979 -0.5521 -0.3286
  297MPD2    C2 4473   3.315   4.114  16.593 -0.1492 -0.8280 -0.0785
  297MPD2    C3 4474   3.418   4.195  16.640  0.2413 -1.0892 -0.2546
  297MPD2    C4 4475   3.458   4.174  16.770  0.5384  0.4728 -0.4931
  297MPD2    C5 4476   3.408   4.079  16.847  0.2541  0.3455 -0.4461
  297MPD2     H 4477   3.279   4.138  16.494  2.3925  0.2435 -0.7390
  297MPD2    H1 4478   3.543   4.227  16.812  2.6013 -0.9705 -2.8393
  297MPD2    H2 4479   3.284   3.906  16.851  0.9810 -1.1374  0.4707
  297MPD2    H3 4480   3.463   4.058  16.938 -0.4932 -0.3255 -0.1391
  297MPD2     N 4481   3.466   4.307  16.563  0.5383  0.0428  0.4118
  297MPD2    H5 4482   3.448   4.315  16.463 -0.2185  0.1606  0.5532
  297MPD2    N1 4483   3.136   3.949  16.617 -0.1016  0.2060 -0.1271
  297MPD2    H7 4484   3.095   3.979  16.529 -0.5500 -0.4291 -0.1291
  298TMC3    C1 4485   2.933   3.839  16.623 -0.4679 -0.2282 -0.1027
  298TMC3    C2 4486   2.929   3.800  16.491 -0.0189  0.5387 -0.1916
  298TMC3    C3 4487   2.809   3.812  16.423 -0.5315 -0.3569  0.0180
  298TMC3    C4 4488   2.818   3.867  16.691  0.4588  0.3878  0.4743
  298TMC3    C5 4489   2.706   3.891  16.613  0.4841 -0.4215  0.3271
  298TMC3    C6 4490   2.701   3.859  16.481 -0.1356  0.2390 -0.2737
  298TMC3     C 4491   3.057   3.859  16.691 -0.0028  0.6527  0.5662
  298TMC3     O 4492   3.063   3.830  16.808  0.1402 -0.1045 -0.8034
  298TMC3     H 4493   3.028   3.779  16.454  0.2031 -1.0951  1.3724
  298TMC3    H1 4494   2.823   3.904  16.793  0.6710  2.8557 -0.4074
  298TMC3    H2 4495   2.604   3.871  16.433 -0.2727 -1.7784 -0.5039
  298TMC3    C7 4496   2.588   3.960  16.682  0.2526  0.2969 -0.0887
  298TMC3    C8 4497   2.818   3.814  16.278 -0.2180 -0.0409  0.3923
  298TMC3    O1 4498   2.595   3.971  16.807 -0.2744  0.0959 -0.0222
  298TMC3    O2 4499   2.921   3.774  16.229  0.9300 -0.1029 -0.0244
  299MPD2     C 4500   4.314   4.384  10.334 -0.0054  0.4995 -0.2542
  299MPD2    C1 4501   4.248   4.329  10.443 -0.6080  0.2197  0.4288
  299MPD2    C2 4502   4.107   4.323  10.432  0.0645  0.5107 -0.2354
  299MPD2    C3 4503   4.046   4.393  10.331  0.4641  0.1635  0.0951
  299MPD2    C4 4504   4.115   4.467  10.240 -0.2690  0.7233 -0.6143
  299MPD2    C5 4505   4.248   4.460  10.245 -0.5630 -0.4943 -0.2205
  299MPD2     H 4506   4.042   4.278  10.506  2.1926  0.6193  1.6786
  299MPD2    H1 4507   4.078   4.519  10.153  1.0645 -0.3976 -1.8390
  299MPD2    H2 4508   4.422   4.387  10.325  0.1317 -1.5813  0.7087
  299MPD2    H3 4509   4.302   4.515  10.169 -3.1690 -0.7756 -2.2723
  299MPD2     N 4510   3.908   4.379  10.321  0.4847 -0.7152  0.1874
  299MPD2    H5 4511   3.866   4.311  10.384  0.1962 -0.4253  0.3101
  299MPD2    N1 4512   4.312   4.259  10.549  0.2166  0.2927 -0.0203
  299MPD2    H7 4513   4.410   4.238  10.535 -0.2757 -0.5990 -2.1545
  300TMC3    C1 4514   3.694   4.414  10.256 -0.5918 -0.3997  0.2955
  300TMC3    C2 4515   3.605   4.516  10.282  0.0175  1.0354  0.0731
  300TMC3    C3 4516   3.511   4.488  10.382 -0.0184 -0.2037  0.1505
  300TMC3    C4 4517   3.683   4.285  10.298 -1.1702 -0.0215 -0.2177
  300TMC3    C5 4518   3.590   4.262  10.394 -0.8656 -0.0777  0.2076
  300TMC3    C6 4519   3.501   4.362  10.433 -0.1377 -0.2609 -0.3742
  300TMC3     C 4520   3.832   4.450  10.239 -1.0835 -0.1082  0.7522
  300TMC3     O 4521   3.851   4.552  10.176 -0.2313  0.0058 -0.3136
  300TMC3     H 4522   3.621   4.621  10.257  1.0484  1.4144  2.3383
  300TMC3    H1 4523   3.749   4.206  10.266 -2.9702 -0.9312 -1.6473
  300TMC3    H2 4524   3.430   4.354  10.514  0.8120  1.8011  0.6612
  300TMC3    C7 4525   3.654   4.217  10.513 -0.3099 -0.1587  0.0454
  300TMC3    C8 4526   3.511   4.583  10.484  0.1052  0.3924  0.1968
  300TMC3    O1 4527   3.776   4.215  10.507 -0.6668  0.0584  0.0427
  300TMC3    O2 4528   3.615   4.640  10.514 -0.2688 -0.4305 -0.9104
  301MPD2     C 4529   2.024   0.472   1.098  0.5741  0.4157  0.8516
  301MPD2    C1 4530   1.896   0.440   1.068  0.2537 -0.4880  0.5301
  301MPD2    C2 4531   1.875   0.341   0.978 -0.2306  0.0587  0.6962
  301MPD2    C3 4532   1.974   0.263   0.923 -1.3211  0.6618  0.5867
  301MPD2    C4 4533   2.102   0.303   0.951 -0.0713 -1.0455 -0.0362
  301MPD2    C5 4534   2.125   0.402   1.042 -0.4514  0.4780 -0.0051
  301MPD2     H 4535   1.770   0.315   0.977 -0.2732  0.2740 -1.3124
  301MPD2    H1 4536   2.188   0.249   0.914  0.1040  0.2940 -1.5765
  301MPD2    H2 4537   2.052   0.551   1.167 -1.0973  1.5376  0.2421
  301MPD2    H3 4538   2.229   0.416   1.071  0.3545 -1.4490 -1.9894
  301MPD2     N 4539   1.955   0.146   0.850  0.1721 -0.2765 -0.2167
  301MPD2    H5 4540   2.037   0.095   0.819  0.5676  1.0485 -1.3711
  301MPD2    N1 4541   1.783   0.497   1.134 -0.2279  0.0333  0.3179
  301MPD2    H7 4542   1.693   0.453   1.116 -1.1319  1.5501  1.1957
  302TMC3    C1 4543   1.823   4.687   0.764 -0.2333 -0.1765 -0.0753
  302TMC3    C2 4544   1.937   4.612   0.742  0.1773  1.1045  0.4192
  302TMC3    C3 4545   1.916   4.494   0.675 -1.3271  0.6593  0.3756
  302TMC3    C4 4546   1.700   4.647   0.718 -0.7015  0.3413 -0.2923
  302TMC3    C5 4547   1.682   4.533   0.648  0.8034  0.1295  0.2610
  302TMC3    C6 4548   1.793   4.456   0.619  0.2055 -0.4657  0.5020
  302TMC3     C 4549   1.831   0.096   0.817  0.5530  0.3068  0.4358
  302TMC3     O 4550   1.728   0.152   0.828  0.2243  0.4069  0.5620
  302TMC3     H 4551   2.033   4.641   0.783  0.3108 -0.3401  1.1457
  302TMC3    H1 4552   1.618   4.713   0.745  0.2829  1.0294  1.0113
  302TMC3    H2 4553   1.785   4.367   0.559  2.3515  0.9537 -1.9126
  302TMC3    C7 4554   1.563   4.501   0.585 -0.2278 -0.1935 -0.0958
  302TMC3    C8 4555   2.039   4.415   0.642  0.0460 -1.4249 -0.0476
  302TMC3    O1 4556   1.568   4.440   0.480 -0.0833 -0.4649 -0.0096
  302TMC3    O2 4557   2.133   4.442   0.719  1.0695 -0.0753 -0.2367
  303MPD2     C 4558   1.305   2.667  10.758  0.3145  0.1757 -0.4238
  303MPD2    C1 4559   1.303   2.625  10.629 -0.7212 -0.0791 -0.4696
  303MPD2    C2 4560   1.371   2.693  10.535 -0.1124 -0.6229  0.6855
  303MPD2    C3 4561   1.424   2.813  10.566 -0.8215 -1.0862  0.1284
  303MPD2    C4 4562   1.410   2.861  10.694  0.0714 -0.1046 -0.4768
  303MPD2    C5 4563   1.352   2.789  10.794 -0.2464 -0.0587  0.3107
  303MPD2     H 4564   1.377   2.642  10.440 -1.0536  0.0170  0.2826
  303MPD2    H1 4565   1.449   2.960  10.715 -2.0592  0.5270  0.5667
  303MPD2    H2 4566   1.240   2.612  10.825  2.3016 -1.1616  0.3937
  303MPD2    H3 4567   1.325   2.836  10.888  1.4595  2.0216 -0.2247
  303MPD2     N 4568   1.509   2.879  10.466 -0.2633  0.8005 -0.6527
  303MPD2    H5 4569   1.567   2.951  10.507 -0.8292  1.0147 -0.2296
  303MPD2    N1 4570   1.233   2.509  10.597  0.2533  0.7497 -0.1260
  303MPD2    H7 4571   1.207   2.453  10.677  0.7698  0.8659  0.1265
  304TMC3    C1 4572   1.150   2.322  10.478 -0.4395  0.5681 -0.3532
  304TMC3    C2 4573   1.066   2.295  10.371 -0.0839  0.2791 -0.3272
  304TMC3    C3 4574   1.039   2.161  10.336  0.5788  0.0470 -0.3663
  304TMC3    C4 4575   1.220   2.220  10.543 -0.4696 -1.3794  0.5342
  304TMC3    C5 4576   1.193   2.092  10.506  0.3137  0.1661 -0.1843
  304TMC3    C6 4577   1.096   2.069  10.410  0.5614  0.5135  0.0698
  304TMC3     C 4578   1.213   2.455  10.474 -0.6242 -0.6008  0.2423
  304TMC3     O 4579   1.215   2.513  10.367  0.1840 -0.4177  0.2031
  304TMC3     H 4580   1.017   2.380  10.324 -1.3468  1.9891  4.0583
  304TMC3    H1 4581   1.289   2.241  10.624 -0.1550  2.4296 -0.7167
  304TMC3    H2 4582   1.084   1.969  10.371  3.1578  0.7722 -1.3752
  304TMC3    C7 4583   1.303   2.000  10.500 -0.2346  0.1670 -0.2184
  304TMC3    C8 4584   1.061   2.135  10.194 -0.0944  0.1581 -0.4134
  304TMC3    O1 4585   1.310   1.949  10.389  0.2772 -0.1150  0.1477
  304TMC3    O2 4586   0.994   2.196  10.114 -0.0751 -0.1178  0.2199
  305MPD2     C 4587   4.037   0.771  14.514 -0.3221 -0.2816 -0.5686
  305MPD2    C1 4588   4.166   0.721  14.497  0.6776  0.1188 -0.0311
  305MPD2    C2 4589   4.207   0.674  14.375  0.8618  0.3141  0.0296
  305MPD2    C3 4590   4.117   0.673  14.267  0.1921 -0.2409  0.4507
  305MPD2    C4 4591   3.988   0.718  14.279 -0.5251  0.3117  0.0130
  305MPD2    C5 4592   3.950   0.761  14.402  1.2803 -0.5934  0.3034
  305MPD2     H 4593   4.304   0.629  14.354  1.4576  0.6120  2.1865
  305MPD2    H1 4594   3.922   0.727  14.194 -1.1216 -0.2951  0.4170
  305MPD2    H2 4595   3.996   0.802  14.609 -2.7513  0.1095 -1.7482
  305MPD2    H3 4596   3.851   0.805  14.404  2.0193  1.0838 -0.0270
  305MPD2     N 4597   4.157   0.657  14.131  0.3246 -0.2459  0.1629
  305MPD2    H5 4598   4.087   0.671  14.059  1.3220  0.1706 -0.7378
  305MPD2    N1 4599   4.253   0.724  14.612  0.2887 -0.1136 -0.3378
  305MPD2    H7 4600   4.209   0.740  14.702 -1.8342  0.2261 -1.4421
  306TMC3    C1 4601   4.414   0.692  14.759 -0.6256 -0.9352 -0.1384
  306TMC3    C2 4602   4.507   0.596  14.782  0.6404 -0.2158  0.7289
  306TMC3    C3 4603   4.537   0.564  14.913 -0.1467 -0.3760  0.3210
  306TMC3    C4 4604   4.350   0.759  14.858  0.3200  0.2257  1.1813
  306TMC3    C5 4605   4.376   0.718  14.988 -0.3054 -0.3807  0.4082
  306TMC3    C6 4606   4.470   0.627  15.018  0.2905  0.5744  0.1253
  306TMC3     C 4607   4.386   0.711  14.618  0.4169  0.7076 -0.4145
  306TMC3     O 4608   4.457   0.674  14.527  0.5260 -0.4137  0.2992
  306TMC3     H 4609   4.576   0.560  14.706  1.0858  1.5918  0.2747
  306TMC3    H1 4610   4.293   0.849  14.833  0.8322  0.5634  1.2242
  306TMC3    H2 4611   4.479   0.596  15.121  0.5310 -0.7773 -0.2906
  306TMC3    C7 4612   4.321   0.789  15.103  0.0942  0.0668  0.1625
  306TMC3    C8 4613   4.635   0.460  14.938 -0.6674  0.0505 -0.2462
  306TMC3    O1 4614   4.233   0.868  15.074 -0.2973 -0.4623 -0.3853
  306TMC3    O2 4615   4.693   0.405  14.844 -0.4010  0.3702  0.1320
  307MPD2     C 4616   2.071   2.888   1.870  0.0108 -0.0549  0.8764
  307MPD2    C1 4617   2.136   2.972   1.775 -0.8628  0.2295  0.2460
  307MPD2    C2 4618   2.064   3.053   1.692  0.0174  0.3254 -0.0315
  307MPD2    C3 4619   1.926   3.065   1.709 -0.1813  0.3419 -0.1227
  307MPD2    C4 4620   1.861   2.994   1.806  0.1913 -0.1130  0.0095
  307MPD2    C5 4621   1.935   2.902   1.885 -0.4281 -0.0349 -0.4072
  307MPD2     H 4622   2.119   3.123   1.631 -1.4085  0.4353 -1.1901
  307MPD2    H1 4623   1.754   2.990   1.824 -0.0130 -3.1237 -1.8730
  307MPD2    H2 4624   2.123   2.830   1.945 -0.7997 -1.3987  0.3881
  307MPD2    H3 4625   1.892   2.848   1.968  1.1784 -0.7947 -0.0703
  307MPD2     N 4626   1.861   3.155   1.624  0.0749 -0.6966  0.8350
  307MPD2    H5 4627   1.924   3.202   1.560 -0.3686 -0.2197  0.7490
  307MPD2    N1 4628   2.274   2.972   1.755 -0.5173  0.1896  0.2291
  307MPD2    H7 4629   2.319   3.000   1.669 -2.3933  2.9056  0.1369
  308TMC3    C1 4630   1.591   3.360   1.323 -0.6081  0.2487  0.2274
  308TMC3    C2 4631   1.660   3.481   1.329  0.3260 -0.4086  0.7604
  308TMC3    C3 4632   1.744   3.494   1.440  0.5996  0.3394 -0.0457
  308TMC3    C4 4633   1.606   3.265   1.419 -0.3690  0.1249 -1.3189
  308TMC3    C5 4634   1.699   3.281   1.518 -0.1641 -0.1457 -0.3093
  308TMC3    C6 4635   1.765   3.392   1.526 -0.1763 -0.1936  0.6848
  308TMC3     C 4636   1.515   3.331   1.207 -0.8722  0.4567  0.3426
  308TMC3     O 4637   1.463   3.221   1.200  0.1410  0.1664 -0.0514
  308TMC3     H 4638   1.650   3.562   1.257  0.0173 -1.7248 -0.6697
  308TMC3    H1 4639   1.532   3.186   1.428  0.9427 -0.8157  1.3712
  308TMC3    H2 4640   1.832   3.417   1.609  0.4048  0.7656 -0.0687
  308TMC3    C7 4641   1.726   3.161   1.605  0.1220  0.3555  0.1836
  308TMC3    C8 4642   1.856   3.581   1.413 -0.0567  0.1659 -0.0440
  308TMC3    O1 4643   1.632   3.089   1.633  0.0689 -0.5532 -0.4684
  308TMC3    O2 4644   1.965   3.526   1.418 -0.1997  0.9716  0.3188
  309MPD2     C 4645   1.450   4.195  17.093  0.4019 -0.5832  0.2704
  309MPD2    C1 4646   1.347   4.173  17.006 -0.8579  0.3189  0.3525
  309MPD2    C2 4647   1.220   4.197  17.054  0.2330  0.0585  0.2029
  309MPD2    C3 4648   1.194   4.229  17.184  0.1638 -0.3064 -0.0160
  309MPD2    C4 4649   1.303   4.244  17.271 -0.5144 -0.4987  0.3776
  309MPD2    C5 4650   1.429   4.245  17.216 -1.1940 -0.4773  0.0304
  309MPD2     H 4651   1.140   4.182  16.983  1.6715 -1.4999 -1.0946
  309MPD2    H1 4652   1.282   4.275  17.373  2.0586 -1.8516  1.3036
  309MPD2    H2 4653   1.553   4.168  17.071 -0.1712 -1.1425 -1.7355
  309MPD2    H3 4654   1.518   4.267  17.274 -1.1118  0.7367 -0.5734
  309MPD2     N 4655   1.064   4.235  17.234  0.0263 -0.1095 -0.0489
  309MPD2    H5 4656   1.063   4.281  17.324  1.0936  1.8716 -1.0607
  309MPD2    N1 4657   1.367   4.137  16.867 -0.4288  0.3549  0.0920
  309MPD2    H7 4658   1.281   4.135  16.812 -0.4726  3.1416  0.0976
  310TMC3    C1 4659   1.468   4.019  16.687 -0.3162 -0.0736 -0.3813
  310TMC3    C2 4660   1.463   4.098  16.581 -0.0195 -0.2849 -0.7682
  310TMC3    C3 4661   1.503   4.036  16.466  0.0371  0.4584  0.5353
  310TMC3    C4 4662   1.526   3.895  16.687 -0.0839  0.8114  0.3004
  310TMC3    C5 4663   1.589   3.849  16.574 -0.1050 -0.2888  0.4442
  310TMC3    C6 4664   1.570   3.920  16.455  0.1458  0.4040  0.0453
  310TMC3     C 4665   1.480   4.087  16.813 -1.2075 -0.7178 -0.2525
  310TMC3     O 4666   1.584   4.061  16.875  0.5292 -0.0406 -0.3006
  310TMC3     H 4667   1.404   4.189  16.580  0.0047 -0.2479  1.0504
  310TMC3    H1 4668   1.544   3.848  16.783 -0.0499  2.7511  1.2277
  310TMC3    H2 4669   1.601   3.876  16.361  0.1287 -0.2722  0.3586
  310TMC3    C7 4670   1.704   3.759  16.591 -0.1865 -0.7484 -1.0341
  310TMC3    C8 4671   1.478   4.106  16.340 -0.4936  0.7059  0.1638
  310TMC3    O1 4672   1.738   3.692  16.492 -0.0756  0.4289 -0.0255
  310TMC3    O2 4673   1.383   4.185  16.338 -0.1427 -0.5697 -0.3940
  311MPD2     C 4674   3.692   0.134  12.800  0.1551 -0.2645 -0.1736
  311MPD2    C1 4675   3.674   0.270  12.798  0.1155 -0.8323  0.2239
  311MPD2    C2 4676   3.553   0.314  12.852 -0.0026  0.2233  0.1078
  311MPD2    C3 4677   3.460   0.232  12.920  0.2918  0.1732 -0.3427
  311MPD2    C4 4678   3.481   0.098  12.915  0.7044  0.6155 -0.4816
  311MPD2    C5 4679   3.590   0.053  12.851  0.2482 -0.8644  0.4718
  311MPD2     H 4680   3.534   0.420  12.844  0.6141  0.3685  0.5639
  311MPD2    H1 4681   3.409   0.029  12.959  0.8267 -0.6554 -2.2313
  311MPD2    H2 4682   3.777   0.084  12.753  2.7526  1.5730  2.5880
  311MPD2    H3 4683   3.605   4.670  12.832 -3.9393 -1.3702 -0.2031
  311MPD2     N 4684   3.350   0.308  12.974 -0.9721  0.5079  0.0518
  311MPD2    H5 4685   3.352   0.409  12.961  1.1402  0.7139  2.0190
  311MPD2    N1 4686   3.752   0.368  12.735 -0.0582 -0.5037  0.3229
  311MPD2    H7 4687   3.710   0.459  12.748  0.6494 -0.5082  2.6739
  312TMC3    C1 4688   3.146   0.332  13.103 -0.8056 -0.7184  0.1583
  312TMC3    C2 4689   3.024   0.275  13.119  0.6499 -0.0342  0.1609
  312TMC3    C3 4690   2.930   0.364  13.163 -0.2004  0.1504  0.4080
  312TMC3    C4 4691   3.177   0.462  13.126  0.3761 -0.0263 -0.4694
  312TMC3    C5 4692   3.079   0.541  13.173  0.0598  0.3399 -0.4153
  312TMC3    C6 4693   2.955   0.497  13.179  0.4635  0.0409 -0.1320
  312TMC3     C 4694   3.254   0.250  13.054  0.2161 -0.1219 -1.1326
  312TMC3     O 4695   3.241   0.132  13.083  0.3021 -0.2332  0.0871
  312TMC3     H 4696   3.009   0.168  13.105  1.3826 -0.0799 -0.2733
  312TMC3    H1 4697   3.277   0.503  13.120  0.6758 -0.8160 -0.8082
  312TMC3    H2 4698   2.889   0.571  13.223  1.0343  0.9691 -0.8527
  312TMC3    C7 4699   3.112   0.670  13.227 -0.4482  0.5721  0.3112
  312TMC3    C8 4700   2.791   0.331  13.135 -0.3136 -0.2297  0.3332
  312TMC3    O1 4701   3.057   0.764  13.173  0.4173 -0.1702  0.6206
  312TMC3    O2 4702   2.762   0.213  13.142 -0.4108  0.4842 -0.4911
  313MPD2     C 4703   2.663   4.218  11.365  0.6118 -0.5933 -0.4099
  313MPD2    C1 4704   2.775   4.243  11.284  0.6600 -0.5602 -0.4540
  313MPD2    C2 4705   2.804   4.152  11.190 -0.1842 -0.0237  0.1031
  313MPD2    C3 4706   2.721   4.040  11.176  0.6960 -0.1349  0.2797
  313MPD2    C4 4707   2.610   4.020  11.252  0.4152 -0.3797  0.3279
  313MPD2    C5 4708   2.584   4.108  11.352 -0.4173 -0.6357 -0.6474
  313MPD2     H 4709   2.893   4.159  11.128 -0.1728 -0.6822  0.0471
  313MPD2    H1 4710   2.538   3.938  11.247 -1.7836  1.5929 -0.5911
  313MPD2    H2 4711   2.643   4.290  11.444 -0.5967 -0.8431 -0.4840
  313MPD2    H3 4712   2.505   4.083  11.423  1.1956 -1.8992  0.6914
  313MPD2     N 4713   2.759   3.945  11.077 -0.4141  0.1251 -0.7811
  313MPD2    H5 4714   2.841   3.968  11.021  1.6671 -1.5228  1.5676
  313MPD2    N1 4715   2.847   4.367  11.316 -0.9107 -0.0834  0.2220
  313MPD2    H7 4716   2.811   4.423  11.393 -1.2089  1.8409 -1.3291
  314TMC3    C1 4717   3.005   4.534  11.300  0.1597  0.3569  0.5591
  314TMC3    C2 4718   3.138   4.571  11.277 -0.9482 -0.3630  0.0363
  314TMC3    C3 4719   3.157   4.692  11.215  0.0101  0.3258  0.8199
  314TMC3    C4 4720   2.893   4.614  11.268 -0.8073 -0.0841  0.2129
  314TMC3    C5 4721   2.918   0.010  11.199  0.7936 -0.9660  0.1998
  314TMC3    C6 4722   3.047   0.046  11.176 -0.3002  0.0648  0.3879
  314TMC3     C 4723   2.977   4.393  11.278 -0.0532  0.2451  0.5256
  314TMC3     O 4724   3.042   4.333  11.199  0.4130 -0.4198 -0.6371
  314TMC3     H 4725   3.214   4.498  11.302  0.0272  0.2485 -1.1076
  314TMC3    H1 4726   2.790   4.581  11.261 -0.7234 -0.6559  1.6285
  314TMC3    H2 4727   3.070   0.147  11.143  1.7232 -0.3543  0.5279
  314TMC3    C7 4728   2.820   0.044  11.099 -0.0732 -0.3525 -1.0050
  314TMC3    C8 4729   3.285   0.012  11.168 -0.1151 -0.6074  0.0955
  314TMC3    O1 4730   2.702   0.018  11.128 -0.2518 -0.4123  0.4352
  314TMC3    O2 4731   3.279   0.106  11.090  0.5435 -0.6868 -0.6134
  315MPD2     C 4732   2.655   3.415   0.372  0.3024 -0.5371  0.6812
  315MPD2    C1 4733   2.787   3.431   0.426 -0.3642  0.0951  0.0782
  315MPD2    C2 4734   2.857   3.550   0.402 -0.6839  0.5363 -0.1564
  315MPD2    C3 4735   2.806   3.640   0.303  0.4472  0.2876 -0.7545
  315MPD2    C4 4736   2.684   3.626   0.258  0.0468  0.0825 -0.1002
  315MPD2    C5 4737   2.612   3.516   0.293 -0.1209  0.5987  0.3207
  315MPD2     H 4738   2.953   3.571   0.449 -1.9992  0.2999  2.5827
  315MPD2    H1 4739   2.631   3.703   0.203  1.8349  0.5721 -1.1662
  315MPD2    H2 4740   2.584   3.336   0.396  1.2121 -1.2655  0.9828
  315MPD2    H3 4741   2.508   3.511   0.264  0.0453 -0.9091 -0.0406
  315MPD2     N 4742   2.891   3.752   0.260  0.6330 -0.0093  0.4037
  315MPD2    H5 4743   2.982   3.750   0.304 -0.0738 -1.5705  1.8287
  315MPD2    N1 4744   2.841   3.335   0.521 -0.1359 -0.4569 -0.2186
  315MPD2    H7 4745   2.938   3.343   0.550 -0.2733 -0.6912  0.3092
  316TMC3    C1 4746   2.966   3.955   0.159 -0.3490 -0.2505  0.0633
  316TMC3    C2 4747   3.072   3.961   0.240  0.5625 -1.0778  0.2705
  316TMC3    C3 4748   3.166   4.066   0.227  0.0068 -0.0031  0.0006
  316TMC3    C4 4749   2.937   4.061   0.074 -0.5355  0.5254 -0.1404
  316TMC3    C5 4750   3.019   4.173   0.079 -0.1932  0.1581  0.1206
  316TMC3    C6 4751   3.127   4.178   0.159 -0.0061 -0.4679 -0.5013
  316TMC3     C 4752   2.863   3.855   0.169 -0.1972  0.1216  0.1472
  316TMC3     O 4753   2.755   3.888   0.118  0.0437  0.0559  0.3919
  316TMC3     H 4754   3.085   3.882   0.312 -0.3011 -0.2609  1.3185
  316TMC3    H1 4755   2.845   4.059   0.017 -0.3830  1.6493 -0.4423
  316TMC3    H2 4756   3.190   4.266   0.153 -0.1565 -0.2095  1.6901
  316TMC3    C7 4757   2.973   4.303   0.011  0.5756 -0.2435 -0.1933
  316TMC3    C8 4758   3.241   4.092   0.348 -0.3351 -0.0124 -0.5843
  316TMC3    O1 4759   3.037   4.408   0.038 -0.0014  0.4718 -0.6555
  316TMC3    O2 4760   3.270   4.211   0.379  0.8738  0.2576 -0.3147
  317MPD2     C 4761   4.622   2.507  13.563  0.3555 -0.1825 -0.0672
  317MPD2    C1 4762   4.625   2.452  13.435 -0.5863  0.3582 -0.0723
  317MPD2    C2 4763   4.699   2.338  13.416 -0.1950  0.3300 -0.0861
  317MPD2    C3 4764   0.039   2.273  13.517 -0.5248 -0.2706 -0.7076
  317MPD2    C4 4765   0.036   2.328  13.645  0.5458  0.3287 -0.5311
  317MPD2    C5 4766   4.699   2.449  13.665  0.6857  0.4014  0.4026
  317MPD2     H 4767   4.706   2.306  13.313 -0.6837  0.9507 -0.3105
  317MPD2    H1 4768   0.085   2.282  13.730 -1.5078  2.1766  1.6628
  317MPD2    H2 4769   4.572   2.600  13.588  0.6884 -0.6344  2.2754
  317MPD2    H3 4770   4.698   2.495  13.763  2.5722 -0.2884  0.7455
  317MPD2     N 4771   0.110   2.161  13.478  0.1402  0.5575 -0.4279
  317MPD2    H5 4772   0.102   2.127  13.382 -2.0663  3.4259 -1.2484
  317MPD2    N1 4773   4.559   2.512  13.326  0.1580 -0.1878 -0.7788
  317MPD2    H7 4774   4.580   2.466  13.238  0.9438 -1.5461  0.1080
  318TMC3    C1 4775   0.194   1.943  13.492  0.0774  0.0684 -0.3475
  318TMC3    C2 4776   0.078   1.873  13.490  0.1046 -0.6968  0.2502
  318TMC3    C3 4777   0.044   1.809  13.376  0.3406 -0.1582  0.2275
  318TMC3    C4 4778   0.274   1.936  13.380 -0.8844 -0.1956 -0.1510
  318TMC3    C5 4779   0.242   1.850  13.276  0.3259 -0.3370  1.3499
  318TMC3    C6 4780   0.121   1.783  13.263  0.3388  0.1860  0.1478
  318TMC3     C 4781   0.179   2.073  13.558  0.3002  0.2861  0.1601
  318TMC3     O 4782   0.212   2.091  13.675 -0.1522 -0.1048 -0.5184
  318TMC3     H 4783   0.001   1.898  13.561  0.6847 -2.6929  1.5782
  318TMC3    H1 4784   0.358   2.003  13.365 -0.3695 -0.2488  2.5183
  318TMC3    H2 4785   0.095   1.725  13.175 -1.5689  1.1812  0.0767
  318TMC3    C7 4786   0.348   1.796  13.197 -1.1299 -0.0061  0.1520
  318TMC3    C8 4787   4.658   1.719  13.391 -0.7975  0.5987  0.0219
  318TMC3    O1 4788   0.324   1.763  13.080  0.2225 -0.1573 -0.4227
  318TMC3    O2 4789   4.632   1.680  13.503 -0.4828  0.3832 -1.1665
  319MPD2     C 4790   0.820   3.339  16.295  0.2547 -0.4043  0.5123
  319MPD2    C1 4791   0.689   3.380  16.308 -0.3634 -0.2281  0.3184
  319MPD2    C2 4792   0.600   3.382  16.202  0.2695 -0.7951 -0.6443
  319MPD2    C3 4793   0.630   3.322  16.082 -0.6305  0.8567 -0.1783
  319MPD2    C4 4794   0.755   3.269  16.072  0.2373  0.9453  0.2857
  319MPD2    C5 4795   0.850   3.280  16.174  0.4487 -0.1137  0.2602
  319MPD2     H 4796   0.504   3.426  16.224  0.9228  0.5226 -0.4218
  319MPD2    H1 4797   0.783   3.217  15.981 -0.1224 -0.7738  1.1781
  319MPD2    H2 4798   0.891   3.346  16.376  2.2508  0.2350 -1.2936
  319MPD2    H3 4799   0.946   3.231  16.160  0.4598  0.1139 -0.4794
  319MPD2     N 4800   0.540   3.310  15.975  1.1112  0.0129 -1.1395
  319MPD2    H5 4801   0.573   3.256  15.895  1.5060  0.6254 -1.3873
  319MPD2    N1 4802   0.635   3.424  16.432 -0.9427  0.4000  0.4522
  319MPD2    H7 4803   0.537   3.405  16.450 -1.1815 -0.1885 -1.4517
  320TMC3    C1 4804   0.340   3.313  15.867 -0.4772  0.3812 -0.0777
  320TMC3    C2 4805   0.254   3.401  15.807  0.2561  0.2575  0.3131
  320TMC3    C3 4806   0.121   3.366  15.795  0.3835  0.4425  0.0657
  320TMC3    C4 4807   0.302   3.190  15.899 -0.1810  0.5592 -0.2259
  320TMC3    C5 4808   0.174   3.155  15.882  0.1878 -0.0047 -0.4090
  320TMC3    C6 4809   0.073   3.240  15.834  0.2217  0.2883  0.0501
  320TMC3     C 4810   0.425   3.381  15.960 -0.4928 -0.4418 -0.0007
  320TMC3     O 4811   0.366   3.454  16.042 -0.0366  0.5827  0.0267
  320TMC3     H 4812   0.296   3.498  15.785 -0.3542  0.3551 -0.4563
  320TMC3    H1 4813   0.371   3.115  15.936 -1.0952 -0.8686 -1.4139
  320TMC3    H2 4814   4.691   3.216  15.839 -0.0452  1.4464  0.0217
  320TMC3    C7 4815   0.131   3.047  15.960  0.0357 -0.2519  0.2094
  320TMC3    C8 4816   0.027   3.479  15.772 -0.0686 -0.4001  0.0985
  320TMC3    O1 4817   0.030   2.981  15.934 -0.4402  0.6453 -0.0271
  320TMC3    O2 4818   0.079   3.587  15.796  0.3303  0.4579 -0.0544
  321TMC3    C1 4819   0.645   3.472  16.655  0.4364  0.0286  0.1016
  321TMC3    C2 4820   0.594   3.357  16.705 -0.3429 -0.1191  0.5118
  321TMC3    C3 4821   0.577   3.347  16.841  0.1008 -0.0946  0.3474
  321TMC3    C4 4822   0.664   3.578  16.740 -0.0952  0.0015 -0.5652
  321TMC3    C5 4823   0.635   3.564  16.875 -0.4783 -0.7767  0.4559
  321TMC3    C6 4824   0.581   3.456  16.926  0.2495 -0.8212  0.1981
  321TMC3     C 4825   0.717   3.465  16.533 -0.2778 -0.6773 -0.0356
  321TMC3     O 4826   0.827   3.512  16.523 -0.3783  0.1050 -0.0860
  321TMC3     H 4827   0.601   3.271  16.640  0.6376 -1.7556  2.7993
  321TMC3    H1 4828   0.710   3.672  16.709 -0.8022  0.5816  0.1427
  321TMC3    H2 4829   0.552   3.455  17.030 -0.2928 -0.5111  0.0545
  321TMC3    C7 4830   0.748   3.598  16.960 -0.7793  0.2735  0.0149
  321TMC3    C8 4831   0.621   3.218  16.894 -0.4479 -0.4273  0.1414
  321TMC3    O1 4832   0.765   3.527  17.059 -0.2941 -0.4507  0.2362
  321TMC3    O2 4833   0.586   3.112  16.842  0.1774  0.2736 -0.2501
  322MPD2     C 4834   4.060   0.255  13.990 -0.0061 -0.4250  0.2201
  322MPD2    C1 4835   4.149   0.167  14.058  0.1520 -0.6288  0.1583
  322MPD2    C2 4836   4.183   0.049  13.993  0.8896  0.3295 -0.0479
  322MPD2    C3 4837   4.126   0.020  13.868  0.5046 -0.2418  0.1797
  322MPD2    C4 4838   4.037   0.107  13.807 -0.1202 -0.3717  0.4547
  322MPD2    C5 4839   4.008   0.228  13.873  0.2049 -0.7239 -0.4587
  322MPD2     H 4840   4.255   4.708  14.042  2.2334  1.0445 -1.0963
  322MPD2    H1 4841   3.994   0.094  13.709  0.4638  2.3082 -0.1498
  322MPD2    H2 4842   4.031   0.352  14.029  1.0005 -0.8145  1.9206
  322MPD2    H3 4843   3.948   0.308  13.833 -0.5706 -0.8201  0.5055
  322MPD2     N 4844   4.152   4.616  13.812  0.1425 -0.1112  0.2755
  322MPD2    H5 4845   4.210   4.550  13.863  0.7125  1.0430  1.1029
  322MPD2    N1 4846   4.205   0.210  14.180  0.0509  0.0949 -0.0225
  322MPD2    H7 4847   4.179   0.299  14.220 -1.0761 -1.0178  1.7513
  323TMC3    C1 4848   4.331   0.191  14.374 -0.2286  0.7207  0.4763
  323TMC3    C2 4849   4.398   0.302  14.343  0.4519  0.5429 -0.2498
  323TMC3    C3 4850   4.499   0.349  14.430 -0.1432 -0.3648  0.6683
  323TMC3    C4 4851   4.356   0.125  14.493  0.0587  0.2815  0.4814
  323TMC3    C5 4852   4.445   0.184  14.580 -0.0823  0.2545  0.2092
  323TMC3    C6 4853   4.518   0.297  14.555  0.3244 -0.2341 -0.1179
  323TMC3     C 4854   4.261   0.122  14.267  0.7062  0.2213  1.2651
  323TMC3     O 4855   4.261   4.721  14.269 -0.1106 -1.0138  0.4763
  323TMC3     H 4856   4.387   0.343  14.243  0.3711 -1.2178 -0.9551
  323TMC3    H1 4857   4.302   0.038  14.529 -0.3971 -0.6015 -2.2782
  323TMC3    H2 4858   4.597   0.317  14.626 -0.8519 -1.0489  1.4237
  323TMC3    C7 4859   4.513   0.086  14.661  0.0758 -0.4098 -0.5187
  323TMC3    C8 4860   4.620   0.415  14.381  0.0751  0.7757 -0.1601
  323TMC3    O1 4861   4.534   4.709  14.594  0.3081 -0.6335 -0.3572
  323TMC3    O2 4862   0.005   0.399  14.445 -0.2906 -0.3218  0.0944
  324MPD2     C 4863   1.351   1.162  14.162 -0.2854  0.3881 -0.7584
  324MPD2    C1 4864   1.424   1.221  14.262  0.4555  0.4022  0.0745
  324MPD2    C2 4865   1.354   1.259  14.375 -0.2109  0.6096 -0.3132
  324MPD2    C3 4866   1.224   1.228  14.399  0.4951 -0.3326  0.4279
  324MPD2    C4 4867   1.153   1.178  14.295  0.0469 -1.1250 -0.2549
  324MPD2    C5 4868   1.212   1.145  14.176  0.7167  0.0841  0.0686
  324MPD2     H 4869   1.408   1.300  14.460  0.7706  0.7244 -0.9893
  324MPD2    H1 4870   1.051   1.143  14.303  0.6065 -3.2327 -2.1295
  324MPD2    H2 4871   1.403   1.140  14.070  0.6450  0.0709 -0.1543
  324MPD2    H3 4872   1.155   1.100  14.096  1.6847 -0.5960 -0.2283
  324MPD2     N 4873   1.161   1.234  14.524  0.0042 -0.2091  0.2890
  324MPD2    H5 4874   1.071   1.186  14.531 -0.7197  1.1856  0.4197
  324MPD2    N1 4875   1.563   1.232  14.261  0.5702 -0.6452  0.5776
  324MPD2    H7 4876   1.600   1.273  14.346  0.0845 -1.5110  1.2045
  325TMC3    C1 4877   1.119   1.250  14.754 -0.0838 -0.0220 -0.2042
  325TMC3    C2 4878   1.031   1.148  14.739 -0.7458  0.2129 -0.5235
  325TMC3    C3 4879   0.901   1.179  14.761 -0.1717 -0.7106 -0.4904
  325TMC3    C4 4880   1.085   1.377  14.793 -0.1310 -0.6767 -0.3874
  325TMC3    C5 4881   0.949   1.405  14.807  0.2004 -0.7741 -0.5815
  325TMC3    C6 4882   0.856   1.302  14.804 -1.1186 -0.1330  0.2541
  325TMC3     C 4883   1.218   1.261  14.641  0.3522 -0.3498 -0.1250
  325TMC3     O 4884   1.321   1.324  14.664  0.7560 -0.2278 -0.0604
  325TMC3     H 4885   1.058   1.051  14.700 -2.2277  0.2832 -1.7284
  325TMC3    H1 4886   1.147   1.466  14.790  0.0658 -0.8024  0.0402
  325TMC3    H2 4887   0.753   1.333  14.807 -1.1743 -0.2219 -0.6144
  325TMC3    C7 4888   0.915   1.544  14.769 -0.1674  0.3640 -0.1935
  325TMC3    C8 4889   0.820   1.129  14.658  0.1382  0.1919  0.5067
  325TMC3    O1 4890   0.994   1.592  14.685  0.2371  0.0219  0.1179
  325TMC3    O2 4891   0.870   1.110  14.547 -0.2378 -0.1976 -0.1167
  326MPD2     C 4892   2.777   2.015  11.404 -0.1771 -0.0867  0.5255
  326MPD2    C1 4893   2.838   2.012  11.282 -0.3312 -0.3387 -0.1300
  326MPD2    C2 4894   2.948   2.098  11.260 -0.3595 -0.6878 -0.4261
  326MPD2    C3 4895   3.002   2.181  11.362  0.3123  0.4186 -0.5550
  326MPD2    C4 4896   2.929   2.183  11.482 -0.2242  0.0040  0.6310
  326MPD2    C5 4897   2.823   2.101  11.498  0.5628 -0.3496 -0.1199
  326MPD2     H 4898   2.978   2.109  11.156  0.7591 -0.7532 -0.1137
  326MPD2    H1 4899   2.960   2.245  11.565  0.3772  1.2108 -0.4790
  326MPD2    H2 4900   2.688   1.958  11.429  0.3210 -2.3733 -2.9183
  326MPD2    H3 4901   2.780   2.092  11.598  1.0638  1.6082  0.2882
  326MPD2     N 4902   3.112   2.266  11.347  0.3647  0.2087  0.3746
  326MPD2    H5 4903   3.128   2.331  11.423  2.4863 -0.1428  0.2145
  326MPD2    N1 4904   2.799   1.943  11.166  0.0307  0.0988  0.2018
  326MPD2    H7 4905   2.852   1.951  11.080  1.1353 -0.9503  0.7695
  327TMC3    C1 4906   2.686   1.818  11.004 -0.2865  0.6299  0.4487
  327TMC3    C2 4907   2.564   1.826  10.939  0.1495 -0.2448 -0.1609
  327TMC3    C3 4908   2.572   1.819  10.800  0.0766  0.6896  0.2699
  327TMC3    C4 4909   2.802   1.797  10.936 -0.0218 -0.0113  0.0356
  327TMC3    C5 4910   2.799   1.793  10.797 -0.1570  0.1632  0.2729
  327TMC3    C6 4911   2.688   1.811  10.730 -0.2795  0.3606  0.2115
  327TMC3     C 4912   2.687   1.866  11.144  0.4456  0.1834  0.4168
  327TMC3     O 4913   2.590   1.845  11.213  0.0466  0.2843 -0.0276
  327TMC3     H 4914   2.469   1.857  10.981  0.4470  0.1219  0.2477
  327TMC3    H1 4915   2.898   1.783  10.984 -0.6426  1.7661  1.8126
  327TMC3    H2 4916   2.682   1.802  10.622 -2.2909 -0.6681  0.4118
  327TMC3    C7 4917   2.911   1.872  10.737 -0.0864 -0.0050  0.7255
  327TMC3    C8 4918   2.442   1.841  10.736  0.4756 -0.0162 -0.0748
  327TMC3    O1 4919   2.880   1.975  10.685  0.2730  0.2044  0.4771
  327TMC3    O2 4920   2.351   1.785  10.797  0.0308  0.2765  0.4036
  328MPD2     C 4921   0.689   2.556  17.029 -0.4463 -0.0806  0.3415
  328MPD2    C1 4922   0.567   2.507  16.996 -0.4066 -0.3243  0.1424
  328MPD2    C2 4923   0.471   2.590  16.948  0.3693 -0.0872  0.1355
  328MPD2    C3 4924   0.502   2.715  16.906 -0.2576 -0.7987 -0.7713
  328MPD2    C4 4925   0.628   2.762  16.924 -0.7671  0.1721 -0.7974
  328MPD2    C5 4926   0.719   2.682  16.987  0.6095 -0.4428  0.0288
  328MPD2     H 4927   0.371   2.548  16.940  0.7037 -0.9128  0.2595
  328MPD2    H1 4928   0.657   2.865  16.906  1.1164 -0.2511 -0.2034
  328MPD2    H2 4929   0.767   2.500  17.080  0.3877 -0.4895 -1.3883
  328MPD2    H3 4930   0.816   2.719  17.021 -0.7427  1.8807  1.3689
  328MPD2     N 4931   0.416   2.812  16.853 -0.1237  0.0006  0.3657
  328MPD2    H5 4932   0.459   2.903  16.840 -0.6891  0.4344  1.6417
  328MPD2    N1 4933   0.538   2.374  17.034  0.2630  0.3025  0.3194
  328MPD2    H7 4934   0.620   2.323  17.064  0.5148 -0.5946 -1.8392
  329TMC3    C1 4935   0.428   2.184  17.112  0.2194 -0.0095  0.8060
  329TMC3    C2 4936   0.343   2.078  17.079  0.2022 -0.0549 -0.1421
  329TMC3    C3 4937   0.312   1.985  17.176  0.5206 -0.9082 -0.2038
  329TMC3    C4 4938   0.478   2.194  17.236  0.3819  0.4426  0.4137
  329TMC3    C5 4939   0.443   2.102  17.330  0.4508 -0.0413 -0.4648
  329TMC3    C6 4940   0.363   1.993  17.304 -1.1034  0.5102 -0.4039
  329TMC3     C 4941   0.419   2.301  17.028 -0.3277 -0.5664 -0.4658
  329TMC3     O 4942   0.315   2.330  16.974  0.0152  0.3312 -0.1853
  329TMC3     H 4943   0.290   2.080  16.984  1.8080  2.2054 -0.9933
  329TMC3    H1 4944   0.526   2.283  17.273  1.3011 -0.4561  1.3624
  329TMC3    H2 4945   0.339   1.918  17.378 -0.4432  0.1878 -0.5131
  329TMC3    C7 4946   0.513   2.112  17.457  0.3245  0.4457  0.1745
  329TMC3    C8 4947   0.198   1.907  17.148  0.3791 -0.3945 -0.2436
  329TMC3    O1 4948   0.608   2.193  17.466  0.1857  0.4372  0.2029
  329TMC3    O2 4949   0.188   1.872  17.031 -0.6250 -0.2321  0.4399
  330TMC3    C1 4950   3.307   1.785   9.623 -0.4512  0.0764  0.2902
  330TMC3    C2 4951   3.331   1.650   9.653 -0.0533 -0.2567 -0.0229
  330TMC3    C3 4952   3.424   1.635   9.756  0.6146 -0.2455 -0.4345
  330TMC3    C4 4953   3.346   1.895   9.688  0.6937 -0.6712  0.6836
  330TMC3    C5 4954   3.436   1.871   9.790 -0.1454 -0.0170 -0.2531
  330TMC3    C6 4955   3.479   1.745   9.820  0.9690 -0.3814  0.2078
  330TMC3     C 4956   3.177   1.808   9.558  0.1830  0.2209 -0.5491
  330TMC3     O 4957   3.124   1.911   9.586 -0.0637 -0.5341 -0.4751
  330TMC3     H 4958   3.294   1.565   9.598 -1.1501  0.6391 -0.6643
  330TMC3    H1 4959   3.319   1.997   9.663  0.4210 -0.7656  0.5956
  330TMC3    H2 4960   3.539   1.725   9.908  0.5117 -0.1666  0.5725
  330TMC3    C7 4961   3.505   1.984   9.849  0.0333 -0.2464 -0.1950
  330TMC3    C8 4962   3.486   1.509   9.760 -0.3803  0.0515 -0.4395
  330TMC3    O1 4963   3.445   2.090   9.854 -0.3143  0.6100  0.5604
  330TMC3    O2 4964   3.599   1.500   9.799 -0.1562  0.2524 -0.7268
  331MPD2     C 4965   0.682   0.008  12.811  0.8820  0.3888  0.1980
  331MPD2    C1 4966   0.805   0.075  12.802 -0.1177 -0.0772  0.1201
  331MPD2    C2 4967   0.905   0.035  12.716 -0.4893  0.2044  0.0803
  331MPD2    C3 4968   0.889   4.640  12.647 -0.3048  0.0401  0.3535
  331MPD2    C4 4969   0.785   4.558  12.676  0.2109  0.7323 -0.0295
  331MPD2    C5 4970   0.682   4.605  12.756  0.2233  0.1251 -0.3444
  331MPD2     H 4971   0.988   0.099  12.686  0.0303 -1.2088 -1.5261
  331MPD2    H1 4972   0.777   4.455  12.642  1.5288  0.8733 -0.7760
  331MPD2    H2 4973   0.606   0.045  12.879  0.5450  0.6676 -0.3270
  331MPD2    H3 4974   0.603   4.532  12.772 -2.8237  3.6236  0.5430
  331MPD2     N 4975   0.988   4.614  12.550 -0.1515 -0.0072  0.2553
  331MPD2    H5 4976   1.071   4.673  12.557 -0.8020  1.0871 -1.1525
  331MPD2    N1 4977   0.816   0.203  12.865 -0.1120  0.1816 -0.0653
  331MPD2    H7 4978   0.728   0.240  12.898 -0.2573  0.1346 -0.3955
  332TMC3    C1 4979   1.113   4.527  12.378 -0.4502 -0.5033 -0.6392
  332TMC3    C2 4980   1.152   4.656  12.344  0.2519 -0.0570  0.1422
  332TMC3    C3 4981   1.284   4.670  12.309  0.4100 -0.1687  0.1675
  332TMC3    C4 4982   1.196   4.417  12.379  0.3137  0.5533  0.5618
  332TMC3    C5 4983   1.326   4.449  12.370 -0.1482 -0.0443  0.2019
  332TMC3    C6 4984   1.377   4.573  12.322  0.8698 -1.0621 -0.2601
  332TMC3     C 4985   0.988   4.510  12.456 -0.4353 -0.0054  0.2788
  332TMC3     O 4986   0.917   4.412  12.435 -0.3231 -0.2510  0.1983
  332TMC3     H 4987   1.087   0.020  12.349 -2.1412 -1.9193  1.1151
  332TMC3    H1 4988   1.165   4.326  12.430 -3.1950  0.7022 -1.3307
  332TMC3    H2 4989   1.480   4.603  12.308  0.5403 -0.1929 -0.8722
  332TMC3    C7 4990   1.422   4.345  12.397 -0.7293 -0.2230  0.0823
  332TMC3    C8 4991   1.330   0.080  12.270  0.4282 -0.2008 -0.9494
  332TMC3    O1 4992   1.388   4.230  12.414 -0.6445 -0.4741  0.2479
  332TMC3    O2 4993   1.439   0.117  12.308 -0.2147 -0.1254  0.2214
  333MPD2     C 4994   1.579   0.478  11.161  0.0478  1.0906  0.3874
  333MPD2    C1 4995   1.616   0.371  11.086 -0.8016  0.1911  0.2216
  333MPD2    C2 4996   1.563   0.245  11.120  1.1048  0.3669 -0.0571
  333MPD2    C3 4997   1.480   0.225  11.230  0.2695  0.2070 -0.6932
  333MPD2    C4 4998   1.446   0.337  11.309  0.2852 -0.3562  1.0095
  333MPD2    C5 4999   1.493   0.461  11.266 -0.0586  0.3538 -0.1032
  333MPD2     H 5000   1.589   0.164  11.053  1.7694  0.1487  0.4587
  333MPD2    H1 5001   1.385   0.334  11.398 -0.6923  0.7052  0.3748
  333MPD2    H2 5002   1.613   0.581  11.150  0.7292  0.8135 -0.1436
  333MPD2    H3 5003   1.475   0.545  11.332  0.2619 -0.2488  0.7463
  333MPD2     N 5004   1.432   0.097  11.257  0.1451  0.6100  0.3525
  333MPD2    H5 5005   1.471   0.025  11.197  0.3684  0.6806  0.4147
  333MPD2    N1 5006   1.701   0.392  10.977  0.6119  0.1715  0.3432
  333MPD2    H7 5007   1.716   0.485  10.940 -2.4555  0.8679  0.8755
  334TMC3    C1 5008   1.841   0.362  10.800 -0.6277  0.8804 -0.1242
  334TMC3    C2 5009   1.956   0.293  10.749  0.4682  0.1758 -0.0658
  334TMC3    C3 5010   2.049   0.356  10.663  0.6262  0.5204  0.2913
  334TMC3    C4 5011   1.814   0.491  10.757  0.3141 -0.9497  0.2858
  334TMC3    C5 5012   1.898   0.536  10.657  0.8711 -0.3779  0.8068
  334TMC3    C6 5013   2.007   0.473  10.602  0.1180 -0.1120 -0.3117
  334TMC3     C 5014   1.763   0.294  10.904 -0.3984 -0.2503 -0.2782
  334TMC3     O 5015   1.758   0.173  10.922  0.5380 -0.5321  0.2965
  334TMC3     H 5016   1.979   0.199  10.797  0.7284 -0.0439 -0.6156
  334TMC3    H1 5017   1.727   0.550  10.787  0.9890 -0.6956  1.7155
  334TMC3    H2 5018   2.066   0.513  10.521  2.1812 -0.4075  1.0569
  334TMC3    C7 5019   1.888   0.674  10.608  0.4831 -0.2107 -0.4940
  334TMC3    C8 5020   2.151   0.267  10.604 -0.5441  0.3448 -0.0066
  334TMC3    O1 5021   1.843   0.757  10.688 -0.3617 -0.5912  0.4276
  334TMC3    O2 5022   2.136   0.146  10.623 -0.7329  0.0731  0.2594
  335TMC3    C1 5023   0.893   1.778  17.656  0.2072  0.7342 -0.2555
  335TMC3    C2 5024   0.803   1.783  17.556 -0.2542  0.4053  0.5545
  335TMC3    C3 5025   0.830   1.870  17.452 -0.3088 -0.1068 -0.2835
  335TMC3    C4 5026   1.015   1.846  17.658 -0.8814  0.0652  0.2850
  335TMC3    C5 5027   1.033   1.941  17.558 -0.0008 -0.6436  0.5749
  335TMC3    C6 5028   0.937   1.962  17.464 -0.2809  0.2824  0.0494
  335TMC3     C 5029   0.853   1.713   0.092 -0.2114 -0.4012 -0.5058
  335TMC3     O 5030   0.933   1.722   0.183 -0.4575  0.6358  0.4892
  335TMC3     H 5031   0.717   1.718  17.568  0.5882 -1.0068 -0.9350
  335TMC3    H1 5032   1.081   1.857   0.049 -1.1726 -0.6949  0.5972
  335TMC3    H2 5033   0.968   2.024  17.381 -3.2237  1.2971 -0.2899
  335TMC3    C7 5034   1.154   2.021  17.560  0.4021  0.5994 -0.4352
  335TMC3    C8 5035   0.750   1.864  17.331 -0.7145 -0.3881  0.2157
  335TMC3    O1 5036   1.253   1.974  17.611 -0.3401  0.2304 -0.2858
  335TMC3    O2 5037   0.787   1.946  17.244  0.0153 -0.5841  0.0142
  336MPD2     C 5038   0.394   4.528  16.621 -0.5136 -0.0897 -0.4332
  336MPD2    C1 5039   0.435   4.486  16.497 -0.6228  0.2100  0.3174
  336MPD2    C2 5040   0.520   4.373  16.487  0.4081 -0.2880  0.4557
  336MPD2    C3 5041   0.543   4.295  16.590 -0.4660  0.0301  0.2381
  336MPD2    C4 5042   0.498   4.338  16.715  0.3127  0.3788 -0.2905
  336MPD2    C5 5043   0.420   4.448  16.728  0.1118  0.8626  0.5712
  336MPD2     H 5044   0.540   4.335  16.388 -0.2976  1.2447 -0.2849
  336MPD2    H1 5045   0.505   4.269  16.798 -0.2210  0.2109 -0.3888
  336MPD2    H2 5046   0.326   4.612  16.629 -0.2345  0.1289 -0.3422
  336MPD2    H3 5047   0.409   4.482  16.831  0.5269 -0.9671  1.2164
  336MPD2     N 5048   0.611   4.174  16.578  0.1101 -0.5819  0.4335
  336MPD2    H5 5049   0.621   4.125  16.666  1.0682  0.9576  1.1756
  336MPD2    N1 5050   0.401   4.544  16.373 -0.0919  0.2132 -0.0940
  336MPD2    H7 5051   0.415   4.488  16.290 -1.2234  0.4516 -0.4479
  337TMC3    C1 5052   0.282   4.671  16.220 -0.0924 -0.8976 -0.5647
  337TMC3    C2 5053   0.263   4.559  16.138  0.2376 -0.0877 -0.0172
  337TMC3    C3 5054   0.198   4.582  16.021  0.2147  0.0452  0.8073
  337TMC3    C4 5055   0.234   0.070  16.195 -0.7428 -0.1118  0.8895
  337TMC3    C5 5056   0.167   0.086  16.074 -0.4165 -0.0981  0.3264
  337TMC3    C6 5057   0.157   4.702  15.988  0.4492  0.2963  0.9190
  337TMC3     C 5058   0.325   4.653  16.353  0.6353 -0.4316 -0.2978
  337TMC3     O 5059   0.302   0.025  16.425 -0.3291 -0.1427  0.1287
  337TMC3     H 5060   0.268   4.457  16.175 -0.8922 -0.0026  0.3536
  337TMC3    H1 5061   0.254   0.158  16.255  0.7962  1.6734 -2.2729
  337TMC3    H2 5062   0.113   4.715  15.890  0.7091 -0.6239  0.6822
  337TMC3    C7 5063   0.108   0.212  16.036  0.1089 -0.1403 -0.6900
  337TMC3    C8 5064   0.160   4.467  15.938  0.7560 -0.5749 -0.5201
  337TMC3    O1 5065   0.022   0.202  15.948 -0.7555  0.4880 -0.5056
  337TMC3    O2 5066   0.219   4.363  15.957 -0.3836 -0.2127  0.3226
  338MPD2     C 5067   1.210   4.331   1.098 -0.5132 -0.9522  0.6740
  338MPD2    C1 5068   1.112   4.287   1.012 -0.4156  0.2465  0.0326
  338MPD2    C2 5069   0.984   4.314   1.042  0.7693 -0.3518 -0.2159
  338MPD2    C3 5070   0.950   4.364   1.164 -0.8497 -0.6567  0.5534
  338MPD2    C4 5071   1.050   4.414   1.250  0.7146 -0.1762  0.7564
  338MPD2    C5 5072   1.179   4.404   1.207 -0.0744  0.1469 -0.2227
  338MPD2     H 5073   0.910   4.278   0.971 -0.9572  0.5444  1.1353
  338MPD2    H1 5074   1.030   4.461   1.346  2.3506  1.0546  0.4998
  338MPD2    H2 5075   1.314   4.310   1.072 -0.8380 -2.1440  0.3136
  338MPD2    H3 5076   1.262   4.441   1.267 -0.1259  0.2897 -0.2409
  338MPD2     N 5077   0.818   4.358   1.206 -0.2782 -0.1343 -0.1613
  338MPD2    H5 5078   0.753   4.329   1.134  1.8394 -0.3444 -1.9866
  338MPD2    N1 5079   1.127   4.218   0.892  0.5486  0.1313 -0.0758
  338MPD2    H7 5080   1.045   4.214   0.832  1.3062  1.5354 -1.2161
  339TMC3    C1 5081   0.622   4.375   1.321 -0.4266 -0.0302 -0.1173
  339TMC3    C2 5082   0.554   4.311   1.425  0.0236 -0.1327  0.2704
  339TMC3    C3 5083   0.428   4.258   1.396  0.5926 -0.8722  0.1671
  339TMC3    C4 5084   0.567   4.387   1.195  0.2751 -0.2724 -0.7714
  339TMC3    C5 5085   0.437   4.356   1.182 -0.0498  0.2061  0.4212
  339TMC3    C6 5086   0.366   4.293   1.279  0.0809 -0.4099  0.4037
  339TMC3     C 5087   0.762   4.382   1.326 -0.3729 -0.2900  0.3061
  339TMC3     O 5088   0.816   4.401   1.434 -0.1597 -0.4479 -1.1014
  339TMC3     H 5089   0.604   4.294   1.520 -1.2209  0.7570  1.0956
  339TMC3    H1 5090   0.618   4.450   1.123  0.5980  0.3796  0.0264
  339TMC3    H2 5091   0.265   4.256   1.267 -0.4737  1.5612 -1.0481
  339TMC3    C7 5092   0.371   4.420   1.071 -0.1837  0.4156  0.1529
  339TMC3    C8 5093   0.346   4.201   1.502  0.3532  0.5132  0.3756
  339TMC3    O1 5094   0.440   4.432   0.975 -0.4461  0.3743 -0.3254
  339TMC3    O2 5095   0.225   4.209   1.490 -0.5054 -0.3751 -0.2107
  340MPD2     C 5096   1.137   0.897   9.960  0.0229  0.2903 -0.2680
  340MPD2    C1 5097   1.187   0.866   9.839  0.3108  0.5763  0.6889
  340MPD2    C2 5098   1.276   0.947   9.774 -0.0969  0.5131 -0.2021
  340MPD2    C3 5099   1.315   1.066   9.836 -0.0649 -0.1783 -0.0894
  340MPD2    C4 5100   1.259   1.094   9.959  0.2852 -0.7161 -0.0184
  340MPD2    C5 5101   1.176   1.009  10.022 -0.1477 -0.2259 -0.2937
  340MPD2     H 5102   1.309   0.916   9.676  2.8314  1.7704  0.3657
  340MPD2    H1 5103   1.285   1.188  10.008 -2.1928  0.9496 -1.9066
  340MPD2    H2 5104   1.064   0.839  10.015 -1.0466  1.4065 -0.5082
  340MPD2    H3 5105   1.133   1.026  10.120 -0.6452 -1.6915 -0.2539
  340MPD2     N 5106   1.411   1.155   9.781  0.0423 -0.3310  0.0441
  340MPD2    H5 5107   1.422   1.241   9.833  0.9648 -0.8689  0.7362
  340MPD2    N1 5108   1.139   0.747   9.771  0.1046 -0.0445  0.0564
  340MPD2    H7 5109   1.190   0.728   9.685 -0.1173  0.8787 -0.2779
  341TMC3    C1 5110   1.022   0.535   9.745  0.0135  0.3210  0.6354
  341TMC3    C2 5111   0.915   0.454   9.785 -0.1598 -0.7819  0.8427
  341TMC3    C3 5112   0.913   0.327   9.730  0.9610  0.0026  0.3310
  341TMC3    C4 5113   1.126   0.481   9.677 -0.0225  0.0997 -0.3178
  341TMC3    C5 5114   1.119   0.360   9.624  0.5219 -0.5094 -0.4685
  341TMC3    C6 5115   1.015   0.277   9.659  0.9130  0.0086  0.5672
  341TMC3     C 5116   1.043   0.659   9.815  0.5289 -0.2392  0.6636
  341TMC3     O 5117   0.963   0.679   9.907  0.1981 -0.0317 -0.2578
  341TMC3     H 5118   0.835   0.497   9.845  0.5100  0.5576  0.7737
  341TMC3    H1 5119   1.207   0.551   9.661  0.1035  0.1094  0.3586
  341TMC3    H2 5120   0.989   0.189   9.601 -0.0490  0.8892 -0.3354
  341TMC3    C7 5121   1.222   0.321   9.532  0.4968  0.0892 -0.1767
  341TMC3    C8 5122   0.800   0.236   9.768  0.4475 -0.1606  1.0578
  341TMC3    O1 5123   1.317   0.398   9.514  0.2448 -0.1928  0.2554
  341TMC3    O2 5124   0.693   0.297   9.771  0.2276  0.2578 -0.0125
  342MPD2     C 5125   3.212   0.181  17.201 -0.1518  0.2486 -0.5560
  342MPD2    C1 5126   3.329   0.174  17.267  0.6257  0.2434 -0.4040
  342MPD2    C2 5127   3.402   0.291  17.267  0.1369 -0.4064  0.6576
  342MPD2    C3 5128   3.350   0.409  17.214 -0.1643  0.4579  0.6804
  342MPD2    C4 5129   3.232   0.407  17.147 -0.0780 -0.1739 -0.5638
  342MPD2    C5 5130   3.162   0.291  17.140 -0.4244 -0.4648 -0.2608
  342MPD2     H 5131   3.496   0.282  17.320 -0.5003 -3.1034  1.3314
  342MPD2    H1 5132   3.187   0.497  17.108 -1.7846 -0.3319  1.0663
  342MPD2    H2 5133   3.149   0.093  17.203  1.0696 -0.6124  0.3963
  342MPD2    H3 5134   3.064   0.289  17.096  0.7950 -3.1620 -2.8740
  342MPD2     N 5135   3.420   0.532  17.217  0.3069  0.8060  0.3546
  342MPD2    H5 5136   3.368   0.616  17.193 -0.0410  0.3709 -0.4200
  342MPD2    N1 5137   3.402   0.064  17.322 -0.3483 -0.3015  0.5262
  342MPD2    H7 5138   3.480   0.082  17.384  0.2549 -1.3206  0.0555
  343TMC3    C1 5139   3.446   4.554  17.355  0.1071  0.8550 -0.2383
  343TMC3    C2 5140   3.578   4.588  17.368 -0.0950 -0.3142 -0.1793
  343TMC3    C3 5141   3.654   4.485  17.408 -0.0302  0.1441 -0.6935
  343TMC3    C4 5142   3.395   4.428  17.371 -1.5853  0.0525  0.0582
  343TMC3    C5 5143   3.474   4.339  17.433 -0.0801 -0.1394  1.0629
  343TMC3    C6 5144   3.606   4.362  17.450 -0.1183 -0.1841  0.4522
  343TMC3     C 5145   3.363   4.657  17.300  0.0230  0.5706  0.5943
  343TMC3     O 5146   3.258   4.614  17.257  0.3485  0.2881  0.0005
  343TMC3     H 5147   3.623   4.682  17.340 -0.0449 -0.1087  0.6196
  343TMC3    H1 5148   3.290   4.408  17.352 -1.5508  1.0885 -1.1967
  343TMC3    H2 5149   3.669   4.284  17.491 -0.7860 -2.1514 -2.3051
  343TMC3    C7 5150   3.411   4.228  17.508  0.3937  0.4075  0.0349
  343TMC3    C8 5151   3.797   4.507  17.412 -0.1031 -0.1890 -0.3237
  343TMC3    O1 5152   3.296   4.202  17.472  0.0362  0.1547  0.3794
  343TMC3    O2 5153   3.822   4.603  17.481  0.1401  0.4697 -0.3192
  344MPD2     C 5154   0.247   4.217  10.807  0.0698  0.1570  0.4361
  344MPD2    C1 5155   0.152   4.223  10.706  0.1271 -0.6166  0.4041
  344MPD2    C2 5156   0.173   4.277  10.582 -0.7088 -0.0143  0.0713
  344MPD2    C3 5157   0.290   4.348  10.560  0.0836  0.4173 -0.9214
  344MPD2    C4 5158   0.391   4.348  10.661  0.0606 -0.1312  0.1200
  344MPD2    C5 5159   0.364   4.278  10.785 -0.3185  0.3131 -0.9187
  344MPD2     H 5160   0.102   4.269  10.500  1.6605 -0.5821 -1.9450
  344MPD2    H1 5161   0.481   4.407  10.652  1.5111 -2.4827 -0.9719
  344MPD2    H2 5162   0.237   4.184  10.909  2.3195  0.1312  0.6406
  344MPD2    H3 5163   0.429   4.277  10.872 -0.8481  0.2098 -0.5199
  344MPD2     N 5164   0.313   4.418  10.439  0.6161  0.4325  0.3473
  344MPD2    H5 5165   0.408   4.456  10.441  1.4802 -1.7451  0.0255
  344MPD2    N1 5166   0.018   4.179  10.735 -0.1174 -0.2322 -0.8217
  344MPD2    H7 5167   4.688   4.178  10.649  0.1915  0.6475 -1.0190
  345TMC3    C1 5168   0.273   4.539  10.249  0.1355  0.8447 -0.3655
  345TMC3    C2 5169   0.408   4.568  10.246  0.3539  0.9272 -0.5236
  345TMC3    C3 5170   0.441   4.696  10.215  0.4452  0.1528 -0.2088
  345TMC3    C4 5171   0.179   4.631  10.213  0.5842 -0.2783 -0.2472
  345TMC3    C5 5172   0.220   0.035  10.183  0.5576 -0.2748  0.3903
  345TMC3    C6 5173   0.353   0.069  10.177 -0.5939 -0.1947 -0.5156
  345TMC3     C 5174   0.226   4.433  10.334 -0.1309 -0.1695  0.1350
  345TMC3     O 5175   0.112   4.398  10.316  0.2022 -0.5561  0.4172
  345TMC3     H 5176   0.483   4.495  10.271 -2.4813 -1.6925  0.3637
  345TMC3    H1 5177   0.073   4.609  10.221  0.8742 -2.1368 -1.4449
  345TMC3    H2 5178   0.393   0.169  10.160  0.7730 -0.3329  1.8621
  345TMC3    C7 5179   0.139   0.110  10.094  0.5479  0.0052 -0.0184
  345TMC3    C8 5180   0.569   0.029  10.261 -0.4215 -0.1468 -0.0685
  345TMC3    O1 5181   0.204   0.208  10.058 -0.2820  0.4274  0.1962
  345TMC3    O2 5182   0.565   0.138  10.317 -0.0701  0.4265 -0.0261
  346MPD2     C 5183   4.674   1.324  14.443 -0.2974  0.0048 -0.7979
  346MPD2    C1 5184   4.685   1.456  14.405 -0.1338  0.4688 -0.1425
  346MPD2    C2 5185   4.694   1.558  14.501  0.4404 -0.2323  1.0398
  346MPD2    C3 5186   4.693   1.520  14.636 -0.3804 -0.1265 -0.3890
  346MPD2    C4 5187   4.681   1.385  14.671 -0.6327 -0.0331  1.6341
  346MPD2    C5 5188   4.677   1.287  14.578  0.2986  0.4885  0.8170
  346MPD2     H 5189   4.688   1.659  14.464 -1.1547 -0.2792  1.1741
  346MPD2    H1 5190   4.678   1.350  14.774 -0.7315 -2.1581  0.9042
  346MPD2    H2 5191   4.664   1.243  14.372 -1.1150 -0.2059 -0.4366
  346MPD2    H3 5192   4.668   1.182  14.604 -0.9743  1.2186  3.2622
  346MPD2     N 5193   4.705   1.621  14.730 -0.8864  0.2396 -0.1795
  346MPD2    H5 5194   0.015   1.712  14.699 -0.5224 -0.4627 -1.8900
  346MPD2    N1 5195   4.671   1.494  14.268 -0.0370 -0.1144 -0.4296
  346MPD2    H7 5196   4.646   1.591  14.248  0.4365  0.2431  0.6866
  347TMC3    C1 5197   0.008   1.721  14.946 -0.6225  0.0753 -0.2593
  347TMC3    C2 5198   0.126   1.783  14.913 -0.7591 -1.2030 -0.4182
  347TMC3    C3 5199   0.206   1.852  14.993 -0.2385  0.7241 -0.2725
  347TMC3    C4 5200   4.698   1.718  15.080 -0.3809  0.5968  0.6113
  347TMC3    C5 5201   0.067   1.774  15.166  0.6752 -0.1322  0.4643
  347TMC3    C6 5202   0.172   1.852  15.126  1.1754 -0.4112  0.2229
  347TMC3     C 5203   4.679   1.610  14.868  0.1665  0.4155 -0.5878
  347TMC3     O 5204   4.638   1.510  14.927 -0.3218  0.2338  0.0330
  347TMC3     H 5205   0.154   1.776  14.809  1.3840  0.1125  0.0845
  347TMC3    H1 5206   4.623   1.651  15.121 -0.7662  0.5598 -0.1626
  347TMC3    H2 5207   0.239   1.887  15.204  0.7795  1.3646 -0.2468
  347TMC3    C7 5208   0.102   1.709  15.286  0.1899  0.7511 -0.4615
  347TMC3    C8 5209   0.342   1.814  14.974  0.4665  0.7347 -0.0209
  347TMC3    O1 5210   0.017   1.670  15.367  0.5252 -0.3551  0.2140
  347TMC3    O2 5211   0.388   1.752  15.064  0.3149  0.2653  0.0535
  348MPD2     C 5212   3.746   0.915  12.080 -0.3063 -0.5243  0.4982
  348MPD2    C1 5213   3.743   0.841  11.962  0.2134  0.1723 -0.2879
  348MPD2    C2 5214   3.736   0.902  11.838  0.4421 -0.7631 -0.3145
  348MPD2    C3 5215   3.763   1.034  11.826  0.5118 -0.1854 -0.3266
  348MPD2    C4 5216   3.778   1.110  11.940  0.3150 -0.4774  0.5224
  348MPD2    C5 5217   3.773   1.050  12.063  0.5642  0.2880  0.3351
  348MPD2     H 5218   3.723   0.857  11.740  0.7718 -1.2707 -0.1283
  348MPD2    H1 5219   3.788   1.218  11.940 -0.7570 -0.3669 -2.1504
  348MPD2    H2 5220   3.739   0.874  12.180 -1.7598  0.6651  0.8973
  348MPD2    H3 5221   3.765   1.112  12.151  2.6748 -1.9725  2.1375
  348MPD2     N 5222   3.778   1.078  11.695  0.2319 -0.0984  0.3302
  348MPD2    H5 5223   3.770   1.011  11.619  2.2932  2.3901 -2.0685
  348MPD2    N1 5224   3.751   0.695  11.957 -0.3231 -0.0666  0.2131
  348MPD2    H7 5225   3.742   0.649  11.867  2.1395  0.3705 -0.2512
  349TMC3    C1 5226   3.811   0.477  12.041  0.2881  0.1624 -0.0389
  349TMC3    C2 5227   3.857   0.406  12.151  0.3846 -0.2726 -0.0695
  349TMC3    C3 5228   3.887   0.274  12.130 -0.1761 -0.8212  0.7911
  349TMC3    C4 5229   3.787   0.423  11.920  0.4057 -0.4276 -0.6444
  349TMC3    C5 5230   3.786   0.286  11.921 -0.2635  0.1805  0.6564
  349TMC3    C6 5231   3.840   0.212  12.018  0.0500  0.0595  0.7808
  349TMC3     C 5232   3.782   0.611  12.066 -0.0743 -0.3117  0.8481
  349TMC3     O 5233   3.801   0.641  12.185  0.3742 -0.3249  0.0165
  349TMC3     H 5234   3.881   0.450  12.247 -0.7020 -0.4654  0.2961
  349TMC3    H1 5235   3.751   0.475  11.832 -3.4258 -0.0339  1.1272
  349TMC3    H2 5236   3.847   0.104  12.012  1.3535  0.1458  0.6025
  349TMC3    C7 5237   3.709   0.221  11.821 -0.4621  0.4936  0.5666
  349TMC3    C8 5238   3.906   0.199  12.243 -0.3199  0.3242 -0.4872
  349TMC3    O1 5239   3.736   0.103  11.802 -0.2825  0.6695  0.1449
  349TMC3    O2 5240   3.843   0.232  12.340 -0.1584 -0.1008  0.1041
  350MPD2     C 5241   2.597   3.829  10.127  1.2014  0.0928  0.6880
  350MPD2    C1 5242   2.616   3.699  10.168  0.2607 -0.1084 -0.2132
  350MPD2    C2 5243   2.656   3.679  10.301  0.8466  0.1372  0.2613
  350MPD2    C3 5244   2.690   3.787  10.381  0.1179 -0.6718 -0.7720
  350MPD2    C4 5245   2.657   3.913  10.342  0.6899 -0.4474 -0.5787
  350MPD2    C5 5246   2.609   3.937  10.218 -0.4585  0.0441 -0.4736
  350MPD2     H 5247   2.683   3.579  10.332  3.3511  0.7817  0.1611
  350MPD2    H1 5248   2.678   3.998  10.405  2.8924 -0.6206 -1.0912
  350MPD2    H2 5249   2.561   3.843  10.026  1.5295  1.6316  0.7871
  350MPD2    H3 5250   2.574   4.034  10.185  2.5483  0.3198 -2.8790
  350MPD2     N 5251   2.750   3.760  10.499 -0.5162 -0.2419 -0.1335
  350MPD2    H5 5252   2.766   3.662  10.521  0.5112  0.7906  3.7236
  350MPD2    N1 5253   2.596   3.588  10.077  0.3277 -0.2001  0.2247
  350MPD2    H7 5254   2.623   3.497  10.113  0.3246 -1.0088 -1.8213
  351TMC3    C1 5255   2.531   3.470   9.893  0.8808  0.1401  0.6110
  351TMC3    C2 5256   2.638   3.391   9.904  0.0514  0.0931  0.4494
  351TMC3    C3 5257   2.630   3.261   9.869  0.8950  0.2435  0.1000
  351TMC3    C4 5258   2.411   3.429   9.840 -0.0762 -0.1618 -0.5728
  351TMC3    C5 5259   2.404   3.292   9.807 -0.0628  0.1516 -0.1556
  351TMC3    C6 5260   2.510   3.207   9.833  0.3954  0.4899 -0.1145
  351TMC3     C 5261   2.520   3.590   9.965 -0.0243 -0.0439 -1.1484
  351TMC3     O 5262   2.450   3.681   9.913  0.3933 -0.2825  0.2245
  351TMC3     H 5263   2.732   3.437   9.933  0.9370 -1.7339  0.4809
  351TMC3    H1 5264   2.323   3.493   9.839  0.3659  0.4416 -0.8177
  351TMC3    H2 5265   2.500   3.104   9.801  1.7040  0.0022  1.0430
  351TMC3    C7 5266   2.269   3.231   9.801 -0.8075 -0.1266 -0.6889
  351TMC3    C8 5267   2.759   3.189   9.839  0.0708 -0.0881 -0.4935
  351TMC3    O1 5268   2.269   3.126   9.855  0.3194  0.7068  0.1638
  351TMC3    O2 5269   2.850   3.264   9.802  0.4552 -0.5666 -0.2262
  352MPD2     C 5270   1.404   1.355   1.490 -0.2216 -0.7044 -0.8148
  352MPD2    C1 5271   1.313   1.269   1.431  0.1555 -0.0923  0.5257
  352MPD2    C2 5272   1.346   1.137   1.420 -0.0862 -0.6277 -0.1113
  352MPD2    C3 5273   1.472   1.092   1.451 -0.2805 -0.2888  0.6397
  352MPD2    C4 5274   1.564   1.181   1.500  0.3042  0.3731  0.5253
  352MPD2    C5 5275   1.533   1.312   1.507 -0.3274 -0.1135 -0.4656
  352MPD2     H 5276   1.266   1.071   1.387  0.0360 -0.8098 -0.0429
  352MPD2    H1 5277   1.669   1.155   1.515  0.5188  0.0950 -1.4207
  352MPD2    H2 5278   1.382   1.460   1.507 -0.1582 -0.5400 -1.7919
  352MPD2    H3 5279   1.613   1.383   1.522  1.2697 -1.9840 -0.2058
  352MPD2     N 5280   1.508   0.956   1.425  0.1180 -0.3368 -0.6990
  352MPD2    H5 5281   1.607   0.941   1.437 -0.0089  0.4721  1.2647
  352MPD2    N1 5282   1.185   1.322   1.417 -0.5378  0.7015 -0.1636
  352MPD2    H7 5283   1.177   1.423   1.423  2.1064  0.8639  0.5961
  353TMC3    C1 5284   1.476   0.718   1.391  0.4491 -0.2387 -0.1067
  353TMC3    C2 5285   1.603   0.707   1.340  0.0664 -0.3594  0.5397
  353TMC3    C3 5286   1.649   0.588   1.286 -0.2718  0.5089  0.2773
  353TMC3    C4 5287   1.394   0.603   1.393  0.0037  0.5709  0.4661
  353TMC3    C5 5288   1.449   0.483   1.347 -0.4627  0.5024 -0.2778
  353TMC3    C6 5289   1.573   0.478   1.279  0.7728  0.4202  0.1027
  353TMC3     C 5290   1.418   0.854   1.396  0.6754 -0.1073 -0.4358
  353TMC3     O 5291   1.299   0.848   1.414 -0.0660  0.0392  0.1271
  353TMC3     H 5292   1.674   0.788   1.355  1.5408 -1.1379 -2.3566
  353TMC3    H1 5293   1.290   0.612   1.422  0.2869  2.6291  0.9002
  353TMC3    H2 5294   1.614   0.384   1.243  0.4604  0.0378  0.7326
  353TMC3    C7 5295   1.357   0.378   1.310  0.2229 -0.0897  0.0451
  353TMC3    C8 5296   1.780   0.594   1.232 -0.7131  0.7265 -0.4287
  353TMC3    O1 5297   1.358   0.344   1.191  0.2391 -0.0536  0.2303
  353TMC3    O2 5298   1.864   0.675   1.267 -0.0114  0.2018  0.3743
  354TMC3    C1 5299   2.615   1.989  13.458  0.1229  0.4693  0.5511
  354TMC3    C2 5300   2.751   1.980  13.469 -0.6134 -0.1048  0.0718
  354TMC3    C3 5301   2.835   1.950  13.362 -0.0531 -0.3396 -0.1512
  354TMC3    C4 5302   2.560   1.969  13.335  0.7895  0.1193  0.2117
  354TMC3    C5 5303   2.645   1.964  13.225  0.5224  0.2805  0.5121
  354TMC3    C6 5304   2.775   1.935  13.240  0.4278  0.6865  0.1742
  354TMC3     C 5305   2.529   1.997  13.579  0.6452 -0.2265  0.0721
  354TMC3     O 5306   2.418   1.950  13.565 -0.4597  0.0821  0.6157
  354TMC3     H 5307   2.795   1.989  13.568  0.5184 -0.0600 -0.4439
  354TMC3    H1 5308   2.456   1.998  13.325  0.9089  1.0768  1.7037
  354TMC3    H2 5309   2.846   1.941  13.158  0.9938  3.1201  0.8307
  354TMC3    C7 5310   2.605   2.060  13.119  0.4096 -0.4785  0.6436
  354TMC3    C8 5311   2.953   2.036  13.357 -0.5359 -0.0542  0.0445
  354TMC3    O1 5312   2.521   2.146  13.142 -0.0590  0.3269 -0.4370
  354TMC3    O2 5313   3.046   2.011  13.435 -0.2273  0.5958  0.4135
  355MPD2     C 5314   2.708   2.998  11.900  0.7533 -0.4243  0.2422
  355MPD2    C1 5315   2.768   3.056  11.793 -0.0690  0.5345  0.7083
  355MPD2    C2 5316   2.894   3.109  11.807  0.1000 -0.6399  0.2577
  355MPD2    C3 5317   2.963   3.108  11.932 -0.5837 -0.0913 -0.3127
  355MPD2    C4 5318   2.895   3.056  12.043 -0.3509 -1.0275  0.1341
  355MPD2    C5 5319   2.775   2.998  12.023  0.0891 -0.4806 -0.2831
  355MPD2     H 5320   2.944   3.163  11.727  0.6516  1.0231  1.7012
  355MPD2    H1 5321   2.938   3.064  12.142  2.1931 -0.0250 -1.0494
  355MPD2    H2 5322   2.606   2.964  11.909 -0.1209  2.4261  1.0715
  355MPD2    H3 5323   2.723   2.955  12.108 -1.1268  2.0113  0.2335
  355MPD2     N 5324   3.084   3.182  11.959  0.4917  0.4716 -0.1361
  355MPD2    H5 5325   3.107   3.186  12.058 -1.5083  1.2054  0.3060
  355MPD2    N1 5326   2.679   3.072  11.679  0.1717 -0.1645  0.1190
  355MPD2    H7 5327   2.605   3.003  11.676 -0.8536  0.9174  0.6650
  356TMC3    C1 5328   3.276   3.316  11.910  0.1931 -0.3319 -0.3127
  356TMC3    C2 5329   3.331   3.393  11.814 -0.1717 -0.2866 -0.5759
  356TMC3    C3 5330   3.426   3.487  11.857 -0.3004 -0.1549 -0.5179
  356TMC3    C4 5331   3.317   3.322  12.048 -0.0863  0.5164  0.2551
  356TMC3    C5 5332   3.432   3.396  12.070 -0.2323 -0.0179 -0.2391
  356TMC3    C6 5333   3.485   3.482  11.976 -0.1882 -0.0980 -0.1366
  356TMC3     C 5334   3.163   3.238  11.863  0.1843  0.1099 -0.0027
  356TMC3     O 5335   3.174   3.203  11.747  0.1572 -0.2197  0.3401
  356TMC3     H 5336   3.288   3.390  11.714  2.2997  1.3804 -1.6770
  356TMC3    H1 5337   3.264   3.264  12.122 -0.2918 -1.7770 -1.6647
  356TMC3    H2 5338   3.563   3.553  12.004 -0.4073 -0.3824  1.1834
  356TMC3    C7 5339   3.477   3.397  12.211 -0.1998 -0.2085 -0.5944
  356TMC3    C8 5340   3.481   3.565  11.744 -0.5740  0.3526  0.1699
  356TMC3    O1 5341   3.431   3.315  12.298 -0.4349 -0.0581  0.2864
  356TMC3    O2 5342   3.449   3.518  11.634 -0.0992  0.2725  0.3276
  357MPD2     C 5343   2.614   1.222   1.208 -0.3007 -0.2043  0.2410
  357MPD2    C1 5344   2.738   1.282   1.207  0.4417 -0.5526  0.1308
  357MPD2    C2 5345   2.829   1.248   1.304 -0.3546  0.3188  0.1393
  357MPD2    C3 5346   2.793   1.152   1.407  0.2102 -0.2406  0.5839
  357MPD2    C4 5347   2.667   1.092   1.405  0.1205 -0.0261  0.5247
  357MPD2    C5 5348   2.578   1.132   1.310  0.3299 -0.7110 -0.0900
  357MPD2     H 5349   2.929   1.290   1.303 -0.7242  1.2663  1.3810
  357MPD2    H1 5350   2.638   1.017   1.478 -2.2463  0.1792 -0.2149
  357MPD2    H2 5351   2.539   1.251   1.135  1.0439 -0.2978 -1.1970
  357MPD2    H3 5352   2.481   1.084   1.313 -0.7650  1.5120  0.2753
  357MPD2     N 5353   2.888   1.092   1.492 -0.3062  0.8596  0.2584
  357MPD2    H5 5354   2.843   1.038   1.565  0.0705 -0.0479 -0.1906
  357MPD2    N1 5355   2.765   1.373   1.101 -0.8153  0.0727 -0.0143
  357MPD2    H7 5356   2.695   1.390   1.029  1.6619  2.1225 -1.9055
  358TMC3    C1 5357   2.865   1.517   0.950 -0.9325 -0.8730  0.8452
  358TMC3    C2 5358   2.942   1.630   0.948 -0.4320 -0.0789 -0.0769
  358TMC3    C3 5359   2.914   1.700   0.831  0.3644  0.4247  0.2687
  358TMC3    C4 5360   2.781   1.472   0.846 -0.3422 -0.0064 -0.2291
  358TMC3    C5 5361   2.768   1.550   0.744  0.1609 -0.0001  0.3730
  358TMC3    C6 5362   2.836   1.659   0.723  0.1738  0.5280  0.2282
  358TMC3     C 5363   2.875   1.447   1.082 -0.0505 -0.3666 -0.0496
  358TMC3     O 5364   2.968   1.461   1.160  0.7786 -0.4761 -0.1969
  358TMC3     H 5365   2.990   1.656   1.041 -0.6267  2.7051 -0.7649
  358TMC3    H1 5366   2.725   1.380   0.858  0.2368 -0.6290 -2.2023
  358TMC3    H2 5367   2.818   1.723   0.638 -2.0571  0.0068  0.3196
  358TMC3    C7 5368   2.696   1.498   0.636 -0.0442 -0.2324 -0.2714
  358TMC3    C8 5369   2.936   1.844   0.848  0.1304  0.0259  0.5353
  358TMC3    O1 5370   2.734   1.525   0.523 -0.2557  0.1347  0.3107
  358TMC3    O2 5371   3.022   1.879   0.927 -0.2586  0.6451  0.0987
  359MPD2     C 5372   2.940   2.059  12.143  0.0602 -0.3241  1.1213
  359MPD2    C1 5373   2.931   1.940  12.208  0.1999  0.0956  0.1406
  359MPD2    C2 5374   2.803   1.901  12.235  0.3704  0.1275 -0.3492
  359MPD2    C3 5375   2.683   1.967  12.202  0.3503  0.4683  0.1919
  359MPD2    C4 5376   2.700   2.089  12.147  0.4228 -0.4423 -0.3464
  359MPD2    C5 5377   2.826   2.132  12.115  0.2659  0.3342  0.0248
  359MPD2     H 5378   2.805   1.799  12.272  0.0529 -0.2631 -1.4241
  359MPD2    H1 5379   2.617   2.155  12.126  1.0959  0.6228  0.3573
  359MPD2    H2 5380   3.039   2.098  12.120  0.0774 -0.9767  0.1151
  359MPD2    H3 5381   2.832   2.227  12.063  4.4455  0.0616  0.0086
  359MPD2     N 5382   2.550   1.927  12.234 -0.2985  0.7483 -0.3867
  359MPD2    H5 5383   2.476   1.993  12.211  0.0768  0.9846 -0.9252
  359MPD2    N1 5384   3.044   1.859  12.240  0.0721  0.3867  0.5681
  359MPD2    H7 5385   3.030   1.763  12.271  4.2467 -0.1530  0.7909
  360TMC3    C1 5386   3.276   1.815  12.259  0.3800  0.0533 -0.3535
  360TMC3    C2 5387   3.390   1.849  12.334 -0.2455 -0.3654  0.4825
  360TMC3    C3 5388   3.491   1.757  12.353  0.4182 -0.3157 -0.1566
  360TMC3    C4 5389   3.255   1.691  12.213 -0.3212 -0.0088 -0.1528
  360TMC3    C5 5390   3.348   1.593  12.244 -0.5182  0.4706  0.3125
  360TMC3    C6 5391   3.466   1.631  12.313  0.0580 -0.5443  0.1101
  360TMC3     C 5392   3.173   1.912  12.242  0.3482  0.1602  0.9647
  360TMC3     O 5393   3.215   2.030  12.224  0.2517  0.2005 -0.3036
  360TMC3     H 5394   3.392   1.957  12.350  0.6269 -0.3953  0.5817
  360TMC3    H1 5395   3.172   1.664  12.150 -0.2572 -2.6219  0.8744
  360TMC3    H2 5396   3.534   1.550  12.335  0.2130  0.1704  2.2148
  360TMC3    C7 5397   3.368   1.490  12.146 -0.9227  0.5368 -0.0462
  360TMC3    C8 5398   3.627   1.810  12.338 -0.1019 -0.1057 -0.2438
  360TMC3    O1 5399   3.401   1.378  12.191  0.1667  0.3854 -0.5086
  360TMC3    O2 5400   3.633   1.931  12.354 -0.8071  0.3546  0.3397
  361MPD2     C 5401   4.509   1.150  17.566 -0.3087 -0.1832 -0.2959
  361MPD2    C1 5402   4.472   1.072  17.459 -0.5161 -0.6463 -0.0465
  361MPD2    C2 5403   4.534   0.948  17.434 -0.4101 -0.1462  0.2973
  361MPD2    C3 5404   4.628   0.908  17.532 -0.5907  0.5252 -0.7029
  361MPD2    C4 5405   4.663   0.990  17.636  0.0114  0.4080  0.0407
  361MPD2    C5 5406   4.612   1.112  17.644 -0.3350  0.9535  0.1969
  361MPD2     H 5407   4.503   0.895  17.344  1.4066 -1.1847  0.2947
  361MPD2    H1 5408   0.014   0.957   0.013  0.3602  0.4280 -0.3103
  361MPD2    H2 5409   4.458   1.242  17.589 -0.5461 -0.9811  2.3527
  361MPD2    H3 5410   4.640   1.184   0.027 -0.4884 -0.8144  1.8986
  361MPD2     N 5411   4.698   0.781  17.527  0.0337  0.3309 -0.2912
  361MPD2    H5 5412   0.048   0.773  17.597  0.4941  0.6970 -0.7326
  361MPD2    N1 5413   4.369   1.112  17.372 -0.5624 -0.2655 -0.2588
  361MPD2    H7 5414   4.327   1.052  17.302  2.2917  1.3259 -3.3049
  362TMC3    C1 5415   4.227   1.255  17.245 -0.1489  0.8181  0.2016
  362TMC3    C2 5416   4.132   1.161  17.223  0.2425 -0.4781  0.2874
  362TMC3    C3 5417   4.067   1.160  17.100  0.2923  0.4519  0.2329
  362TMC3    C4 5418   4.256   1.353  17.154  0.8910  0.8385 -0.5561
  362TMC3    C5 5419   4.183   1.349  17.041 -0.3160  0.4478  0.3522
  362TMC3    C6 5420   4.091   1.258  17.014 -0.4982 -0.0589 -0.5301
  362TMC3     C 5421   4.319   1.243  17.353  0.4039 -0.1917  0.1192
  362TMC3     O 5422   4.374   1.345  17.381  0.4360 -0.2169  0.3935
  362TMC3     H 5423   4.101   1.093  17.302  1.1359 -0.4549  0.6699
  362TMC3    H1 5424   4.317   1.435  17.190  1.8119  0.6462 -1.6736
  362TMC3    H2 5425   4.039   1.263  16.919 -1.1570 -0.6753 -0.2060
  362TMC3    C7 5426   4.200   1.461  16.950 -0.7013 -0.2843  0.8976
  362TMC3    C8 5427   3.933   1.104  17.097  0.7634  0.0677 -0.4629
  362TMC3    O1 5428   4.096   1.495  16.893  0.1330  0.5458  0.2082
  362TMC3    O2 5429   3.893   1.044  16.995 -0.1276  0.7273  0.6403
  363TMC3    C1 5430   3.904   3.620   9.689  0.0790  0.6501 -0.3841
  363TMC3    C2 5431   3.889   3.497   9.747 -0.0780 -0.9133 -0.4184
  363TMC3    C3 5432   3.786   3.489   9.843  0.5632 -0.1561 -0.0134
  363TMC3    C4 5433   3.844   3.738   9.723  0.6115  0.3562 -0.7030
  363TMC3    C5 5434   3.751   3.722   9.819 -0.7268  1.2607  0.0478
  363TMC3    C6 5435   3.720   3.602   9.872 -0.1123  0.1393 -0.3202
  363TMC3     C 5436   4.022   3.626   9.609  0.2228  0.2343  0.8668
  363TMC3     O 5437   4.104   3.539   9.619 -0.0854 -0.2730 -0.0402
  363TMC3     H 5438   3.948   3.415   9.710  0.7581 -0.6853  0.4024
  363TMC3    H1 5439   3.872   3.834   9.680  0.5836  1.7794  2.5043
  363TMC3    H2 5440   3.626   3.589   9.925  0.4949  1.1254  1.0121
  363TMC3    C7 5441   3.666   3.839   9.857 -0.3882 -0.6579  0.0201
  363TMC3    C8 5442   3.725   3.359   9.880  0.6628  0.7227  0.0409
  363TMC3    O1 5443   3.555   3.803   9.890  0.1680  0.1895 -0.1327
  363TMC3    O2 5444   3.613   3.368   9.928 -0.2107 -0.0551  0.3555
  364MPD2     C 5445   2.139   2.146  10.484  0.0570 -0.4273 -0.7222
  364MPD2    C1 5446   2.264   2.156  10.424 -0.2503  0.4636 -0.4667
  364MPD2    C2 5447   2.361   2.063  10.464 -0.3739 -0.2631  0.5669
  364MPD2    C3 5448   2.334   1.977  10.566 -0.9211 -0.1637  0.5201
  364MPD2    C4 5449   2.206   1.968  10.626  0.6499 -0.1887  0.3412
  364MPD2    C5 5450   2.112   2.060  10.583  0.0753 -0.0277  0.2105
  364MPD2     H 5451   2.463   2.062  10.428 -0.5689 -1.1716  0.0260
  364MPD2    H1 5452   2.178   1.920  10.719 -1.0680  1.2383  0.5603
  364MPD2    H2 5453   2.056   2.200  10.440 -0.2009  0.2442  0.5564
  364MPD2    H3 5454   2.009   2.075  10.613 -0.8129 -1.7650 -1.9898
  364MPD2     N 5455   2.445   1.912  10.623  0.7347 -0.0853  0.7739
  364MPD2    H5 5456   2.534   1.946  10.588 -0.0607 -0.2473 -1.4600
  364MPD2    N1 5457   2.277   2.248  10.318  0.5095 -0.0833 -0.3692
  364MPD2    H7 5458   2.195   2.307  10.307  1.8134  1.4458 -1.8893
  365TMC3    C1 5459   2.344   2.365  10.130 -1.1549 -0.2436 -0.3301
  365TMC3    C2 5460   2.374   2.336   9.998 -0.6095  0.1664 -0.0635
  365TMC3    C3 5461   2.380   2.441   9.910 -0.0399 -0.7246  0.0809
  365TMC3    C4 5462   2.290   2.485  10.175 -0.1556 -0.9153 -0.4083
  365TMC3    C5 5463   2.287   2.588  10.082  0.1380 -0.0893  0.5655
  365TMC3    C6 5464   2.331   2.565   9.954 -0.3317  0.4477  0.1944
  365TMC3     C 5465   2.374   2.260  10.228  0.6499 -0.0965  0.2203
  365TMC3     O 5466   2.482   2.205  10.217  0.7818  0.7783  0.1149
  365TMC3     H 5467   2.409   2.235   9.979 -0.6887  0.3435 -1.1337
  365TMC3    H1 5468   2.274   2.506  10.280  1.1128  1.7509 -0.7471
  365TMC3    H2 5469   2.340   2.643   9.879 -2.7211  1.7040  1.2396
  365TMC3    C7 5470   2.230   2.726  10.110  0.9038  0.4232 -0.1531
  365TMC3    C8 5471   2.492   2.445   9.815 -0.4979 -0.1979 -0.2278
  365TMC3    O1 5472   2.287   2.814  10.046  0.0311  0.0729  0.6984
  365TMC3    O2 5473   2.508   2.549   9.750 -0.4339 -0.4896 -0.0095
  366MPD2     C 5474   4.577   3.814  15.385 -0.0080 -0.0624  0.6485
  366MPD2    C1 5475   4.688   3.879  15.331 -0.4176 -0.1538  0.5514
  366MPD2    C2 5476   0.087   3.804  15.335 -0.1016  0.5977  0.3089
  366MPD2    C3 5477   0.096   3.673  15.374  0.2557 -0.2740  0.0781
  366MPD2    C4 5478   4.709   3.616  15.435  0.5062  0.5293  0.4421
  366MPD2    C5 5479   4.594   3.690  15.438 -0.0327 -0.7749  0.4202
  366MPD2     H 5480   0.171   3.849  15.283  0.8044 -0.0245  1.2325
  366MPD2    H1 5481   4.701   3.521  15.486 -1.2411  0.5359  0.2032
  366MPD2    H2 5482   4.486   3.872  15.392 -0.8063 -1.2311 -0.1632
  366MPD2    H3 5483   4.509   3.643  15.485 -1.4909  1.3173 -0.1352
  366MPD2     N 5484   0.229   3.615  15.369 -0.2919  0.5406  0.5379
  366MPD2    H5 5485   0.307   3.670  15.335  0.4928 -0.6902  0.3544
  366MPD2    N1 5486   4.687   4.021  15.298  0.2813 -0.1668  0.4565
  366MPD2    H7 5487   0.051   4.061  15.264  1.1270 -1.4090  1.1577
  367TMC3    C1 5488   4.629   4.252  15.305  0.3615 -0.0658  0.1777
  367TMC3    C2 5489   0.038   4.281  15.338 -0.1431 -0.5039  0.5769
  367TMC3    C3 5490   0.061   4.396  15.410  0.2138  0.4058  0.0811
  367TMC3    C4 5491   4.531   4.345  15.315 -0.2097  1.2567  1.0390
  367TMC3    C5 5492   4.559   4.454  15.384  0.3905 -0.0147  0.4390
  367TMC3    C6 5493   4.681   4.489  15.428 -0.1735 -0.2601  0.6590
  367TMC3     C 5494   4.581   4.111  15.308 -1.0802  0.2688  0.0803
  367TMC3     O 5495   4.457   4.089  15.319 -0.3863 -0.0235  0.1922
  367TMC3     H 5496   0.121   4.214  15.321  0.5939  0.7219 -0.5957
  367TMC3    H1 5497   4.430   4.311  15.296  0.5423  0.8376 -2.1207
  367TMC3    H2 5498   4.706   4.583  15.475  0.6353 -0.0088 -0.2541
  367TMC3    C7 5499   4.460   4.555  15.406 -0.4836 -0.3103 -0.4549
  367TMC3    C8 5500   0.193   4.427  15.466  0.0267  0.0464  0.6532
  367TMC3    O1 5501   4.469   4.627  15.503 -0.0667  0.1291 -0.0119
  367TMC3    O2 5502   0.268   4.330  15.443 -0.0504 -0.5938 -0.8764
  368MPD2     C 5503   1.380   1.095  13.445 -0.1246  0.1722  0.2471
  368MPD2    C1 5504   1.364   1.205  13.367 -0.9733 -0.0652 -0.5931
  368MPD2    C2 5505   1.474   1.284  13.347  0.2726  0.5034  0.0912
  368MPD2    C3 5506   1.600   1.249  13.387 -0.5767 -0.5430 -0.0690
  368MPD2    C4 5507   1.614   1.133  13.463  0.2602  0.4768  0.0495
  368MPD2    C5 5508   1.502   1.065  13.500  0.5109 -0.6622 -0.1064
  368MPD2     H 5509   1.467   1.379  13.296  0.0096  1.6451  2.2248
  368MPD2    H1 5510   1.705   1.091  13.503 -0.1759 -0.4369  0.0773
  368MPD2    H2 5511   1.299   1.025  13.461  1.9007 -1.3820  3.6750
  368MPD2    H3 5512   1.513   0.976  13.561  0.6301 -0.1323  0.6417
  368MPD2     N 5513   1.715   1.318  13.361  0.2566 -0.3889 -0.0088
  368MPD2    H5 5514   1.796   1.292  13.416 -0.6264 -2.2498  0.4059
  368MPD2    N1 5515   1.236   1.234  13.307 -0.4034 -0.1765 -0.3802
  368MPD2    H7 5516   1.165   1.163  13.323 -0.8999  0.5153  0.4672
  369TMC3    C1 5517   1.076   1.335  13.175  0.6739 -0.1207 -0.3444
  369TMC3    C2 5518   1.053   1.402  13.059 -0.5638 -0.1644 -0.5077
  369TMC3    C3 5519   0.933   1.393  12.996  0.0404  0.2945  0.1824
  369TMC3    C4 5520   0.969   1.286  13.244  0.5208  0.2875  0.1039
  369TMC3    C5 5521   0.850   1.290  13.183  0.4723 -0.9066 -0.6519
  369TMC3    C6 5522   0.826   1.338  13.060 -0.1801  0.1649 -0.7364
  369TMC3     C 5523   1.208   1.343  13.226  0.2621  0.2951  0.0627
  369TMC3     O 5524   1.273   1.439  13.185 -0.0178 -0.2431 -0.0381
  369TMC3     H 5525   1.142   1.429  13.003  0.4849 -0.4640  0.9962
  369TMC3    H1 5526   0.979   1.234  13.339  1.5805  0.5153  0.1210
  369TMC3    H2 5527   0.722   1.351  13.032 -0.3011  0.2388 -0.2523
  369TMC3    C7 5528   0.750   1.244  13.276  0.3325  0.3521  0.3112
  369TMC3    C8 5529   0.908   1.455  12.866  0.0440  0.7563 -0.9130
  369TMC3    O1 5530   0.772   1.271  13.392  0.5013  0.3881  0.2586
  369TMC3    O2 5531   0.815   1.413  12.801  0.2379 -0.4367  0.1754
  370TMC3    C1 5532   1.037   1.395  16.490  0.3751  0.3358 -0.3393
  370TMC3    C2 5533   0.955   1.366  16.591  0.0201  0.1684 -0.6824
  370TMC3    C3 5534   0.902   1.239  16.600 -0.1173 -0.3966 -0.4667
  370TMC3    C4 5535   1.080   1.306  16.395 -0.1629 -0.8158  0.3142
  370TMC3    C5 5536   1.009   1.190  16.393 -0.3044 -0.3000 -0.9459
  370TMC3    C6 5537   0.928   1.151  16.497 -1.0245  0.7286 -0.1472
  370TMC3     C 5538   1.124   1.509  16.521 -0.2685  0.9501 -0.1455
  370TMC3     O 5539   1.145   1.554  16.632  0.2410 -0.2418  0.0932
  370TMC3     H 5540   0.940   1.441  16.668 -1.2622 -1.7716  0.9609
  370TMC3    H1 5541   1.148   1.327  16.313 -1.2290  0.9341 -0.1194
  370TMC3    H2 5542   0.886   1.051  16.498  0.4028  0.1224 -1.7267
  370TMC3    C7 5543   1.075   1.080  16.326  0.0344  0.6776 -0.2832
  370TMC3    C8 5544   0.839   1.184  16.721 -0.4793 -0.7725 -0.0962
  370TMC3    O1 5545   1.176   1.111  16.263 -0.0953  0.2993 -0.0392
  370TMC3    O2 5546   0.814   1.063  16.723  0.0334 -0.7327  0.2348
  371TMC3    C1 5547   2.291   4.251  15.737 -0.7029 -0.3269  0.4010
  371TMC3    C2 5548   2.192   4.283  15.825 -0.1584  0.1707 -0.3063
  371TMC3    C3 5549   2.141   4.409  15.827 -0.3870  0.0130 -0.4169
  371TMC3    C4 5550   2.341   4.347  15.651  0.2841 -0.3140  0.5779
  371TMC3    C5 5551   2.291   4.472  15.656  0.3979  0.5773 -0.1321
  371TMC3    C6 5552   2.191   4.504  15.743 -0.0618 -0.5043  0.0712
  371TMC3     C 5553   2.306   4.117  15.691 -0.0701  0.1291  0.4724
  371TMC3     O 5554   2.404   4.088  15.620  0.4200  0.6594  0.1914
  371TMC3     H 5555   2.170   4.214  15.906  1.5328  1.1450  0.9853
  371TMC3    H1 5556   2.417   4.322  15.577 -0.4276 -1.1617  0.1308
  371TMC3    H2 5557   2.138   4.599  15.738 -2.1184 -1.7827 -2.1075
  371TMC3    C7 5558   2.307   4.563  15.545 -0.6157 -0.1993 -0.6842
  371TMC3    C8 5559   2.016   4.406  15.896  0.2054  0.4158 -0.4434
  371TMC3    O1 5560   2.235   4.663  15.538 -0.4580  0.0439 -0.2470
  371TMC3    O2 5561   1.967   4.294  15.904 -0.3057 -0.1895  0.4719
  372MPD2     C 5562   2.453   0.990  14.267 -0.0936 -0.1873  0.5787
  372MPD2    C1 5563   2.491   0.917  14.155  0.4247  0.1222  0.2007
  372MPD2    C2 5564   2.389   0.880  14.065 -0.0157 -0.0539 -0.8202
  372MPD2    C3 5565   2.255   0.915  14.073  0.5617  0.3290 -0.3907
  372MPD2    C4 5566   2.221   0.997  14.180  0.1934  0.6430 -0.9706
  372MPD2    C5 5567   2.318   1.031  14.273  0.0373 -0.0615 -0.4119
  372MPD2     H 5568   2.428   0.832  13.976 -0.5480 -3.9753  1.0956
  372MPD2    H1 5569   2.125   1.046  14.175  0.0020  0.2363 -1.3250
  372MPD2    H2 5570   2.511   1.023  14.352  0.4158 -0.5293  0.3660
  372MPD2    H3 5571   2.289   1.101  14.350  1.4991  1.0394 -0.8698
  372MPD2     N 5572   2.167   0.877  13.965 -0.4005  0.4121  0.0947
  372MPD2    H5 5573   2.210   0.844  13.879 -0.3584  1.0140 -0.1157
  372MPD2    N1 5574   2.619   0.876  14.129 -0.3583  0.3755  0.0270
  372MPD2    H7 5575   2.637   0.812  14.053  0.9068  1.0590 -0.2559
  373TMC3    C1 5576   1.975   0.779  13.890  0.5270  0.9079  0.3053
  373TMC3    C2 5577   1.838   0.774  13.898  0.3014  0.1347 -0.2988
  373TMC3    C3 5578   1.776   0.659  13.855  0.4360 -0.2845 -0.1572
  373TMC3    C4 5579   2.053   0.687  13.818 -0.6978 -0.3505 -0.2879
  373TMC3    C5 5580   1.982   0.579  13.765  0.4553 -0.4500  0.2100
  373TMC3    C6 5581   1.847   0.559  13.785 -0.7659 -0.6843  0.0559
  373TMC3     C 5582   2.033   0.862  13.988  0.2892  0.5221 -0.3031
  373TMC3     O 5583   1.976   0.856  14.098  0.6693  0.5285  0.1014
  373TMC3     H 5584   1.772   0.834  13.960 -1.4936 -2.9944  0.8799
  373TMC3    H1 5585   2.160   0.686  13.804 -0.3515 -0.8027  2.3796
  373TMC3    H2 5586   1.791   0.470  13.756  0.6625 -1.5527 -0.0214
  373TMC3    C7 5587   2.055   0.471  13.693  0.0373  0.2521  0.0436
  373TMC3    C8 5588   1.692   0.621  13.969  0.5536 -0.5774 -0.6027
  373TMC3    O1 5589   2.173   0.453  13.717 -0.3120  0.0003  0.4670
  373TMC3    O2 5590   1.606   0.698  14.007 -0.1664  0.1254  0.3109
  374TMC3    C1 5591   2.625   0.468  10.097 -0.1175 -0.1309  0.1578
  374TMC3    C2 5592   2.747   0.523  10.062  0.2161 -0.0058 -1.1768
  374TMC3    C3 5593   2.836   0.429  10.010 -1.1324  0.4399  0.1828
  374TMC3    C4 5594   2.587   0.338  10.077  0.5073 -0.0792 -0.2543
  374TMC3    C5 5595   2.682   0.249  10.029 -0.2071 -0.7007  0.7192
  374TMC3    C6 5596   2.805   0.296   9.992 -0.4963  0.3614 -0.7771
  374TMC3     C 5597   2.530   0.552  10.170  0.1903 -0.3349  0.4647
  374TMC3     O 5598   2.410   0.521  10.178  0.3212 -0.1706  0.2242
  374TMC3     H 5599   2.768   0.629  10.061  1.1611 -0.1774  0.4349
  374TMC3    H1 5600   2.491   0.307  10.116  0.7598 -0.8627 -0.2503
  374TMC3    H2 5601   2.889   0.229   9.982 -2.5406 -2.5125  1.3387
  374TMC3    C7 5602   2.651   0.100  10.001  0.2284 -0.4852 -0.6648
  374TMC3    C8 5603   2.963   0.474   9.962 -0.8641  0.0066 -0.6003
  374TMC3    O1 5604   2.744   0.025   9.972 -0.3154 -0.0319 -0.5474
  374TMC3    O2 5605   3.023   0.400   9.885 -0.3170 -0.6406  0.2021
  375MPD2     C 5606   2.144   2.328  16.744  0.1073 -0.2961  0.4246
  375MPD2    C1 5607   2.148   2.204  16.792 -0.3306 -0.3107 -0.4622
  375MPD2    C2 5608   2.176   2.099  16.707  0.5905  0.5305  0.5345
  375MPD2    C3 5609   2.213   2.118  16.577  0.0598 -0.2872  0.1228
  375MPD2    C4 5610   2.199   2.244  16.532  0.0995 -0.2868  0.0954
  375MPD2    C5 5611   2.173   2.349  16.612  0.2239 -1.2514 -0.1468
  375MPD2     H 5612   2.153   2.002  16.751 -1.3081  1.5081  1.6999
  375MPD2    H1 5613   2.210   2.263  16.426  1.1777 -1.4097  0.0091
  375MPD2    H2 5614   2.122   2.413  16.808  0.3342  0.2333 -0.1943
  375MPD2    H3 5615   2.175   2.445  16.561 -0.8520 -0.9999  0.2752
  375MPD2     N 5616   2.238   2.009  16.484  0.1695 -0.5337 -0.1350
  375MPD2    H5 5617   2.251   2.027  16.384  0.9613 -0.4226 -0.0158
  375MPD2    N1 5618   2.107   2.171  16.923  0.1659  0.1598  0.1841
  375MPD2    H7 5619   2.104   2.074  16.953  1.3664  0.3745  1.0010
  376TMC3    C1 5620   2.287   1.770  16.431  0.0198 -0.2983  0.1095
  376TMC3    C2 5621   2.351   1.657  16.469  0.1059 -0.5692 -0.3410
  376TMC3    C3 5622   2.391   1.566  16.381 -0.1653 -0.2389 -0.1339
  376TMC3    C4 5623   2.253   1.783  16.298 -0.4073  0.1134  0.4696
  376TMC3    C5 5624   2.284   1.688  16.209  0.6027 -0.5227 -0.1675
  376TMC3    C6 5625   2.347   1.575  16.251  0.1346  0.1557  0.4191
  376TMC3     C 5626   2.263   1.880  16.530 -0.0196  0.0261  0.4474
  376TMC3     O 5627   2.312   1.854  16.639  0.1186 -0.3734 -0.1469
  376TMC3     H 5628   2.366   1.634  16.574  4.4310 -1.1903 -1.0730
  376TMC3    H1 5629   2.203   1.875  16.268  0.5977  0.4840 -0.0570
  376TMC3    H2 5630   2.388   1.496  16.189  1.2524  0.5597  0.6586
  376TMC3    C7 5631   2.208   1.697  16.086 -0.1876  0.1903  0.1026
  376TMC3    C8 5632   2.529   1.526  16.398 -0.1982 -0.0256 -0.2928
  376TMC3    O1 5633   2.148   1.799  16.065 -0.3560 -0.0655 -0.3312
  376TMC3    O2 5634   2.585   1.478  16.296  0.0854  0.0522 -0.8963
  377MPD2     C 5635   0.219   1.192  12.324 -0.5585 -0.4526  0.8086
  377MPD2    C1 5636   0.241   1.209  12.462  0.7619  0.3552 -0.3653
  377MPD2    C2 5637   0.142   1.209  12.555  0.5474  0.1594 -0.4892
  377MPD2    C3 5638   0.009   1.204  12.513  1.2043 -0.3734  0.5112
  377MPD2    C4 5639   4.710   1.176  12.382 -0.2252 -0.2112 -0.1867
  377MPD2    C5 5640   0.089   1.173  12.294  0.8319  0.2222  0.7095
  377MPD2     H 5641   0.155   1.224  12.662  1.7242  0.1107 -0.6292
  377MPD2    H1 5642   4.608   1.159  12.349 -0.0292 -1.2506 -0.2853
  377MPD2    H2 5643   0.295   1.171  12.250  0.2399  1.4682  1.0944
  377MPD2    H3 5644   0.067   1.162  12.188  0.4621 -0.8561  0.9022
  377MPD2     N 5645   4.622   1.222  12.602 -0.1042 -0.1938 -0.0072
  377MPD2    H5 5646   4.533   1.213  12.555  0.1773  1.0673 -0.7886
  377MPD2    N1 5647   0.375   1.201  12.504  0.0867 -0.0331 -0.0593
  377MPD2    H7 5648   0.443   1.203  12.429 -1.4589  0.9962 -1.4240
  378TMC3    C1 5649   0.780   1.178  12.558 -0.2199  0.7887  0.2620
  378TMC3    C2 5650   0.646   1.201  12.533 -0.3340 -0.1906 -0.2614
  378TMC3    C3 5651   0.567   1.164  12.643 -0.7392 -0.1936  0.1269
  378TMC3    C4 5652   0.827   1.134  12.679 -0.4936 -0.3765 -0.2178
  378TMC3    C5 5653   0.743   1.099  12.772 -0.7189 -0.1120  0.0769
  378TMC3    C6 5654   0.609   1.106  12.758  0.4128 -1.0296 -0.2463
  378TMC3     C 5655   0.867   1.198  12.447 -0.7698  0.0482 -0.0714
  378TMC3     O 5656   0.810   1.175  12.340  0.5576  0.1286 -0.6604
  378TMC3     H 5657   0.618   1.257  12.445  0.3689  1.6510  0.6896
  378TMC3    H1 5658   0.934   1.114  12.680 -0.5658 -0.7224  0.5615
  378TMC3    H2 5659   0.544   1.092  12.844 -0.8735 -0.1360 -1.0836
  378TMC3    C7 5660   0.799   1.039  12.893  0.1234 -0.1794 -0.3474
  378TMC3    C8 5661   0.420   1.167  12.628  0.1307  0.2189 -0.2737
  378TMC3    O1 5662   0.716   0.997  12.972 -0.5138 -0.4428 -0.2555
  378TMC3    O2 5663   0.352   1.139  12.730 -0.0957  0.9311 -0.0202
  379MPD2     C 5664   1.538   4.176  15.818  0.3829 -0.4620 -0.7358
  379MPD2    C1 5665   1.429   4.186  15.903 -0.4822 -0.8790  0.0826
  379MPD2    C2 5666   1.424   4.161  16.040  0.4505  0.0646 -0.2770
  379MPD2    C3 5667   1.544   4.111  16.100 -0.5741  0.0718  0.6454
  379MPD2    C4 5668   1.652   4.097  16.015 -0.5928 -0.2753 -0.7895
  379MPD2    C5 5669   1.652   4.136  15.881 -0.2511  0.4820  0.1188
  379MPD2     H 5670   1.329   4.168  16.092  1.2960 -2.5174  1.6613
  379MPD2    H1 5671   1.748   4.063  16.054 -2.4296 -1.4772  2.6794
  379MPD2    H2 5672   1.542   4.206  15.714 -0.1717 -2.8876 -1.4686
  379MPD2    H3 5673   1.745   4.126  15.826 -0.0119  1.3385  0.3660
  379MPD2     N 5674   1.562   4.077  16.235 -0.3794  0.7327  0.3077
  379MPD2    H5 5675   1.645   4.022  16.257 -0.6071  0.2721  0.0328
  379MPD2    N1 5676   1.311   4.235  15.835  0.1169  0.7828 -0.5284
  379MPD2    H7 5677   1.325   4.248  15.735  0.4612 -2.2247 -0.8587
  380TMC3    C1 5678   1.092   4.288  15.786 -0.2469  0.0866  0.3522
  380TMC3    C2 5679   1.109   4.239  15.658  0.5252 -0.8606  0.5315
  380TMC3    C3 5680   1.003   4.255  15.570  0.5157  0.0437  0.2181
  380TMC3    C4 5681   0.974   4.343  15.823  0.3696 -0.3803  0.1867
  380TMC3    C5 5682   0.882   4.369  15.732 -0.6612 -0.6600  0.2881
  380TMC3    C6 5683   0.899   4.325  15.607  0.6257  0.5207  0.5414
  380TMC3     C 5684   1.188   4.276  15.890 -0.2715 -0.0532  0.2563
  380TMC3     O 5685   1.158   4.305  16.005  0.1435 -0.0882 -0.5086
  380TMC3     H 5686   1.201   4.191  15.627  0.5089 -1.0266  0.7386
  380TMC3    H1 5687   0.958   4.383  15.923  0.0359  3.2192 -1.2966
  380TMC3    H2 5688   0.824   4.346  15.532  1.5444 -0.4936 -0.6527
  380TMC3    C7 5689   0.774   4.455  15.774  0.1885  0.2028 -0.0474
  380TMC3    C8 5690   1.042   4.249  15.429 -0.1471 -0.4156 -0.2260
  380TMC3    O1 5691   0.776   4.517  15.878  0.3087 -0.0013 -0.1878
  380TMC3    O2 5692   1.148   4.195  15.401  0.3963  0.7282 -0.3062
  381TMC3    C1 5693   0.885   0.426  16.664 -0.2306  0.2175 -0.3942
  381TMC3    C2 5694   0.932   0.547  16.614  0.1598 -0.6413  0.0308
  381TMC3    C3 5695   0.969   0.650  16.700  0.1157  0.1900 -0.3038
  381TMC3    C4 5696   0.864   0.421  16.796  0.2128  0.8553  0.4104
  381TMC3    C5 5697   0.903   0.517  16.877 -0.2631 -0.4538  0.4110
  381TMC3    C6 5698   0.967   0.627  16.834 -0.1688  0.2226  0.0764
  381TMC3     C 5699   0.858   0.312  16.583  0.2974  0.2717  0.0036
  381TMC3     O 5700   0.797   0.229  16.653  0.0562 -0.4840 -0.6370
  381TMC3     H 5701   0.938   0.566  16.508  0.7491 -0.0271  0.1792
  381TMC3    H1 5702   0.832   0.332  16.849 -0.5485  0.9545  0.1204
  381TMC3    H2 5703   1.002   0.697  16.909  0.0496  0.9791 -0.7330
  381TMC3    C7 5704   0.814   0.511  16.988  0.2517  0.0427  0.9631
  381TMC3    C8 5705   1.075   0.738  16.660  0.7488 -0.1795 -0.9512
  381TMC3    O1 5706   0.821   0.410  17.060  0.0796 -0.8667  0.3381
  381TMC3    O2 5707   1.141   0.695  16.564  0.3410 -0.1279  0.2356
  382MPD2     C 5708   0.561   3.425  17.327 -0.4975 -0.5555 -0.4446
  382MPD2    C1 5709   0.422   3.412  17.310 -0.1772  0.0854  0.4598
  382MPD2    C2 5710   0.369   3.288  17.272 -0.8481 -0.4087  0.3314
  382MPD2    C3 5711   0.434   3.169  17.283 -0.4443 -0.8996  0.4408
  382MPD2    C4 5712   0.569   3.183  17.331  0.5520 -0.0468  0.3307
  382MPD2    C5 5713   0.630   3.310  17.342  0.1921 -0.3249  0.0226
  382MPD2     H 5714   0.262   3.285  17.252 -0.7486 -1.5939 -0.0285
  382MPD2    H1 5715   0.630   3.096  17.350  0.5868  0.2375  1.5157
  382MPD2    H2 5716   0.615   3.509  17.368  2.5791 -2.9753  0.4828
  382MPD2    H3 5717   0.731   3.320  17.380  0.4724  0.2982 -0.8799
  382MPD2     N 5718   0.377   3.038  17.261 -0.5036 -0.0312 -0.0874
  382MPD2    H5 5719   0.438   2.959  17.278 -0.2777 -0.3689 -2.5005
  382MPD2    N1 5720   0.340   3.524  17.307  0.4008  0.1342  0.1685
  382MPD2    H7 5721   0.239   3.520  17.302  0.3732 -0.1152  1.0604
  383TMC3    C1 5722   0.229   2.879  17.172 -0.5012 -0.4384  0.3939
  383TMC3    C2 5723   0.113   2.857  17.103 -0.8709  0.1234  0.4697
  383TMC3    C3 5724   0.079   2.726  17.085  0.9185 -0.6654 -0.3057
  383TMC3    C4 5725   0.309   2.773  17.215  0.5056 -0.2885 -0.8507
  383TMC3    C5 5726   0.262   2.646  17.206 -0.1294 -0.0319  0.2387
  383TMC3    C6 5727   0.145   2.617  17.145 -0.4007  0.4710 -1.4633
  383TMC3     C 5728   0.252   3.017  17.206  0.3467 -0.1176  0.1566
  383TMC3     O 5729   0.165   3.099  17.177  0.7533  0.6327 -0.1103
  383TMC3     H 5730   0.057   2.943  17.068 -0.5038 -0.2073 -0.9479
  383TMC3    H1 5731   0.401   2.793  17.269 -0.5080 -0.0201  0.8041
  383TMC3    H2 5732   0.124   2.514  17.117  2.9854 -0.5958 -0.1067
  383TMC3    C7 5733   0.306   2.554  17.305  0.3735  0.3357 -0.1389
  383TMC3    C8 5734   4.680   2.697  17.014 -0.6539  0.4473  0.4739
  383TMC3    O1 5735   0.418   2.563  17.354 -0.2106  0.0029 -0.1665
  383TMC3    O2 5736   4.597   2.786  17.014  0.1190 -0.6239 -0.3273
  384MPD2     C 5737   2.148   3.894  11.980 -0.4484 -0.4954 -0.9061
  384MPD2    C1 5738   2.215   3.809  12.063  0.3128  0.6433 -0.1676
  384MPD2    C2 5739   2.272   3.696  12.014  0.8096  0.6950  0.8570
  384MPD2    C3 5740   2.271   3.671  11.881  0.3921 -0.3164  0.1489
  384MPD2    C4 5741   2.217   3.765  11.797 -0.0824 -0.5404 -0.3057
  384MPD2    C5 5742   2.150   3.872  11.848  0.3012 -0.3430  0.7891
  384MPD2     H 5743   2.310   3.631  12.091 -1.0970 -0.2905  0.9632
  384MPD2    H1 5744   2.228   3.754  11.690 -0.6121  1.5056 -0.5636
  384MPD2    H2 5745   2.098   3.980  12.022 -0.4909 -1.3976  0.8946
  384MPD2    H3 5746   2.099   3.936  11.777 -1.1199 -1.0326  1.1691
  384MPD2     N 5747   2.325   3.554  11.827  0.0423 -0.8281  0.3775
  384MPD2    H5 5748   2.372   3.489  11.890  0.3395 -0.0173  0.9852
  384MPD2    N1 5749   2.211   3.827  12.205 -0.4287  0.1852  0.3476
  384MPD2    H7 5750   2.250   3.747  12.254  0.0678 -1.3981 -2.6449
  385TMC3    C1 5751   2.355   3.378  11.685  0.5946 -0.6744 -0.4747
  385TMC3    C2 5752   2.266   3.291  11.626  0.3212  0.0774 -0.3298
  385TMC3    C3 5753   2.256   3.167  11.685 -0.1273 -0.4610  0.4347
  385TMC3    C4 5754   2.442   3.332  11.783 -0.0356  0.0579  0.4336
  385TMC3    C5 5755   2.412   3.216  11.853 -0.5448  0.5678 -0.1548
  385TMC3    C6 5756   2.319   3.138  11.800  0.7542 -0.9768  0.2931
  385TMC3     C 5757   2.292   3.502  11.703  0.6276 -0.3099  0.6002
  385TMC3     O 5758   2.228   3.541  11.609 -0.3453  0.7794 -0.3265
  385TMC3     H 5759   2.191   3.310  11.550 -0.0753  2.7874  0.7513
  385TMC3    H1 5760   2.515   3.407  11.811 -0.9056  0.4960  1.5071
  385TMC3    H2 5761   2.301   3.039  11.840  0.3779 -1.5087 -1.1846
  385TMC3    C7 5762   2.379   3.258  11.992 -0.4201 -0.5312  0.0989
  385TMC3    C8 5763   2.121   3.109  11.679 -0.0792 -0.3849 -0.7701
  385TMC3    O1 5764   2.414   3.371  12.008  0.0384 -0.3612 -0.5188
  385TMC3    O2 5765   2.060   3.109  11.786 -0.0731 -0.0350  0.1103
  386TMC3    C1 5766   1.656   1.857  11.659 -0.2589  0.2991 -0.5079
  386TMC3    C2 5767   1.708   1.849  11.532 -0.3900 -0.0116  0.1185
  386TMC3    C3 5768   1.616   1.841  11.428  0.3989  0.0348 -0.0706
  386TMC3    C4 5769   1.522   1.857  11.686  0.2381  0.4723 -0.3757
  386TMC3    C5 5770   1.434   1.854  11.581 -0.3218 -0.0109  0.1803
  386TMC3    C6 5771   1.478   1.843  11.451  0.1661 -0.2484  0.8986
  386TMC3     C 5772   1.749   1.841  11.768  0.0189 -0.3762  0.2825
  386TMC3     O 5773   1.706   1.856  11.883  0.2025 -0.4160  0.8157
  386TMC3     H 5774   1.814   1.859  11.516 -0.1553 -0.6659  1.3009
  386TMC3    H1 5775   1.481   1.852  11.786 -0.4225 -1.3021 -0.7333
  386TMC3    H2 5776   1.404   1.830  11.373 -0.9918  0.2415  1.9329
  386TMC3    C7 5777   1.304   1.793  11.613  0.2942  0.0263 -0.7786
  386TMC3    C8 5778   1.658   1.827  11.291 -0.1464 -0.0802 -0.6112
  386TMC3    O1 5779   1.257   1.833  11.718 -0.5772  0.1797 -0.5281
  386TMC3    O2 5780   1.574   1.820  11.207  0.2404  0.2727 -0.3272
  387MPD2     C 5781   4.408   1.546   9.879 -0.9054  0.1250  0.4143
  387MPD2    C1 5782   4.503   1.485   9.966 -0.0020 -0.5429  0.2076
  387MPD2    C2 5783   4.507   1.344   9.972  0.1154  0.4618 -0.1011
  387MPD2    C3 5784   4.431   1.269   9.885  0.6746 -0.8814 -0.7662
  387MPD2    C4 5785   4.350   1.328   9.795 -0.7396  0.4628  1.1625
  387MPD2    C5 5786   4.327   1.467   9.796  0.2894  0.3580  0.8122
  387MPD2     H 5787   4.570   1.296  10.047  0.4059  0.6059 -0.2524
  387MPD2    H1 5788   4.311   1.265   9.715  1.1146  1.3242 -0.4187
  387MPD2    H2 5789   4.387   1.652   9.880 -0.6663  0.1878 -1.7100
  387MPD2    H3 5790   4.260   1.507   9.722  1.8763 -0.3629 -1.0315
  387MPD2     N 5791   4.457   1.135   9.894  0.2255 -0.4300 -0.5468
  387MPD2    H5 5792   4.529   1.110   9.962  0.0539  1.7591  0.4418
  387MPD2    N1 5793   4.596   1.559  10.039  0.1569  0.3443  0.3264
  387MPD2    H7 5794   4.668   1.503  10.083  0.1623 -0.6221 -0.9185
  388TMC3    C1 5795   0.024   1.720  10.089 -0.2372 -0.0983  0.0310
  388TMC3    C2 5796   0.062   1.838  10.151  0.1981 -0.2991  0.2876
  388TMC3    C3 5797   0.186   1.849  10.209  0.2340 -0.0557 -0.1819
  388TMC3    C4 5798   0.112   1.616  10.089 -0.5627 -0.0746  0.2619
  388TMC3    C5 5799   0.240   1.631  10.140  0.0292 -0.5409  0.3283
  388TMC3    C6 5800   0.281   1.753  10.200 -0.2937 -0.0563  1.4536
  388TMC3     C 5801   4.621   1.694  10.032  0.1392 -0.3425  0.2948
  388TMC3     O 5802   4.545   1.783  10.005  0.8550  0.2282  0.4071
  388TMC3     H 5803   4.714   1.919  10.159  3.0274  2.2445  0.1231
  388TMC3    H1 5804   0.116   1.551  10.002 -0.4150 -1.7085  1.4939
  388TMC3    H2 5805   0.386   1.762  10.228 -0.0029  3.2682 -0.7741
  388TMC3    C7 5806   0.333   1.519  10.121  0.8340 -0.9031 -0.5415
  388TMC3    C8 5807   0.215   1.975  10.274  0.1274 -0.6384 -0.2058
  388TMC3    O1 5808   0.452   1.543  10.117  0.2061  0.1626  0.1762
  388TMC3    O2 5809   0.133   2.063  10.249 -0.0257  0.3792  0.1232
  389MPD2     C 5810   3.983   4.493  11.763  0.3097  0.6720  0.5797
  389MPD2    C1 5811   3.892   4.412  11.704 -0.6014 -0.5333  1.0961
  389MPD2    C2 5812   3.804   4.341  11.787 -0.1279 -1.1185  0.3953
  389MPD2    C3 5813   3.817   4.342  11.926  0.4553 -0.6490 -0.4691
  389MPD2    C4 5814   3.922   4.414  11.979 -0.6904 -0.6181 -0.6510
  389MPD2    C5 5815   4.002   4.494  11.900  0.9301 -0.3042  0.0301
  389MPD2     H 5816   3.722   4.284  11.744 -0.0156  0.3104 -1.6956
  389MPD2    H1 5817   3.934   4.421  12.087 -2.7918  0.0996 -0.4698
  389MPD2    H2 5818   4.055   4.550  11.706  0.1684 -2.1805 -2.4545
  389MPD2    H3 5819   4.073   4.565  11.940  2.3743 -0.6351 -1.9262
  389MPD2     N 5820   3.731   4.276  12.016 -0.0888  0.2672 -0.0211
  389MPD2    H5 5821   3.759   4.271  12.114  0.9686 -1.6621 -0.4379
  389MPD2    N1 5822   3.900   4.389  11.563 -0.2923 -0.3757  0.7212
  389MPD2    H7 5823   3.973   4.439  11.514 -0.3312  0.1184  1.1705
  390TMC3    C1 5824   3.584   4.112  12.100  0.4369  0.7611  0.5020
  390TMC3    C2 5825   3.543   3.988  12.062  0.2108  0.0404  0.5877
  390TMC3    C3 5826   3.464   3.930  12.155 -0.0413 -0.0679  0.5694
  390TMC3    C4 5827   3.540   4.185  12.203  0.2378 -0.1251  0.2975
  390TMC3    C5 5828   3.430   4.135  12.266 -0.1502 -0.3849  0.6884
  390TMC3    C6 5829   3.412   3.999  12.262  0.3580  0.0054 -0.6582
  390TMC3     C 5830   3.628   4.191  11.986  0.6530  0.4273  0.3836
  390TMC3     O 5831   3.573   4.176  11.881  0.1956 -0.1870 -0.0355
  390TMC3     H 5832   3.580   3.942  11.971 -2.8305 -1.7934  0.2789
  390TMC3    H1 5833   3.574   4.288  12.211  1.3942 -0.3497 -1.6387
  390TMC3    H2 5834   3.349   3.959  12.340 -0.1026  0.6902 -0.6797
  390TMC3    C7 5835   3.318   4.206  12.200 -0.0810 -0.2631  0.3125
  390TMC3    C8 5836   3.384   3.819  12.106 -0.3686 -0.3980 -0.8564
  390TMC3    O1 5837   3.342   4.313  12.145 -0.3284  0.1453  0.2949
  390TMC3    O2 5838   3.418   3.789  11.992  0.0467  0.0819 -0.3383
  391MPD2     C 5839   3.566   0.841  11.203 -0.0137 -0.4170 -0.5347
  391MPD2    C1 5840   3.674   0.904  11.148  1.4095 -0.1820 -0.2921
  391MPD2    C2 5841   3.676   0.922  11.010 -0.1877 -0.2597  0.1099
  391MPD2    C3 5842   3.579   0.865  10.929  0.0261 -0.0429  0.3736
  391MPD2    C4 5843   3.493   0.777  10.990 -0.4194 -0.2717  0.3012
  391MPD2    C5 5844   3.486   0.767  11.126 -0.4660 -0.6139  0.7591
  391MPD2     H 5845   3.754   0.974  10.956 -0.2634 -1.2209 -0.9243
  391MPD2    H1 5846   3.413   0.729  10.934 -2.2393  0.4722  2.2559
  391MPD2    H2 5847   3.540   0.849  11.307  1.4865  0.9719 -0.2795
  391MPD2    H3 5848   3.406   0.711  11.174 -0.8844  1.1710  2.1586
  391MPD2     N 5849   3.573   0.909  10.798 -0.0483 -0.5562  0.1979
  391MPD2    H5 5850   3.634   0.986  10.773 -2.4881  0.0772 -3.9444
  391MPD2    N1 5851   3.752   0.980  11.237  0.5443 -0.1758 -0.1488
  391MPD2    H7 5852   3.714   0.984  11.331  0.1689 -0.7876 -0.2788
  392TMC3    C1 5853   3.473   0.977  10.594 -0.1461 -0.1016  0.4413
  392TMC3    C2 5854   3.392   0.937  10.494 -0.1601 -0.5515  0.3518
  392TMC3    C3 5855   3.382   1.015  10.385 -0.0855  0.1499 -0.8524
  392TMC3    C4 5856   3.522   1.111  10.594 -0.4832  0.1095  0.6143
  392TMC3    C5 5857   3.505   1.190  10.482  0.4737  0.1773 -0.1464
  392TMC3    C6 5858   3.441   1.133  10.373 -0.1156 -0.0385  0.7512
  392TMC3     C 5859   3.467   0.887  10.714 -0.0944  0.2320 -0.6828
  392TMC3     O 5860   3.372   0.812  10.727 -0.5748 -0.3963  0.3489
  392TMC3     H 5861   3.332   0.846  10.499 -2.5004  0.9577 -0.1131
  392TMC3    H1 5862   3.583   1.136  10.681 -2.4873 -0.5286  2.1961
  392TMC3    H2 5863   3.420   1.187  10.281 -0.9016  0.0488  0.9915
  392TMC3    C7 5864   3.556   1.324  10.479  0.6076 -0.4390  0.5527
  392TMC3    C8 5865   3.287   0.971  10.284  0.1841  0.3583  0.4544
  392TMC3    O1 5866   3.624   1.347  10.577  1.1390 -0.5991  0.3019
  392TMC3    O2 5867   3.180   0.933  10.336 -0.0650 -0.1353  0.4257
  393TMC3    C1 5868   2.103   3.839  10.056  0.1613  0.5093 -1.2598
  393TMC3    C2 5869   2.018   3.880  10.151 -0.2822 -0.0053 -1.1275
  393TMC3    C3 5870   1.995   3.806  10.261  0.2067 -0.1495  0.2260
  393TMC3    C4 5871   2.154   3.714  10.056 -1.3428  0.0654  0.7741
  393TMC3    C5 5872   2.123   3.636  10.167 -0.0766  0.9714 -0.1514
  393TMC3    C6 5873   2.046   3.683  10.269 -0.4528 -0.2355  0.1871
  393TMC3     C 5874   2.136   3.936   9.956  0.3171 -0.0226 -0.0903
  393TMC3     O 5875   2.060   4.033   9.945  0.5255 -0.1902  0.0104
  393TMC3     H 5876   1.976   3.980  10.148 -1.3320 -0.4824 -2.0709
  393TMC3    H1 5877   2.219   3.666   9.985 -1.4110 -1.6612  1.8718
  393TMC3    H2 5878   2.020   3.617  10.351  1.6961  0.1597  1.1876
  393TMC3    C7 5879   2.216   3.536  10.206  0.4923  0.1186 -0.6599
  393TMC3    C8 5880   1.915   3.849  10.373  0.3043  0.2298 -0.1211
  393TMC3    O1 5881   2.218   3.434  10.141 -0.4723 -0.3199  0.0617
  393TMC3    O2 5882   1.844   3.767  10.429  0.0746 -0.1695 -0.3008
  394TMC3    C1 5883   3.840   4.306  11.351  0.5314 -0.6844 -0.2151
  394TMC3    C2 5884   3.723   4.328  11.291 -0.1427  0.1336 -0.2329
  394TMC3    C3 5885   3.731   4.372  11.161  0.4487 -0.4437 -0.5859
  394TMC3    C4 5886   3.964   4.316  11.295 -0.4655  0.3609 -0.1280
  394TMC3    C5 5887   3.971   4.371  11.173  1.1405  0.0546  0.1069
  394TMC3    C6 5888   3.854   4.399  11.105  0.7647  0.0921 -0.2542
  394TMC3     C 5889   3.825   4.292  11.496  0.0143 -0.3783  0.6017
  394TMC3     O 5890   3.739   4.215  11.533 -0.1016  0.2763 -0.0982
  394TMC3     H 5891   3.632   4.319  11.348 -1.6765  2.7746 -2.2758
  394TMC3    H1 5892   4.050   4.281  11.351 -0.9179 -1.7911 -0.7904
  394TMC3    H2 5893   3.859   4.442  11.005 -0.5225 -0.9073 -0.7532
  394TMC3    C7 5894   4.101   4.378  11.114 -0.2737  0.3769 -0.6112
  394TMC3    C8 5895   3.602   4.396  11.100  0.2484  0.2887 -0.0198
  394TMC3    O1 5896   4.120   4.437  11.008  0.7937  0.0360  0.1777
  394TMC3    O2 5897   3.510   4.391  11.177 -0.2679  0.2546  0.2539
  395TMC3    C1 5898   3.271   1.611  14.791 -0.5208  0.2351 -0.4038
  395TMC3    C2 5899   3.175   1.661  14.702  0.3454 -0.0162  0.1325
  395TMC3    C3 5900   3.205   1.766  14.623  0.0126  0.2924  0.0547
  395TMC3    C4 5901   3.393   1.673  14.789  0.4469 -0.1281  0.0241
  395TMC3    C5 5902   3.416   1.788  14.719 -0.3023 -0.1588  0.2616
  395TMC3    C6 5903   3.318   1.839  14.633  0.3495 -0.3992 -0.3458
  395TMC3     C 5904   3.222   1.561  14.920  0.2440 -0.1555 -0.9912
  395TMC3     O 5905   3.108   1.595  14.957 -0.1934 -0.7282  0.1869
  395TMC3     H 5906   3.070   1.633  14.711  0.2284  0.2939 -0.2713
  395TMC3    H1 5907   3.469   1.640  14.859 -0.5979 -2.1589  0.2104
  395TMC3    H2 5908   3.321   1.939  14.592 -1.0518  0.0083  0.5293
  395TMC3    C7 5909   3.526   1.879  14.768  0.8918 -0.2050  0.0365
  395TMC3    C8 5910   3.110   1.800  14.516  0.5118 -0.3891  0.6213
  395TMC3    O1 5911   3.515   2.000  14.748  0.3346 -0.2852  0.1886
  395TMC3    O2 5912   3.114   1.911  14.472 -0.7600  0.1535 -0.1140
  396MPD2     C 5913   2.897   2.687  17.319 -0.5230  0.5241  0.2691
  396MPD2    C1 5914   3.006   2.686  17.238  0.5011  0.4227  0.2599
  396MPD2    C2 5915   3.069   2.803  17.214  0.0115  0.4335 -0.0054
  396MPD2    C3 5916   3.013   2.926  17.251 -0.6621 -0.4844 -0.3877
  396MPD2    C4 5917   2.894   2.928  17.317 -0.1502  0.0976 -0.1439
  396MPD2    C5 5918   2.838   2.809  17.351 -0.5532 -0.4978 -1.2574
  396MPD2     H 5919   3.170   2.807  17.174 -0.3169 -0.3621 -0.9042
  396MPD2    H1 5920   2.837   3.014  17.351 -0.4801  0.5380 -1.7873
  396MPD2    H2 5921   2.860   2.596  17.367 -0.6624 -0.3696 -1.5319
  396MPD2    H3 5922   2.751   2.811  17.416 -1.6682  0.1374 -2.7778
  396MPD2     N 5923   3.087   3.037  17.221  0.3838 -0.2236 -0.7111
  396MPD2    H5 5924   3.169   3.034  17.162  0.6624  0.8402 -0.3637
  396MPD2    N1 5925   3.062   2.563  17.211  0.2270  0.0773 -0.4110
  396MPD2    H7 5926   3.020   2.484  17.259  1.6577 -0.6192 -0.3047
  397TMC3    C1 5927   3.226   2.400  17.149 -0.1904  0.1941  0.4467
  397TMC3    C2 5928   3.282   2.356  17.031  0.1879 -0.2698  0.0483
  397TMC3    C3 5929   3.251   2.229  16.989  0.2910  1.2939  0.0568
  397TMC3    C4 5930   3.150   2.305  17.218  0.8259  0.8252  0.7608
  397TMC3    C5 5931   3.125   2.181  17.171 -0.0137 -0.0216 -0.2851
  397TMC3    C6 5932   3.168   2.149  17.051  0.0218 -0.1837 -0.6162
  397TMC3     C 5933   3.185   2.544  17.145 -0.8487  0.4677 -0.1615
  397TMC3     O 5934   3.249   2.624  17.081  0.0972 -0.8767 -0.5375
  397TMC3     H 5935   3.340   2.432  16.980 -0.2231 -0.8345 -1.2508
  397TMC3    H1 5936   3.094   2.343  17.303 -1.6977 -1.3709  0.0727
  397TMC3    H2 5937   3.173   2.043  17.030 -0.0576 -0.2151 -0.4759
  397TMC3    C7 5938   3.099   2.077  17.274  0.0333 -0.3564  0.3205
  397TMC3    C8 5939   3.223   2.241  16.844  0.3225 -1.0811 -0.8253
  397TMC3    O1 5940   3.060   1.969  17.225 -0.1474  0.1608  0.0289
  397TMC3    O2 5941   3.266   2.348  16.798 -0.0624 -0.2321  0.1547
  398MPD2     C 5942   2.180   3.524   0.174 -0.2834 -1.2617 -0.0180
  398MPD2    C1 5943   2.165   3.424   0.266 -0.6482 -0.0767  0.3155
  398MPD2    C2 5944   2.197   3.440   0.397 -0.4730  0.3458 -0.4636
  398MPD2    C3 5945   2.255   3.558   0.442  0.0867  0.1106 -0.0761
  398MPD2    C4 5946   2.276   3.661   0.347  1.0405 -0.3392 -0.3108
  398MPD2    C5 5947   2.236   3.641   0.221  0.0698 -0.1712  0.0417
  398MPD2     H 5948   2.174   3.358   0.464  0.0410 -1.0134 -1.9672
  398MPD2    H1 5949   2.315   3.760   0.370  0.5738 -0.4541  0.9753
  398MPD2    H2 5950   2.146   3.509   0.072 -1.4627  0.5566  0.1041
  398MPD2    H3 5951   2.244   3.726   0.154  1.7171  0.2880  0.8144
  398MPD2     N 5952   2.290   3.575   0.578 -0.0842 -0.5581  0.1770
  398MPD2    H5 5953   2.281   3.493   0.638  0.6041  0.6761  1.9561
  398MPD2    N1 5954   2.106   3.301   0.234 -0.2540  0.4322 -0.2622
  398MPD2    H7 5955   2.063   3.251   0.311  0.5036 -0.0441 -0.1449
  399TMC3    C1 5956   2.059   3.106   0.126 -0.3548 -0.1433 -0.0098
  399TMC3    C2 5957   2.148   3.010   0.106 -0.2929 -0.3787  0.1067
  399TMC3    C3 5958   2.098   2.876   0.112 -0.1672  0.3751 -0.2647
  399TMC3    C4 5959   1.929   3.082   0.158 -0.6171  0.7896 -0.0320
  399TMC3    C5 5960   1.885   2.955   0.168  0.0880  0.2437 -0.3248
  399TMC3    C6 5961   1.968   2.850   0.152  0.8695  0.1929 -0.2250
  399TMC3     C 5962   2.104   3.243   0.117 -0.2704  0.0676 -0.4670
  399TMC3     O 5963   2.171   3.271   0.016  0.3110 -0.1585 -0.2481
  399TMC3     H 5964   2.254   3.027   0.097 -0.0093 -2.7075 -0.9519
  399TMC3    H1 5965   1.868   3.170   0.176  0.0025  0.8858  1.6392
  399TMC3    H2 5966   1.926   2.752   0.134  0.4711  0.4281 -0.5785
  399TMC3    C7 5967   1.741   2.934   0.157 -0.4985 -0.0123  0.0792
  399TMC3    C8 5968   2.179   2.764   0.075 -0.2993 -0.6519  0.2723
  399TMC3    O1 5969   1.708   2.815   0.164  0.0260 -0.2628  0.2156
  399TMC3    O2 5970   2.260   2.788  17.679 -0.2172 -0.0640  0.5654
  400TMC3    C1 5971   0.223   2.902  16.744  0.4427 -0.2386  0.6844
  400TMC3    C2 5972   0.089   2.878  16.716  0.1967  0.3690  0.2138
  400TMC3    C3 5973   4.714   2.971  16.720 -0.4403  0.2706  0.1637
  400TMC3    C4 5974   0.251   3.033  16.781 -0.8063 -0.3666  0.2652
  400TMC3    C5 5975   0.150   3.126  16.796  0.0550  0.4048  0.3735
  400TMC3    C6 5976   0.018   3.097  16.758 -0.1854 -0.4206 -0.1217
  400TMC3     C 5977   0.290   2.793  16.809 -0.3014 -0.2922 -0.5274
  400TMC3     O 5978   0.242   2.681  16.810  0.1196  0.6284  0.2171
  400TMC3     H 5979   0.069   2.777  16.681 -1.9339 -0.5547  4.0119
  400TMC3    H1 5980   0.352   3.049  16.816 -0.1923 -1.5702 -0.9404
  400TMC3    H2 5981   4.677   3.184  16.754  0.5519  0.2010  1.9412
  400TMC3    C7 5982   0.195   3.252  16.831 -0.4513 -0.3293  0.9603
  400TMC3    C8 5983   4.576   2.945  16.685 -0.6757 -0.3360 -0.3824
  400TMC3    O1 5984   0.305   3.288  16.796 -0.3673  0.2048  0.0337
  400TMC3    O2 5985   4.517   3.048  16.667  0.1899  0.1925 -0.7075
  401MPD2     C 5986   3.016   0.704   0.231 -0.2951 -0.0577 -0.0120
  401MPD2    C1 5987   2.924   0.663   0.326  0.8150  0.2055  0.3246
  401MPD2    C2 5988   2.965   0.571   0.418  0.9468  0.4271 -0.5427
  401MPD2    C3 5989   3.096   0.515   0.424 -0.2045  0.1635 -0.8628
  401MPD2    C4 5990   3.175   0.546   0.317  0.2277 -0.0881 -0.1631
  401MPD2    C5 5991   3.135   0.648   0.226  0.3640  0.4292 -0.3490
  401MPD2     H 5992   2.885   0.539   0.484 -0.6104  2.7051 -1.3246
  401MPD2    H1 5993   3.276   0.509   0.311 -0.2709 -1.2270 -1.4346
  401MPD2    H2 5994   2.997   0.774   0.150  0.8156  0.3408  0.0721
  401MPD2    H3 5995   3.208   0.681   0.153  0.3070  0.0992 -0.5532
  401MPD2     N 5996   3.122   0.424   0.531 -0.3719 -0.2250  0.8606
  401MPD2    H5 5997   3.046   0.429   0.599  0.5065 -0.6504  1.8754
  401MPD2    N1 5998   2.802   0.722   0.340  0.3124 -0.6065 -0.0564
  401MPD2    H7 5999   2.758   0.697   0.428 -1.5322  0.4533 -0.6732
  402TMC3    C1 6000   3.221   0.260   0.676  0.0625 -0.6409  0.3465
  402TMC3    C2 6001   3.102   0.231   0.739  0.2982 -0.2993  0.0154
  402TMC3    C3 6002   3.093   0.126   0.833 -0.4315 -0.4619  0.0943
  402TMC3    C4 6003   3.331   0.178   0.694 -0.5167 -0.5010  0.2445
  402TMC3    C5 6004   3.321   0.073   0.780 -0.5135  0.9929 -0.0636
  402TMC3    C6 6005   3.204   0.053   0.853  0.2971 -0.2284 -0.0221
  402TMC3     C 6006   3.230   0.344   0.553  0.2907 -0.0542 -0.6762
  402TMC3     O 6007   3.327   0.334   0.484  0.0971 -0.4095 -0.1614
  402TMC3     H 6008   3.032   0.313   0.747  0.3999 -0.3184  1.0984
  402TMC3    H1 6009   3.429   0.192   0.651  0.1684 -0.6041  1.7817
  402TMC3    H2 6010   3.199   4.703   0.933  0.7558  0.0240  0.2372
  402TMC3    C7 6011   3.432   4.699   0.791 -0.1152 -1.0991  0.3527
  402TMC3    C8 6012   2.981   0.124   0.928  0.8079  0.3304 -0.2812
  402TMC3    O1 6013   3.499   4.685   0.687  0.4030  0.7028  0.0477
  402TMC3    O2 6014   2.983   0.048   1.025  0.2584  0.2203  0.0198
  403MPD2     C 6015   1.336   3.844  13.591  0.3333  0.7093  0.0637
  403MPD2    C1 6016   1.389   3.745  13.666  0.0534 -0.6165  0.1299
  403MPD2    C2 6017   1.522   3.750  13.712 -0.5412 -0.5008  0.0040
  403MPD2    C3 6018   1.595   3.861  13.682 -0.4783  0.5210 -0.1724
  403MPD2    C4 6019   1.537   3.956  13.594  0.1074 -0.3831  0.1668
  403MPD2    C5 6020   1.408   3.951  13.554 -0.3215  0.1201  0.0286
  403MPD2     H 6021   1.558   3.683  13.789 -1.3832  0.5467  1.3092
  403MPD2    H1 6022   1.598   4.035  13.551  1.0844 -0.5108  1.3274
  403MPD2    H2 6023   1.236   3.841  13.549  0.2612 -1.0621  0.3749
  403MPD2    H3 6024   1.361   4.025  13.490 -2.1777 -0.8870  0.2172
  403MPD2     N 6025   1.729   3.873  13.733 -0.6240 -0.4191 -0.6090
  403MPD2    H5 6026   1.750   3.795  13.794  0.1141 -1.4872 -2.2105
  403MPD2    N1 6027   1.301   3.635  13.698 -0.0426  0.6412 -0.6818
  403MPD2    H7 6028   1.204   3.649  13.674 -0.4211 -0.0168  0.4458
  404TMC3    C1 6029   1.214   3.432  13.777 -0.3995  0.5211 -0.1508
  404TMC3    C2 6030   1.151   3.383  13.883  0.8086 -0.2883  0.0290
  404TMC3    C3 6031   1.066   3.280  13.872  0.1609  0.1598 -0.1686
  404TMC3    C4 6032   1.202   3.364  13.658  0.0785  0.0911  0.5384
  404TMC3    C5 6033   1.128   3.255  13.650 -0.2845  0.3984 -0.3160
  404TMC3    C6 6034   1.056   3.216  13.759  0.1914 -0.6210  0.7673
  404TMC3     C 6035   1.329   3.525  13.783  0.0812 -0.4981  0.1072
  404TMC3     O 6036   1.429   3.484  13.832  0.0485  0.1469 -0.3745
  404TMC3     H 6037   1.178   3.426  13.978 -0.9367 -0.9532  0.8154
  404TMC3    H1 6038   1.274   3.384  13.579 -0.0093  1.4513  0.8003
  404TMC3    H2 6039   1.003   3.121  13.759 -1.7214  0.4494 -0.8124
  404TMC3    C7 6040   1.097   3.187  13.524 -0.6848 -0.1185 -0.6833
  404TMC3    C8 6041   1.060   3.189  13.988 -0.8919 -0.1278  0.8966
  404TMC3    O1 6042   0.989   3.127  13.518  0.1795  0.2819  0.4025
  404TMC3    O2 6043   1.077   3.071  13.965  0.2504 -0.6821 -0.8748
  405MPD2     C 6044   1.759   4.647  14.682 -0.3881  0.7375  0.4152
  405MPD2    C1 6045   1.741   4.538  14.600 -0.0464 -0.4568 -0.2895
  405MPD2    C2 6046   1.641   4.552  14.503 -0.2294 -0.1774  0.1714
  405MPD2    C3 6047   1.576   4.670  14.474  0.4437  0.2457 -0.0494
  405MPD2    C4 6048   1.613   0.053  14.553 -0.3892  0.1824 -0.5527
  405MPD2    C5 6049   1.690   0.037  14.660  0.5300  0.2813  0.4362
  405MPD2     H 6050   1.599   4.463  14.457  0.7053 -0.5969  0.1316
  405MPD2    H1 6051   1.572   0.153  14.542  1.9352  1.0559 -1.2214
  405MPD2    H2 6052   1.817   4.643  14.773 -0.8658 -0.3953  0.6703
  405MPD2    H3 6053   1.708   0.126  14.719 -1.2929  0.4252  0.7970
  405MPD2     N 6054   1.493   4.678  14.362 -0.6666 -0.3056  0.2255
  405MPD2    H5 6055   1.484   4.591  14.309 -1.2761 -0.8494  1.2241
  405MPD2    N1 6056   1.802   4.418  14.631  0.1948 -0.2217  0.1561
  405MPD2    H7 6057   1.850   4.419  14.721 -0.3863  1.8910  0.4622
  406TMC3    C1 6058   1.068   0.053  14.234  0.4223  0.5114 -0.3388
  406TMC3    C2 6059   1.056   4.643  14.194  0.2806  0.1749 -0.0516
  406TMC3    C3 6060   1.173   4.570  14.165  0.1609 -0.3961  0.3123
  406TMC3    C4 6061   1.190   0.110  14.261  0.2678 -0.3486 -0.1091
  406TMC3    C5 6062   1.301   0.027  14.239  0.7307 -0.8615  0.0690
  406TMC3    C6 6063   1.301   4.619  14.188  0.0012 -0.3547 -0.3974
  406TMC3     C 6064   0.955   0.127  14.279  0.0390 -1.1240  0.1227
  406TMC3     O 6065   0.959   0.249  14.265  0.1139  0.3794  0.3178
  406TMC3     H 6066   0.962   4.593  14.174  0.8739 -0.6532 -0.7598
  406TMC3    H1 6067   1.205   0.212  14.296  0.9655 -0.3781 -0.3382
  406TMC3    H2 6068   1.394   4.586  14.143 -0.0025 -2.0505  0.8265
  406TMC3    C7 6069   1.418   0.065  14.322  0.9588 -0.1794  0.1740
  406TMC3    C8 6070   1.163   4.419  14.166 -0.3627 -0.2331 -0.2102
  406TMC3    O1 6071   1.408   0.170  14.377 -0.0499  0.3280  0.4815
  406TMC3    O2 6072   1.053   4.372  14.129  0.1344 -0.0434  0.3318
  407MPD2     C 6073   3.896   1.314  10.085  0.2752 -0.4963 -0.4747
  407MPD2    C1 6074   3.986   1.377  10.009 -0.8592 -0.6014  0.3948
  407MPD2    C2 6075   4.084   1.456  10.073  0.3280 -0.3851  0.2754
  407MPD2    C3 6076   4.101   1.457  10.206 -0.6283  0.0616  0.2206
  407MPD2    C4 6077   4.008   1.389  10.281 -0.5988  0.2461  0.1381
  407MPD2    C5 6078   3.909   1.317  10.220  0.6610 -0.7075  0.4297
  407MPD2     H 6079   4.160   1.515  10.023 -0.5144  0.8159  0.3963
  407MPD2    H1 6080   4.025   1.373  10.387 -1.9098 -1.6336  0.0707
  407MPD2    H2 6081   3.816   1.260  10.035 -0.8386 -1.0006  1.8274
  407MPD2    H3 6082   3.849   1.248  10.279 -1.8635  1.3924  0.3175
  407MPD2     N 6083   4.214   1.529  10.255 -0.0818 -0.2771 -0.0596
  407MPD2    H5 6084   4.266   1.591  10.193 -0.4192  0.0170 -0.0496
  407MPD2    N1 6085   3.982   1.386   9.873  0.5766 -0.0086 -0.1997
  407MPD2    H7 6086   4.048   1.454   9.836  0.8572 -0.7257 -1.0279
  408TMC3    C1 6087   3.968   1.318   9.656 -0.4478 -0.8167 -0.1504
  408TMC3    C2 6088   4.018   1.212   9.588  0.0514 -0.6018  0.0534
  408TMC3    C3 6089   4.114   1.244   9.494  1.3134 -0.2365  0.3235
  408TMC3    C4 6090   4.001   1.450   9.626 -0.5692 -0.4513 -0.6653
  408TMC3    C5 6091   4.091   1.474   9.525 -0.4418  0.5636 -0.0112
  408TMC3    C6 6092   4.153   1.371   9.460 -0.2325 -0.0474  0.3293
  408TMC3     C 6093   3.943   1.284   9.789 -0.9197 -0.0247 -0.3648
  408TMC3     O 6094   3.897   1.171   9.807  0.2701  0.0343  0.1708
  408TMC3     H 6095   3.994   1.110   9.618  0.5059 -1.7030 -3.3276
  408TMC3    H1 6096   3.972   1.537   9.684  1.8345 -0.5811  0.7043
  408TMC3    H2 6097   4.212   1.395   9.371 -1.7003 -1.4291 -1.0203
  408TMC3    C7 6098   4.101   1.613   9.486  1.1030 -0.0172  0.0886
  408TMC3    C8 6099   4.208   1.132   9.459  0.1239 -1.1981 -0.8927
  408TMC3    O1 6100   3.998   1.672   9.501  0.3443 -0.4547 -0.2711
  408TMC3    O2 6101   4.171   1.015   9.464  0.0940  0.2655  0.2795
  409MPD2     C 6102   3.495   1.997  16.924  0.3559  0.1355 -0.1538
  409MPD2    C1 6103   3.502   2.024  17.059  0.2434 -0.1542 -0.1278
  409MPD2    C2 6104   3.564   2.142  17.089 -0.2276 -0.2018 -0.3728
  409MPD2    C3 6105   3.622   2.223  16.997 -0.8430 -1.2956  0.6491
  409MPD2    C4 6106   3.597   2.201  16.862  0.2733 -0.0409  0.3997
  409MPD2    C5 6107   3.533   2.087  16.825  0.2400  0.3311  0.6908
  409MPD2     H 6108   3.569   2.175  17.192  1.6461  3.3239 -1.5916
  409MPD2    H1 6109   3.631   2.263  16.779  1.1708  0.0709  0.8460
  409MPD2    H2 6110   3.442   1.909  16.890  1.7005 -0.2174 -1.3393
  409MPD2    H3 6111   3.532   2.071  16.717  1.2358  1.7519  0.4859
  409MPD2     N 6112   3.706   2.336  17.023  0.4870 -0.1224  0.3042
  409MPD2    H5 6113   3.763   2.381  16.952  1.0493  0.8930  1.4119
  409MPD2    N1 6114   3.454   1.948  17.168  0.8347 -0.6810 -0.4834
  409MPD2    H7 6115   3.480   1.980  17.261 -2.2859  0.3745  0.0293
  410TMC3    C1 6116   3.824   2.487  17.159  0.2632 -0.1561 -0.1897
  410TMC3    C2 6117   3.921   2.496  17.062 -0.0922  0.2939 -0.0109
  410TMC3    C3 6118   3.992   2.610  17.048  0.1995  0.3240  0.4301
  410TMC3    C4 6119   3.791   2.594  17.239  0.2383 -0.0234  0.0348
  410TMC3    C5 6120   3.858   2.711  17.221 -0.1868  0.2378 -0.1717
  410TMC3    C6 6121   3.956   2.719  17.121 -0.1834 -0.0408  0.9168
  410TMC3     C 6122   3.719   2.386  17.149  0.4722  0.3467  0.5743
  410TMC3     O 6123   3.636   2.382  17.241  0.3983 -0.2022  0.2611
  410TMC3     H 6124   3.949   2.399  17.020  2.8858  1.7392 -1.3965
  410TMC3    H1 6125   3.703   2.592  17.302 -0.1252  2.9813 -0.3605
  410TMC3    H2 6126   4.016   2.806  17.098 -0.9071  0.5789  1.3810
  410TMC3    C7 6127   3.791   2.835  17.246 -0.0613 -0.1069 -0.6819
  410TMC3    C8 6128   4.133   2.608  17.007 -0.5020 -0.1923  0.9246
  410TMC3    O1 6129   3.730   2.844  17.354 -0.4879 -0.4261  0.4950
  410TMC3    O2 6130   4.194   2.713  17.025  0.3886 -0.1021 -0.4499
  411MPD2     C 6131   4.218   2.647  14.910  0.4570 -0.1443 -0.5546
  411MPD2    C1 6132   4.097   2.644  14.845 -0.8957  0.1008  0.2920
  411MPD2    C2 6133   4.049   2.517  14.806 -0.5233 -0.3554  0.3358
  411MPD2    C3 6134   4.124   2.400  14.818  0.7353 -0.2953 -0.0240
  411MPD2    C4 6135   4.245   2.407  14.886 -0.4117 -0.4805  1.0049
  411MPD2    C5 6136   4.291   2.531  14.926  0.1249 -0.0277  0.2617
  411MPD2     H 6137   3.961   2.513  14.743  1.1271  0.9463 -2.0460
  411MPD2    H1 6138   4.314   2.326  14.908  1.7783  1.1184 -0.0255
  411MPD2    H2 6139   4.252   2.746  14.939  0.0947 -0.4762  1.0263
  411MPD2    H3 6140   4.388   2.541  14.974  0.5526  2.4798 -1.1761
  411MPD2     N 6141   4.075   2.282  14.751  0.2719 -0.1060 -0.2034
  411MPD2    H5 6142   3.979   2.285  14.719 -0.5129 -3.4619  1.8088
  411MPD2    N1 6143   4.037   2.762  14.817  0.3363  0.2619  0.2755
  411MPD2    H7 6144   4.079   2.851  14.842  3.2253 -1.5985  2.0672
  412TMC3    C1 6145   4.090   2.105  14.616 -0.8207  0.2450  0.3213
  412TMC3    C2 6146   4.020   2.185  14.526 -0.3815 -0.1534 -0.3970
  412TMC3    C3 6147   3.924   2.129  14.449  0.2499 -0.3042  0.3802
  412TMC3    C4 6148   4.073   1.967  14.612 -0.1738  0.2726  1.0934
  412TMC3    C5 6149   3.970   1.915  14.544  0.1881 -0.1578  0.1910
  412TMC3    C6 6150   3.890   1.995  14.469  0.1515 -0.3563  0.5414
  412TMC3     C 6151   4.146   2.165  14.730 -0.0950  0.5863  0.3240
  412TMC3     O 6152   4.261   2.129  14.752  0.0142 -0.1602 -0.4162
  412TMC3     H 6153   4.053   2.286  14.504  0.7380  0.2833  3.1460
  412TMC3    H1 6154   4.136   1.907  14.677 -0.7862 -0.3442  1.1191
  412TMC3    H2 6155   3.816   1.945  14.408 -0.1805  1.7339 -0.7694
  412TMC3    C7 6156   3.995   1.789  14.473  0.1312 -0.6486 -0.1978
  412TMC3    C8 6157   3.929   2.172  14.308  0.2505  0.4646 -0.0746
  412TMC3    O1 6158   3.981   1.684  14.531  0.0856  0.0036 -0.7440
  412TMC3    O2 6159   3.933   2.077  14.231  0.3501  0.4002 -0.0053
  413MPD2     C 6160   0.542   0.684  16.147  0.0898 -0.4723  0.0117
  413MPD2    C1 6161   0.504   0.724  16.018  0.0273  0.7146 -0.7334
  413MPD2    C2 6162   0.578   0.682  15.906 -0.2285  0.8901 -0.6063
  413MPD2    C3 6163   0.688   0.593  15.923  0.0406  0.2175  0.5034
  413MPD2    C4 6164   0.706   0.536  16.042 -0.5008  0.2808  0.0283
  413MPD2    C5 6165   0.631   0.579  16.152 -0.1882 -0.2652  0.2483
  413MPD2     H 6166   0.545   0.704  15.805  1.8682 -1.6257 -1.8349
  413MPD2    H1 6167   0.786   0.466  16.064 -2.5695 -1.9092  0.6114
  413MPD2    H2 6168   0.486   0.714  16.235 -1.5411 -2.7768 -0.2326
  413MPD2    H3 6169   0.649   0.531  16.248 -2.1210  0.4420  0.9749
  413MPD2     N 6170   0.768   0.556  15.806  0.2509  0.2703  0.3055
  413MPD2    H5 6171   0.745   0.609  15.723  2.5110  1.9018  0.7197
  413MPD2    N1 6172   0.385   0.809  16.010  0.0074 -0.1545  0.2472
  413MPD2    H7 6173   0.340   0.827  16.099 -0.6416  0.2362 -0.1640
  414TMC3    C1 6174   0.923   0.460  15.664 -0.2586  0.4508  0.7127
  414TMC3    C2 6175   1.005   0.356  15.637 -0.0466  0.3191  0.5479
  414TMC3    C3 6176   1.014   0.323  15.507  0.3125  0.3283  0.0012
  414TMC3    C4 6177   0.860   0.529  15.567 -0.0267  0.2665  0.0544
  414TMC3    C5 6178   0.881   0.501  15.438 -0.3699  0.4773 -0.1759
  414TMC3    C6 6179   0.948   0.383  15.409  0.5051 -0.1424 -0.9276
  414TMC3     C 6180   0.876   0.472  15.801 -0.2599 -0.2388  0.1970
  414TMC3     O 6181   0.924   0.408  15.892  0.3932  0.5066 -0.0478
  414TMC3     H 6182   1.039   0.291  15.715 -2.3863 -1.3608  0.1645
  414TMC3    H1 6183   0.802   0.620  15.581 -1.2883 -0.5293 -0.0321
  414TMC3    H2 6184   0.948   0.331  15.314 -1.2803  0.1921 -1.1095
  414TMC3    C7 6185   0.764   0.531  15.360 -0.0371 -0.3318  0.5684
  414TMC3    C8 6186   1.130   0.243  15.465  0.0589 -0.3859 -0.4260
  414TMC3    O1 6187   0.665   0.568  15.422 -0.0350 -0.0810 -0.0378
  414TMC3    O2 6188   1.106   0.186  15.359 -0.0889  0.2852 -0.1822
  415TMC3    C1 6189   1.651   2.885  10.285 -0.1505  0.2351  0.5874
  415TMC3    C2 6190   1.661   3.020  10.289 -0.5830  0.2446  0.4631
  415TMC3    C3 6191   1.748   3.085  10.207  0.5655  0.3629  0.0599
  415TMC3    C4 6192   1.719   2.815  10.190  0.1412  0.1642  0.7349
  415TMC3    C5 6193   1.819   2.882  10.122  0.2773  0.4442 -0.0841
  415TMC3    C6 6194   1.835   3.015  10.127 -0.6103 -0.2339  0.1542
  415TMC3     C 6195   1.540   2.826  10.341 -0.0444  0.6543  0.0381
  415TMC3     O 6196   1.495   2.727  10.282  0.3125 -0.0015 -0.6125
  415TMC3     H 6197   1.606   3.085  10.356 -3.8491 -1.9610 -0.0935
  415TMC3    H1 6198   1.713   2.707  10.193 -1.2456  0.1199 -3.6755
  415TMC3    H2 6199   1.899   3.075  10.064  0.0411 -0.1106  0.9338
  415TMC3    C7 6200   1.881   2.822  10.009  0.8226  0.2265  0.2973
  415TMC3    C8 6201   1.741   3.230  10.202  0.8724  1.1202  1.3503
  415TMC3    O1 6202   1.925   2.894   9.920 -0.0606  0.3169 -0.1007
  415TMC3    O2 6203   1.687   3.281  10.302  0.0521  0.2816  0.1541
  416MPD2     C 6204   3.537   2.389  11.863  0.2876 -0.2719 -0.3227
  416MPD2    C1 6205   3.444   2.388  11.756 -0.1611 -0.0674  0.1981
  416MPD2    C2 6206   3.464   2.289  11.665 -0.7960  0.1511 -0.4256
  416MPD2    C3 6207   3.573   2.197  11.679  0.3205 -0.0210  0.4334
  416MPD2    C4 6208   3.654   2.197  11.791 -0.7354 -0.3134 -0.4449
  416MPD2    C5 6209   3.631   2.294  11.887  0.1583 -0.0113 -0.3062
  416MPD2     H 6210   3.399   2.292  11.578 -0.3628  0.8250 -0.7244
  416MPD2    H1 6211   3.726   2.118  11.806 -1.2833 -0.7149  0.0514
  416MPD2    H2 6212   3.525   2.458  11.946  1.0821 -1.0604  0.4352
  416MPD2    H3 6213   3.680   2.309  11.982 -0.8157  0.6422  0.0937
  416MPD2     N 6214   3.604   2.100  11.581  0.1640 -0.0609  0.1004
  416MPD2    H5 6215   3.678   2.038  11.611  1.2143 -0.2373 -2.8677
  416MPD2    N1 6216   3.340   2.485  11.749 -0.6299 -0.3254  0.0471
  416MPD2    H7 6217   3.351   2.562  11.813  1.0021 -0.1418 -0.4525
  417TMC3    C1 6218   3.139   2.582  11.715 -0.1878 -0.1465  0.3130
  417TMC3    C2 6219   3.144   2.614  11.843  0.2994  0.2400  0.6074
  417TMC3    C3 6220   3.026   2.660  11.899 -0.1504 -0.0543 -0.1941
  417TMC3    C4 6221   3.030   2.617  11.639 -0.1357 -0.1967 -0.5085
  417TMC3    C5 6222   2.922   2.676  11.698  0.3123 -0.0579  0.3899
  417TMC3    C6 6223   2.906   2.686  11.833  0.0981  1.1457  0.6204
  417TMC3     C 6224   3.224   2.475  11.670 -0.5014 -0.2524  0.0176
  417TMC3     O 6225   3.187   2.392  11.586 -0.5220  1.1934 -0.3991
  417TMC3     H 6226   3.226   2.592  11.910  1.9003  1.4627 -0.9761
  417TMC3    H1 6227   3.026   2.593  11.533  0.1271 -1.8525 -0.1464
  417TMC3    H2 6228   2.823   2.737  11.879  0.3507  1.4130  0.7752
  417TMC3    C7 6229   2.816   2.723  11.612 -0.6499  0.0209  0.7529
  417TMC3    C8 6230   3.022   2.703  12.038  0.2497 -0.7520 -0.4995
  417TMC3    O1 6231   2.837   2.777  11.504 -0.1686  0.1188 -0.2132
  417TMC3    O2 6232   2.915   2.684  12.098 -0.3906  0.4019  0.1523
  418TMC3    C1 6233   2.497   3.524   0.906  0.3937  0.3539  0.0515
  418TMC3    C2 6234   2.462   3.554   0.781  0.0504 -0.2084  0.3630
  418TMC3    C3 6235   2.383   3.663   0.760  0.4536  0.0042 -0.0296
  418TMC3    C4 6236   2.448   3.595   1.013 -0.0444  0.2572  0.0234
  418TMC3    C5 6237   2.356   3.697   0.989 -0.5465 -0.5065 -0.0495
  418TMC3    C6 6238   2.334   3.744   0.859  0.2211  0.3207  0.5102
  418TMC3     C 6239   2.605   3.426   0.928 -0.1640  0.6932  0.0617
  418TMC3     O 6240   2.699   3.423   0.847  0.0082  0.5402 -0.2131
  418TMC3     H 6241   2.501   3.496   0.699  0.7124  2.0202 -0.8870
  418TMC3    H1 6242   2.478   3.569   1.114 -2.5190  0.0033  0.7104
  418TMC3    H2 6243   2.268   3.825   0.830 -0.6613 -0.2412  0.9105
  418TMC3    C7 6244   2.250   3.711   1.095  0.2184 -0.1760  0.3761
  418TMC3    C8 6245   2.351   3.683   0.626  0.8025  0.0691  0.7377
  418TMC3    O1 6246   2.241   3.625   1.184 -0.5457  0.0982 -0.1570
  418TMC3    O2 6247   2.341   3.803   0.601 -0.2486  0.1300 -0.3776
  419MPD2     C 6248   0.408   2.083  12.915 -0.1328  0.4310 -0.9269
  419MPD2    C1 6249   0.332   2.197  12.933  0.2457  0.0316  0.2398
  419MPD2    C2 6250   0.334   2.263  13.059  0.0378  0.1440 -0.3836
  419MPD2    C3 6251   0.408   2.223  13.162 -0.0306  0.1921 -0.0149
  419MPD2    C4 6252   0.499   2.116  13.142  0.4161  0.0397 -0.5680
  419MPD2    C5 6253   0.498   2.050  13.018 -0.2279  0.4298  0.4992
  419MPD2     H 6254   0.261   2.342  13.074 -0.6659 -1.0750  2.7083
  419MPD2    H1 6255   0.566   2.084  13.221 -0.4066  0.0097  0.1096
  419MPD2    H2 6256   0.400   2.013  12.833  0.0634 -1.0995  0.3406
  419MPD2    H3 6257   0.550   1.955  13.014 -1.1616 -0.1276  1.4972
  419MPD2     N 6258   0.403   2.295  13.281  0.2648 -0.6734 -0.2113
  419MPD2    H5 6259   0.346   2.379  13.281 -1.1720 -1.6327  1.1075
  419MPD2    N1 6260   0.239   2.241  12.835  0.4011  0.6485  0.3625
  419MPD2    H7 6261   0.194   2.331  12.847  2.6010  1.9727 -1.2155
  420TMC3    C1 6262   0.436   2.357  13.514  0.4098 -0.0619  0.2049
  420TMC3    C2 6263   0.367   2.472  13.489  0.1495 -0.0945  0.4528
  420TMC3    C3 6264   0.366   2.559  13.593 -0.5881 -0.3906 -0.4858
  420TMC3    C4 6265   0.518   2.348  13.623  0.1522 -0.0874  0.3125
  420TMC3    C5 6266   0.529   2.452  13.712 -0.1767  0.4099  1.0200
  420TMC3    C6 6267   0.452   2.559  13.702 -0.2429  0.7408 -0.6978
  420TMC3     C 6268   0.453   2.256  13.406  1.1025  0.0753  0.1999
  420TMC3     O 6269   0.512   2.155  13.435 -0.5287  0.2436 -0.1491
  420TMC3     H 6270   0.290   2.481  13.413  1.2264 -0.4129 -0.6761
  420TMC3    H1 6271   0.567   2.253  13.643 -0.2275 -0.1455  0.9451
  420TMC3    H2 6272   0.445   2.641  13.773  0.8719 -0.3489  0.6733
  420TMC3    C7 6273   0.583   2.426  13.842  0.0462 -0.0289  0.5049
  420TMC3    C8 6274   0.271   2.666  13.591  0.0464  0.2737 -0.6884
  420TMC3    O1 6275   0.580   2.312  13.886 -0.0911 -0.1034  0.1434
  420TMC3    O2 6276   0.266   2.727  13.484  0.0616 -0.0563  0.2519
  421TMC3    C1 6277   1.936   3.973  13.786  0.3682 -0.0711 -0.4125
  421TMC3    C2 6278   2.003   4.092  13.811  0.4708 -0.0324 -0.5805
  421TMC3    C3 6279   2.118   4.085  13.884  0.0622  0.3970  0.1907
  421TMC3    C4 6280   1.986   3.854  13.828 -0.7647  0.0370  0.2438
  421TMC3    C5 6281   2.091   3.852  13.921 -0.3035 -0.7058  0.8140
  421TMC3    C6 6282   2.163   3.971  13.941 -0.0506  0.3039  0.1311
  421TMC3     C 6283   1.818   3.979  13.703  0.1633  0.1335 -0.2297
  421TMC3     O 6284   1.814   4.064  13.620  1.1300 -0.1646  0.5001
  421TMC3     H 6285   1.966   4.181  13.761  0.9097  0.9771  0.8946
  421TMC3    H1 6286   1.940   3.762  13.793 -0.8760 -0.3728  1.4515
  421TMC3    H2 6287   2.249   3.973  14.007 -1.1093  1.4487  1.4696
  421TMC3    C7 6288   2.160   3.727  13.953  0.0785  0.1045  0.1421
  421TMC3    C8 6289   2.190   4.205  13.930 -0.6304 -1.0712  0.5291
  421TMC3    O1 6290   2.278   3.746  13.982  0.3665 -0.7874 -0.6761
  421TMC3    O2 6291   2.293   4.186  13.993 -0.0167 -0.3368 -0.5562
  422TMC3    C1 6292   4.122   0.504  12.457 -0.2668  0.0969 -0.6780
  422TMC3    C2 6293   4.102   0.635  12.473 -0.6529  0.4222  0.0757
  422TMC3    C3 6294   3.983   0.672  12.537  1.2099 -0.0680  0.0142
  422TMC3    C4 6295   4.035   0.406  12.504 -0.1509 -0.5402  0.1090
  422TMC3    C5 6296   3.922   0.449  12.572 -0.6361  0.0467 -0.4199
  422TMC3    C6 6297   3.900   0.581  12.595 -0.0870 -0.1252 -0.5499
  422TMC3     C 6298   4.216   0.470  12.348 -0.1582  0.3758 -0.6835
  422TMC3     O 6299   4.261   0.564  12.280  0.4869  0.2080 -0.2852
  422TMC3     H 6300   4.155   0.713  12.420  0.1230  0.2364  0.5867
  422TMC3    H1 6301   4.045   0.303  12.472 -0.4899 -0.1599 -1.1915
  422TMC3    H2 6302   3.823   0.618  12.661 -1.1139 -1.6957 -0.8718
  422TMC3    C7 6303   3.872   0.339  12.657 -1.1508 -0.2134  0.2663
  422TMC3    C8 6304   3.956   0.814  12.534 -0.0832  0.2212 -0.1934
  422TMC3    O1 6305   3.937   0.238  12.665 -0.1187  0.0949 -0.0230
  422TMC3    O2 6306   4.048   0.900  12.532  0.0526 -0.0605 -0.5369
  423MPD2     C 6307   1.035   1.659   0.787 -0.7340  0.0840 -0.2019
  423MPD2    C1 6308   0.966   1.544   0.819 -0.3093 -0.3932 -0.4904
  423MPD2    C2 6309   0.917   1.465   0.716  0.0272 -0.4695  0.4430
  423MPD2    C3 6310   0.943   1.496   0.582  0.1720  0.4653 -0.4430
  423MPD2    C4 6311   1.021   1.608   0.562  0.0511 -0.6460 -0.0957
  423MPD2    C5 6312   1.073   1.687   0.657  0.2998  0.2102 -1.1501
  423MPD2     H 6313   0.879   1.367   0.741  1.3399 -0.7400  1.3774
  423MPD2    H1 6314   1.056   1.633   0.462 -1.1462 -1.0058 -0.6076
  423MPD2    H2 6315   1.072   1.734   0.855  0.6332  1.5071 -2.5234
  423MPD2    H3 6316   1.140   1.768   0.632  2.7723 -1.4839  0.0707
  423MPD2     N 6317   0.918   1.410   0.471 -0.4796  0.5107  0.3494
  423MPD2    H5 6318   0.962   1.430   0.381 -1.8612  2.3745  0.1073
  423MPD2    N1 6319   0.945   1.503   0.952 -0.8846 -0.3807 -0.1235
  423MPD2    H7 6320   0.885   1.423   0.972  0.1092 -0.8575  0.9406
  424TMC3    C1 6321   0.944   1.510   1.178  0.2838 -0.3043  0.2869
  424TMC3    C2 6322   1.035   1.440   1.247  0.5676 -0.3888 -0.2174
  424TMC3    C3 6323   0.985   1.337   1.322  0.1210 -0.4612  0.0155
  424TMC3    C4 6324   0.808   1.472   1.179 -0.8007 -0.0473  0.6451
  424TMC3    C5 6325   0.767   1.372   1.260  0.1668 -0.2851  0.3375
  424TMC3    C6 6326   0.854   1.304   1.339  0.0806 -0.1727 -0.1757
  424TMC3     C 6327   0.998   1.573   1.058 -0.5186  0.0384  0.7139
  424TMC3     O 6328   1.113   1.616   1.069  0.9132  0.4097  0.5636
  424TMC3     H 6329   1.139   1.455   1.222  0.6062 -2.0763 -1.0500
  424TMC3    H1 6330   0.739   1.520   1.111 -1.1929  0.3993  1.3477
  424TMC3    H2 6331   0.824   1.213   1.391  2.1663 -0.3755  0.6726
  424TMC3    C7 6332   0.636   1.306   1.242 -0.4560 -0.2995 -0.8650
  424TMC3    C8 6333   1.077   1.246   1.391  0.2892 -0.5320  0.2025
  424TMC3    O1 6334   0.623   1.188   1.268  0.1181 -0.0128 -0.3399
  424TMC3    O2 6335   1.047   1.128   1.411  0.5744 -0.6544  0.1622
  425MPD2     C 6336   4.332   0.700  17.571 -0.9872 -0.0807  0.3573
  425MPD2    C1 6337   4.261   0.595  17.527 -0.5703 -0.1508 -0.1453
  425MPD2    C2 6338   4.135   0.608  17.485  0.0845  0.3278  0.2110
  425MPD2    C3 6339   4.074   0.733  17.490 -0.2667  0.4624 -0.7581
  425MPD2    C4 6340   4.143   0.840  17.547  0.0321  0.0311 -0.1664
  425MPD2    C5 6341   4.273   0.825  17.585  0.1290  0.2621 -0.0700
  425MPD2     H 6342   4.084   0.520  17.446 -1.8195  0.5326  2.2583
  425MPD2    H1 6343   4.101   0.935  17.576 -0.7383 -1.2368  2.8446
  425MPD2    H2 6344   4.436   0.690  17.600 -0.2947 -0.2217 -2.1495
  425MPD2    H3 6345   4.321   0.904  17.640  0.0586 -2.4973  3.9496
  425MPD2     N 6346   3.951   0.745  17.427 -0.5650  0.5384 -0.6757
  425MPD2    H5 6347   3.893   0.665  17.404  1.7202 -0.9205 -1.2617
  425MPD2    N1 6348   4.320   0.471  17.505 -0.0402  0.2559 -0.0292
  425MPD2    H7 6349   4.263   0.398  17.463  1.1582 -0.9097  0.3813
  426TMC3    C1 6350   4.462   0.301  17.510 -0.3004  0.3712  0.3449
  426TMC3    C2 6351   4.470   0.271  17.378 -0.7873 -0.0629 -0.5049
  426TMC3    C3 6352   4.526   0.153  17.340 -0.2072  0.3325 -0.1095
  426TMC3    C4 6353   4.516   0.208  17.601 -0.0397  0.0255  0.3791
  426TMC3    C5 6354   4.560   0.085  17.552  0.5026 -0.2292 -0.5326
  426TMC3    C6 6355   4.583   0.064  17.422 -0.4825  0.3463  0.1372
  426TMC3     C 6356   4.446   0.436  17.557  0.3873  0.6376  0.3838
  426TMC3     O 6357   4.516   0.484  17.648 -0.0989  0.2838 -0.1648
  426TMC3     H 6358   4.444   0.344  17.303 -1.4940 -1.9782 -2.1095
  426TMC3    H1 6359   4.489   0.228   0.009 -1.9896  1.2330 -0.3642
  426TMC3    H2 6360   4.612   4.690  17.385 -0.7091  0.3922 -0.1629
  426TMC3    C7 6361   4.522   4.686  17.615  0.5282 -0.8891  0.2119
  426TMC3    C8 6362   4.481   0.109  17.214 -0.4591  0.0736 -0.1040
  426TMC3    O1 6363   4.558   4.580  17.558 -0.5442  0.4759 -0.0389
  426TMC3    O2 6364   4.548   0.023  17.159 -0.1596 -0.0373 -0.0502
  427MPD2     C 6365   2.859   2.824  14.886 -0.3714  0.0825  0.3012
  427MPD2    C1 6366   2.796   2.835  15.008  0.1346  0.3772 -0.2447
  427MPD2    C2 6367   2.665   2.888  15.024 -0.5679  0.7129 -0.0346
  427MPD2    C3 6368   2.592   2.909  14.911  0.6062  0.6526 -1.0020
  427MPD2    C4 6369   2.663   2.926  14.790 -0.3351  0.1166 -0.0018
  427MPD2    C5 6370   2.791   2.878  14.778  0.4858  0.6593 -0.0229
  427MPD2     H 6371   2.608   2.897  15.116  2.0314  2.3016  1.4368
  427MPD2    H1 6372   2.624   2.963  14.697 -0.1947  0.3637  0.0369
  427MPD2    H2 6373   2.955   2.780  14.860  1.3648  3.4867  0.9413
  427MPD2    H3 6374   2.832   2.883  14.678  1.5233 -1.2627  0.3042
  427MPD2     N 6375   2.451   2.926  14.907 -0.2622 -0.4759 -0.0288
  427MPD2    H5 6376   2.405   2.946  14.819 -0.4217  5.4132  1.4028
  427MPD2    N1 6377   2.866   2.791  15.123  0.0516  0.0882 -0.1788
  427MPD2    H7 6378   2.812   2.779  15.208  0.7431 -2.2434 -0.0716
  428TMC3    C1 6379   3.041   2.699  15.257 -0.2631 -0.5690 -0.2507
  428TMC3    C2 6380   2.957   2.635  15.339 -0.3826  1.6439  0.3360
  428TMC3    C3 6381   3.009   2.571  15.447 -0.1114 -0.5826 -0.5832
  428TMC3    C4 6382   3.175   2.704  15.287  0.1957  0.7256  0.6277
  428TMC3    C5 6383   3.221   2.628  15.390  0.6318  0.8458 -0.2310
  428TMC3    C6 6384   3.138   2.558  15.475 -0.0828 -0.5218 -0.3294
  428TMC3     C 6385   3.002   2.773  15.135 -0.6858 -0.2994 -0.5876
  428TMC3     O 6386   3.092   2.795  15.055  0.2682 -0.1662  0.1485
  428TMC3     H 6387   2.853   2.622  15.311 -0.2732 -2.4717  1.7933
  428TMC3    H1 6388   3.240   2.759  15.220 -2.5690  2.5956 -0.5327
  428TMC3    H2 6389   3.169   2.511  15.568  1.4161  0.9093 -0.0932
  428TMC3    C7 6390   3.363   2.609  15.419  0.3523  0.3430 -0.1869
  428TMC3    C8 6391   2.898   2.499  15.511 -0.3800 -0.2187 -1.1064
  428TMC3    O1 6392   3.391   2.582  15.534 -0.0247 -0.4863  0.1543
  428TMC3    O2 6393   2.808   2.576  15.550  0.4910 -0.2998 -0.1871
  429MPD2     C 6394   3.889   3.089  17.599  0.5765 -0.5056 -0.3677
  429MPD2    C1 6395   4.017   3.061  17.552 -0.1823  0.0379  0.0634
  429MPD2    C2 6396   4.094   3.165  17.504  0.6944  0.6463  0.5514
  429MPD2    C3 6397   4.046   3.291  17.500 -0.4584  0.0530  0.3970
  429MPD2    C4 6398   3.917   3.319  17.544 -0.7623  0.2569  0.1703
  429MPD2    C5 6399   3.842   3.219  17.591  0.5497 -0.2422 -0.5052
  429MPD2     H 6400   4.198   3.146  17.479  0.9036 -0.0272  1.8729
  429MPD2    H1 6401   3.880   3.421  17.540  0.2967  0.6440  0.2642
  429MPD2    H2 6402   3.820   3.009  17.622  1.4118 -1.3275 -0.7046
  429MPD2    H3 6403   3.748   3.247  17.638  1.1620 -1.4087  1.4208
  429MPD2     N 6404   4.136   3.395  17.455  0.3045  0.8320  0.4091
  429MPD2    H5 6405   4.228   3.364  17.426 -1.0793 -0.4665 -2.7053
  429MPD2    N1 6406   4.061   2.928  17.551  0.3063  0.0106 -0.2694
  429MPD2    H7 6407   4.128   2.906  17.478 -0.9208 -0.9149 -1.1107
  430TMC3    C1 6408   4.213   3.601  17.380  0.5195  0.1048 -0.4064
  430TMC3    C2 6409   4.170   3.711  17.311  1.1543  0.7576 -0.2391
  430TMC3    C3 6410   4.254   3.785  17.239 -0.8106  0.0048 -0.3318
  430TMC3    C4 6411   4.343   3.556  17.369 -0.0239  0.0967  0.4363
  430TMC3    C5 6412   4.426   3.634  17.296 -0.6960 -0.3919 -0.3564
  430TMC3    C6 6413   4.382   3.747  17.228 -0.5005 -0.1201 -0.5678
  430TMC3     C 6414   4.105   3.527  17.449 -0.0435  0.4705  0.1612
  430TMC3     O 6415   4.000   3.586  17.466 -0.5119  0.2599  0.3992
  430TMC3     H 6416   4.066   3.739  17.316  0.6132 -1.4178  0.6771
  430TMC3    H1 6417   4.379   3.468  17.421  0.0540 -0.2436 -0.1834
  430TMC3    H2 6418   4.437   3.787  17.143 -1.6340  1.4349 -0.5691
  430TMC3    C7 6419   4.540   3.572  17.235 -0.4579  0.2299 -0.4362
  430TMC3    C8 6420   4.191   3.808  17.112 -0.3890 -0.1168 -0.5406
  430TMC3    O1 6421   4.531   3.450  17.243 -0.3765  0.3600 -0.0444
  430TMC3    O2 6422   4.250   3.768  17.011 -0.0361 -0.0357 -0.4181
  431MPD2     C 6423   0.136   3.047  12.744 -0.1760 -0.5756 -0.2924
  431MPD2    C1 6424   0.246   2.980  12.688  0.2357  0.3451  0.4413
  431MPD2    C2 6425   0.233   2.860  12.625 -0.5542 -0.6642  0.1968
  431MPD2    C3 6426   0.113   2.793  12.632 -0.6941  0.0414 -1.0159
  431MPD2    C4 6427   0.012   2.841  12.712 -0.5744 -0.4007  0.1390
  431MPD2    C5 6428   0.013   2.974  12.746  0.8573  0.4857 -0.4243
  431MPD2     H 6429   0.313   2.815  12.568  0.9013  1.6354  0.4548
  431MPD2    H1 6430   4.640   2.789  12.718 -0.2909 -0.6981  2.0516
  431MPD2    H2 6431   0.140   3.148  12.783  0.0536 -0.6771 -0.0583
  431MPD2    H3 6432   4.643   3.014  12.783 -0.0816 -2.0978 -0.0502
  431MPD2     N 6433   0.095   2.661  12.579  0.4215 -0.2757 -0.3116
  431MPD2    H5 6434   0.012   2.613  12.611  0.3195  0.2836  0.2475
  431MPD2    N1 6435   0.383   3.017  12.703 -0.1880 -0.2506  0.2764
  431MPD2    H7 6436   0.452   2.956  12.661  1.0733  0.9049  0.6390
  432TMC3    C1 6437   0.164   2.455  12.487  0.1669  0.3171 -0.1022
  432TMC3    C2 6438   0.185   2.398  12.361 -0.3532 -0.4253 -0.1445
  432TMC3    C3 6439   0.185   2.259  12.361 -0.0381 -0.9093  0.7399
  432TMC3    C4 6440   0.161   2.385  12.607  0.4909  0.0202 -0.2218
  432TMC3    C5 6441   0.157   2.251  12.600 -0.2508 -0.3625  0.1800
  432TMC3    C6 6442   0.163   2.186  12.476 -0.4393 -0.0915  0.0360
  432TMC3     C 6443   0.185   2.598  12.494  0.6138  0.0584 -0.1884
  432TMC3     O 6444   0.262   2.644  12.409  0.5031 -0.1473 -0.1378
  432TMC3     H 6445   0.188   2.450  12.267  0.3338 -2.1483 -1.0783
  432TMC3    H1 6446   0.145   2.437  12.701 -0.4705 -0.4499 -0.1340
  432TMC3    H2 6447   0.168   2.078  12.482  3.4521  0.0953 -0.0460
  432TMC3    C7 6448   0.201   2.176  12.720 -0.2389 -0.4130  0.5333
  432TMC3    C8 6449   0.241   2.195  12.240  0.8206 -1.1094 -0.1496
  432TMC3    O1 6450   0.216   2.057  12.695 -0.1922  0.5996 -0.2367
  432TMC3    O2 6451   0.229   2.077  12.224  0.2782 -0.8040 -0.0006
  433MPD2     C 6452   4.286   1.542  11.013 -0.2257 -0.2714 -0.1255
  433MPD2    C1 6453   4.314   1.414  11.047 -0.1625 -0.2432 -0.4661
  433MPD2    C2 6454   4.289   1.373  11.176 -0.7647 -0.0364 -0.2336
  433MPD2    C3 6455   4.263   1.462  11.273  0.1949 -0.6586  0.4106
  433MPD2    C4 6456   4.257   1.598  11.244  0.6659 -0.0920  0.2789
  433MPD2    C5 6457   4.262   1.634  11.113  0.4611  0.2424  0.0942
  433MPD2     H 6458   4.270   1.268  11.197  1.1617 -0.4963 -0.8325
  433MPD2    H1 6459   4.234   1.686  11.303 -0.0276 -0.3068  0.3320
  433MPD2    H2 6460   4.303   1.582  10.913 -0.4457 -0.5109 -0.2573
  433MPD2    H3 6461   4.240   1.739  11.096  1.3369  0.2580 -0.8996
  433MPD2     N 6462   4.236   1.412  11.401 -0.8062  0.2373 -0.1814
  433MPD2    H5 6463   4.241   1.313  11.419 -0.8176  0.2063 -0.3460
  433MPD2    N1 6464   4.356   1.318  10.951 -0.2493  0.0755 -0.9350
  433MPD2    H7 6465   4.361   1.345  10.853 -3.4254  2.3363 -0.4983
  434TMC3    C1 6466   4.431   1.102  10.873  0.4348  0.5078 -0.4979
  434TMC3    C2 6467   4.471   0.973  10.902  0.2014 -0.7167  0.5485
  434TMC3    C3 6468   4.477   0.886  10.801 -0.1707  0.6608 -0.2998
  434TMC3    C4 6469   4.444   1.152  10.746 -0.0904  0.3459  0.2813
  434TMC3    C5 6470   4.477   1.062  10.645 -0.4636  0.1490 -0.2963
  434TMC3    C6 6471   4.489   0.928  10.669 -0.1247 -0.2756 -0.3726
  434TMC3     C 6472   4.390   1.188  10.980 -0.7314 -0.6407  0.4848
  434TMC3     O 6473   4.399   1.131  11.091 -0.7176  0.0744  0.0526
  434TMC3     H 6474   4.450   0.935  11.002  1.2921 -3.0016 -0.1040
  434TMC3    H1 6475   4.405   1.251  10.726 -0.5553 -0.4068 -2.4325
  434TMC3    H2 6476   4.517   0.856  10.592  2.7143 -1.1713  1.4986
  434TMC3    C7 6477   4.445   1.104  10.507 -0.3708  0.2174  0.6671
  434TMC3    C8 6478   4.487   0.747  10.842 -0.5674 -0.4876 -0.0015
  434TMC3    O1 6479   4.493   1.207  10.467  1.1282 -0.1146  0.0660
  434TMC3    O2 6480   4.548   0.716  10.945 -0.0223 -0.5594  0.1888
  435MPD2     C 6481   0.976   0.836  15.782  1.0434 -0.3262  0.6049
  435MPD2    C1 6482   0.956   0.940  15.864 -0.9528 -0.5833  0.8019
  435MPD2    C2 6483   1.064   0.998  15.929 -0.1225  0.6522 -0.6051
  435MPD2    C3 6484   1.190   0.952  15.900  0.4904  0.8840  0.1054
  435MPD2    C4 6485   1.203   0.845  15.814 -0.3117  0.0700  0.0823
  435MPD2    C5 6486   1.100   0.788  15.752  0.8634  0.5707  0.1475
  435MPD2     H 6487   1.046   1.082  15.994 -0.4164 -1.2067  1.7250
  435MPD2    H1 6488   1.296   0.798  15.783 -0.9884 -0.3346 -1.3356
  435MPD2    H2 6489   0.890   0.788  15.736  0.5724 -1.7350  2.9588
  435MPD2    H3 6490   1.110   0.708  15.680  0.7901  1.0852 -0.4343
  435MPD2     N 6491   1.302   1.004  15.982 -0.2283  0.0982 -0.7301
  435MPD2    H5 6492   1.274   1.055  16.065  1.3184  1.6090 -1.1409
  435MPD2    N1 6493   0.827   0.990  15.879 -0.6100  0.1004 -0.6029
  435MPD2    H7 6494   0.761   0.950  15.813 -0.6231 -0.1533 -0.4367
  436TMC3    C1 6495   0.462   1.203  16.102  0.0974 -0.0408 -0.2541
  436TMC3    C2 6496   0.589   1.146  16.097 -0.1794  0.2813 -0.6320
  436TMC3    C3 6497   0.640   1.093  15.982 -0.4489  0.2158  0.8490
  436TMC3    C4 6498   0.394   1.226  15.985 -0.9417  0.0292  0.4335
  436TMC3    C5 6499   0.449   1.179  15.873  0.2784  0.0125 -0.2328
  436TMC3    C6 6500   0.569   1.112  15.860  0.5092 -0.6288 -0.5302
  436TMC3     C 6501   0.419   1.227  16.234 -0.1007  0.2666 -0.5708
  436TMC3     O 6502   0.457   1.152  16.324 -0.3727 -0.5899 -0.2001
  436TMC3     H 6503   0.650   1.134  16.187 -1.8261 -0.8732  0.3197
  436TMC3    H1 6504   0.299   1.278  15.981 -1.8321 -1.6183  0.1629
  436TMC3    H2 6505   0.619   1.089  15.766  0.9436  1.9523 -0.9527
  436TMC3    C7 6506   0.357   1.185  15.765 -0.1411 -0.0677 -0.2802
  436TMC3    C8 6507   0.781   1.067  15.983 -0.1694  0.4116  0.6412
  436TMC3    O1 6508   0.244   1.227  15.784 -0.3614 -0.3225 -0.4016
  436TMC3    O2 6509   0.845   1.123  16.072 -0.0525 -0.7726 -0.1161
  437TMC3    C1 6510   0.148   3.566  12.909 -0.1887 -0.3513 -0.8727
  437TMC3    C2 6511   0.051   3.651  12.858 -0.4361 -0.2639 -0.8950
  437TMC3    C3 6512   0.059   3.675  12.725  0.6617  0.1882  0.2340
  437TMC3    C4 6513   0.258   3.533  12.838  0.7001  0.1897 -0.5546
  437TMC3    C5 6514   0.252   3.562  12.701  0.3919 -0.3339  0.0070
  437TMC3    C6 6515   0.163   3.643  12.647  0.2139 -0.5248 -0.6436
  437TMC3     C 6516   0.136   3.521  13.051  0.2982 -1.0342 -0.5127
  437TMC3     O 6517   0.222   3.444  13.090 -0.2442 -0.5058  0.0547
  437TMC3     H 6518   4.678   3.665  12.905 -1.0850  0.4713 -2.4327
  437TMC3    H1 6519   0.330   3.459  12.873  0.2234 -1.1392 -2.4025
  437TMC3    H2 6520   0.174   3.691  12.551  0.5845  1.0531  0.1999
  437TMC3    C7 6521   0.341   3.503  12.606  0.2511 -0.0590  0.1626
  437TMC3    C8 6522   4.689   3.773  12.678  0.7171  0.0047 -0.7882
  437TMC3    O1 6523   0.314   3.520  12.489  0.4179  0.4746  0.2904
  437TMC3    O2 6524   4.618   3.832  12.760  0.5087  0.2829 -0.5412
  438MPD2     C 6525   1.899   4.109  16.993  0.0007 -0.4336 -0.2350
  438MPD2    C1 6526   2.004   4.039  17.047  0.4534 -0.3214 -0.2817
  438MPD2    C2 6527   2.018   4.036  17.187 -0.0431  0.0999 -0.5705
  438MPD2    C3 6528   1.945   4.111  17.270 -0.4816  0.2169 -0.7645
  438MPD2    C4 6529   1.855   4.196  17.211 -0.1878  0.5174  0.3585
  438MPD2    C5 6530   1.829   4.188  17.081 -1.1599 -0.4424 -0.3797
  438MPD2     H 6531   2.104   3.988  17.233 -1.3656 -0.8048  0.9528
  438MPD2    H1 6532   1.805   4.269  17.274 -1.6612  0.9395 -1.3290
  438MPD2    H2 6533   1.877   4.107  16.887 -0.4545 -3.5366 -0.1016
  438MPD2    H3 6534   1.756   4.266  17.058 -1.4033  1.0903  5.6855
  438MPD2     N 6535   1.975   4.111  17.403 -0.1444  0.2556 -0.0986
  438MPD2    H5 6536   2.052   4.053  17.435 -1.0710 -0.6307  0.5317
  438MPD2    N1 6537   2.091   3.953  16.982 -0.1884 -0.2773  0.4456
  438MPD2    H7 6538   2.151   3.893  17.039 -0.8824 -0.0254  1.4471
  439TMC3    C1 6539   2.233   3.874  16.800 -0.4375 -0.2735  0.7210
  439TMC3    C2 6540   2.211   3.803  16.689  0.2756  1.0895  0.4600
  439TMC3    C3 6541   2.264   3.686  16.657 -1.0005 -0.4996  0.2162
  439TMC3    C4 6542   2.300   3.808  16.900 -0.3606 -0.2384  0.3730
  439TMC3    C5 6543   2.334   3.674  16.879 -0.1255  1.1310  0.1322
  439TMC3    C6 6544   2.324   3.616  16.754  0.2184  0.3105  0.3061
  439TMC3     C 6545   2.113   3.956  16.848  0.5495  0.2546  0.1714
  439TMC3     O 6546   2.040   3.994  16.756 -0.0096  0.4599 -0.0750
  439TMC3     H 6547   2.152   3.851  16.612 -1.4541  1.1669  1.8547
  439TMC3    H1 6548   2.314   3.852  16.998  0.0545  0.7258 -0.1224
  439TMC3    H2 6549   2.372   3.523  16.726 -0.1393  0.6066 -1.2997
  439TMC3    C7 6550   2.415   3.614  16.984  0.2216 -0.3303  0.5375
  439TMC3    C8 6551   2.347   3.690  16.539 -0.3415 -0.4759 -0.3734
  439TMC3    O1 6552   2.445   3.681  17.083  0.3149  0.5454  0.1182
  439TMC3    O2 6553   2.463   3.650  16.550 -0.0289 -0.2303  0.3071
  440MPD2     C 6554   0.939   0.117  14.859  0.5770 -0.8331 -0.2543
  440MPD2    C1 6555   1.001   0.098  14.982  0.5597 -0.5384 -0.0704
  440MPD2    C2 6556   1.146   0.089  14.988 -0.3913  0.1502  0.6601
  440MPD2    C3 6557   1.216   0.072  14.867 -0.8883 -0.6465  0.3121
  440MPD2    C4 6558   1.155   0.096  14.749 -0.7209  0.5503  0.6582
  440MPD2    C5 6559   1.017   0.116  14.745 -0.2136 -0.6207  0.2776
  440MPD2     H 6560   1.209   0.065  15.073  1.5435  0.2126 -0.7483
  440MPD2    H1 6561   1.214   0.090  14.658 -0.5168  0.2974  0.8061
  440MPD2    H2 6562   0.832   0.116  14.841  0.6439 -1.0952 -0.6443
  440MPD2    H3 6563   0.968   0.153  14.656  3.0205 -0.3847 -1.4021
  440MPD2     N 6564   1.358   0.046  14.855  0.8594  0.3735  0.4268
  440MPD2    H5 6565   1.397   0.003  14.771 -0.7031 -2.3833  1.0726
  440MPD2    N1 6566   0.931   0.105  15.108  0.0275  0.3280  0.4566
  440MPD2    H7 6567   0.995   0.097  15.186  0.5561  0.0797 -0.0071
  441TMC3    C1 6568   1.550   4.670  14.963 -0.3408  0.8537  0.9270
  441TMC3    C2 6569   1.639   4.682  15.067  0.2932  0.3082 -0.7706
  441TMC3    C3 6570   1.658   4.581  15.150  0.0008  0.0276 -0.8225
  441TMC3    C4 6571   1.505   4.551  14.924  0.0687  0.6692  0.0567
  441TMC3    C5 6572   1.530   4.440  15.008  0.4964  0.5296 -0.3801
  441TMC3    C6 6573   1.611   4.455  15.118 -0.3057 -0.3702 -0.4129
  441TMC3     C 6574   1.440   0.043  14.969  0.4375  0.4079  0.1387
  441TMC3     O 6575   1.424   0.095  15.080 -0.3983 -0.2965 -0.0670
  441TMC3     H 6576   1.659   0.060  15.100  1.6636  0.1572 -1.0959
  441TMC3    H1 6577   1.449   4.525  14.835  0.1166  0.5084  0.0742
  441TMC3    H2 6578   1.628   4.371  15.184 -1.2951  0.3042  0.7020
  441TMC3    C7 6579   1.407   4.364  15.033 -0.3478  0.2507  1.1904
  441TMC3    C8 6580   1.639   4.614  15.293  0.6576 -0.0261  0.8947
  441TMC3    O1 6581   1.414   4.283  15.124  0.2775  0.0831  0.4628
  441TMC3    O2 6582   1.698   4.545  15.375 -0.9946  0.3364  0.8167
  442MPD2     C 6583   3.658   0.564  16.902  0.7495  1.0642  0.6523
  442MPD2    C1 6584   3.535   0.533  16.846  0.4095  0.2498 -0.2920
  442MPD2    C2 6585   3.522   0.411  16.775  0.5085  0.0078 -0.2197
  442MPD2    C3 6586   3.626   0.327  16.747 -0.4798 -0.0404 -0.1211
  442MPD2    C4 6587   3.747   0.356  16.807 -0.3871  0.4453 -0.9593
  442MPD2    C5 6588   3.760   0.473  16.883  0.0147 -0.0735 -0.2833
  442MPD2     H 6589   3.428   0.388  16.726 -0.5408 -0.6559  2.0713
  442MPD2    H1 6590   3.833   0.292  16.788  0.6038  2.2163 -2.3975
  442MPD2    H2 6591   3.683   0.647  16.968  3.9459  0.8470 -0.2880
  442MPD2    H3 6592   3.854   0.502  16.929  1.8625 -1.4834 -3.1903
  442MPD2     N 6593   3.616   0.210  16.671  0.7409 -0.5331 -0.4486
  442MPD2    H5 6594   3.702   0.161  16.646  1.0158 -0.6635  0.7636
  442MPD2    N1 6595   3.423   0.618  16.855 -0.4888  0.6147  0.1239
  442MPD2    H7 6596   3.337   0.592  16.809 -0.5637  1.0535  0.0164
  443TMC3    C1 6597   3.281   0.790  16.916  0.7967  0.0228 -0.2029
  443TMC3    C2 6598   3.202   0.762  16.809  0.1261 -0.5891  0.2566
  443TMC3    C3 6599   3.068   0.766  16.824  0.3985 -0.0246  0.8195
  443TMC3    C4 6600   3.225   0.823  17.033 -0.1577 -0.6423 -0.5314
  443TMC3    C5 6601   3.089   0.839  17.048  0.9849 -0.1618 -0.2097
  443TMC3    C6 6602   3.009   0.809  16.937  0.1290 -0.4532 -0.0562
  443TMC3     C 6603   3.420   0.732  16.929  0.2250  0.5115  0.2734
  443TMC3     O 6604   3.490   0.773  17.020 -0.7960  1.3158  0.4218
  443TMC3     H 6605   3.244   0.718  16.720  2.3529  2.2068 -0.0498
  443TMC3    H1 6606   3.297   0.835  17.113 -1.0747 -0.2624  0.2297
  443TMC3    H2 6607   2.901   0.818  16.935  0.0974 -1.1084 -2.1669
  443TMC3    C7 6608   3.040   0.764  17.166 -0.6432 -0.6676  0.2685
  443TMC3    C8 6609   3.003   0.659  16.757 -0.1392 -0.3189  0.5816
  443TMC3    O1 6610   3.119   0.701  17.237  0.3250 -0.1226  0.4201
  443TMC3    O2 6611   3.035   0.641  16.641 -0.3578 -0.1149 -0.0570
  444MPD2     C 6612   4.078   4.550  17.329  0.5512 -0.5387 -0.0932
  444MPD2    C1 6613   3.990   4.473  17.259 -0.1007 -0.7848 -0.9331
  444MPD2    C2 6614   4.031   4.412  17.142 -0.1618 -0.9354 -0.1620
  444MPD2    C3 6615   4.164   4.406  17.114  0.1636 -0.6054 -0.4634
  444MPD2    C4 6616   4.260   4.469  17.192  0.2334 -0.5712 -0.5657
  444MPD2    C5 6617   4.215   4.548  17.294  0.0664  0.0220  0.6091
  444MPD2     H 6618   3.958   4.362  17.079  1.4961  0.1053 -2.8949
  444MPD2    H1 6619   4.367   4.462  17.177  0.7722  2.7786  1.7539
  444MPD2    H2 6620   4.045   4.612  17.411  0.9615  1.4317 -1.4208
  444MPD2    H3 6621   4.290   4.592  17.359 -0.1889  1.1263  0.1534
  444MPD2     N 6622   4.199   4.311  17.011 -0.0237 -0.8384  0.4743
  444MPD2    H5 6623   4.122   4.275  16.955 -1.6310  0.0337  2.1392
  444MPD2    N1 6624   3.861   4.452  17.303 -0.7686  0.2497  0.5714
  444MPD2    H7 6625   3.808   4.393  17.239 -1.3955  0.9820  0.4137
  445TMC3    C1 6626   4.317   4.131  16.911  0.1499 -0.2536  0.1454
  445TMC3    C2 6627   4.210   4.094  16.840  0.0420 -0.4792  0.3253
  445TMC3    C3 6628   4.232   3.990  16.752  0.2062 -0.8952 -0.3124
  445TMC3    C4 6629   4.441   4.062  16.894 -0.4609 -0.2618 -0.2937
  445TMC3    C5 6630   4.449   3.953  16.815  0.3009 -0.3220  0.0327
  445TMC3    C6 6631   4.341   3.912  16.744 -0.6472 -0.2681 -0.2741
  445TMC3     C 6632   4.320   4.250  16.998 -0.2523  0.1820  0.2414
  445TMC3     O 6633   4.423   4.273  17.059 -0.2355  0.5203 -0.3716
  445TMC3     H 6634   4.113   4.142  16.829  0.5645  0.8299  1.4956
  445TMC3    H1 6635   4.529   4.105  16.941 -0.4120 -0.2339 -0.4124
  445TMC3    H2 6636   4.368   3.850  16.660  0.6569  0.0977 -0.1307
  445TMC3    C7 6637   4.585   3.911  16.777  0.3525  0.2776  1.4750
  445TMC3    C8 6638   4.126   3.957  16.655  0.5629 -0.4378 -0.0908
  445TMC3    O1 6639   4.676   3.997  16.786 -0.4452 -0.2631  0.1057
  445TMC3    O2 6640   4.046   4.045  16.624 -0.3810 -0.2642 -0.0183
  446MPD2     C 6641   4.184   0.763  11.405 -0.0867 -0.1643  0.4253
  446MPD2    C1 6642   4.198   0.768  11.265 -0.4563  0.4444  0.2913
  446MPD2    C2 6643   4.313   0.797  11.199 -0.1992  0.2501 -0.0919
  446MPD2    C3 6644   4.430   0.819  11.274  0.2114 -0.0583 -0.2035
  446MPD2    C4 6645   4.415   0.816  11.414  0.1383 -0.3778  0.2714
  446MPD2    C5 6646   4.294   0.808  11.476  0.0430 -0.1761 -0.4680
  446MPD2     H 6647   4.315   0.788  11.091  1.3787  0.6588 -0.1061
  446MPD2    H1 6648   4.497   0.840  11.482  0.0828 -1.4356  0.7053
  446MPD2    H2 6649   4.091   0.745  11.457 -0.5051 -1.8462 -0.8759
  446MPD2    H3 6650   4.285   0.810  11.584  0.7691  0.0198 -0.4066
  446MPD2     N 6651   4.555   0.831  11.216  1.1401 -0.0634 -0.1186
  446MPD2    H5 6652   4.557   0.822  11.115  0.6536  0.2505 -0.1574
  446MPD2    N1 6653   4.092   0.733  11.171 -0.5111 -0.1297  0.5305
  446MPD2    H7 6654   4.116   0.743  11.073 -0.2079  2.1163  0.8335
  447TMC3    C1 6655   0.064   0.857  11.210  0.0606  0.1845  0.0032
  447TMC3    C2 6656   0.039   0.961  11.121 -1.0377  0.2817  0.3953
  447TMC3    C3 6657   0.151   0.994  11.046  0.0332  0.0474 -0.3838
  447TMC3    C4 6658   0.188   0.814  11.246 -0.1644 -0.6082 -0.3209
  447TMC3    C5 6659   0.291   0.876  11.181  0.3472  0.3028 -0.1446
  447TMC3    C6 6660   0.277   0.959  11.072  0.9011 -0.2109 -0.7264
  447TMC3     C 6661   4.672   0.821  11.289 -0.1489 -0.1341 -0.2226
  447TMC3     O 6662   4.686   0.762  11.391 -0.1054  0.0481 -0.0254
  447TMC3     H 6663   4.663   1.004  11.112 -0.5485  0.9625 -1.5995
  447TMC3    H1 6664   0.201   0.747  11.330  1.3353 -0.8523 -0.7536
  447TMC3    H2 6665   0.362   1.006  11.025  0.8099  0.2405 -0.4326
  447TMC3    C7 6666   0.427   0.821  11.187 -0.0697  0.4491  0.9799
  447TMC3    C8 6667   0.122   1.097  10.949  0.1417 -0.3405  0.7950
  447TMC3    O1 6668   0.501   0.846  11.094  0.0020  0.0102 -0.6839
  447TMC3    O2 6669   0.031   1.173  10.973  0.1967  0.5519  0.0433
  448TMC3    C1 6670   2.691   0.650  17.591 -0.3673 -0.7768 -0.5754
  448TMC3    C2 6671   2.575   0.575  17.565 -0.6639 -0.0714  0.1683
  448TMC3    C3 6672   2.588   0.440  17.582 -0.2082 -1.0125 -0.6775
  448TMC3    C4 6673   2.808   0.598  17.636 -0.8350  0.5550 -0.4533
  448TMC3    C5 6674   2.807   0.462  17.649  0.2910 -0.0243  0.9413
  448TMC3    C6 6675   2.699   0.381  17.624 -0.1685 -0.5606  0.4179
  448TMC3     C 6676   2.684   0.786  17.551 -0.7093 -0.3266 -0.0395
  448TMC3     O 6677   2.573   0.832  17.533  0.0996  0.1016  0.1157
  448TMC3     H 6678   2.489   0.622  17.518  0.2318  1.1843 -0.2094
  448TMC3    H1 6679   2.899   0.654  17.650 -0.9534  0.9289 -1.1721
  448TMC3    H2 6680   2.711   0.273  17.625 -2.2012 -0.7843  1.0819
  448TMC3    C7 6681   2.902   0.409   0.051 -0.0256 -0.1787 -0.1602
  448TMC3    C8 6682   2.495   0.342  17.518 -0.1774 -0.8130  0.0722
  448TMC3    O1 6683   3.022   0.416   0.025 -0.0950 -0.3540  0.5557
  448TMC3    O2 6684   2.527   0.225  17.513  0.2676  0.3104 -0.2783
  449MPD2     C 6685   3.767   4.199  14.200 -0.7814  0.2363  0.0065
  449MPD2    C1 6686   3.713   4.096  14.119  0.1285 -0.8337  0.5304
  449MPD2    C2 6687   3.666   3.977  14.182  0.1704  0.6824  0.2906
  449MPD2    C3 6688   3.654   3.971  14.318  0.8826 -0.1329 -1.0205
  449MPD2    C4 6689   3.699   4.076  14.398  0.3101 -0.1209  0.2011
  449MPD2    C5 6690   3.761   4.185  14.335 -0.2082  0.0742  0.3011
  449MPD2     H 6691   3.622   3.903  14.115  1.4485 -0.3459  0.5857
  449MPD2    H1 6692   3.672   4.072  14.503  1.3779 -1.0468  0.4443
  449MPD2    H2 6693   3.817   4.285  14.157 -0.8589  0.9433  1.3520
  449MPD2    H3 6694   3.789   4.267  14.400  0.4062  1.2323 -1.4293
  449MPD2     N 6695   3.596   3.855  14.368  0.0840  0.3654 -0.8660
  449MPD2    H5 6696   3.564   3.790  14.298 -2.7707  1.3201 -0.4434
  449MPD2    N1 6697   3.707   4.101  13.985  0.3382  0.0971 -0.3154
  449MPD2    H7 6698   3.653   4.026  13.943  0.5294 -0.5632  0.6007
  450TMC3    C1 6699   3.745   4.152  13.765 -0.0245 -0.4011  0.2372
  450TMC3    C2 6700   3.849   4.129  13.672 -1.1898  0.7118 -0.4132
  450TMC3    C3 6701   3.834   4.033  13.581  0.4722  0.5166 -0.8185
  450TMC3    C4 6702   3.626   4.090  13.743 -0.4071  0.0408  0.1435
  450TMC3    C5 6703   3.616   3.975  13.659  0.6707 -0.8266 -1.0027
  450TMC3    C6 6704   3.727   3.948  13.582  0.5245 -0.2261 -0.5499
  450TMC3     C 6705   3.776   4.186  13.902 -0.2994 -0.2147  0.3370
  450TMC3     O 6706   3.875   4.260  13.923 -0.2856 -0.3454 -0.0695
  450TMC3     H 6707   3.939   4.189  13.674  0.7783 -2.1878 -1.5643
  450TMC3    H1 6708   3.539   4.107  13.806 -1.3012  1.1948 -1.3801
  450TMC3    H2 6709   3.734   3.859  13.519 -0.8847 -1.6212  1.2654
  450TMC3    C7 6710   3.567   3.864  13.734  0.7668  0.1137  0.7033
  450TMC3    C8 6711   3.917   4.029  13.461  0.0086 -0.4865  0.0481
  450TMC3    O1 6712   3.565   3.887  13.854  0.4498  0.1768 -0.2472
  450TMC3    O2 6713   3.858   4.005  13.359  0.1830  0.2871  0.0952
  451MPD2     C 6714   0.960   3.457   1.266 -0.5985  0.0648 -0.5266
  451MPD2    C1 6715   0.864   3.376   1.327 -0.9967  0.3878  0.1018
  451MPD2    C2 6716   0.899   3.249   1.367  0.5825 -0.3721  0.3057
  451MPD2    C3 6717   1.028   3.204   1.344  0.3350 -0.9006  0.3328
  451MPD2    C4 6718   1.122   3.285   1.280  0.3356 -0.0757 -0.7422
  451MPD2    C5 6719   1.089   3.409   1.244 -0.3796 -0.5568 -0.1270
  451MPD2     H 6720   0.824   3.187   1.415  1.3401 -1.1239  0.5240
  451MPD2    H1 6721   1.216   3.252   1.238  0.2810  1.2196 -1.8558
  451MPD2    H2 6722   0.931   3.557   1.236  3.0106  1.4157  0.5028
  451MPD2    H3 6723   1.161   3.459   1.180 -0.6662 -1.8118 -1.4590
  451MPD2     N 6724   1.063   3.066   1.375 -0.5947 -0.4475  0.3217
  451MPD2    H5 6725   1.139   3.021   1.324 -0.0463 -0.5926  1.2484
  451MPD2    N1 6726   0.737   3.433   1.354 -0.1604 -0.4741  0.0466
  451MPD2    H7 6727   0.722   3.530   1.330 -0.5735 -0.0535  2.0129
  452TMC3    C1 6728   1.057   2.850   1.469  0.6736  0.6243 -0.0475
  452TMC3    C2 6729   1.035   2.787   1.591 -0.3019  0.8229 -0.1169
  452TMC3    C3 6730   1.016   2.652   1.580 -0.0546 -0.0858 -0.0412
  452TMC3    C4 6731   1.077   2.793   1.348  0.2770  0.0930 -0.1053
  452TMC3    C5 6732   1.065   2.656   1.348  0.1957 -0.7134  1.0049
  452TMC3    C6 6733   1.037   2.582   1.460  0.5192  0.2700  0.0166
  452TMC3     C 6734   1.004   2.982   1.470  0.3187  0.3811  0.1898
  452TMC3     O 6735   0.910   3.010   1.542  0.1548  0.0346  0.0369
  452TMC3     H 6736   1.032   2.834   1.688 -0.6263 -1.9688  1.2335
  452TMC3    H1 6737   1.098   2.861   1.266  1.3764  0.7713  0.7342
  452TMC3    H2 6738   1.033   2.474   1.463 -0.8260  0.2912 -1.3110
  452TMC3    C7 6739   1.055   2.605   1.213  0.4723  0.1466 -0.0009
  452TMC3    C8 6740   0.967   2.578   1.693 -0.2510  0.1224 -0.3709
  452TMC3    O1 6741   1.110   2.666   1.119  0.2031  0.5088 -0.1373
  452TMC3    O2 6742   0.900   2.477   1.669 -0.3069  0.4531  0.0705
  453TMC3    C1 6743   1.613   0.231  11.947  0.5162  0.5088  0.1727
  453TMC3    C2 6744   1.536   0.118  11.941  0.2185 -0.5768  0.1353
  453TMC3    C3 6745   1.434   0.117  11.850 -0.0971 -0.1321  0.3512
  453TMC3    C4 6746   1.592   0.343  11.869  0.2998  0.1879 -0.2011
  453TMC3    C5 6747   1.495   0.332  11.770  0.4626 -0.1713  0.6686
  453TMC3    C6 6748   1.409   0.227  11.765  0.1254 -0.1033 -0.0106
  453TMC3     C 6749   1.729   0.236  12.041 -0.0621  0.5956  0.4070
  453TMC3     O 6750   1.763   0.347  12.079  0.0879  0.5861 -1.1292
  453TMC3     H 6751   1.560   0.041  12.012  1.0192 -0.6452 -0.2107
  453TMC3    H1 6752   1.660   0.427  11.871 -1.5971  1.7103  0.9503
  453TMC3    H2 6753   1.330   0.221  11.691  1.6338  0.7853 -1.6785
  453TMC3    C7 6754   1.461   0.464  11.716  1.1206  0.0674  0.6270
  453TMC3    C8 6755   1.345   0.001  11.845 -0.2866 -0.7046  0.6149
  453TMC3    O1 6756   1.544   0.554  11.703  0.6261 -0.1632 -0.3247
  453TMC3    O2 6757   1.242   0.017  11.792  0.0065 -0.4297 -0.4024
  454MPD2     C 6758   0.163   4.197  16.382  0.3121  0.2749 -0.0565
  454MPD2    C1 6759   0.065   4.289  16.360 -0.0518 -0.3318  0.4198
  454MPD2    C2 6760   0.021   4.368  16.467  0.4078  0.9202  0.8688
  454MPD2    C3 6761   0.064   4.348  16.594  0.0276  0.4689 -0.2037
  454MPD2    C4 6762   0.158   4.248  16.617 -0.0101 -0.4925 -0.2805
  454MPD2    C5 6763   0.202   4.171  16.518 -0.0998 -0.3163  0.3492
  454MPD2     H 6764   4.674   4.447  16.445 -0.3696  0.6329  2.2755
  454MPD2    H1 6765   0.199   4.242  16.717 -0.4889  0.6217 -0.0147
  454MPD2    H2 6766   0.198   4.137  16.299 -1.6156 -1.0323  0.0703
  454MPD2    H3 6767   0.278   4.097  16.541  2.8400  2.3803 -0.5701
  454MPD2     N 6768   0.024   4.431  16.708  0.1223  0.6777 -0.2271
  454MPD2    H5 6769   0.077   4.418  16.794 -1.4356 -0.8494  0.4843
  454MPD2    N1 6770   4.713   4.303  16.241 -0.1907  0.5979 -0.0354
  454MPD2    H7 6771   4.644   4.377  16.237  0.4951  1.2066 -0.7531
  455TMC3    C1 6772   4.533   4.516  16.643 -0.0802  0.0345 -0.3521
  455TMC3    C2 6773   4.459   4.627  16.624  0.4482  0.1936  0.1586
  455TMC3    C3 6774   4.338   4.609  16.562 -0.6322 -0.6510 -0.8414
  455TMC3    C4 6775   4.492   4.387  16.640 -0.0607 -0.2361  0.4711
  455TMC3    C5 6776   4.367   4.378  16.577  0.0320 -0.3109 -0.7785
  455TMC3    C6 6777   4.295   4.484  16.533  0.3880 -0.0154  0.3218
  455TMC3     C 6778   4.657   4.538  16.716  0.3746  0.3432 -0.6688
  455TMC3     O 6779   4.648   4.631  16.795 -0.7857 -0.0251 -0.5786
  455TMC3     H 6780   4.498   0.004  16.642 -2.2678  1.2651  0.1683
  455TMC3    H1 6781   4.544   4.305  16.688  0.8554 -0.9742 -1.7741
  455TMC3    H2 6782   4.196   4.465  16.493 -0.2190  2.5166  0.5806
  455TMC3    C7 6783   4.346   4.258  16.497  0.7676 -0.4451  0.0630
  455TMC3    C8 6784   4.241   4.695  16.631 -0.1755  0.2503  1.3429
  455TMC3    O1 6785   4.248   4.261  16.424  0.2143  0.4023  0.8033
  455TMC3    O2 6786   4.120   4.690  16.595  0.1540  0.6249  0.1969
  456MPD2     C 6787   2.313   4.159  16.535  0.0733  0.2441  0.4106
  456MPD2    C1 6788   2.397   4.103  16.628  0.3517  0.1803 -0.0367
  456MPD2    C2 6789   2.383   4.151  16.758 -0.4606  0.6055  0.0441
  456MPD2    C3 6790   2.295   4.247  16.796 -0.9726  0.2900 -0.4580
  456MPD2    C4 6791   2.201   4.291  16.703  0.4987 -0.4896  0.3030
  456MPD2    C5 6792   2.207   4.240  16.577 -0.2502 -0.9424  0.2047
  456MPD2     H 6793   2.447   4.121  16.842 -0.9109 -2.4534 -0.6925
  456MPD2    H1 6794   2.117   4.349  16.739 -0.1708 -2.2980  1.6187
  456MPD2    H2 6795   2.320   4.117  16.435  1.3384 -0.8179  0.9462
  456MPD2    H3 6796   2.146   4.278  16.496  0.0546 -1.6040 -0.3406
  456MPD2     N 6797   2.301   4.289  16.934  0.6006 -0.4044  0.4098
  456MPD2    H5 6798   2.367   4.249  17.000  2.4835 -0.5254 -1.5716
  456MPD2    N1 6799   2.491   4.014  16.596  0.4180  0.4051 -0.5845
  456MPD2    H7 6800   2.502   3.994  16.497 -2.3622 -1.5962 -0.4645
  457TMC3    C1 6801   2.205   4.389  17.119  0.2319  0.3080 -0.5772
  457TMC3    C2 6802   2.151   4.505  17.166 -0.2859  0.4561  0.2799
  457TMC3    C3 6803   2.147   4.521  17.301 -0.2612  0.5931 -0.0209
  457TMC3    C4 6804   2.266   4.289  17.194 -0.1005  0.2403 -0.0888
  457TMC3    C5 6805   2.269   4.320  17.327 -0.5466 -0.1573 -0.4962
  457TMC3    C6 6806   2.202   4.427  17.384 -0.1814 -0.1479  0.1795
  457TMC3     C 6807   2.214   4.388  16.975  0.2919 -1.1060  0.6432
  457TMC3     O 6808   2.159   4.479  16.912 -0.1307 -0.0953 -0.1723
  457TMC3     H 6809   2.109   4.576  17.096 -0.0484  0.8387  0.5284
  457TMC3    H1 6810   2.319   4.204  17.153  0.1218 -0.4613  1.6542
  457TMC3    H2 6811   2.215   4.450  17.489 -1.2577 -1.5989  0.6300
  457TMC3    C7 6812   2.390   4.295  17.401  0.0024  0.6078  0.2428
  457TMC3    C8 6813   2.192   4.655  17.341  0.2122  0.1761 -0.7034
  457TMC3    O1 6814   2.437   4.180  17.403  0.1517 -0.3465 -0.5361
  457TMC3    O2 6815   2.297   4.654  17.411  0.2851  0.0664 -0.3921
  458MPD2     C 6816   0.847   3.529  12.487  0.3664 -0.6568 -0.1572
  458MPD2    C1 6817   0.835   3.484  12.611 -0.6751 -0.5212 -0.4743
  458MPD2    C2 6818   0.706   3.461  12.667 -0.2244 -0.6937  0.0820
  458MPD2    C3 6819   0.589   3.479  12.591 -0.7961  0.1713  0.0295
  458MPD2    C4 6820   0.607   3.505  12.458 -0.4510  0.2702  0.3779
  458MPD2    C5 6821   0.732   3.526  12.408 -0.1791 -0.3032  0.0421
  458MPD2     H 6822   0.700   3.440  12.774 -2.8065  1.1201  0.3011
  458MPD2    H1 6823   0.524   3.536  12.396 -0.0875 -3.7328 -2.1685
  458MPD2    H2 6824   0.946   3.562  12.458 -0.1410 -0.2102 -1.3499
  458MPD2    H3 6825   0.741   3.554  12.304 -2.5465  2.9425  0.7093
  458MPD2     N 6826   0.464   3.481  12.662 -0.8211  0.2086 -0.3182
  458MPD2    H5 6827   0.475   3.474  12.762  1.3391  0.3781 -0.5496
  458MPD2    N1 6828   0.959   3.471  12.688 -0.1777 -0.0314  0.4094
  458MPD2    H7 6829   1.043   3.495  12.635  0.5455  0.0156  1.5731
  459TMC3    C1 6830   1.097   3.447  12.888 -0.0341  0.6910  0.4397
  459TMC3    C2 6831   1.197   3.514  12.831 -1.2546 -0.5341 -0.2067
  459TMC3    C3 6832   1.287   3.574  12.915 -0.0536  0.4789 -0.0348
  459TMC3    C4 6833   1.093   3.428  13.024  0.3484  0.1604 -0.0269
  459TMC3    C5 6834   1.186   3.483  13.107  0.0344  0.5849  0.0116
  459TMC3    C6 6835   1.292   3.547  13.045  0.6612  0.0821 -0.2240
  459TMC3     C 6836   0.964   3.446  12.822 -0.2569 -0.7817  0.5677
  459TMC3     O 6837   0.876   3.425  12.901 -0.4470 -0.6183  0.1053
  459TMC3     H 6838   1.200   3.546  12.727  1.1875  0.3743  0.1398
  459TMC3    H1 6839   1.023   3.354  13.062  1.8058 -1.5682 -0.7350
  459TMC3    H2 6840   1.369   3.596  13.104  1.6204 -0.5153 -0.9725
  459TMC3    C7 6841   1.145   3.542  13.235  0.2052 -0.0764  0.6588
  459TMC3    C8 6842   1.405   3.615  12.854  0.4063  0.1102 -0.5317
  459TMC3    O1 6843   1.224   3.621  13.285  0.3895 -0.3382  0.0410
  459TMC3    O2 6844   1.508   3.564  12.893 -0.1341  0.0671 -0.2050
  460MPD2     C 6845   0.328   1.194  10.652 -0.5112 -0.1139  0.1347
  460MPD2    C1 6846   0.213   1.198  10.738  0.3029  0.1535  0.0047
  460MPD2    C2 6847   0.105   1.270  10.702  1.0032 -0.2286  0.0504
  460MPD2    C3 6848   0.113   1.353  10.591  0.3419  0.2582  0.4694
  460MPD2    C4 6849   0.229   1.374  10.523 -0.3138  0.2921 -0.8509
  460MPD2    C5 6850   0.336   1.286  10.548 -0.2868  0.0539 -0.1041
  460MPD2     H 6851   0.021   1.261  10.770 -0.3547 -2.9532 -1.9811
  460MPD2    H1 6852   0.232   1.442  10.438 -1.0721 -0.7459 -1.7035
  460MPD2    H2 6853   0.419   1.140  10.675 -1.9872 -2.6323  0.1099
  460MPD2    H3 6854   0.425   1.293  10.486 -2.0357  1.1836 -2.4951
  460MPD2     N 6855   0.004   1.443  10.564  0.0244 -0.0822  0.5323
  460MPD2    H5 6856   4.637   1.422  10.606 -0.1532 -0.9574 -0.2898
  460MPD2    N1 6857   0.212   1.103  10.847 -0.0283  0.1710 -0.2901
  460MPD2    H7 6858   0.297   1.047  10.851  1.2033  2.1086  0.8163
  461TMC3    C1 6859   4.598   1.633  10.473  0.0215 -0.0158 -0.4676
  461TMC3    C2 6860   4.487   1.550  10.474  0.5404 -0.2020 -0.1354
  461TMC3    C3 6861   4.374   1.599  10.413  0.1177  0.1569 -0.0817
  461TMC3    C4 6862   4.601   1.756  10.414  0.5694 -0.3695 -0.2730
  461TMC3    C5 6863   4.485   1.798  10.363  0.1659 -0.0125 -0.1262
  461TMC3    C6 6864   4.373   1.717  10.342  0.3928  0.7381 -1.3914
  461TMC3     C 6865   0.005   1.576  10.502  0.4931 -0.2871 -0.0066
  461TMC3     O 6866   0.102   1.635  10.463  0.2928 -0.4311  0.4379
  461TMC3     H 6867   4.480   1.451  10.520  2.3293  0.3492  1.3447
  461TMC3    H1 6868   4.694   1.807  10.392  1.1681 -1.2283  0.2878
  461TMC3    H2 6869   4.277   1.764  10.323 -0.1578 -0.0023 -0.4178
  461TMC3    C7 6870   4.463   1.933  10.320  0.0541 -0.1102 -0.5165
  461TMC3    C8 6871   4.265   1.510  10.383 -0.1873 -0.1592 -0.7810
  461TMC3    O1 6872   4.380   1.952  10.235  1.2313 -0.0661 -0.3279
  461TMC3    O2 6873   4.244   1.417  10.459  0.6649 -1.2247  0.7788
  462TMC3    C1 6874   4.201   2.153  17.669 -0.0828  0.1605  0.0512
  462TMC3    C2 6875   4.249   2.068  17.570  0.3066 -0.6460  0.3039
  462TMC3    C3 6876   4.203   1.939  17.556  0.7383  0.0052 -0.0819
  462TMC3    C4 6877   4.111   2.109   0.068  0.6696 -0.8146  0.0288
  462TMC3    C5 6878   4.066   1.976   0.049 -0.5390 -0.8783 -1.1361
  462TMC3    C6 6879   4.106   1.887  17.642  0.1105  0.0643 -0.4491
  462TMC3     C 6880   4.270   2.277  17.689  0.0086  1.0258 -0.2056
  462TMC3     O 6881   4.335   2.314  17.592  0.6398  0.0576  0.2079
  462TMC3     H 6882   4.332   2.092  17.504  0.7065 -1.6201  0.4559
  462TMC3    H1 6883   4.068   2.178   0.141 -0.7836 -1.3651 -0.2931
  462TMC3    H2 6884   4.087   1.780  17.641  3.1487 -0.4901 -0.6319
  462TMC3    C7 6885   3.997   1.912   0.152  0.6252 -0.0042  0.1510
  462TMC3    C8 6886   4.271   1.847  17.472  0.1361  0.0224 -0.3378
  462TMC3    O1 6887   3.948   1.802   0.129 -0.5553  0.0464 -0.2815
  462TMC3    O2 6888   4.204   1.760  17.420  0.5625  0.1366 -0.6377
  463MPD2     C 6889   0.229   1.122   2.068  0.0276 -0.0762 -0.3015
  463MPD2    C1 6890   0.222   1.123   1.924 -0.2933  0.0814 -0.4185
  463MPD2    C2 6891   0.313   1.203   1.859  0.6899  0.0115 -0.3155
  463MPD2    C3 6892   0.421   1.261   1.927 -0.4063  0.3838  0.3352
  463MPD2    C4 6893   0.429   1.249   2.059 -0.6771 -0.0760  0.1425
  463MPD2    C5 6894   0.328   1.187   2.135 -0.1762  0.0354 -0.0508
  463MPD2     H 6895   0.303   1.202   1.751 -0.9820  0.4417 -0.1734
  463MPD2    H1 6896   0.504   1.299   2.118 -0.3094 -2.3318  1.5882
  463MPD2    H2 6897   0.154   1.071   2.127 -0.0035 -2.6221 -2.5002
  463MPD2    H3 6898   0.336   1.175   2.242 -1.6160  1.1565  0.1841
  463MPD2     N 6899   0.523   1.334   1.851 -0.1417  0.2580 -0.1079
  463MPD2    H5 6900   0.603   1.362   1.907 -2.1264 -0.4240  3.0240
  463MPD2    N1 6901   0.110   1.072   1.845  0.1544  0.3292  0.1291
  463MPD2    H7 6902   0.103   1.107   1.750  2.7865 -0.4715 -0.3511
  464TMC3    C1 6903   4.621   1.003   1.825 -0.0212  0.5535 -0.2816
  464TMC3    C2 6904   4.594   1.090   1.721  0.1162 -0.6622 -0.4787
  464TMC3    C3 6905   4.477   1.078   1.644 -0.4130  0.1177 -0.1637
  464TMC3    C4 6906   4.512   0.924   1.866 -1.0072 -0.5487 -0.3227
  464TMC3    C5 6907   4.394   0.918   1.789  0.5533 -0.0504  0.1640
  464TMC3    C6 6908   4.373   1.003   1.682  0.3168  0.7224 -0.1700
  464TMC3     C 6909   0.017   0.986   1.890 -0.1703 -0.2457  0.5872
  464TMC3     O 6910   0.023   0.903   1.982 -0.2227 -0.1774 -0.0110
  464TMC3     H 6911   4.671   1.159   1.689 -0.3850  0.1167 -0.0092
  464TMC3    H1 6912   4.516   0.853   1.947  0.5630 -0.8256 -0.6418
  464TMC3    H2 6913   4.278   1.013   1.631 -1.1293 -1.2007  2.1430
  464TMC3    C7 6914   4.294   0.820   1.834 -0.0963  0.3414  0.3873
  464TMC3    C8 6915   4.480   1.144   1.518  0.2486 -0.1489 -0.2553
  464TMC3    O1 6916   4.317   0.760   1.941  0.2422 -0.0589 -0.0331
  464TMC3    O2 6917   4.554   1.239   1.500  0.9181  0.3243  0.3767
  465MPD2     C 6918   1.803   4.543  16.979  0.4726  0.8968  0.0555
  465MPD2    C1 6919   1.695   4.573  17.063 -0.7277 -0.0733  0.2393
  465MPD2    C2 6920   1.572   4.531  17.007 -0.0647 -1.5339  0.4458
  465MPD2    C3 6921   1.549   4.488  16.884  0.1657 -0.5184 -0.0630
  465MPD2    C4 6922   1.659   4.476  16.796  0.4261 -0.8289  0.4363
  465MPD2    C5 6923   1.777   4.501  16.850  0.1314 -0.4245 -0.0631
  465MPD2     H 6924   1.481   4.542  17.066 -0.4353 -1.1491 -0.2027
  465MPD2    H1 6925   1.653   4.428  16.699 -1.1180  0.0615  0.0910
  465MPD2    H2 6926   1.904   4.558  17.015  0.1652  2.8190  0.1350
  465MPD2    H3 6927   1.860   4.496  16.781 -0.9735  2.7458 -1.6109
  465MPD2     N 6928   1.409   4.470  16.842 -0.0018 -0.5765  0.1120
  465MPD2    H5 6929   1.340   4.461  16.916 -1.4574 -1.6690 -1.4062
  465MPD2    N1 6930   1.703   4.616  17.203  0.3055 -0.3401 -0.0819
  465MPD2    H7 6931   1.623   4.614  17.264  0.0007  0.4457 -0.4573
  466TMC3    C1 6932   1.058   4.572  16.874 -0.4372  0.4578  0.5096
  466TMC3    C2 6933   1.044   4.695  16.803  0.6856  0.0861 -0.0832
  466TMC3    C3 6934   1.110   4.708  16.683  0.1872 -0.2804 -0.3022
  466TMC3    C4 6935   1.154   4.479  16.834  0.6266  0.3876  0.1497
  466TMC3    C5 6936   1.220   4.497  16.710 -0.3861 -0.1483  0.7518
  466TMC3    C6 6937   1.190   4.606  16.635  0.0989 -0.6263  0.3631
  466TMC3     C 6938   1.021   4.569  17.006  0.3435  0.0415  0.3074
  466TMC3     O 6939   1.087   4.501  17.083 -0.0390  0.1394 -0.0902
  466TMC3     H 6940   0.978   0.052  16.833  0.2917 -0.7158  1.1593
  466TMC3    H1 6941   1.169   4.385  16.886  0.5337 -0.9920 -2.2824
  466TMC3    H2 6942   1.235   4.604  16.536  0.8725 -0.6147  0.7153
  466TMC3    C7 6943   1.366   4.460  16.712 -0.2687 -1.0446  0.6639
  466TMC3    C8 6944   1.154   0.123  16.654  0.5359 -0.2385 -0.5754
  466TMC3    O1 6945   1.430   4.480  16.608  0.1010  0.0205  0.4691
  466TMC3    O2 6946   1.213   0.138  16.547 -0.2499  0.3346 -0.4852
  467TMC3    C1 6947   2.341   2.881  14.080  0.6805 -0.4523  0.9794
  467TMC3    C2 6948   2.269   2.843  13.973  0.0717 -0.9152 -0.0249
  467TMC3    C3 6949   2.139   2.805  13.987 -0.1863 -0.1985  0.9515
  467TMC3    C4 6950   2.287   2.899  14.204 -0.6057  0.4394  0.9057
  467TMC3    C5 6951   2.155   2.883  14.217 -0.0399  1.1267 -0.9730
  467TMC3    C6 6952   2.079   2.833  14.109 -0.2141 -0.1294  0.5217
  467TMC3     C 6953   2.483   2.910  14.060 -0.4272  1.2295 -0.0829
  467TMC3     O 6954   2.525   3.004  14.125  0.1690  0.0899  0.4314
  467TMC3     H 6955   2.300   2.852  13.870 -2.1641  0.7773 -0.5498
  467TMC3    H1 6956   2.346   2.923  14.292  1.2451  2.1526 -0.7886
  467TMC3    H2 6957   1.981   2.787  14.119 -1.2755  1.8707 -0.7638
  467TMC3    C7 6958   2.123   2.830  14.351 -0.0345 -0.5507 -0.3197
  467TMC3    C8 6959   2.062   2.843  13.873 -0.0063 -0.2089 -0.3835
  467TMC3    O1 6960   2.221   2.805  14.427 -0.0675 -0.1221  0.5608
  467TMC3    O2 6961   2.005   2.954  13.877 -0.4249 -0.2118  0.8362
  468MPD2     C 6962   1.853   1.012  10.228 -0.1342 -0.7824 -0.0053
  468MPD2    C1 6963   1.852   1.038  10.366  0.5955 -0.7624 -0.0550
  468MPD2    C2 6964   1.869   0.928  10.449 -0.3307 -0.1051  0.0300
  468MPD2    C3 6965   1.880   0.800  10.391  0.7362 -0.6407 -0.3071
  468MPD2    C4 6966   1.885   0.782  10.256  0.1090 -0.7007 -0.5294
  468MPD2    C5 6967   1.872   0.888  10.171  0.1152  0.0081  0.8617
  468MPD2     H 6968   1.863   0.943  10.556  3.3689 -1.2576  0.3729
  468MPD2    H1 6969   1.905   0.685  10.212 -1.0925 -1.4648  0.5925
  468MPD2    H2 6970   1.847   1.095  10.158 -1.8685 -0.9166 -0.0081
  468MPD2    H3 6971   1.872   0.869  10.064  4.4273 -1.2353  1.0646
  468MPD2     N 6972   1.904   0.685  10.473  0.0282 -0.6404 -0.0255
  468MPD2    H5 6973   1.892   0.598  10.423  1.0789 -1.7800  1.6935
  468MPD2    N1 6974   1.823   1.159  10.429 -0.9091  0.4710 -0.1198
  468MPD2    H7 6975   1.828   1.169  10.530 -0.9772  0.1042 -0.0794
  469TMC3    C1 6976   1.728   1.369  10.451 -0.2583 -0.0435 -0.0377
  469TMC3    C2 6977   1.811   1.407  10.554 -0.0183 -0.1862  0.7216
  469TMC3    C3 6978   1.767   1.498  10.645 -0.2237 -0.5784  0.7188
  469TMC3    C4 6979   1.611   1.430  10.432 -0.3412  0.3801  0.2321
  469TMC3    C5 6980   1.572   1.519  10.526 -0.0109  0.1031 -0.0802
  469TMC3    C6 6981   1.648   1.563  10.631  0.2567 -0.3211  0.2976
  469TMC3     C 6982   1.765   1.264  10.358 -0.1683  0.0740 -0.0539
  469TMC3     O 6983   1.731   1.273  10.241 -0.0953 -0.0606 -1.1238
  469TMC3     H 6984   1.904   1.354  10.565 -1.1279 -2.3119 -0.1546
  469TMC3    H1 6985   1.545   1.400  10.350 -0.9416  0.0430  0.8365
  469TMC3    H2 6986   1.624   1.647  10.696 -1.6822  0.2115 -1.1277
  469TMC3    C7 6987   1.431   1.550  10.534 -0.3567  0.4184 -0.1970
  469TMC3    C8 6988   1.874   1.547  10.733  0.1869 -0.2927 -0.2558
  469TMC3    O1 6989   1.361   1.499  10.446  0.1848  0.1834  0.3491
  469TMC3    O2 6990   1.988   1.554  10.691 -0.1621  0.1982  0.4033
  470TMC3    C1 6991   0.048   2.130   0.678  0.1433  0.0704 -0.5421
  470TMC3    C2 6992   4.693   2.238   0.702  0.0691 -0.4791 -0.4804
  470TMC3    C3 6993   0.012   2.324   0.806  0.4554 -0.1020  0.3850
  470TMC3    C4 6994   0.165   2.106   0.744 -0.2063  0.2905 -0.0746
  470TMC3    C5 6995   0.209   2.201   0.841  0.7225  0.7782  0.1676
  470TMC3    C6 6996   0.126   2.312   0.873  0.4825 -0.0723  0.3226
  470TMC3     C 6997   4.705   2.018   0.613  0.3385  0.4282 -0.4255
  470TMC3     O 6998   4.584   2.016   0.616 -0.4808  0.1377 -0.4523
  470TMC3     H 6999   4.600   2.248   0.648  0.6542  0.4691 -1.2877
  470TMC3    H1 7000   0.213   2.008   0.739 -0.1714  0.4239 -2.3251
  470TMC3    H2 7001   0.151   2.381   0.952  1.5250  1.4156 -1.3133
  470TMC3    C7 7002   0.293   2.143   0.946 -0.7771  0.6536 -0.1466
  470TMC3    C8 7003   4.643   2.433   0.841 -0.3740 -0.1055 -0.0209
  470TMC3    O1 7004   0.381   2.065   0.912 -0.9893 -0.5184 -0.1681
  470TMC3    O2 7005   4.676   2.498   0.941 -0.3534  0.5047 -0.9043
  471MPD2     C 7006   3.763   3.952  16.842 -0.4648  0.1418  0.0957
  471MPD2    C1 7007   3.846   3.840  16.830 -0.5987 -0.0008  0.0730
  471MPD2    C2 7008   3.958   3.825  16.913  0.4362 -0.4216 -0.2281
  471MPD2    C3 7009   3.979   3.913  17.018 -0.0074  0.5474  0.2739
  471MPD2    C4 7010   3.897   4.026  17.033  0.1750  0.2000  0.0423
  471MPD2    C5 7011   3.800   4.040  16.940  0.1415  0.5156 -0.5462
  471MPD2     H 7012   4.024   3.739  16.904 -0.5542 -1.0098 -1.7652
  471MPD2    H1 7013   3.889   4.096  17.116 -0.9936 -0.3834  0.4156
  471MPD2    H2 7014   3.673   3.973  16.784 -0.0481  0.2217 -0.5225
  471MPD2    H3 7015   3.726   4.118  16.954  0.4099  0.3584  1.6876
  471MPD2     N 7016   4.081   3.903  17.114 -0.3477 -0.4499  0.0335
  471MPD2    H5 7017   4.076   3.974  17.186  0.5738 -1.3487  0.9900
  471MPD2    N1 7018   3.819   3.734  16.742 -0.1783  0.3437 -0.4252
  471MPD2    H7 7019   3.886   3.658  16.747  0.0325  0.5230 -0.5006
  472TMC3    C1 7020   3.707   3.586  16.596 -0.4634  0.0542  0.0038
  472TMC3    C2 7021   3.638   3.574  16.481  0.6191 -0.3931 -0.4676
  472TMC3    C3 7022   3.565   3.460  16.456  1.5459  0.0526 -0.4375
  472TMC3    C4 7023   3.692   3.497  16.699 -0.5389  0.0301  0.3568
  472TMC3    C5 7024   3.622   3.379  16.677 -0.0424  0.4875  0.8315
  472TMC3    C6 7025   3.571   3.358  16.553 -0.1473  0.1597 -0.0364
  472TMC3     C 7026   3.719   3.727  16.646 -0.1165 -0.1216  0.3018
  472TMC3     O 7027   3.645   3.812  16.599  0.5009 -0.0416 -1.1936
  472TMC3     H 7028   3.638   3.654  16.408 -0.0105  0.0367  0.0028
  472TMC3    H1 7029   3.741   3.514  16.794 -1.8737 -0.0418  1.0467
  472TMC3    H2 7030   3.543   3.255  16.533 -0.0067  0.1522 -0.1918
  472TMC3    C7 7031   3.622   3.268  16.774 -0.6937  0.1268 -0.2335
  472TMC3    C8 7032   3.537   3.428  16.321 -0.4363 -0.0172  0.1480
  472TMC3    O1 7033   3.606   3.153  16.733  0.0226 -0.2819  0.6527
  472TMC3    O2 7034   3.578   3.501  16.238 -0.4745 -0.3489  0.3167
  473MPD2     C 7035   3.645   1.044  14.145 -0.0869  0.7792  0.4335
  473MPD2    C1 7036   3.750   1.086  14.071 -0.2069 -0.7772 -1.2482
  473MPD2    C2 7037   3.875   1.106  14.128  0.2939  0.1717  0.1778
  473MPD2    C3 7038   3.894   1.095  14.263 -0.2947 -0.2481  0.0118
  473MPD2    C4 7039   3.786   1.043  14.334  0.4996 -0.5575 -0.2653
  473MPD2    C5 7040   3.668   1.010  14.273  0.2748 -0.0838  0.3648
  473MPD2     H 7041   3.952   1.135  14.058 -1.4862 -3.0149 -3.0594
  473MPD2    H1 7042   3.799   1.020  14.439 -2.0231 -0.4386  0.0666
  473MPD2    H2 7043   3.543   1.033  14.110 -0.3813  1.1664  1.1736
  473MPD2    H3 7044   3.591   0.981  14.344 -1.5475  1.8692 -0.8048
  473MPD2     N 7045   4.008   1.124  14.333 -0.1242 -0.6602  0.0901
  473MPD2    H5 7046   4.001   1.112  14.434  2.6729 -0.0613  0.3590
  473MPD2    N1 7047   3.753   1.104  13.932 -0.0660  0.2476 -0.7300
  473MPD2    H7 7048   3.845   1.125  13.896  0.9802  0.0425  1.8686
  474TMC3    C1 7049   4.208   1.235  14.382  0.1483  0.5201  0.4225
  474TMC3    C2 7050   4.202   1.370  14.397 -0.2852  0.1608  0.1817
  474TMC3    C3 7051   4.261   1.428  14.505  0.3864  0.3499 -0.5250
  474TMC3    C4 7052   4.253   1.161  14.487  0.2854  0.1521 -0.4064
  474TMC3    C5 7053   4.318   1.222  14.590 -0.5178 -0.5514  0.1499
  474TMC3    C6 7054   4.323   1.356  14.610 -0.0854 -0.2612 -0.0769
  474TMC3     C 7055   4.120   1.177  14.281  0.6323  0.2089  0.2582
  474TMC3     O 7056   4.148   1.202  14.164  0.0013  0.0548  0.4008
  474TMC3     H 7057   4.152   1.427  14.319 -0.2273  2.2694  1.6903
  474TMC3    H1 7058   4.249   1.055  14.462 -1.6988 -0.0443  0.6935
  474TMC3    H2 7059   4.384   1.397  14.690  0.0134  2.9330 -1.8052
  474TMC3    C7 7060   4.366   1.128  14.695  0.2554  0.2710  0.2153
  474TMC3    C8 7061   4.312   1.561  14.486  0.5098  0.0756  0.5982
  474TMC3    O1 7062   4.414   1.025  14.662  0.1477 -0.0401 -0.3445
  474TMC3    O2 7063   4.321   1.635  14.585  0.0953  0.1944  0.2909
  475MPD2     C 7064   2.473   3.319  10.594  0.0637  0.3367  0.2788
  475MPD2    C1 7065   2.481   3.456  10.613 -0.4183 -0.8849  0.1752
  475MPD2    C2 7066   2.425   3.535  10.515 -0.1339  0.1700 -0.1421
  475MPD2    C3 7067   2.344   3.481  10.414 -0.9491  0.0896 -0.4900
  475MPD2    C4 7068   2.338   3.346  10.399 -0.2003  0.4249  0.4699
  475MPD2    C5 7069   2.403   3.263  10.485  0.1801 -0.0528 -0.2475
  475MPD2     H 7070   2.454   3.640  10.515  1.1350 -0.1839  0.8212
  475MPD2    H1 7071   2.284   3.290  10.323 -0.1322  0.2358  0.5598
  475MPD2    H2 7072   2.509   3.248  10.668 -0.4134 -0.4382 -0.2211
  475MPD2    H3 7073   2.384   3.157  10.478  0.9911 -0.2178  0.0294
  475MPD2     N 7074   2.283   3.573  10.325 -0.1443 -0.3170  0.4700
  475MPD2    H5 7075   2.281   3.671  10.353  2.7017  0.0278 -0.5438
  475MPD2    N1 7076   2.573   3.518  10.706 -0.6028 -0.0598  0.3980
  475MPD2    H7 7077   2.562   3.618  10.716 -1.5171 -0.2438  1.1403
  476TMC3    C1 7078   2.771   3.567  10.811 -1.0811  0.0944  0.2494
  476TMC3    C2 7079   2.826   3.644  10.713  0.0217 -0.5099  0.4044
  476TMC3    C3 7080   2.845   3.782  10.715  0.2514 -0.0451  0.0273
  476TMC3    C4 7081   2.727   3.637  10.917 -0.5122 -0.2902 -0.5833
  476TMC3    C5 7082   2.741   3.773  10.924 -0.2116  0.6911 -0.9018
  476TMC3    C6 7083   2.804   3.845  10.827 -0.2329 -0.1451 -0.4635
  476TMC3     C 7084   2.688   3.463  10.758  0.4699  0.6470  0.1067
  476TMC3     O 7085   2.735   3.353  10.735  0.2126 -0.0156 -0.3991
  476TMC3     H 7086   2.859   3.585  10.629  1.2570 -0.6879  1.0010
  476TMC3    H1 7087   2.671   3.581  10.991  0.2456 -1.1266 -0.6471
  476TMC3    H2 7088   2.797   3.952  10.839  1.1442 -0.1800  0.6724
  476TMC3    C7 7089   2.682   3.835  11.043  0.1405 -0.1930  0.3980
  476TMC3    C8 7090   2.798   3.849  10.597  0.2056  0.0319  0.4380
  476TMC3    O1 7091   2.585   3.786  11.093 -0.3029  0.2452  0.0545
  476TMC3    O2 7092   2.809   3.971  10.597  0.7763 -0.4298 -0.2314
  477MPD2     C 7093   0.058   0.329  11.342  0.6491  0.6324 -0.8973
  477MPD2    C1 7094   4.705   0.252  11.432  0.1854 -0.2753  0.4405
  477MPD2    C2 7095   0.053   0.194  11.543 -0.3505  0.2513  0.3104
  477MPD2    C3 7096   0.186   0.238  11.563 -1.0285  0.1035 -0.8988
  477MPD2    C4 7097   0.257   0.317  11.471  0.3094  0.2929 -0.5963
  477MPD2    C5 7098   0.189   0.361  11.360 -0.0680 -1.3358 -0.0197
  477MPD2     H 7099   0.008   0.131  11.618  1.7064 -0.8590  0.6020
  477MPD2    H1 7100   0.359   0.348  11.492  0.0594  0.3026  0.5639
  477MPD2    H2 7101   0.015   0.370  11.251 -0.5226 -0.0068 -0.6359
  477MPD2    H3 7102   0.229   0.435  11.291 -0.3015 -2.9381 -1.8724
  477MPD2     N 7103   0.250   0.205  11.687 -0.1574 -0.7441  0.0340
  477MPD2    H5 7104   0.189   0.151  11.748 -1.4436  0.8206  0.1607
  477MPD2    N1 7105   4.565   0.258  11.424 -0.1301 -0.0884 -0.2976
  477MPD2    H7 7106   4.529   0.318  11.351 -0.6682  1.1208  0.9416
  478TMC3    C1 7107   4.347   0.242  11.492 -0.3909  0.1983  0.4420
  478TMC3    C2 7108   4.274   0.286  11.594  0.2944 -0.3721  0.3921
  478TMC3    C3 7109   4.153   0.358  11.576  0.6198  0.7485  0.4358
  478TMC3    C4 7110   4.317   0.280  11.366  0.0969 -0.7824  0.1977
  478TMC3    C5 7111   4.197   0.349  11.349  0.3928  0.2062  0.2402
  478TMC3    C6 7112   4.117   0.393  11.449 -0.0426  0.4886 -0.5955
  478TMC3     C 7113   4.480   0.204  11.521  0.4803 -0.0978  0.2733
  478TMC3     O 7114   4.508   0.152  11.625  0.1064 -0.7867  0.0374
  478TMC3     H 7115   4.306   0.257  11.693  0.2618  0.3534  0.6106
  478TMC3    H1 7116   4.368   0.234  11.283 -0.8601 -0.7112 -0.4317
  478TMC3    H2 7117   4.024   0.445  11.432 -1.2323 -1.5600 -0.3018
  478TMC3    C7 7118   4.136   0.362  11.223  0.0246  0.0617  0.0714
  478TMC3    C8 7119   4.107   0.415  11.699 -0.0301  0.4902 -0.1764
  478TMC3    O1 7120   4.016   0.339  11.202  0.5466 -0.1620  0.4024
  478TMC3    O2 7121   4.124   0.345  11.798 -0.4544  0.4160 -0.1525
  479MPD2     C 7122   3.642   2.706  15.195  0.0588  0.5095  0.4373
  479MPD2    C1 7123   3.587   2.674  15.317 -0.0559  0.4100  0.1607
  479MPD2    C2 7124   3.658   2.678  15.437  0.2639  0.4638  0.2164
  479MPD2    C3 7125   3.787   2.732  15.428  0.1358 -0.4049  0.4372
  479MPD2    C4 7126   3.841   2.768  15.306  0.1856  0.1651  0.1276
  479MPD2    C5 7127   3.774   2.747  15.186 -0.4284  0.2484 -0.0940
  479MPD2     H 7128   3.620   2.632  15.528 -2.6069  2.0402 -0.2139
  479MPD2    H1 7129   3.943   2.805  15.301 -1.0092  3.5855  0.8336
  479MPD2    H2 7130   3.580   2.695  15.107 -0.5537 -0.6880  1.0100
  479MPD2    H3 7131   3.814   2.780  15.091 -0.8025  0.1618 -0.2840
  479MPD2     N 7132   3.875   2.744  15.536 -0.3559 -0.0012 -0.0141
  479MPD2    H5 7133   3.971   2.735  15.503 -0.1074 -1.8897  1.2032
  479MPD2    N1 7134   3.444   2.648  15.314 -0.1017 -0.3969  0.3578
  479MPD2    H7 7135   3.409   2.666  15.220  0.1639 -0.5778  0.2255
  480TMC3    C1 7136   3.524   2.712  15.845  0.0745 -0.2309 -0.6633
  480TMC3    C2 7137   3.453   2.820  15.792  0.0747 -0.1291  0.2720
  480TMC3    C3 7138   3.510   2.894  15.696  0.4840  0.9993  0.7615
  480TMC3    C4 7139   3.643   2.679  15.797  0.5890  0.4010 -0.2049
  480TMC3    C5 7140   3.701   2.761  15.711  0.3158  0.3023  0.0726
  480TMC3    C6 7141   3.640   2.872  15.662  0.0837  0.1630 -0.4666
  480TMC3     C 7142   3.444   2.600  15.884  0.4972  0.0104  1.3454
  480TMC3     O 7143   3.488   2.521  15.961  0.6697  0.0565 -0.3309
  480TMC3     H 7144   3.352   2.844  15.822 -0.1822 -1.2185  0.2877
  480TMC3    H1 7145   3.689   2.583  15.818 -0.8655 -0.0799  0.7250
  480TMC3    H2 7146   3.696   2.940  15.599 -0.7278 -0.5553 -1.9407
  480TMC3    C7 7147   3.838   2.718  15.670 -0.4388  0.8911  0.7147
  480TMC3    C8 7148   3.409   2.930  15.588 -0.3295 -0.8922 -0.1796
  480TMC3    O1 7149   3.917   2.677  15.750  0.2550  0.1454 -0.3050
  480TMC3    O2 7150   3.294   2.901  15.616  0.2177  0.0482  0.7760
  481MPD2     C 7151   0.680   2.178  14.921 -0.7611 -0.2036  0.0789
  481MPD2    C1 7152   0.547   2.168  14.942 -0.5967 -0.0273 -0.3756
  481MPD2    C2 7153   0.502   2.106  15.055 -0.2056 -0.2894 -0.6955
  481MPD2    C3 7154   0.590   2.067  15.147 -0.1766  0.1248  0.4591
  481MPD2    C4 7155   0.724   2.069  15.122 -0.3833  0.2402  0.4541
  481MPD2    C5 7156   0.769   2.129  15.015 -0.3025 -0.1949  0.3068
  481MPD2     H 7157   0.395   2.100  15.072 -0.0571 -2.9801 -0.8291
  481MPD2    H1 7158   0.797   2.026  15.191 -0.1168  1.5415  0.9830
  481MPD2    H2 7159   0.721   2.228  14.834 -1.2487  0.9485  0.5045
  481MPD2    H3 7160   0.875   2.147  15.005 -0.5426  0.4684 -1.0095
  481MPD2     N 7161   0.563   2.015  15.282 -0.2048 -0.3606  0.4123
  481MPD2    H5 7162   0.641   1.986  15.340 -0.2575  0.5401  0.9310
  481MPD2    N1 7163   0.467   2.226  14.838  0.0564 -0.7206  0.2618
  481MPD2    H7 7164   0.508   2.285  14.767 -1.1798  1.1420  1.1168
  482TMC3    C1 7165   0.280   2.298  14.723 -0.2747  0.1502  0.0639
  482TMC3    C2 7166   0.184   2.240  14.643 -0.3558  0.2354  0.5869
  482TMC3    C3 7167   0.164   2.296  14.514 -0.0287 -0.3567  0.3213
  482TMC3    C4 7168   0.353   2.403  14.667 -0.0246 -0.3226  0.5741
  482TMC3    C5 7169   0.340   2.440  14.541 -0.2457  0.6213 -0.3305
  482TMC3    C6 7170   0.241   2.395  14.460 -0.3713 -0.1351  0.4616
  482TMC3     C 7171   0.330   2.216  14.835 -0.2221 -0.1296  0.0886
  482TMC3     O 7172   0.263   2.124  14.879  0.3808  0.1048  0.0248
  482TMC3     H 7173   0.118   2.163  14.681 -0.3548  0.5314  1.1971
  482TMC3    H1 7174   0.426   2.451  14.732 -0.5648  1.2421  0.0248
  482TMC3    H2 7175   0.223   2.439  14.363 -0.7694 -1.5053 -0.0804
  482TMC3    C7 7176   0.449   2.518  14.483  0.0811 -0.4905  0.4079
  482TMC3    C8 7177   0.078   2.219  14.424  0.3099 -0.2522  0.2311
  482TMC3    O1 7178   0.515   2.589  14.557 -0.3560  0.2333 -0.4691
  482TMC3    O2 7179   0.058   2.103  14.458  0.2977 -0.4736  0.6971
  483TMC3    C1 7180   2.615   0.852   0.313 -0.0130  0.0793  0.0057
  483TMC3    C2 7181   2.613   0.989   0.338 -0.0747 -0.3640 -0.2771
  483TMC3    C3 7182   2.602   1.029   0.466 -0.2337  0.2119  0.0986
  483TMC3    C4 7183   2.581   0.764   0.413 -0.6028 -0.0725 -0.8891
  483TMC3    C5 7184   2.545   0.811   0.535 -0.5880  0.1030 -0.1295
  483TMC3    C6 7185   2.554   0.946   0.568 -0.2535  0.0422 -0.4744
  483TMC3     C 7186   2.740   0.806   0.259  1.1304 -0.3153  0.0593
  483TMC3     O 7187   2.779   0.862   0.158 -0.6051 -0.4891 -0.9497
  483TMC3     H 7188   2.665   1.050   0.265 -1.0283  0.1218 -0.5521
  483TMC3    H1 7189   2.582   0.657   0.400 -0.5157 -0.2202  0.3056
  483TMC3    H2 7190   2.534   0.978   0.669  2.6819 -2.3826  0.8806
  483TMC3    C7 7191   2.573   0.721   0.647 -0.6186 -0.3990  0.2550
  483TMC3    C8 7192   2.717   1.111   0.506  0.0773 -0.1899 -0.4587
  483TMC3    O1 7193   2.671   0.645   0.635 -0.2104  0.5144 -0.6536
  483TMC3    O2 7194   2.790   1.164   0.422 -0.0581  0.2766  0.0911
  484MPD2     C 7195   1.409   3.954  12.693 -0.3096  0.3221  0.8160
  484MPD2    C1 7196   1.463   3.831  12.729 -0.0848 -0.0038  0.0228
  484MPD2    C2 7197   1.600   3.805  12.710  0.0207  0.8185  0.7954
  484MPD2    C3 7198   1.682   3.912  12.675  0.0776 -0.2784 -0.8316
  484MPD2    C4 7199   1.631   4.035  12.659  0.1988  0.0249 -0.4113
  484MPD2    C5 7200   1.495   4.056  12.658  0.5548  0.5013 -0.3549
  484MPD2     H 7201   1.649   3.713  12.739  0.4600  0.5894 -0.6858
  484MPD2    H1 7202   1.699   4.119  12.645 -1.0614  1.4070  1.8729
  484MPD2    H2 7203   1.303   3.971  12.702  0.0038  1.5903  2.1296
  484MPD2    H3 7204   1.449   4.152  12.638 -1.8821 -0.7132 -0.5716
  484MPD2     N 7205   1.820   3.892  12.638 -0.3049 -0.2007  0.3714
  484MPD2    H5 7206   1.868   3.981  12.623 -0.0008 -0.3516  0.4474
  484MPD2    N1 7207   1.378   3.736  12.790 -0.2553  0.0569 -0.2878
  484MPD2    H7 7208   1.281   3.764  12.786 -0.0614  0.2244 -3.6469
  485TMC3    C1 7209   2.011   3.786  12.562 -0.1315  0.1298  0.0164
  485TMC3    C2 7210   2.084   3.672  12.567 -0.0556 -0.3438 -0.0786
  485TMC3    C3 7211   2.206   3.674  12.502  0.3372  0.0163  0.1974
  485TMC3    C4 7212   2.043   3.902  12.491  0.1208 -0.4860 -0.4840
  485TMC3    C5 7213   2.163   3.889  12.419 -0.5842  0.7925 -0.0794
  485TMC3    C6 7214   2.252   3.786  12.436  0.4500 -0.7456  0.1620
  485TMC3     C 7215   1.878   3.767  12.612  0.5036 -0.6394 -0.5117
  485TMC3     O 7216   1.822   3.661  12.609 -0.4508 -0.9754  0.4162
  485TMC3     H 7217   2.050   3.586  12.623 -0.8356  0.5717  0.8673
  485TMC3    H1 7218   1.967   3.975  12.467 -2.2905 -2.0996  2.3188
  485TMC3    H2 7219   2.353   3.790  12.398  0.3430  1.7877  0.1650
  485TMC3    C7 7220   2.145   3.922  12.274  0.3717  0.3868 -0.0963
  485TMC3    C8 7221   2.244   3.557  12.416  0.9701  0.1455 -0.5723
  485TMC3    O1 7222   2.074   4.018  12.256 -0.2016  0.2744 -0.7007
  485TMC3    O2 7223   2.302   3.586  12.313  0.0907  0.6881 -0.6164
  486MPD2     C 7224   3.601   2.911  12.859 -0.1306 -0.0735  0.6323
  486MPD2    C1 7225   3.477   2.863  12.884  0.2617  0.0172  0.5157
  486MPD2    C2 7226   3.379   2.947  12.930  0.0763  0.2560  0.3731
  486MPD2    C3 7227   3.407   3.079  12.953  0.4903 -0.6372 -0.6469
  486MPD2    C4 7228   3.531   3.128  12.946 -0.5192  0.5641  0.1106
  486MPD2    C5 7229   3.623   3.045  12.888 -0.0449 -0.3463 -0.6433
  486MPD2     H 7230   3.275   2.917  12.932 -0.0342  0.5983 -0.5911
  486MPD2    H1 7231   3.560   3.228  12.977  2.7979 -0.7664  1.2996
  486MPD2    H2 7232   3.684   2.857  12.815  1.0850  1.8453  0.5369
  486MPD2    H3 7233   3.718   3.086  12.858 -0.5616  0.2998 -1.3919
  486MPD2     N 7234   3.299   3.160  12.985  0.0198 -0.0761 -0.4381
  486MPD2    H5 7235   3.207   3.118  12.994  0.1050  0.2940  2.1178
  486MPD2    N1 7236   3.453   2.726  12.843 -0.0625 -0.3291  0.2088
  486MPD2    H7 7237   3.534   2.687  12.796  0.7642  2.3697 -0.5835
  487TMC3    C1 7238   3.363   2.514  12.821  0.0408  0.3187 -0.3728
  487TMC3    C2 7239   3.251   2.459  12.763 -0.4766 -0.0893  0.5439
  487TMC3    C3 7240   3.243   2.324  12.740  0.3258  0.3609  0.1853
  487TMC3    C4 7241   3.472   2.434  12.854  0.3720 -1.1383  0.2982
  487TMC3    C5 7242   3.460   2.304  12.845  0.7521  0.3719  0.4776
  487TMC3    C6 7243   3.349   2.249  12.786 -0.8124 -0.0996 -0.2021
  487TMC3     C 7244   3.348   2.646  12.871 -0.7761 -0.0932  0.0067
  487TMC3     O 7245   3.246   2.683  12.927  0.6357 -0.3018  0.4560
  487TMC3     H 7246   3.175   2.528  12.732 -0.2659  0.9014  2.2237
  487TMC3    H1 7247   3.565   2.475  12.891 -0.1437 -2.8592  3.5347
  487TMC3    H2 7248   3.336   2.142  12.772  4.7379 -0.7549 -0.4387
  487TMC3    C7 7249   3.523   2.223  12.949 -0.0688 -0.4090 -0.2968
  487TMC3    C8 7250   3.117   2.262  12.792 -1.1264 -0.1470 -0.0925
  487TMC3    O1 7251   3.624   2.268  12.999 -0.5142 -0.2328 -0.0273
  487TMC3    O2 7252   3.133   2.164  12.864  0.2320 -0.4493 -0.5960
  488MPD2     C 7253   3.054   4.270  16.791 -0.4998  0.0581 -0.1124
  488MPD2    C1 7254   3.091   4.398  16.803  0.5617 -0.4674  0.6121
  488MPD2    C2 7255   3.073   4.466  16.918 -0.5358 -0.1947  0.1765
  488MPD2    C3 7256   3.019   4.401  17.031  0.5718 -0.2138  0.1878
  488MPD2    C4 7257   2.998   4.263  17.024 -0.2133  0.2471 -0.2092
  488MPD2    C5 7258   3.007   4.199  16.900 -0.2117  0.0974  0.1318
  488MPD2     H 7259   3.096   4.572  16.925 -2.2149  0.1660  0.1953
  488MPD2    H1 7260   2.955   4.201  17.102 -1.6400  1.0127 -0.3968
  488MPD2    H2 7261   3.057   4.224  16.693  1.8263  1.6304 -0.7721
  488MPD2    H3 7262   2.979   4.094  16.902 -0.1938  0.0400 -2.4300
  488MPD2     N 7263   2.996   4.483  17.140 -0.3269 -0.1262 -0.1242
  488MPD2    H5 7264   3.005   4.583  17.125 -0.0607 -0.2336 -0.6704
  488MPD2    N1 7265   3.114   4.482  16.689  0.2506  0.1419  0.1770
  488MPD2    H7 7266   3.117   4.580  16.713 -0.7711  0.5233 -1.2772
  489TMC3    C1 7267   2.955   4.570  17.344 -0.4162 -0.0045 -0.3676
  489TMC3    C2 7268   2.889   4.667  17.280 -0.1058 -0.5382 -1.1011
  489TMC3    C3 7269   2.894   0.066  17.332 -0.5360 -0.7019  0.3175
  489TMC3    C4 7270   3.032   4.590  17.452  0.3344  0.5206 -0.0398
  489TMC3    C5 7271   3.024   4.719  17.509 -0.1545  0.7056  0.4413
  489TMC3    C6 7272   2.963   0.099  17.446 -0.6770  0.7445  0.2395
  489TMC3     C 7273   2.979   4.448  17.271 -0.0427 -0.5019  0.2174
  489TMC3     O 7274   3.003   4.341  17.326 -0.0087 -0.3556  0.3219
  489TMC3     H 7275   2.814   4.641  17.205 -0.6051  0.2235 -0.8705
  489TMC3    H1 7276   3.104   4.512  17.474  0.1248  0.6334  1.0437
  489TMC3    H2 7277   2.952   0.196  17.493 -0.2274  1.1580 -0.5112
  489TMC3    C7 7278   3.133   0.037  17.598  0.2657  0.1885  0.9038
  489TMC3    C8 7279   2.810   0.166  17.271  0.4290  0.8283  0.3317
  489TMC3    O1 7280   3.168   0.151  17.587 -0.5787 -0.1397  0.2252
  489TMC3    O2 7281   2.703   0.130  17.224  0.1829 -0.0360 -0.1699
  490MPD2     C 7282   4.472   4.040  17.595  0.0516  0.0928  0.7722
  490MPD2    C1 7283   4.414   4.022   0.026 -0.0861  0.2852 -1.0186
  490MPD2    C2 7284   4.461   4.084   0.133  0.0674 -0.1895 -0.6041
  490MPD2    C3 7285   4.561   4.176   0.115  0.6705 -0.1340 -0.2000
  490MPD2    C4 7286   4.619   4.202  17.687 -0.1523  0.5882 -0.5759
  490MPD2    C5 7287   4.577   4.126  17.581  0.4907 -0.6098 -0.1720
  490MPD2     H 7288   4.412   4.070   0.229  0.8551 -0.2119 -0.2121
  490MPD2    H1 7289   4.701   4.271  17.672 -0.5847  1.4407  1.0275
  490MPD2    H2 7290   4.432   3.978  17.515  1.8533  2.1238 -1.6669
  490MPD2    H3 7291   4.622   4.129  17.482 -1.6520  1.2298 -1.0894
  490MPD2     N 7292   4.608   4.263   0.215 -0.0738 -0.1870 -0.2315
  490MPD2    H5 7293   4.680   4.330   0.189  0.6205 -1.2785 -1.1571
  490MPD2    N1 7294   4.300   3.936   0.045 -0.3838  0.2542 -0.4742
  490MPD2    H7 7295   4.269   3.918   0.140  1.3177 -1.8376 -0.2857
  491TMC3    C1 7296   4.099   3.816  17.681  0.3943  0.0341 -0.2789
  491TMC3    C2 7297   4.117   3.735   0.092  0.7085  0.2181 -0.2123
  491TMC3    C3 7298   4.010   3.689   0.146  0.2377 -0.7006 -0.0424
  491TMC3    C4 7299   3.981   3.835  17.616 -0.5483 -0.1154  0.0644
  491TMC3    C5 7300   3.870   3.785  17.674  0.1452  0.3000 -0.3152
  491TMC3    C6 7301   3.882   3.703   0.093  0.4474  0.3086  0.2355
  491TMC3     C 7302   4.212   3.896  17.636 -0.6833  0.0665  0.5911
  491TMC3     O 7303   4.205   3.950  17.528 -0.1812  0.6101 -0.4901
  491TMC3     H 7304   4.214   3.717   0.137  0.3752  1.2623  0.9107
  491TMC3    H1 7305   3.969   3.881  17.519  0.1760 -0.4381 -0.1792
  491TMC3    H2 7306   3.790   3.675   0.143 -0.8017  1.5952 -1.3442
  491TMC3    C7 7307   3.753   3.759  17.594 -0.3844 -0.9866 -0.4134
  491TMC3    C8 7308   4.017   3.630   0.288  0.8154  0.8602  0.3069
  491TMC3    O1 7309   3.710   3.645  17.596  0.2556  0.3954  0.7800
  491TMC3    O2 7310   3.910   3.612   0.345  0.2221  0.0156  0.0850
  492MPD2     C 7311   3.953   3.759  11.028  0.3626  0.2383  0.1680
  492MPD2    C1 7312   4.065   3.798  11.095 -0.0159 -0.0508  0.4580
  492MPD2    C2 7313   4.096   3.747  11.221 -0.3155 -0.2299 -0.3324
  492MPD2    C3 7314   4.006   3.662  11.285 -0.4358 -0.5195  0.0156
  492MPD2    C4 7315   3.893   3.624  11.216 -1.0350 -0.7303 -0.3895
  492MPD2    C5 7316   3.867   3.671  11.087 -0.2112 -0.5740 -0.2907
  492MPD2     H 7317   4.185   3.774  11.278 -0.3134 -0.8361 -0.0467
  492MPD2    H1 7318   3.826   3.557  11.269  0.1096 -0.8962  0.8531
  492MPD2    H2 7319   3.934   3.793  10.927 -0.7953 -3.0302 -0.7218
  492MPD2    H3 7320   3.783   3.626  11.037 -0.0511  2.1404 -3.0484
  492MPD2     N 7321   4.019   3.605  11.411  0.8550 -0.1633 -0.7243
  492MPD2    H5 7322   3.948   3.542  11.447 -0.0604  1.6816  0.6686
  492MPD2    N1 7323   4.154   3.882  11.022 -0.1478 -0.2100 -0.6354
  492MPD2    H7 7324   4.111   3.919  10.938 -0.0910  1.2216 -0.0385
  493TMC3    C1 7325   4.351   3.998  10.939 -0.6713 -0.3643 -0.4786
  493TMC3    C2 7326   4.492   4.008  10.940 -0.2746  0.0584  0.2485
  493TMC3    C3 7327   4.548   4.088  10.843 -0.2139 -0.0198  0.3349
  493TMC3    C4 7328   4.271   4.074  10.862  0.4495  0.2492 -0.7987
  493TMC3    C5 7329   4.333   4.149  10.766 -0.1931  0.0981  0.3040
  493TMC3    C6 7330   4.472   4.159  10.757  0.9820  0.4330 -0.1166
  493TMC3     C 7331   4.287   3.921  11.049  0.7678  0.4828  0.4590
  493TMC3     O 7332   4.348   3.904  11.153  0.3301  0.6282 -0.2077
  493TMC3     H 7333   4.543   3.954  11.019  1.5067 -1.2824 -1.7756
  493TMC3    H1 7334   4.162   4.072  10.867  0.5156  1.5930  1.1410
  493TMC3    H2 7335   4.519   4.225  10.685  2.5486 -0.0767  0.4253
  493TMC3    C7 7336   4.250   4.208  10.663 -0.0194 -0.0354 -0.3867
  493TMC3    C8 7337   4.694   4.110  10.848 -0.6686 -0.2573  0.1985
  493TMC3    O1 7338   4.133   4.215  10.692 -0.3633  0.4821 -0.0739
  493TMC3    O2 7339   0.035   4.069  10.950 -0.7936  0.5403  0.7259
  494TMC3    C1 7340   0.476   1.058   0.683 -0.0544  0.3530  0.5124
  494TMC3    C2 7341   0.443   0.928   0.705 -0.6247  0.0872 -0.2671
  494TMC3    C3 7342   0.449   0.835   0.601  0.0213 -0.0177  0.5079
  494TMC3    C4 7343   0.491   1.110   0.560 -0.3968 -0.0124  0.2424
  494TMC3    C5 7344   0.480   1.019   0.457  0.1398  0.4938  0.0623
  494TMC3    C6 7345   0.460   0.881   0.473  0.5744  0.0246 -0.4577
  494TMC3     C 7346   0.451   1.154   0.782  0.2202 -0.1587 -0.4145
  494TMC3     O 7347   0.350   1.139   0.851 -0.0792 -0.0101  0.8350
  494TMC3     H 7348   0.431   0.909   0.811  0.5257  0.8584  0.0015
  494TMC3    H1 7349   0.510   1.215   0.542 -3.8904  0.4285 -0.8418
  494TMC3    H2 7350   0.443   0.827   0.381  1.7073  0.6471 -1.0312
  494TMC3    C7 7351   0.427   1.074   0.335  0.3014 -0.5706  0.1821
  494TMC3    C8 7352   0.390   0.703   0.627  0.5325 -0.1812  0.1229
  494TMC3    O1 7353   0.478   1.039   0.229 -0.3755  0.3122 -0.6828
  494TMC3    O2 7354   0.324   0.644   0.543 -0.1325 -0.3391 -0.2858
  495TMC3    C1 7355   3.875   2.914  14.742 -0.0629  0.1188  0.1918
  495TMC3    C2 7356   3.806   2.944  14.631 -0.3611 -0.8956 -0.6469
  495TMC3    C3 7357   3.704   3.037  14.641 -0.9851 -0.1312  0.2882
  495TMC3    C4 7358   3.834   2.954  14.867 -0.2663  0.4604  0.5998
  495TMC3    C5 7359   3.739   3.050  14.872 -0.1188 -0.1345 -0.1227
  495TMC3    C6 7360   3.664   3.086  14.765  0.3187 -0.9173 -0.4582
  495TMC3     C 7361   3.927   2.781  14.742  0.1372 -0.0893 -0.0181
  495TMC3     O 7362   3.866   2.709  14.668 -0.4687 -0.0974 -0.2218
  495TMC3     H 7363   3.836   2.907  14.534 -1.6132 -0.6266 -1.1385
  495TMC3    H1 7364   3.895   2.922  14.951 -2.4559  0.0737  2.0362
  495TMC3    H2 7365   3.585   3.160  14.767  1.4422  0.2713  0.0134
  495TMC3    C7 7366   3.685   3.069  15.012 -0.4361  0.3738 -0.7389
  495TMC3    C8 7367   3.593   3.014  14.545  0.1529  0.2148 -0.6952
  495TMC3    O1 7368   3.760   3.074  15.105  0.0815 -0.2202  0.2891
  495TMC3    O2 7369   3.486   3.048  14.589  0.4861  0.0326  0.1564
  496MPD2     C 7370   0.630   2.865  16.038  0.8919 -0.7204 -0.3231
  496MPD2    C1 7371   0.728   2.774  16.073 -0.1581  0.8944  0.4310
  496MPD2    C2 7372   0.800   2.790  16.191 -0.4514 -0.2453  0.1438
  496MPD2    C3 7373   0.774   2.895  16.279 -0.1401 -0.1556 -0.7454
  496MPD2    C4 7374   0.678   2.983  16.239 -0.0708  0.1577  0.1168
  496MPD2    C5 7375   0.608   2.968  16.121  0.1278 -0.0489  0.4154
  496MPD2     H 7376   0.875   2.716  16.218 -1.0676 -1.3421 -1.1396
  496MPD2    H1 7377   0.656   3.065  16.307 -0.4723  2.0449 -2.2854
  496MPD2    H2 7378   0.565   2.860  15.951  0.9389 -2.4466 -0.2637
  496MPD2    H3 7379   0.528   3.032  16.086 -1.7147 -1.3168  2.3055
  496MPD2     N 7380   0.818   2.911  16.412  0.1995 -0.2115  0.1913
  496MPD2    H5 7381   0.798   2.999  16.457  1.0789  0.5099 -0.8302
  496MPD2    N1 7382   0.756   2.665  15.980 -0.3471 -0.2515 -0.4577
  496MPD2    H7 7383   0.714   2.683  15.890 -1.0940  0.3495  0.0109
  497TMC3    C1 7384   0.945   2.891  16.608  0.5562 -0.5770  0.7754
  497TMC3    C2 7385   0.974   2.809  16.707 -0.5211  0.7352 -0.6362
  497TMC3    C3 7386   1.009   2.859  16.825  0.3847 -0.6923  0.2995
  497TMC3    C4 7387   0.954   3.025  16.615  0.4443 -0.2829 -0.2481
  497TMC3    C5 7388   0.981   3.076  16.738  0.5622  0.5680  1.1517
  497TMC3    C6 7389   1.015   2.992  16.839  0.0442 -0.5759  0.2929
  497TMC3     C 7390   0.901   2.825  16.486 -0.1560  0.4903 -0.3592
  497TMC3     O 7391   0.929   2.710  16.462  0.0306 -0.0032  0.5135
  497TMC3     H 7392   0.965   2.702  16.695 -0.1149  0.7956 -1.5150
  497TMC3    H1 7393   0.923   3.094  16.537  3.1501  0.7466 -0.4146
  497TMC3    H2 7394   1.019   3.030  16.940 -0.2014  2.0784 -0.6886
  497TMC3    C7 7395   1.023   3.216  16.757  0.7777  0.3283 -0.6321
  497TMC3    C8 7396   1.062   2.781  16.932 -0.1167 -0.5435 -0.4968
  497TMC3    O1 7397   1.032   3.258  16.875 -0.3214 -0.1449  0.0575
  497TMC3    O2 7398   1.077   2.835  17.042  0.0595  0.2480  0.0885
  498MPD2     C 7399   1.787   3.696   9.984  0.1083  0.1820 -0.1685
  498MPD2    C1 7400   1.856   3.611   9.903 -0.4604  0.1324 -0.1751
  498MPD2    C2 7401   1.857   3.477   9.947 -0.1737 -0.6885  0.7035
  498MPD2    C3 7402   1.803   3.431  10.064  0.2424 -0.0217 -0.3721
  498MPD2    C4 7403   1.751   3.522  10.152 -0.2079  0.0423 -0.4203
  498MPD2    C5 7404   1.739   3.647  10.103  0.7727  0.0608  0.5810
  498MPD2     H 7405   1.904   3.401   9.885 -0.2720 -0.3779  0.2577
  498MPD2    H1 7406   1.726   3.506  10.256  1.0304 -0.7055 -0.2410
  498MPD2    H2 7407   1.786   3.804   9.976 -1.2213  0.2972  1.5069
  498MPD2    H3 7408   1.699   3.726  10.165  0.9043  0.5962 -0.0139
  498MPD2     N 7409   1.795   3.291  10.091  0.3481 -0.6610 -0.1800
  498MPD2    H5 7410   1.801   3.224  10.016  0.5371  0.4587 -1.1564
  498MPD2    N1 7411   1.929   3.639   9.787  0.8284 -0.1383  1.0069
  498MPD2    H7 7412   1.992   3.568   9.751  3.1899  2.9088 -0.8710
  499TMC3    C1 7413   2.043   3.788   9.638  0.3469 -0.0133  0.0901
  499TMC3    C2 7414   2.110   3.678   9.589 -0.0844  0.2726  0.0405
  499TMC3    C3 7415   2.193   3.702   9.482 -0.9218 -0.0908 -0.1421
  499TMC3    C4 7416   2.059   3.913   9.584 -0.3162 -0.2355 -0.4121
  499TMC3    C5 7417   2.136   3.928   9.478  0.1465 -0.1885 -0.0526
  499TMC3    C6 7418   2.209   3.827   9.427  0.1714  0.0916  0.3730
  499TMC3     C 7419   1.928   3.763   9.726 -0.3114  0.1342 -0.0847
  499TMC3     O 7420   1.858   3.860   9.749  0.3174 -0.1809 -0.1728
  499TMC3     H 7421   2.096   3.579   9.631  0.3394 -0.0496 -0.5841
  499TMC3    H1 7422   2.022   4.001   9.635 -3.2523 -1.1823 -0.9248
  499TMC3    H2 7423   2.263   3.838   9.333 -2.1573  0.7382 -0.9014
  499TMC3    C7 7424   2.131   4.050   9.403  0.3809 -0.1787  0.1402
  499TMC3    C8 7425   2.312   3.617   9.483  0.4004 -0.0785  0.5185
  499TMC3    O1 7426   2.238   4.098   9.365 -0.0832  0.6557 -0.8068
  499TMC3    O2 7427   2.286   3.502   9.511  0.0962 -0.8417 -0.5479
  500MPD2     C 7428   3.535   0.401   9.878 -0.3700 -0.1810 -0.1475
  500MPD2    C1 7429   3.535   0.354  10.007  0.0641  0.2010  0.0338
  500MPD2    C2 7430   3.428   0.274  10.048 -0.0007  0.2408  0.0765
  500MPD2    C3 7431   3.322   0.246   9.961  0.2929  0.2797 -0.2114
  500MPD2    C4 7432   3.330   0.287   9.828  0.4257 -0.7444 -0.6278
  500MPD2    C5 7433   3.439   0.362   9.783  0.2122 -0.1361  0.1781
  500MPD2     H 7434   3.420   0.244  10.151  0.4289  0.7106  0.2448
  500MPD2    H1 7435   3.262   0.249   9.752 -1.9852  1.0092  0.6524
  500MPD2    H2 7436   3.619   0.455   9.836 -0.4059  1.1367  1.4859
  500MPD2    H3 7437   3.445   0.386   9.677 -2.5460 -1.3861 -0.2695
  500MPD2     N 7438   3.217   0.163  10.003 -0.5264 -0.5093  0.4657
  500MPD2    H5 7439   3.145   0.135   9.937  0.8525 -1.3339 -0.6699
  500MPD2    N1 7440   3.638   0.387  10.095 -0.3118  0.4499  0.1302
  500MPD2    H7 7441   3.644   0.329  10.178 -0.3756 -1.4290 -1.1786
  501TMC3    C1 7442   3.842   0.481  10.175  0.0523 -0.0898  0.3631
  501TMC3    C2 7443   3.945   0.559  10.127 -0.2052 -0.4170 -0.0019
  501TMC3    C3 7444   4.073   0.533  10.176 -0.1215 -0.2116  0.4310
  501TMC3    C4 7445   3.846   0.404  10.285  0.0061  0.1185  0.2533
  501TMC3    C5 7446   3.970   0.391  10.338  0.6778 -0.5101  0.6528
  501TMC3    C6 7447   4.078   0.457  10.287 -0.1669 -0.3377 -0.0792
  501TMC3     C 7448   3.730   0.490  10.087 -0.3248  0.5991 -0.0680
  501TMC3     O 7449   3.744   0.576  10.004  0.2576  0.0020  0.0642
  501TMC3     H 7450   3.936   0.636  10.051 -0.4582 -0.2561  0.1933
  501TMC3    H1 7451   3.758   0.346  10.310 -0.1216  0.1199 -0.1967
  501TMC3    H2 7452   4.177   0.434  10.325  0.7838 -0.2786 -2.5243
  501TMC3    C7 7453   3.995   0.318  10.459 -0.0187  0.1170 -0.9106
  501TMC3    C8 7454   4.180   0.631  10.169 -0.5379 -0.3042  0.2923
  501TMC3    O1 7455   4.110   0.320  10.492  0.4506 -0.1420 -0.1646
  501TMC3    O2 7456   4.291   0.608  10.223 -0.0619 -0.2504  0.0414
  502TMC3    C1 7457   3.108   3.775  15.193  0.1827  0.0063 -0.4653
  502TMC3    C2 7458   3.094   3.890  15.117 -0.5781  0.3500 -0.3854
  502TMC3    C3 7459   2.969   3.911  15.061  0.2760  0.1422 -0.0688
  502TMC3    C4 7460   3.016   3.676  15.192 -0.0506 -0.1006  0.0694
  502TMC3    C5 7461   2.899   3.701  15.132 -0.4255  0.3553 -0.5149
  502TMC3    C6 7462   2.869   3.818  15.077 -0.2258  0.3058 -0.4373
  502TMC3     C 7463   3.212   3.780  15.299 -0.0985  0.4063  0.1549
  502TMC3     O 7464   3.312   3.846  15.284 -0.6880  0.1847  0.3071
  502TMC3     H 7465   3.162   3.972  15.130  2.1225 -1.8355 -0.7621
  502TMC3    H1 7466   3.032   3.581  15.243 -1.0565 -0.1032  0.3792
  502TMC3    H2 7467   2.764   3.827  15.049 -0.9196 -0.4453  1.8827
  502TMC3    C7 7468   2.798   3.595  15.161  0.2106  0.9438  0.5466
  502TMC3    C8 7469   2.933   4.045  15.037  0.5536  0.2776 -0.0381
  502TMC3    O1 7470   2.838   3.480  15.173 -0.3569  0.4114  0.3749
  502TMC3    O2 7471   3.002   4.131  15.089  0.4223  0.1389  0.3654
  503MPD2     C 7472   0.179   0.037  17.076 -0.9005 -0.0082 -0.6312
  503MPD2    C1 7473   0.263   0.067  17.181  0.1755 -0.4038 -0.3833
  503MPD2    C2 7474   0.360   4.700  17.220 -0.8306  0.0872  0.3225
  503MPD2    C3 7475   0.389   4.584  17.147 -0.1380 -0.0781 -0.0761
  503MPD2    C4 7476   0.295   4.552  17.046 -0.2549  0.1233  0.7174
  503MPD2    C5 7477   0.196   4.643  17.008  0.0827 -0.2616  0.2103
  503MPD2     H 7478   0.429   0.011  17.296 -0.7311 -1.8574  1.0980
  503MPD2    H1 7479   0.294   4.451  17.005  0.1400  0.4704 -0.1636
  503MPD2    H2 7480   0.104   0.110  17.048  1.3797  2.5056 -0.2501
  503MPD2    H3 7481   0.128   4.613  16.929 -0.3487  1.3442 -0.0407
  503MPD2     N 7482   0.487   4.498  17.203 -0.2462  0.7237 -0.0132
  503MPD2    H5 7483   0.547   4.521  17.281 -0.3909  0.1398  0.2708
  503MPD2    N1 7484   0.248   0.176  17.278 -0.0777 -0.4764 -0.4250
  503MPD2    H7 7485   0.304   0.169  17.362 -0.0541  0.5250 -0.3609
  504TMC3    C1 7486   0.608   4.305  17.228  0.1812  0.0231 -0.2795
  504TMC3    C2 7487   0.598   4.316  17.361 -0.2953 -0.2059  0.2429
  504TMC3    C3 7488   0.703   4.274  17.438  0.1246  0.0316 -0.6099
  504TMC3    C4 7489   0.727   4.272  17.170  0.4429 -0.2504  0.6476
  504TMC3    C5 7490   0.829   4.240  17.248  0.8010 -0.3490 -0.2940
  504TMC3    C6 7491   0.821   4.232  17.386 -0.0266  0.1019  0.7673
  504TMC3     C 7492   0.518   4.386  17.149 -0.9505  0.9295 -0.9099
  504TMC3     O 7493   0.497   4.349  17.032  0.1407 -0.0407 -0.6107
  504TMC3     H 7494   0.508   4.357  17.407 -1.1503 -1.3427 -0.4323
  504TMC3    H1 7495   0.738   4.277  17.062  0.4907  1.2592  0.7239
  504TMC3    H2 7496   0.908   4.193  17.438  1.0876  0.6738 -0.6778
  504TMC3    C7 7497   0.946   4.208  17.169  1.1479  0.4241  0.3898
  504TMC3    C8 7498   0.695   4.321  17.578  0.5932  0.0927 -0.4289
  504TMC3    O1 7499   0.927   4.167  17.055 -0.2724  0.3712  0.2927
  504TMC3    O2 7500   0.635   4.428  17.592 -0.5665 -0.4161  0.2650
  505MPD2     C 7501   1.376   2.038   9.792 -0.1080  0.2036  0.1246
  505MPD2    C1 7502   1.436   1.997   9.914  0.0697  0.6506  0.0555
  505MPD2    C2 7503   1.364   2.007  10.035 -0.0779 -0.1644  0.0784
  505MPD2    C3 7504   1.232   2.053  10.037  0.3613 -0.0357  0.0814
  505MPD2    C4 7505   1.180   2.096   9.916 -0.0217 -0.5236 -0.9831
  505MPD2    C5 7506   1.253   2.092   9.800  0.7803 -0.3012  0.3611
  505MPD2     H 7507   1.406   1.984  10.132 -0.8766  1.3555  0.7799
  505MPD2    H1 7508   1.080   2.138   9.913  0.6210  1.0624 -0.3856
  505MPD2    H2 7509   1.416   2.004   9.697  1.9937  0.2425  1.0001
  505MPD2    H3 7510   1.211   2.120   9.704 -0.2686  2.1223  1.5064
  505MPD2     N 7511   1.167   2.060  10.165 -0.2998 -0.3153  0.3588
  505MPD2    H5 7512   1.216   2.029  10.248 -1.5631  0.7227  1.4922
  505MPD2    N1 7513   1.567   1.961   9.917 -0.1637  0.5697  0.0672
  505MPD2    H7 7514   1.620   1.987   9.835 -2.1679 -0.9308 -1.7132
  506TMC3    C1 7515   1.778   1.895  10.009 -0.3305  0.5243  0.2460
  506TMC3    C2 7516   1.835   2.019   9.989  0.3092  0.4159  0.1224
  506TMC3    C3 7517   1.956   2.049  10.056 -0.6186  0.2808  0.2925
  506TMC3    C4 7518   1.831   1.810  10.091 -0.2751 -0.1378 -0.2513
  506TMC3    C5 7519   1.933   1.853  10.178 -0.5120  0.5803  0.0521
  506TMC3    C6 7520   1.997   1.977  10.165 -0.1085 -0.1397  0.0798
  506TMC3     C 7521   1.630   1.887  10.019  0.2007 -0.4941 -0.3577
  506TMC3     O 7522   1.587   1.838  10.126 -0.3571 -0.1970 -0.0116
  506TMC3     H 7523   1.782   2.093   9.932 -2.9822 -1.8259  0.2761
  506TMC3    H1 7524   1.788   1.711  10.099  0.9077 -0.6358  0.0901
  506TMC3    H2 7525   2.075   1.993  10.238 -0.0522 -0.5962  0.1201
  506TMC3    C7 7526   1.902   1.816  10.317  0.5945 -1.1218  0.2486
  506TMC3    C8 7527   1.999   2.183  10.036 -0.5344 -0.2524 -1.1926
  506TMC3    O1 7528   1.999   1.811  10.391  0.0603 -0.3316 -0.2043
  506TMC3    O2 7529   2.067   2.246  10.119 -0.2536 -0.7543  0.0543
  507TMC3    C1 7530   1.667   4.101  14.837  0.1269 -0.3363  0.5728
  507TMC3    C2 7531   1.645   3.987  14.768  0.9689  0.1268  0.2634
  507TMC3    C3 7532   1.684   3.985  14.637  0.9663 -0.2030  0.3621
  507TMC3    C4 7533   1.751   4.193  14.784 -0.6178 -0.3688  0.0140
  507TMC3    C5 7534   1.801   4.186  14.653 -0.2739  0.7908 -0.1411
  507TMC3    C6 7535   1.763   4.080  14.581 -1.1343  0.3279 -0.3286
  507TMC3     C 7536   1.663   4.084  14.979  0.4812 -0.3719  0.2663
  507TMC3     O 7537   1.742   4.153  15.047  0.1684 -0.1335  0.3113
  507TMC3     H 7538   1.597   3.900  14.813  0.3436  0.8355  0.9749
  507TMC3    H1 7539   1.764   4.280  14.846 -2.5499  0.5111 -0.8312
  507TMC3    H2 7540   1.786   4.059  14.478 -2.3131 -0.9282 -0.3504
  507TMC3    C7 7541   1.773   4.300  14.571  0.6250 -0.1743  0.4487
  507TMC3    C8 7542   1.582   3.953  14.541 -0.0312 -0.9252 -0.1335
  507TMC3    O1 7543   1.724   4.273  14.461  0.1397 -0.0132 -0.4842
  507TMC3    O2 7544   1.515   3.855  14.566  0.1222  0.1711 -0.6620
  508MPD2     C 7545   2.092   1.409  15.877  0.0975  0.0184  0.3123
  508MPD2    C1 7546   2.137   1.540  15.904 -0.6700  0.3752 -0.3385
  508MPD2    C2 7547   2.105   1.650  15.826 -0.3631  0.0885 -0.0175
  508MPD2    C3 7548   2.045   1.625  15.701 -0.4010  0.5649  0.3367
  508MPD2    C4 7549   2.008   1.492  15.667 -0.3105 -0.4052 -0.2557
  508MPD2    C5 7550   2.039   1.390  15.753  0.1440 -0.1841  0.4783
  508MPD2     H 7551   2.142   1.750  15.845  1.8918 -0.7338 -0.0632
  508MPD2    H1 7552   1.963   1.466  15.572  0.2294 -2.3545  0.0145
  508MPD2    H2 7553   2.110   1.326  15.945 -1.6066 -0.5544  0.0716
  508MPD2    H3 7554   2.027   1.285  15.729 -2.0084  0.7501 -2.6132
  508MPD2     N 7555   2.036   1.731  15.613  0.3359 -0.0165  1.0692
  508MPD2    H5 7556   2.087   1.816  15.636  0.8050 -0.5788  2.1155
  508MPD2    N1 7557   2.204   1.568  16.024  0.1105  0.0016  0.1309
  508MPD2    H7 7558   2.248   1.496  16.080  0.4252  0.4081  0.4074
  509TMC3    C1 7559   1.992   2.004  15.260 -0.3179 -0.7046 -0.2565
  509TMC3    C2 7560   2.103   2.065  15.291  0.5983 -0.0032 -0.2181
  509TMC3    C3 7561   2.188   2.007  15.388 -0.7742 -0.5535  0.1731
  509TMC3    C4 7562   1.959   1.883  15.313  0.0234  0.3171  0.4471
  509TMC3    C5 7563   2.041   1.831  15.406 -0.6785 -0.0342  0.3593
  509TMC3    C6 7564   2.164   1.886  15.437  0.3072  0.5208 -0.3987
  509TMC3     C 7565   1.881   2.088  15.217 -1.7299  0.4409  0.5975
  509TMC3     O 7566   1.769   2.043  15.219  0.0786 -0.2805 -0.2853
  509TMC3     H 7567   2.138   2.156  15.244  0.8348 -0.0707 -0.1755
  509TMC3    H1 7568   1.861   1.843  15.291  0.4113  1.2444 -3.0403
  509TMC3    H2 7569   2.234   1.844  15.508  0.4225 -0.0338 -0.8358
  509TMC3    C7 7570   1.979   1.731  15.486  0.1799 -0.3852 -0.0279
  509TMC3    C8 7571   2.325   2.059  15.405 -0.3342 -0.3523  0.1815
  509TMC3    O1 7572   1.926   1.636  15.427  0.0703 -0.0141 -0.3869
  509TMC3    O2 7573   2.418   1.978  15.407 -0.3274  0.7029  0.0016
  510MPD2     C 7574   0.162   3.378  15.048  0.3631  0.6540 -0.1696
  510MPD2    C1 7575   0.232   3.286  15.126  0.6906 -0.6291  0.2541
  510MPD2    C2 7576   0.362   3.260  15.098  0.0872  0.4120  0.5653
  510MPD2    C3 7577   0.438   3.330  15.012  0.1936 -0.7987  0.6387
  510MPD2    C4 7578   0.378   3.444  14.957 -0.8875 -0.4239 -0.2834
  510MPD2    C5 7579   0.240   3.457  14.969 -0.3357  0.7295  0.0815
  510MPD2     H 7580   0.421   3.186  15.149  1.0779  0.8860  0.0958
  510MPD2    H1 7581   0.431   3.526  14.909  0.6542 -0.1023  1.9493
  510MPD2    H2 7582   0.061   3.402  15.080  0.3043 -0.0817  0.1959
  510MPD2    H3 7583   0.189   3.538  14.917  0.2130  1.0362  0.0261
  510MPD2     N 7584   0.574   3.302  14.995  0.1718 -0.1715 -0.4185
  510MPD2    H5 7585   0.613   3.228  15.053  0.5627 -1.1545 -1.9365
  510MPD2    N1 7586   0.165   3.218  15.233  0.9749 -0.2958 -0.1398
  510MPD2    H7 7587   0.066   3.233  15.248  1.0190  0.8995 -1.0167
  511TMC3    C1 7588   0.127   3.064  15.404  0.5841 -0.4114 -0.2809
  511TMC3    C2 7589   0.008   3.111  15.438  0.6118  0.6116  0.6978
  511TMC3    C3 7590   4.639   3.027  15.502  0.7477  0.9363  0.1972
  511TMC3    C4 7591   0.148   2.930  15.415 -0.0072 -0.3978 -1.0937
  511TMC3    C5 7592   0.054   2.851  15.471 -0.2656  0.0914 -0.4882
  511TMC3    C6 7593   4.653   2.891  15.511 -0.2458 -0.4248 -0.1786
  511TMC3     C 7594   0.229   3.136  15.322  0.2437  0.4571  0.3235
  511TMC3     O 7595   0.348   3.106  15.335 -0.1575 -0.2130 -0.2623
  511TMC3     H 7596   4.708   3.217  15.436 -1.1984  0.2307  1.3189
  511TMC3    H1 7597   0.245   2.895  15.382 -0.0544 -1.3589 -0.2009
  511TMC3    H2 7598   4.585   2.824  15.561 -1.4090 -0.3746 -1.6770
  511TMC3    C7 7599   0.091   2.713  15.496 -0.2152 -1.0737  0.3544
  511TMC3    C8 7600   4.529   3.086  15.579  0.4607  0.1070 -0.1203
  511TMC3    O1 7601   0.201   2.694  15.547 -0.0003 -0.4613  0.1356
  511TMC3    O2 7602   4.537   3.202  15.611  0.3327  0.5191  0.5327
  512TMC3    C1 7603   4.011   2.814  13.184 -0.1695 -0.4232 -0.2244
  512TMC3    C2 7604   4.028   2.751  13.306 -0.6151  0.0802 -1.1608
  512TMC3    C3 7605   4.074   2.626  13.315  0.0481 -0.5375 -0.2836
  512TMC3    C4 7606   4.038   2.754  13.070  0.1345  0.7796 -0.3492
  512TMC3    C5 7607   4.086   2.625  13.082  0.9766 -0.3065  0.0420
  512TMC3    C6 7608   4.108   2.562  13.201 -0.6956 -0.2068 -0.1253
  512TMC3     C 7609   3.932   2.931  13.176  0.0296  1.1127 -0.1443
  512TMC3     O 7610   3.849   2.946  13.266  0.2322  0.3772  0.1334
  512TMC3     H 7611   3.981   2.797  13.392  2.0259  0.6970 -0.0586
  512TMC3    H1 7612   3.994   2.786  12.977  0.0314  0.3712 -0.4384
  512TMC3    H2 7613   4.151   2.462  13.208 -0.6359 -0.2567 -1.2458
  512TMC3    C7 7614   4.123   2.554  12.957 -0.1693  0.6776 -0.3899
  512TMC3    C8 7615   4.105   2.573  13.446 -0.5149 -0.1633 -0.3982
  512TMC3    O1 7616   4.150   2.624  12.856 -0.2708 -0.0115 -0.3952
  512TMC3    O2 7617   4.141   2.458  13.445 -0.0221 -0.2615 -0.2388
  513MPD2     C 7618   0.947   2.347  13.423  0.1090 -0.7873 -0.1750
  513MPD2    C1 7619   1.046   2.420  13.374  0.2967  0.3227  0.1683
  513MPD2    C2 7620   1.101   2.521  13.457 -0.2263  0.3959  0.8975
  513MPD2    C3 7621   1.052   2.551  13.580 -0.1705 -0.6675  0.0207
  513MPD2    C4 7622   0.950   2.481  13.634  0.1957 -0.2301 -0.5537
  513MPD2    C5 7623   0.908   2.375  13.559  0.5143  0.0633  0.7882
  513MPD2     H 7624   1.169   2.592  13.411 -0.6805  1.2400  1.5306
  513MPD2    H1 7625   0.905   2.512  13.728 -2.3635 -2.1345 -1.1539
  513MPD2    H2 7626   0.905   2.263  13.368  0.6152 -0.2441 -1.3896
  513MPD2    H3 7627   0.820   2.320  13.592 -0.1657  0.3421 -0.5861
  513MPD2     N 7628   1.116   2.665  13.633 -0.3803 -0.5176  0.1468
  513MPD2    H5 7629   1.184   2.706  13.569 -0.5233 -1.8025 -0.8242
  513MPD2    N1 7630   1.080   2.409  13.238 -0.2266  0.8793 -0.0691
  513MPD2    H7 7631   1.027   2.352  13.174  2.1756 -0.7020 -0.6736
  514TMC3    C1 7632   1.222   2.429  13.048  0.6178 -0.1365 -0.6065
  514TMC3    C2 7633   1.127   2.477  12.964 -0.1399  0.2392  0.2767
  514TMC3    C3 7634   1.170   2.528  12.842 -0.6837  0.5079  0.0971
  514TMC3    C4 7635   1.352   2.448  13.019  0.3031 -0.3505  0.1385
  514TMC3    C5 7636   1.395   2.520  12.904 -0.6503  0.3511  0.4865
  514TMC3    C6 7637   1.299   2.556  12.814  0.0370  0.8250 -0.3442
  514TMC3     C 7638   1.195   2.457  13.188  0.6722 -0.1030  1.1296
  514TMC3     O 7639   1.287   2.522  13.233 -0.0924 -0.0672 -0.4135
  514TMC3     H 7640   1.022   2.460  12.986 -0.5278 -0.2282 -1.9415
  514TMC3    H1 7641   1.430   2.417  13.087  1.1245 -0.1476 -0.7024
  514TMC3    H2 7642   1.323   2.597  12.717  1.6709 -0.1797 -0.3744
  514TMC3    C7 7643   1.499   2.622  12.925 -0.4350 -0.6305 -0.2970
  514TMC3    C8 7644   1.069   2.602  12.775 -0.3408  0.3553  0.0327
  514TMC3    O1 7645   1.551   2.678  12.832  0.0861  0.2277  0.4582
  514TMC3    O2 7646   0.972   2.654  12.838  0.3921  0.3351  0.0799
  515MPD2     C 7647   3.958   4.349  14.830  0.6180  0.0332  0.4953
  515MPD2    C1 7648   3.837   4.360  14.905 -0.5881  0.0354  0.2145
  515MPD2    C2 7649   3.841   4.367  15.039 -0.2757  0.0146 -0.3071
  515MPD2    C3 7650   3.966   4.360  15.109  0.2920 -0.4986 -0.0356
  515MPD2    C4 7651   4.084   4.362  15.042 -0.2287  0.4553 -0.2172
  515MPD2    C5 7652   4.077   4.353  14.908 -0.4948  0.0290  0.1308
  515MPD2     H 7653   3.748   4.361  15.094 -0.4232 -2.2807 -0.7892
  515MPD2    H1 7654   4.178   4.368  15.097  0.8975  0.4933 -2.1426
  515MPD2    H2 7655   3.961   4.340  14.722  1.2519  1.2725  0.4164
  515MPD2    H3 7656   4.164   4.349  14.844 -1.0439  2.5059 -0.7969
  515MPD2     N 7657   3.980   4.375  15.252  0.2485 -0.1834 -0.2417
  515MPD2    H5 7658   4.072   4.374  15.293  0.2225  0.6648 -0.1554
  515MPD2    N1 7659   3.715   4.374  14.837  0.2094  0.3473  0.0814
  515MPD2    H7 7660   3.635   4.374  14.901  1.1786 -2.2003  1.2873
  516TMC3    C1 7661   3.562   4.338  14.666 -0.1017  0.5554 -0.0167
  516TMC3    C2 7662   3.515   4.379  14.545  0.6878  0.0426  0.6232
  516TMC3    C3 7663   3.410   4.306  14.492  0.4345  0.3789 -0.2749
  516TMC3    C4 7664   3.505   4.236  14.739 -0.2745 -0.2043  0.3459
  516TMC3    C5 7665   3.405   4.167  14.681  0.9025 -0.0655  0.0176
  516TMC3    C6 7666   3.350   4.201  14.562 -0.5958  0.0798 -0.0947
  516TMC3     C 7667   3.693   4.384  14.702 -0.5938  0.1919 -0.6119
  516TMC3     O 7668   3.770   4.378  14.606 -0.5259  0.2515 -0.9297
  516TMC3     H 7669   3.581   4.447  14.491  0.5719 -0.3252  0.0172
  516TMC3    H1 7670   3.532   4.205  14.840  0.6046  1.6778  0.6848
  516TMC3    H2 7671   3.290   4.124  14.516 -1.1292  0.3252  0.1877
  516TMC3    C7 7672   3.372   4.045  14.745 -0.0290 -0.5622 -0.2285
  516TMC3    C8 7673   3.387   4.302  14.344  0.3780  0.0183 -0.4339
  516TMC3    O1 7674   3.455   3.992  14.820  0.1886  0.6243  0.3929
  516TMC3    O2 7675   3.341   4.198  14.301  0.2096  0.2675  0.1760
  517MPD2     C 7676   3.251   1.149  17.566 -0.1610  0.2676 -0.0825
  517MPD2    C1 7677   3.385   1.139  17.597  0.3952  0.3924 -0.2235
  517MPD2    C2 7678   3.430   1.179   0.025 -0.7167  0.3008  0.2173
  517MPD2    C3 7679   3.343   1.240   0.121  0.0667  0.9398  0.5735
  517MPD2    C4 7680   3.215   1.258   0.086 -0.0212 -0.4103  0.2648
  517MPD2    C5 7681   3.174   1.222  17.656 -0.1562  0.1425 -0.5133
  517MPD2     H 7682   3.536   1.177   0.046 -0.0407 -0.3610 -3.2183
  517MPD2    H1 7683   3.147   1.300   0.159 -0.3695 -0.6333  0.0679
  517MPD2    H2 7684   3.207   1.117  17.472  0.5681  0.6864 -0.5686
  517MPD2    H3 7685   3.068   1.236  17.638 -0.1102  0.9155 -0.1769
  517MPD2     N 7686   3.376   1.274   0.250 -0.0674  0.1689 -0.0463
  517MPD2    H5 7687   3.300   1.316   0.301 -0.9331  0.3008 -1.4486
  517MPD2    N1 7688   3.469   1.060  17.514 -0.4454 -0.1981  0.0813
  517MPD2    H7 7689   3.567   1.063  17.541 -0.8443  0.6969  1.4187
  518TMC3    C1 7690   3.525   0.890  17.378 -0.4179 -0.0575  0.5557
  518TMC3    C2 7691   3.486   0.768  17.323 -0.4975 -0.2531  0.4123
  518TMC3    C3 7692   3.582   0.681  17.287 -0.0896 -0.4363 -0.8287
  518TMC3    C4 7693   3.656   0.920  17.400 -0.0601 -0.0809 -0.1067
  518TMC3    C5 7694   3.748   0.826  17.358 -0.4132 -0.6904  0.1331
  518TMC3    C6 7695   3.712   0.706  17.308  0.9373 -0.2230  0.4656
  518TMC3     C 7696   3.424   0.978  17.422  0.2129  0.4644  0.8260
  518TMC3     O 7697   3.311   0.934  17.406 -0.2806 -0.4706  0.6381
  518TMC3     H 7698   3.380   0.750  17.311 -0.2251 -1.2103 -0.5241
  518TMC3    H1 7699   3.693   1.017  17.428 -1.4184  0.5288 -0.3963
  518TMC3    H2 7700   3.781   0.631  17.272  1.7725  1.4798 -1.4664
  518TMC3    C7 7701   3.880   0.856  17.400 -0.6069 -0.4550 -0.1546
  518TMC3    C8 7702   3.547   0.543  17.263 -0.5613  0.0197 -0.2089
  518TMC3    O1 7703   3.915   0.969  17.433  0.0800 -0.6116 -0.1343
  518TMC3    O2 7704   3.634   0.457  17.279  0.6400 -0.2708  0.3467
  519MPD2     C 7705   0.569   4.546  14.403  0.1529 -0.4132  0.0518
  519MPD2    C1 7706   0.497   4.583  14.286  0.1711 -0.1396  0.1105
  519MPD2    C2 7707   0.552   4.544  14.163  0.5075 -0.0947  0.4669
  519MPD2    C3 7708   0.659   4.459  14.156 -0.0431  0.0046  0.3078
  519MPD2    C4 7709   0.739   4.448  14.277  0.4241  0.6911  0.2882
  519MPD2    C5 7710   0.697   4.498  14.392  0.1750 -0.2907  0.0989
  519MPD2     H 7711   0.505   4.580  14.073 -0.2504 -1.2531  0.4053
  519MPD2    H1 7712   0.835   4.397  14.282  0.1824  0.1498 -0.5705
  519MPD2    H2 7713   0.529   4.552  14.504  0.4040  1.5851  0.0245
  519MPD2    H3 7714   0.746   4.468  14.484  1.4330 -1.2650 -0.8999
  519MPD2     N 7715   0.694   4.386  14.041  1.0873  0.0792 -0.0868
  519MPD2    H5 7716   0.775   4.329  14.063  0.5104 -0.3352  0.9768
  519MPD2    N1 7717   0.372   4.649  14.306  0.3239 -0.4415  0.2456
  519MPD2    H7 7718   0.340   4.670  14.400 -0.4107 -0.0424 -0.0972
  520TMC3    C1 7719   0.640   4.247  13.846 -0.0446 -0.6145  0.5295
  520TMC3    C2 7720   0.535   4.220  13.762 -0.0459  0.1699  0.9132
  520TMC3    C3 7721   0.538   4.101  13.691  0.5493  0.5326  0.3416
  520TMC3    C4 7722   0.738   4.167  13.882  0.2279 -0.3117  0.5242
  520TMC3    C5 7723   0.735   4.045  13.823 -1.2198  0.0413  0.6580
  520TMC3    C6 7724   0.636   4.005  13.732 -0.5209  0.4734  0.4407
  520TMC3     C 7725   0.612   4.369  13.932  0.9421 -0.0695 -0.0591
  520TMC3     O 7726   0.509   4.427  13.904 -0.6370 -0.7086 -0.1658
  520TMC3     H 7727   0.462   4.297  13.742  0.0629 -0.5309 -2.1336
  520TMC3    H1 7728   0.823   4.197  13.943  1.0364 -0.6251 -0.4529
  520TMC3    H2 7729   0.625   3.902  13.699 -0.5656  0.2749  1.0831
  520TMC3    C7 7730   0.842   3.955  13.857  0.9590 -0.0378 -0.1757
  520TMC3    C8 7731   0.433   4.057  13.602 -0.3716  0.1293 -0.7535
  520TMC3    O1 7732   0.806   3.843  13.890  0.0738  0.6360  0.1435
  520TMC3    O2 7733   0.462   3.968  13.523  0.0642  0.2856  0.3030
  521MPD2     C 7734   1.216   2.351  17.440  0.3391  0.1153  0.2297
  521MPD2    C1 7735   1.251   2.224  17.465 -0.3192 -0.2467  0.1038
  521MPD2    C2 7736   1.392   2.193  17.466 -0.2496 -0.4249  0.2964
  521MPD2    C3 7737   1.489   2.288  17.428 -0.1103  0.2968  0.2420
  521MPD2    C4 7738   1.442   2.415  17.395  0.1540 -0.6628 -0.3033
  521MPD2    C5 7739   1.317   2.445  17.419 -0.5278 -0.1321  0.4521
  521MPD2     H 7740   1.430   2.098  17.502  0.7840  0.2703  1.0208
  521MPD2    H1 7741   1.509   2.497  17.369 -1.3661  0.4346 -0.7144
  521MPD2    H2 7742   1.114   2.380  17.462 -0.1929 -1.7869  0.2667
  521MPD2    H3 7743   1.297   2.549  17.397 -2.6534 -1.0368 -1.8835
  521MPD2     N 7744   1.620   2.250  17.399 -0.0731  0.1058  0.3185
  521MPD2    H5 7745   1.642   2.162  17.444 -0.2277  0.6695  1.4692
  521MPD2    N1 7746   1.145   2.144  17.509  0.3244  0.6010  0.3951
  521MPD2    H7 7747   1.053   2.185  17.502 -0.1430 -0.5488 -0.0859
  522TMC3    C1 7748   1.803   2.229  17.262  0.3271 -0.3805 -1.0228
  522TMC3    C2 7749   1.912   2.281  17.196 -0.9636  0.4451  0.2915
  522TMC3    C3 7750   2.007   2.194  17.139 -0.0254 -0.0380 -0.3626
  522TMC3    C4 7751   1.768   2.100  17.239 -0.0863 -0.2752  0.0360
  522TMC3    C5 7752   1.854   2.019  17.172 -0.5110  0.3806 -0.2553
  522TMC3    C6 7753   1.975   2.062  17.131  0.5766 -0.6932 -0.6366
  522TMC3     C 7754   1.710   2.317  17.317  0.5257  0.4492 -0.3184
  522TMC3     O 7755   1.712   2.434  17.277  0.1898 -0.0741 -0.5272
  522TMC3     H 7756   1.928   2.387  17.183  2.1012 -0.0460  0.2195
  522TMC3    H1 7757   1.672   2.061  17.272  0.3712 -0.3162  1.2863
  522TMC3    H2 7758   2.043   1.995  17.080 -0.6527 -1.7214 -0.9448
  522TMC3    C7 7759   1.803   1.896  17.116  0.6317 -0.0802  0.5767
  522TMC3    C8 7760   2.069   2.257  17.021  0.2373 -0.3509  0.0766
  522TMC3    O1 7761   1.876   1.805  17.082 -1.0366  0.6533 -0.0257
  522TMC3    O2 7762   2.089   2.374  17.031  0.6351  0.4652  0.0803
  523MPD2     C 7763   4.666   2.217  10.421  0.4328 -0.3965 -0.2469
  523MPD2    C1 7764   4.565   2.154  10.351  0.1135  0.3619  0.5805
  523MPD2    C2 7765   4.484   2.226  10.270  0.0088 -0.2673 -0.2204
  523MPD2    C3 7766   4.499   2.360  10.249  0.5453  0.3251  0.7063
  523MPD2    C4 7767   4.609   2.417  10.311  0.5160  0.2300  0.2496
  523MPD2    C5 7768   4.688   2.348  10.400  0.0614 -0.3639 -0.6488
  523MPD2     H 7769   4.403   2.173  10.220 -0.1275 -1.8189  1.6294
  523MPD2    H1 7770   4.638   2.522  10.301 -1.3838  0.7163 -0.0564
  523MPD2    H2 7771   0.008   2.155  10.482 -1.2636  1.3239  3.3343
  523MPD2    H3 7772   0.046   2.387  10.460 -1.6261  1.0781  0.7254
  523MPD2     N 7773   4.411   2.435  10.173 -0.2751  0.3770 -0.0214
  523MPD2    H5 7774   4.440   2.531  10.157  2.3524  0.0923  3.0739
  523MPD2    N1 7775   4.546   2.018  10.381 -0.1455  0.6128  0.2085
  523MPD2    H7 7776   4.618   1.979  10.441 -1.2377 -0.4964  0.7869
  524TMC3    C1 7777   4.244   2.490  10.023  0.9472 -0.0020  0.1893
  524TMC3    C2 7778   4.337   2.549   9.944 -0.0911 -0.6264 -0.0042
  524TMC3    C3 7779   4.292   2.647   9.859  0.4132 -0.0007  0.0456
  524TMC3    C4 7780   4.114   2.531  10.043  0.2346 -0.5284 -0.4716
  524TMC3    C5 7781   4.084   2.633   9.969  0.2226  0.8927 -0.4125
  524TMC3    C6 7782   4.167   2.699   9.883  0.5264  1.2465 -0.1113
  524TMC3     C 7783   4.295   2.392  10.119  0.5372 -0.0241 -0.1856
  524TMC3     O 7784   4.224   2.298  10.145 -0.1468  0.4252 -0.1590
  524TMC3     H 7785   4.438   2.511   9.940 -0.5658 -2.0533  1.9719
  524TMC3    H1 7786   4.038   2.478  10.100 -0.2747  0.8138  0.1143
  524TMC3    H2 7787   4.132   2.767   9.805  2.6662  2.5460  0.0724
  524TMC3    C7 7788   3.949   2.681   9.976 -0.0650  0.1574  0.7335
  524TMC3    C8 7789   4.341   2.671   9.727 -0.0445 -0.7411 -0.2434
  524TMC3    O1 7790   3.860   2.612  10.028  0.4757 -0.4151 -0.5395
  524TMC3    O2 7791   4.298   2.763   9.660  0.2050  0.5189 -0.0393
  525MPD2     C 7792   1.795   3.790  14.291  1.0229 -0.1405  0.4440
  525MPD2    C1 7793   1.925   3.783  14.343 -0.2014 -0.7767  0.4119
  525MPD2    C2 7794   2.013   3.892  14.322 -0.1627 -0.0046  0.3365
  525MPD2    C3 7795   1.963   4.009  14.256 -0.0079 -0.0410 -0.3290
  525MPD2    C4 7796   1.838   4.013  14.199 -0.5284  0.1754 -0.7143
  525MPD2    C5 7797   1.759   3.901  14.217  0.4401 -0.4777  0.4179
  525MPD2     H 7798   2.106   3.902  14.377  1.1677 -4.0075 -1.1826
  525MPD2    H1 7799   1.808   4.098  14.139 -2.9601  0.5993  1.1204
  525MPD2    H2 7800   1.721   3.713  14.305  0.9409 -0.0060  0.7608
  525MPD2    H3 7801   1.661   3.892  14.173  2.9256  1.2271 -5.4715
  525MPD2     N 7802   2.034   4.134  14.246  0.2592  0.1909  0.5445
  525MPD2    H5 7803   1.984   4.215  14.212  0.5157  0.2510  0.3146
  525MPD2    N1 7804   1.965   3.680  14.439  0.5477 -0.2393 -0.1106
  525MPD2    H7 7805   2.061   3.685  14.471  0.2709 -0.2550  0.7242
  526TMC3    C1 7806   1.947   3.506  14.595 -0.6935 -0.4413  0.1097
  526TMC3    C2 7807   1.870   3.443  14.693 -0.6756 -0.4470 -0.4980
  526TMC3    C3 7808   1.932   3.387  14.798 -0.1400 -0.3029  0.2920
  526TMC3    C4 7809   2.082   3.487  14.592 -0.5560  0.9029  0.2038
  526TMC3    C5 7810   2.138   3.425  14.700  0.1457 -0.2293 -0.1967
  526TMC3    C6 7811   2.065   3.377  14.804  0.1434  0.0032 -0.4797
  526TMC3     C 7812   1.878   3.587  14.502  0.8114  0.0892  0.1597
  526TMC3     O 7813   1.755   3.575  14.498  0.0701 -0.0291 -0.1783
  526TMC3     H 7814   1.765   3.468  14.697 -0.7269 -0.7493 -0.0635
  526TMC3    H1 7815   2.150   3.508  14.509 -0.1324 -0.4813  0.1947
  526TMC3    H2 7816   2.114   3.315  14.878 -1.9677  0.3025  1.1789
  526TMC3    C7 7817   2.271   3.384  14.679 -0.8699 -0.1632 -0.0256
  526TMC3    C8 7818   1.859   3.339  14.915  0.5790 -0.8597  0.0136
  526TMC3    O1 7819   2.295   3.271  14.709 -0.4023 -0.3232  0.0184
  526TMC3    O2 7820   1.926   3.328  15.019  0.0483  0.1967 -0.2081
  527MPD2     C 7821   0.137   1.372   1.190  0.0211 -0.3746 -0.0218
  527MPD2    C1 7822   0.188   1.493   1.237 -0.4032  0.3132  0.0903
  527MPD2    C2 7823   0.322   1.500   1.251 -0.1907  0.2844 -0.1773
  527MPD2    C3 7824   0.407   1.392   1.217 -0.9489  0.2425 -0.1254
  527MPD2    C4 7825   0.359   1.277   1.161  0.8405  0.0542 -0.9343
  527MPD2    C5 7826   0.222   1.273   1.157 -1.1534  0.4859 -0.2968
  527MPD2     H 7827   0.352   1.589   1.305  0.9849  0.4730 -1.1634
  527MPD2    H1 7828   0.417   1.191   1.130  1.8701  0.1275  0.8224
  527MPD2    H2 7829   0.031   1.359   1.173 -0.1401  0.4444  0.3225
  527MPD2    H3 7830   0.178   1.181   1.121  1.0444 -0.7197  0.0923
  527MPD2     N 7831   0.541   1.408   1.233 -0.3406 -0.8203 -0.0602
  527MPD2    H5 7832   0.575   1.503   1.249  1.1925 -1.7732  2.4032
  527MPD2    N1 7833   0.107   1.601   1.274  0.2245 -0.0302  0.1373
  527MPD2    H7 7834   0.156   1.678   1.317 -1.9521  0.8110  1.1320
  528TMC3    C1 7835   4.654   1.698   1.386 -0.2258  0.5633  1.2576
  528TMC3    C2 7836   4.722   1.734   1.497 -0.3377  0.5357 -0.4952
  528TMC3    C3 7837   4.648   1.775   1.603 -0.0454 -0.2421  0.1871
  528TMC3    C4 7838   4.517   1.708   1.380 -0.7819 -0.3256  0.9339
  528TMC3    C5 7839   4.444   1.744   1.488 -0.7972  0.4260 -0.6239
  528TMC3    C6 7840   4.509   1.771   1.604  0.2367  0.2458  0.0084
  528TMC3     C 7841   4.697   1.599   1.290  0.1141 -0.4805  0.3025
  528TMC3     O 7842   4.610   1.527   1.248 -0.0658  0.9116  0.0232
  528TMC3     H 7843   0.107   1.730   1.491 -0.3219 -0.4536  0.5078
  528TMC3    H1 7844   4.462   1.685   1.290 -0.8857  0.9372  0.6851
  528TMC3    H2 7845   4.445   1.805   1.685  0.9573  2.4561 -0.3621
  528TMC3    C7 7846   4.329   1.668   1.518  0.1159 -0.2303  0.0476
  528TMC3    C8 7847   0.003   1.835   1.714 -0.6664 -0.2546  0.5700
  528TMC3    O1 7848   4.313   1.632   1.633 -0.5598 -0.0388 -0.4387
  528TMC3    O2 7849   0.126   1.849   1.696 -0.1544 -0.0024  0.3418
  529MPD2     C 7850   2.422   4.651   1.553  0.8283 -0.0502 -0.3511
  529MPD2    C1 7851   2.519   4.566   1.502  0.0081  0.4515  0.3553
  529MPD2    C2 7852   2.557   4.582   1.370  0.2993  0.3013 -0.4973
  529MPD2    C3 7853   2.491   4.671   1.281  0.1988  0.8097  0.0182
  529MPD2    C4 7854   2.395   0.035   1.339 -0.4682  0.2183  0.1740
  529MPD2    C5 7855   2.368   0.025   1.470 -0.1187  0.3984 -0.0977
  529MPD2     H 7856   2.638   4.525   1.326  0.0887 -1.4817  1.4610
  529MPD2    H1 7857   2.343   0.110   1.280  1.0294  0.0168 -1.4174
  529MPD2    H2 7858   2.384   4.653   1.654  0.0215 -0.2082 -0.6510
  529MPD2    H3 7859   2.293   0.089   1.516 -0.5837  2.3032 -3.4586
  529MPD2     N 7860   2.527   4.681   1.145 -0.2523  0.4113  0.3059
  529MPD2    H5 7861   2.466   0.016   1.088 -0.9108  1.0052  1.6143
  529MPD2    N1 7862   2.555   4.441   1.561 -0.3169 -0.3011 -0.0178
  529MPD2    H7 7863   2.609   4.378   1.502 -0.6577 -1.2551  0.6769
  530TMC3    C1 7864   2.584   4.295   1.742 -0.1757  0.0842  0.2588
  530TMC3    C2 7865   2.620   4.291   1.877 -0.0196  0.0189  0.5351
  530TMC3    C3 7866   2.652   4.167   1.931 -0.5199  0.0355 -0.4100
  530TMC3    C4 7867   2.582   4.186   1.661 -0.0577  0.0830  0.2158
  530TMC3    C5 7868   2.604   4.063   1.720  1.5315  0.3787 -0.6576
  530TMC3    C6 7869   2.638   4.053   1.849 -0.0110  0.4933 -0.1614
  530TMC3     C 7870   2.542   4.428   1.699 -0.6082 -0.0412  0.6656
  530TMC3     O 7871   2.502   4.506   1.785  0.6883  0.4868 -0.1155
  530TMC3     H 7872   2.613   4.383   1.934  0.9399  1.4747 -1.6989
  530TMC3    H1 7873   2.529   4.193   1.566 -1.4487 -0.9814  0.9293
  530TMC3    H2 7874   2.667   3.963   1.901  2.7282  1.4555 -0.0313
  530TMC3    C7 7875   2.633   3.939   1.652  0.2863 -0.1368 -0.1758
  530TMC3    C8 7876   2.702   4.156   2.067 -0.8586  0.5310 -0.2589
  530TMC3    O1 7877   2.618   3.836   1.719  0.1127 -0.0448  0.0151
  530TMC3    O2 7878   2.643   4.219   2.157  0.2514  0.0333  0.4198
  531MPD2     C 7879   1.606   3.015  13.243  0.1450  0.9632  0.0839
  531MPD2    C1 7880   1.521   2.923  13.307 -0.1327  0.3210  0.2107
  531MPD2    C2 7881   1.481   2.810  13.241  0.3464 -0.1601 -0.1017
  531MPD2    C3 7882   1.527   2.779  13.118 -0.6714  0.1844 -0.3830
  531MPD2    C4 7883   1.607   2.868  13.054 -0.4732  0.5086 -0.1939
  531MPD2    C5 7884   1.640   2.986  13.118 -0.0500  0.3486  0.0290
  531MPD2     H 7885   1.414   2.739  13.286  1.8918 -2.4719 -1.4528
  531MPD2    H1 7886   1.648   2.860  12.954 -0.2535 -0.1845 -0.0470
  531MPD2    H2 7887   1.648   3.105  13.285 -0.6829  1.5221 -0.2963
  531MPD2    H3 7888   1.707   3.053  13.066 -1.1569  1.9196  0.6398
  531MPD2     N 7889   1.478   2.667  13.051  0.1840 -0.5527  0.9731
  531MPD2    H5 7890   1.415   2.608  13.104 -1.1301  1.3132  1.4804
  531MPD2    N1 7891   1.483   2.949  13.439  0.0652 -0.5979  0.2569
  531MPD2    H7 7892   1.516   3.037  13.478  0.1629 -0.6234  0.2314
  532TMC3    C1 7893   1.355   2.916  13.643 -0.1543 -0.1999  0.1569
  532TMC3    C2 7894   1.226   2.902  13.675  0.0229  0.5724  0.1685
  532TMC3    C3 7895   1.185   2.836  13.781 -0.4464 -0.2296  0.5383
  532TMC3    C4 7896   1.453   2.880  13.732 -0.0140 -0.7019  0.2163
  532TMC3    C5 7897   1.410   2.820  13.851 -0.5637  0.1452 -0.1388
  532TMC3    C6 7898   1.276   2.789  13.871  0.2732 -0.3112 -0.1428
  532TMC3     C 7899   1.379   2.881  13.504 -0.2110 -0.3947 -1.0606
  532TMC3     O 7900   1.299   2.794  13.468 -0.1684  0.1845  0.3533
  532TMC3     H 7901   1.154   2.916  13.594  0.6908 -0.0721 -0.5401
  532TMC3    H1 7902   1.558   2.901  13.716  0.1208  0.3369  2.4473
  532TMC3    H2 7903   1.253   2.735  13.962 -1.9861 -1.7233 -1.5547
  532TMC3    C7 7904   1.503   2.792  13.951  0.7801 -0.0974 -0.5612
  532TMC3    C8 7905   1.092   2.730  13.752 -0.0029  0.0735  0.4321
  532TMC3    O1 7906   1.479   2.813  14.066 -0.0082  0.6686 -0.4155
  532TMC3    O2 7907   1.018   2.689  13.841 -0.1347 -0.0506 -0.3629
  533TMC3    C1 7908   2.182   4.299  14.315  0.0543  0.3991  0.1152
  533TMC3    C2 7909   2.312   4.335  14.311  0.2230  0.6769  0.5595
  533TMC3    C3 7910   2.354   4.433  14.389 -0.1289  0.3939 -0.1913
  533TMC3    C4 7911   2.106   4.336  14.422  0.5238 -0.1303 -0.1570
  533TMC3    C5 7912   2.161   4.416  14.520 -0.4816  0.0083 -0.0927
  533TMC3    C6 7913   2.282   4.470  14.497  0.3651 -0.5632 -0.0253
  533TMC3     C 7914   2.160   4.159  14.283  0.4650 -0.0606 -0.3819
  533TMC3     O 7915   2.249   4.076  14.305 -0.1058  0.2612 -0.8713
  533TMC3     H 7916   2.368   4.278  14.237 -2.5834 -0.2914 -0.8326
  533TMC3    H1 7917   2.008   4.294  14.438  0.1229  1.0543  0.5054
  533TMC3    H2 7918   2.322   4.547  14.562  0.1937  0.4943 -1.1827
  533TMC3    C7 7919   2.154   4.347  14.645 -0.0846 -0.0202 -0.0690
  533TMC3    C8 7920   2.493   4.457  14.415  0.1165 -0.0069 -0.2594
  533TMC3    O1 7921   2.081   4.251  14.645 -0.4196 -0.2397 -0.4597
  533TMC3    O2 7922   2.517   4.550  14.495 -0.0278 -0.0592 -0.4084
  534MPD2     C 7923   4.049   0.649   1.864  0.4064  0.4445  0.1900
  534MPD2    C1 7924   4.087   0.716   1.746  0.0568 -0.0934  0.1086
  534MPD2    C2 7925   4.000   0.700   1.637 -0.9265 -0.0657 -0.3249
  534MPD2    C3 7926   3.892   0.622   1.644  0.5389  0.4333  0.4305
  534MPD2    C4 7927   3.863   0.552   1.759  0.2084 -0.8586 -0.1479
  534MPD2    C5 7928   3.950   0.563   1.868  0.4311  0.2723  0.5242
  534MPD2     H 7929   4.026   0.752   1.546  0.6670 -0.9629 -0.3699
  534MPD2    H1 7930   3.778   0.487   1.772  0.5574 -1.5303 -1.1776
  534MPD2    H2 7931   4.119   0.661   1.946 -2.9716 -2.0667  3.4464
  534MPD2    H3 7932   3.921   0.510   1.958  1.6224  1.8906  1.8386
  534MPD2     N 7933   3.810   0.597   1.527 -0.3695  0.2026 -0.6133
  534MPD2    H5 7934   3.726   0.549   1.557 -0.7802  0.7970 -0.8023
  534MPD2    N1 7935   4.202   0.794   1.736  0.2772 -0.0280 -0.1669
  534MPD2    H7 7936   4.211   0.839   1.645 -1.2582 -1.4124 -1.0140
  535TMC3    C1 7937   3.710   0.623   1.311 -0.0667  0.2312 -0.1885
  535TMC3    C2 7938   3.580   0.608   1.355  0.5503  0.0690 -0.2231
  535TMC3    C3 7939   3.482   0.652   1.265 -1.1334 -0.2165 -0.3577
  535TMC3    C4 7940   3.747   0.642   1.179  0.0903 -0.1039  0.4425
  535TMC3    C5 7941   3.645   0.672   1.099 -0.8700  0.1153  0.2259
  535TMC3    C6 7942   3.513   0.688   1.136 -0.1482  0.2351  0.5109
  535TMC3     C 7943   3.816   0.654   1.403 -0.0824  0.0056 -0.2251
  535TMC3     O 7944   3.907   0.730   1.361 -0.2007 -0.0677  0.3647
  535TMC3     H 7945   3.557   0.608   1.460  1.1288 -2.8478 -0.0852
  535TMC3    H1 7946   3.849   0.648   1.145  0.5949  1.1895  2.1925
  535TMC3    H2 7947   3.433   0.718   1.069 -0.3206  2.7990  1.8392
  535TMC3    C7 7948   3.690   0.703   0.966  0.0992 -0.1708  0.0104
  535TMC3    C8 7949   3.338   0.646   1.299 -0.1529 -0.1107 -0.1287
  535TMC3    O1 7950   3.794   0.655   0.928  0.5274  0.2347  0.1797
  535TMC3    O2 7951   3.310   0.571   1.390  0.2396  0.1377 -0.0090
  536MPD2     C 7952   3.369   3.648  16.700 -0.5649  0.7440 -0.9720
  536MPD2    C1 7953   3.301   3.527  16.711 -0.0236 -0.8024  0.2349
  536MPD2    C2 7954   3.235   3.471  16.600  0.2728 -0.2549  0.6126
  536MPD2    C3 7955   3.226   3.547  16.480  0.4531  0.0929  0.2183
  536MPD2    C4 7956   3.283   3.673  16.479  0.0057  0.3689  0.5406
  536MPD2    C5 7957   3.361   3.716  16.580  0.3631  0.8138  0.3317
  536MPD2     H 7958   3.180   3.378  16.601  0.6767 -0.5038  0.1047
  536MPD2    H1 7959   3.267   3.733  16.390 -0.5656  1.7419  1.5606
  536MPD2    H2 7960   3.432   3.685  16.780 -0.4286 -1.1627 -0.1917
  536MPD2    H3 7961   3.413   3.810  16.570 -1.0168  1.7811  2.4384
  536MPD2     N 7962   3.163   3.515  16.361 -0.3933  0.4107 -0.1774
  536MPD2    H5 7963   3.182   3.571  16.278  2.6005 -0.3446  0.0275
  536MPD2    N1 7964   3.304   3.468  16.839 -0.4182  0.7314  0.3013
  536MPD2    H7 7965   3.343   3.523  16.915  0.5365  0.6341 -0.1169
  537TMC3    C1 7966   3.261   3.331  17.023  0.5100  0.0924  0.2687
  537TMC3    C2 7967   3.305   3.445  17.095  0.6993 -0.4511  0.0906
  537TMC3    C3 7968   3.264   3.460  17.223  0.0482  0.0043  0.2509
  537TMC3    C4 7969   3.174   3.240  17.069  0.8628 -0.3188 -0.6148
  537TMC3    C5 7970   3.140   3.261  17.204  0.1486  0.1902  0.9882
  537TMC3    C6 7971   3.197   3.362  17.282 -0.2524  0.2608  0.5501
  537TMC3     C 7972   3.248   3.349  16.876 -0.2795  0.1352  0.3422
  537TMC3     O 7973   3.178   3.265  16.820 -0.0001 -0.5161 -0.0193
  537TMC3     H 7974   3.394   3.500  17.065  0.6772 -0.7507 -0.5188
  537TMC3    H1 7975   3.130   3.159  17.012 -4.2025  1.6233  0.5229
  537TMC3    H2 7976   3.160   3.383  17.382 -3.3916  2.5724 -1.1165
  537TMC3    C7 7977   3.070   3.157  17.280  0.2953  0.6176  0.0526
  537TMC3    C8 7978   3.319   3.565  17.308 -0.0961 -0.9121 -0.4118
  537TMC3    O1 7979   2.997   3.185  17.377  0.0712 -0.1639 -0.4831
  537TMC3    O2 7980   3.339   3.531  17.420 -0.2125  0.4719 -0.0669
  538TMC3    C1 7981   0.347   1.339  11.098 -0.3992 -0.0877 -0.6176
  538TMC3    C2 7982   0.463   1.337  11.024 -0.0018 -0.4842 -0.0644
  538TMC3    C3 7983   0.476   1.424  10.915 -0.4264  0.3852  0.1276
  538TMC3    C4 7984   0.242   1.417  11.062 -0.2301  0.3771  0.0914
  538TMC3    C5 7985   0.258   1.506  10.956  0.4843 -0.1003  1.0346
  538TMC3    C6 7986   0.374   1.503  10.882  0.0506 -0.3839 -0.1557
  538TMC3     C 7987   0.338   1.262  11.216  0.2483  0.0195  0.4968
  538TMC3     O 7988   0.224   1.223  11.252  0.0465 -0.5306  0.4287
  538TMC3     H 7989   0.542   1.267  11.047  0.6309  1.2487  2.9835
  538TMC3    H1 7990   0.159   1.405  11.131  0.5749  2.0766  1.3458
  538TMC3    H2 7991   0.362   1.558  10.789  4.0963  1.1900  0.2819
  538TMC3    C7 7992   0.144   1.597  10.912 -0.0167 -0.0673 -0.1128
  538TMC3    C8 7993   0.564   1.396  10.800  1.0643  0.1465  0.1807
  538TMC3    O1 7994   0.036   1.569  10.964 -0.1973 -0.4639 -0.4391
  538TMC3    O2 7995   0.599   1.283  10.775  0.5290  0.2541  0.4619
  539MPD2     C 7996   4.111   0.600  11.936 -0.4370 -0.7777  0.1118
  539MPD2    C1 7997   4.091   0.640  11.806 -0.5808  0.9711 -0.0653
  539MPD2    C2 7998   4.097   0.778  11.774  0.0105 -0.8037 -0.5336
  539MPD2    C3 7999   4.112   0.874  11.871 -0.9163  0.6981 -0.0821
  539MPD2    C4 8000   4.114   0.826  12.004 -0.3385  0.6467 -0.3885
  539MPD2    C5 8001   4.099   0.695  12.031 -0.4142 -0.8518 -0.2880
  539MPD2     H 8002   4.092   0.805  11.669  1.2824  0.2343 -0.3248
  539MPD2    H1 8003   4.110   0.897  12.086  2.6767  0.9269 -0.4936
  539MPD2    H2 8004   4.107   0.497  11.970  1.0291 -0.3608  1.5936
  539MPD2    H3 8005   4.096   0.648  12.128  2.1849 -0.4501 -0.0114
  539MPD2     N 8006   4.120   1.011  11.851  0.4083 -0.0274  0.2766
  539MPD2    H5 8007   4.137   1.067  11.934 -0.3444 -0.2123  0.5484
  539MPD2    N1 8008   4.097   0.553  11.696  0.0771  0.3699  0.1765
  539MPD2    H7 8009   4.075   0.588  11.603 -1.0998  0.6995  0.5820
  540TMC3    C1 8010   4.140   1.222  11.741 -0.0902 -0.7312  0.2257
  540TMC3    C2 8011   4.162   1.286  11.628  0.0360  0.2613 -0.7234
  540TMC3    C3 8012   4.182   1.425  11.635  0.0788  0.4284 -0.5959
  540TMC3    C4 8013   4.126   1.284  11.861  0.3160 -0.3609 -0.1043
  540TMC3    C5 8014   4.130   1.422  11.867 -0.5370 -0.7462 -0.1393
  540TMC3    C6 8015   4.163   1.494  11.754  0.0403  0.5203 -0.3136
  540TMC3     C 8016   4.132   1.070  11.730  0.1667  0.1398 -0.3976
  540TMC3     O 8017   4.141   1.021  11.620 -0.2661 -0.5169 -0.2894
  540TMC3     H 8018   4.159   1.239  11.530 -1.6839 -0.6999 -0.2154
  540TMC3    H1 8019   4.083   1.234  11.947 -1.5747 -0.2178 -0.9630
  540TMC3    H2 8020   4.145   1.601  11.744 -1.0259  0.4793  1.0855
  540TMC3    C7 8021   4.048   1.488  11.966 -0.3143 -0.2283 -0.8795
  540TMC3    C8 8022   4.193   1.493  11.504  0.7940 -0.5755 -0.3268
  540TMC3    O1 8023   3.976   1.418  12.034  0.4657  0.0842 -0.4246
  540TMC3    O2 8024   4.188   1.614  11.510  0.1644 -0.2517 -0.1074
  541MPD2     C 8025   3.165   2.231  13.277 -0.5168  0.7397 -0.3113
  541MPD2    C1 8026   3.031   2.249  13.256 -0.3211  0.7637  0.7031
  541MPD2    C2 8027   2.987   2.362  13.189 -0.0005 -0.1135  0.5689
  541MPD2    C3 8028   3.070   2.455  13.128  0.3760  0.2597  0.1576
  541MPD2    C4 8029   3.205   2.432  13.138  1.0519  0.4364 -0.3032
  541MPD2    C5 8030   3.251   2.324  13.213 -0.5400  0.3626  0.2594
  541MPD2     H 8031   2.880   2.374  13.183 -0.0975 -0.4799  1.6116
  541MPD2    H1 8032   3.277   2.495  13.086  0.9173  1.0863  0.2987
  541MPD2    H2 8033   3.206   2.142  13.324 -3.2074 -0.5828 -0.4625
  541MPD2    H3 8034   3.357   2.301  13.218 -0.5851  0.2686  0.7462
  541MPD2     N 8035   3.027   2.556  13.046 -0.2485 -0.3211 -0.4302
  541MPD2    H5 8036   3.092   2.614  12.994 -2.2532  2.4678  0.2129
  541MPD2    N1 8037   2.931   2.153  13.287  0.5710  0.6342 -0.0983
  541MPD2    H7 8038   2.834   2.177  13.270  0.8285  1.5729 -0.2500
  542TMC3    C1 8039   2.882   2.723  12.942 -0.6847 -0.1222 -0.1327
  542TMC3    C2 8040   2.936   2.705  12.817  0.2830  0.2010 -0.6382
  542TMC3    C3 8041   2.903   2.794  12.719 -0.3504  0.4778 -0.3143
  542TMC3    C4 8042   2.800   2.832  12.968 -0.6734 -0.1957 -0.1013
  542TMC3    C5 8043   2.771   2.916  12.862  0.4872  0.8167  0.0348
  542TMC3    C6 8044   2.811   2.890  12.737 -0.3956 -0.3604  0.6115
  542TMC3     C 8045   2.896   2.615  13.051  1.1008 -0.0762  0.5987
  542TMC3     O 8046   2.816   2.610  13.144 -0.3162 -0.0219 -0.2984
  542TMC3     H 8047   3.007   2.626  12.795  0.3675  0.0261  0.2762
  542TMC3    H1 8048   2.756   2.843  13.067 -0.4699 -1.1760  0.1037
  542TMC3    H2 8049   2.777   2.946  12.651  1.3914 -1.2681 -0.6909
  542TMC3    C7 8050   2.710   3.045  12.887  0.3228 -0.0749  0.1222
  542TMC3    C8 8051   2.953   2.789  12.588 -0.4951 -0.3604 -0.0113
  542TMC3    O1 8052   2.600   3.061  12.837  0.1436 -0.1737  0.4996
  542TMC3    O2 8053   3.003   2.681  12.553  0.8899 -0.0907  0.3614
  543TMC3    C1 8054   1.998   4.164  17.620  0.5544 -0.0031  0.6776
  543TMC3    C2 8055   2.040   4.039  17.628  0.1018 -0.8330 -0.1668
  543TMC3    C3 8056   2.163   4.002  17.664 -0.7274 -0.0539 -0.0895
  543TMC3    C4 8057   2.077   4.262  17.672 -0.0894 -0.3729 -0.2056
  543TMC3    C5 8058   2.206   4.226   0.013 -0.1679  1.0401 -0.2485
  543TMC3    C6 8059   2.257   4.097  17.685  0.2310 -0.0263  0.9019
  543TMC3     C 8060   1.921   4.192  17.500  0.6881 -0.4503  0.6094
  543TMC3     O 8061   1.840   4.285  17.494 -1.0620  0.0738 -0.1901
  543TMC3     H 8062   1.959   3.968  17.619 -1.6919  0.8430  2.8189
  543TMC3    H1 8063   2.048   4.366  17.672 -0.9436 -0.6096  0.9504
  543TMC3    H2 8064   2.361   4.071  17.665  0.2168  1.6774 -1.4168
  543TMC3    C7 8065   2.299   4.334   0.058  0.2266 -0.3082 -0.2384
  543TMC3    C8 8066   2.207   3.884  17.605  0.0839  0.3910  0.4949
  543TMC3    O1 8067   2.258   4.448   0.040  0.1875 -0.5030  0.7953
  543TMC3    O2 8068   2.129   3.834  17.524  0.3415 -0.4306  0.0394
  544MPD2     C 8069   2.519   3.484  17.528 -0.1377  0.2769 -0.4414
  544MPD2    C1 8070   2.394   3.518  17.483 -0.4442  0.4461 -0.0646
  544MPD2    C2 8071   2.337   3.639  17.516 -0.1081 -0.4287  0.2003
  544MPD2    C3 8072   2.399   3.724  17.604  0.1615  0.2913 -0.5958
  544MPD2    C4 8073   2.530   3.705  17.636 -0.5256  0.3831 -0.5469
  544MPD2    C5 8074   2.582   3.583  17.606  0.9229  0.2824 -0.8864
  544MPD2     H 8075   2.238   3.654  17.476 -0.4172 -2.1248  0.3101
  544MPD2    H1 8076   2.581   3.773   0.009 -0.0105 -1.1421  0.5844
  544MPD2    H2 8077   2.560   3.387  17.503  0.6753  0.1823  1.2617
  544MPD2    H3 8078   2.680   3.560  17.646  0.9466 -0.3811 -1.3380
  544MPD2     N 8079   2.329   3.839  17.648  0.4301 -0.2819 -0.0744
  544MPD2    H5 8080   2.380   3.889   0.025 -1.4945  0.8397  0.5270
  544MPD2    N1 8081   2.332   3.427  17.405 -0.8099  0.0118  0.0881
  544MPD2    H7 8082   2.386   3.345  17.381  0.2437 -0.0587  2.6843
  545TMC3    C1 8083   2.177   3.326  17.257  0.0808  0.8901 -0.6674
  545TMC3    C2 8084   2.053   3.323  17.190  0.2032 -0.1187  0.0041
  545TMC3    C3 8085   2.026   3.218  17.104 -0.9107  0.2176 -0.0991
  545TMC3    C4 8086   2.266   3.225  17.235  0.3382  0.3343 -0.2555
  545TMC3    C5 8087   2.229   3.121  17.154  0.0637  0.5565 -0.0896
  545TMC3    C6 8088   2.114   3.113  17.085 -0.1508 -0.1942  0.0767
  545TMC3     C 8089   2.210   3.438  17.343 -0.7386 -0.2256 -0.5585
  545TMC3     O 8090   2.118   3.522  17.348 -0.1877  0.5140 -0.2876
  545TMC3     H 8091   1.982   3.405  17.199  0.2045 -0.2209  0.9014
  545TMC3    H1 8092   2.364   3.221  17.280 -1.4875 -1.2186  3.6210
  545TMC3    H2 8093   2.086   3.034  17.016 -0.9573  0.0879  0.0771
  545TMC3    C7 8094   2.294   2.986  17.155  0.3939 -0.1508 -0.1111
  545TMC3    C8 8095   1.889   3.213  17.054  0.2249 -0.2603 -0.5396
  545TMC3    O1 8096   2.309   2.936  17.044 -0.1642  0.0298  0.2282
  545TMC3    O2 8097   1.815   3.312  17.070  0.0432  0.0194 -0.1763
  546MPD2     C 8098   3.459   3.828   0.124  0.8250 -0.1691  0.3589
  546MPD2    C1 8099   3.370   3.849   0.018 -0.5161 -0.4184 -0.6491
  546MPD2    C2 8100   3.374   3.971  17.648 -0.1696 -0.3473 -0.7584
  546MPD2    C3 8101   3.463   4.068  17.686 -0.8287  0.7216 -0.4083
  546MPD2    C4 8102   3.547   4.044   0.102  0.0803 -0.4587 -0.3337
  546MPD2    C5 8103   3.551   3.922   0.165  0.0268  0.3623  0.5784
  546MPD2     H 8104   3.307   3.994  17.567 -2.2217  1.4978  1.4650
  546MPD2    H1 8105   3.619   4.109   0.152 -0.2102 -0.6257  0.2991
  546MPD2    H2 8106   3.447   3.731   0.172 -0.2611 -0.1070  0.2140
  546MPD2    H3 8107   3.616   3.914   0.252  1.7143  0.1107 -0.7072
  546MPD2     N 8108   3.480   4.191  17.612  0.4166  0.4719 -0.2825
  546MPD2    H5 8109   3.558   4.253  17.633  0.7104  0.4228 -1.2506
  546MPD2    N1 8110   3.263   3.756   0.002  0.5165 -0.7232 -1.0725
  546MPD2    H7 8111   3.264   3.675   0.063  0.0232 -0.5724 -0.8646
  547TMC3    C1 8112   3.087   3.641  17.588  0.2610  0.9394 -0.1958
  547TMC3    C2 8113   3.000   3.634  17.486 -0.2721  0.5388 -0.5962
  547TMC3    C3 8114   2.921   3.518  17.468 -0.5079 -0.0883  0.3377
  547TMC3    C4 8115   3.102   3.535  17.680 -1.2613  0.7304 -0.3123
  547TMC3    C5 8116   3.019   3.431  17.664 -0.3171  0.0675 -0.3462
  547TMC3    C6 8117   2.925   3.415  17.564  0.1450 -0.1081  0.6707
  547TMC3     C 8118   3.167   3.759  17.601 -0.4026 -0.6224  0.0767
  547TMC3     O 8119   3.113   3.852  17.543  0.1500 -0.2536  0.6800
  547TMC3     H 8120   2.996   3.716  17.415  2.7268 -0.8198 -2.3458
  547TMC3    H1 8121   3.173   3.535   0.067 -1.3157 -0.1595 -0.2675
  547TMC3    H2 8122   2.860   3.328  17.561  0.3731 -0.3108  1.4566
  547TMC3    C7 8123   3.041   3.328   0.058  0.1608  0.0544 -0.0854
  547TMC3    C8 8124   2.824   3.517  17.357  0.2526  0.3506  0.2925
  547TMC3    O1 8125   3.091   3.343   0.165  0.1494 -0.1873  0.1094
  547TMC3    O2 8126   2.791   3.626  17.308  0.3556 -0.1621 -0.3389
  548MPD2     C 8127   3.485   4.606  12.444 -0.3215 -0.0169  1.3666
  548MPD2    C1 8128   3.509   4.534  12.563  0.6291  1.0096  0.2665
  548MPD2    C2 8129   3.626   4.466  12.582  0.2909  0.6026 -0.2942
  548MPD2    C3 8130   3.713   4.443  12.477  0.5737 -0.9882  0.4788
  548MPD2    C4 8131   3.688   4.512  12.357  0.1447  0.0044  0.2128
  548MPD2    C5 8132   3.579   4.592  12.349  0.3727  0.4790  0.5908
  548MPD2     H 8133   3.642   4.421  12.679 -1.2979 -0.4755 -0.5367
  548MPD2    H1 8134   3.756   4.523  12.273 -0.8035 -1.4605 -0.7415
  548MPD2    H2 8135   3.406   4.678  12.426 -0.6182 -0.5849  0.3915
  548MPD2    H3 8136   3.576   4.646  12.255  2.5075 -0.6252 -0.1220
  548MPD2     N 8137   3.811   4.346  12.492 -0.0745 -0.8207  0.2562
  548MPD2    H5 8138   3.836   4.303  12.581 -0.0064  0.9568  1.0823
  548MPD2    N1 8139   3.403   4.544  12.661  0.1125  0.2662 -0.1219
  548MPD2    H7 8140   3.323   4.598  12.628 -0.4651 -0.5032  0.0126
  549TMC3    C1 8141   3.267   4.516  12.848 -0.1982  0.0530  0.4051
  549TMC3    C2 8142   3.190   4.627  12.816 -0.2358  0.6198 -0.1632
  549TMC3    C3 8143   3.066   4.634  12.866 -0.0972  0.6438  0.3861
  549TMC3    C4 8144   3.208   4.408  12.904 -0.0636  0.3265 -0.8483
  549TMC3    C5 8145   3.073   4.414  12.952 -0.4930 -0.1767 -0.4256
  549TMC3    C6 8146   2.998   4.532  12.939  1.2188 -0.0739  0.1709
  549TMC3     C 8147   3.400   4.484  12.785 -0.4190  0.1960 -0.3833
  549TMC3     O 8148   3.480   4.408  12.837 -0.3112 -0.3263  0.3342
  549TMC3     H 8149   3.235   4.720  12.780 -1.7208  1.7327  0.8505
  549TMC3    H1 8150   3.268   4.318  12.912 -3.0751 -1.5277  1.2400
  549TMC3    H2 8151   2.898   4.548  12.977  0.8125  1.8481 -1.6716
  549TMC3    C7 8152   3.020   4.320  13.040 -0.0954  0.3176 -0.4351
  549TMC3    C8 8153   2.981   0.009  12.803 -0.4139 -0.5544  0.1147
  549TMC3    O1 8154   2.933   4.357  13.114 -0.1727 -0.7908  0.1579
  549TMC3    O2 8155   2.865   4.705  12.777  0.4295  0.4644  0.8598
  550TMC3    C1 8156   2.152   2.202  12.056  0.2430  0.2323 -0.4709
  550TMC3    C2 8157   2.161   2.264  12.174  0.9255 -0.5135 -0.1591
  550TMC3    C3 8158   2.048   2.320  12.224  0.0034 -0.3270 -0.1942
  550TMC3    C4 8159   2.035   2.167  12.003 -0.8787 -0.7913 -0.3833
  550TMC3    C5 8160   1.921   2.214  12.070  0.4545 -0.1482  0.0257
  550TMC3    C6 8161   1.922   2.297  12.174 -0.3901 -0.0718  0.1155
  550TMC3     C 8162   2.278   2.155  12.002  0.9414 -0.7495  0.1207
  550TMC3     O 8163   2.377   2.133  12.073  0.2309  0.1934 -0.4221
  550TMC3     H 8164   2.262   2.273  12.212  1.7132  0.4134 -2.4405
  550TMC3    H1 8165   2.021   2.112  11.911 -0.6699  0.8594 -1.4111
  550TMC3    H2 8166   1.829   2.345  12.202  1.2707  3.3297 -0.1418
  550TMC3    C7 8167   1.788   2.195  12.007 -0.0618 -0.4260  0.0929
  550TMC3    C8 8168   2.042   2.393  12.347  1.1052 -0.1701 -0.8870
  550TMC3    O1 8169   1.691   2.194  12.085 -0.4475 -0.4423  0.2859
  550TMC3    O2 8170   1.932   2.446  12.366  0.2697 -0.4252 -0.6794
  551TMC3    C1 8171   4.202   0.632  13.719 -0.1180  0.6515  0.6823
  551TMC3    C2 8172   4.301   0.712  13.670  0.3281  0.0014  0.2402
  551TMC3    C3 8173   4.389   0.766  13.760 -0.4771 -0.4018  0.0101
  551TMC3    C4 8174   4.199   0.595  13.851  0.4084  0.9324  0.3536
  551TMC3    C5 8175   4.297   0.646  13.936  0.8774  0.8138 -0.2135
  551TMC3    C6 8176   4.399   0.722  13.890 -1.3638  0.1673  0.1385
  551TMC3     C 8177   4.108   0.566  13.621 -0.1585 -0.0442 -0.1832
  551TMC3     O 8178   4.092   0.444  13.638 -0.3047  0.3512  0.5757
  551TMC3     H 8179   4.304   0.746  13.567 -2.7784  1.2577  0.5712
  551TMC3    H1 8180   4.122   0.525  13.883  2.2926  0.0479  2.9851
  551TMC3    H2 8181   4.478   0.754  13.957  1.0047 -0.3819 -2.4111
  551TMC3    C7 8182   4.285   0.635  14.083  0.9533  0.7631 -0.3769
  551TMC3    C8 8183   4.490   0.863  13.718 -0.4917  1.0107 -0.2750
  551TMC3    O1 8184   4.386   0.606  14.147  0.0563 -0.0321 -0.2438
  551TMC3    O2 8185   4.569   0.906  13.798  0.7854  0.5084 -0.6666
  552MPD2     C 8186   1.373   2.530  14.228 -0.6489  0.2857 -0.7560
  552MPD2    C1 8187   1.421   2.405  14.192 -0.4193  0.7111  0.5178
  552MPD2    C2 8188   1.520   2.345  14.264 -0.1083  0.4917  0.8338
  552MPD2    C3 8189   1.586   2.415  14.362 -0.0321  1.2159  0.2458
  552MPD2    C4 8190   1.548   2.544  14.388  0.0429 -0.4200 -0.5487
  552MPD2    C5 8191   1.442   2.599  14.328 -0.1863 -0.0813  0.2194
  552MPD2     H 8192   1.555   2.246  14.237  1.1926  1.0735  0.3549
  552MPD2    H1 8193   1.601   2.597  14.467 -0.3172 -0.8618 -0.0186
  552MPD2    H2 8194   1.291   2.586  14.183 -1.3103  0.3426  0.4993
  552MPD2    H3 8195   1.396   2.693  14.355 -0.8994 -1.2157  2.9508
  552MPD2     N 8196   1.695   2.364  14.435 -0.0016 -0.9781 -0.1780
  552MPD2    H5 8197   1.746   2.431  14.491 -0.1026 -1.3027  0.3071
  552MPD2    N1 8198   1.383   2.336  14.071 -0.6155 -0.0380 -0.1279
  552MPD2    H7 8199   1.425   2.245  14.053  0.4127  0.1862  1.1658
  553TMC3    C1 8200   1.274   2.289  13.875 -0.0090  0.6796 -0.3854
  553TMC3    C2 8201   1.257   2.334  13.750 -0.0806 -0.4232  0.7066
  553TMC3    C3 8202   1.247   2.244  13.646  0.5740  0.3442 -0.0061
  553TMC3    C4 8203   1.267   2.154  13.910  0.2415 -0.6154  0.3937
  553TMC3    C5 8204   1.240   2.070  13.807  0.3508 -0.4498  0.5366
  553TMC3    C6 8205   1.247   2.110  13.679 -0.1803  0.3252  0.2130
  553TMC3     C 8206   1.290   2.378  13.985  0.4038  0.0503  0.7280
  553TMC3     O 8207   1.227   2.482  13.975 -0.2949 -0.8226 -0.0792
  553TMC3     H 8208   1.258   2.441  13.739  1.0042 -0.5473 -0.4096
  553TMC3    H1 8209   1.261   2.114  14.010  1.1125 -0.3113  0.5580
  553TMC3    H2 8210   1.245   2.033  13.602  3.7457  0.8978 -0.5100
  553TMC3    C7 8211   1.253   1.926  13.825 -0.7586 -0.1170 -0.1308
  553TMC3    C8 8212   1.345   2.274  13.545  0.2899  0.7328 -0.7979
  553TMC3    O1 8213   1.198   1.846  13.751 -0.0553 -0.0104 -0.1095
  553TMC3    O2 8214   1.440   2.349  13.578  0.2197  0.1886 -0.5183
  554TMC3    C1 8215   3.824   1.229  11.518 -0.5986  0.4222  0.1730
  554TMC3    C2 8216   3.861   1.114  11.445  0.9595 -0.4650  0.1067
  554TMC3    C3 8217   3.919   1.125  11.319  0.2218  0.4124 -0.0709
  554TMC3    C4 8218   3.860   1.352  11.472 -0.8012 -0.1966  0.0616
  554TMC3    C5 8219   3.924   1.355  11.346 -0.0908  0.2087  0.0917
  554TMC3    C6 8220   3.963   1.248  11.267  0.6614 -0.2986  0.3855
  554TMC3     C 8221   3.801   1.210  11.655 -0.2603  1.1085  0.4828
  554TMC3     O 8222   3.820   1.313  11.717 -0.7813  0.0215  0.1792
  554TMC3     H 8223   3.823   1.016  11.468  0.8285 -0.5282 -0.3929
  554TMC3    H1 8224   3.833   1.440  11.530 -2.3180 -0.1613 -0.6991
  554TMC3    H2 8225   4.007   1.261  11.169  0.7957  0.8438  0.5945
  554TMC3    C7 8226   3.901   1.473  11.260 -0.2022  0.1867  0.1537
  554TMC3    C8 8227   3.881   1.029  11.217  0.4146 -0.0334  0.2494
  554TMC3    O1 8228   3.895   1.450  11.140  0.0900  0.1005  0.5352
  554TMC3    O2 8229   3.958   1.029  11.123 -0.2817  0.0711  0.1074
  555TMC3    C1 8230   2.171   0.436  14.926 -0.2359  0.0256 -0.0503
  555TMC3    C2 8231   2.079   0.527  14.983 -0.0100 -0.1788 -0.2424
  555TMC3    C3 8232   2.083   0.537  15.116 -0.1372  0.2623 -0.1503
  555TMC3    C4 8233   2.268   0.363  14.992 -0.1240 -0.2739 -0.1757
  555TMC3    C5 8234   2.260   0.365  15.126  0.9135  0.3668 -0.3119
  555TMC3    C6 8235   2.170   0.449  15.188  0.4580 -1.1061 -0.5933
  555TMC3     C 8236   2.183   0.430  14.776 -0.2882  0.1382  0.0777
  555TMC3     O 8237   2.280   0.378  14.724  0.2063  0.1003 -0.5223
  555TMC3     H 8238   2.013   0.595  14.931  0.6822 -0.6939 -1.8158
  555TMC3    H1 8239   2.331   0.292  14.939  0.7382 -0.6149  1.2912
  555TMC3    H2 8240   2.167   0.439  15.296 -0.7752 -0.5235 -0.5662
  555TMC3    C7 8241   2.307   0.252  15.196 -0.6827  0.2245  0.6375
  555TMC3    C8 8242   1.999   0.628  15.183  0.9591 -0.2041 -0.7038
  555TMC3    O1 8243   2.261   0.240  15.311 -0.1471  0.4144 -0.1195
  555TMC3    O2 8244   1.899   0.667  15.129 -0.1700  0.0577  0.0288
  556MPD2     C 8245   0.980   2.742  10.748 -0.0672 -0.3399  0.1488
  556MPD2    C1 8246   0.920   2.640  10.818 -0.6869 -0.2471  0.0424
  556MPD2    C2 8247   0.854   2.542  10.746 -0.4619  0.4334 -0.1803
  556MPD2    C3 8248   0.849   2.536  10.613  0.7139  0.5238  0.4824
  556MPD2    C4 8249   0.903   2.637  10.545 -0.2538  0.1282 -0.4611
  556MPD2    C5 8250   0.969   2.736  10.607  0.2523 -0.2370  0.7078
  556MPD2     H 8251   0.794   2.468  10.798  0.7735  0.0428  0.6799
  556MPD2    H1 8252   0.895   2.644  10.437  1.1028 -0.9055 -0.6181
  556MPD2    H2 8253   1.026   2.826  10.798 -0.2751  0.9164 -1.7651
  556MPD2    H3 8254   0.998   2.820  10.546  1.8714 -0.2064  1.5189
  556MPD2     N 8255   0.779   2.430  10.548 -0.4634  0.3890  0.1278
  556MPD2    H5 8256   0.759   2.348  10.605  0.7462  0.1007  0.1215
  556MPD2    N1 8257   0.920   2.631  10.960  0.5712  0.5950 -0.5538
  556MPD2    H7 8258   0.895   2.542  11.002 -1.0746  0.5507 -1.6371
  557TMC3    C1 8259   0.715   2.286  10.366 -0.0009 -0.6423  0.8717
  557TMC3    C2 8260   0.642   2.286  10.251  0.2315 -0.2190 -0.1192
  557TMC3    C3 8261   0.604   2.158  10.211 -0.5515 -0.3600  0.1906
  557TMC3    C4 8262   0.738   2.175  10.436  0.5337  0.1440  0.0006
  557TMC3    C5 8263   0.705   2.055  10.387 -0.1737  0.3216  0.3701
  557TMC3    C6 8264   0.635   2.038  10.270  0.1058  0.2015 -0.3733
  557TMC3     C 8265   0.748   2.421  10.413  0.1151 -0.6090  0.3165
  557TMC3     O 8266   0.727   2.515  10.341 -0.0065  0.0626 -0.4579
  557TMC3     H 8267   0.648   2.367  10.179  0.5226  1.5781  1.9209
  557TMC3    H1 8268   0.803   2.168  10.523 -2.1083 -0.3686  1.9730
  557TMC3    H2 8269   0.589   1.944  10.243 -1.4994  0.0278  2.9299
  557TMC3    C7 8270   0.724   1.942  10.468  0.2807  0.1918 -0.5246
  557TMC3    C8 8271   0.520   2.148  10.093  0.6751  0.0871  0.3491
  557TMC3    O1 8272   0.746   1.960  10.586  0.1769  0.4317  0.3137
  557TMC3    O2 8273   0.444   2.243  10.076 -0.6598  0.1723  0.5020
  558TMC3    C1 8274   3.075   0.018  10.141 -0.4414  0.5448 -0.2034
  558TMC3    C2 8275   2.991   0.018  10.249  0.1166 -0.5812 -0.0425
  558TMC3    C3 8276   2.897   4.638  10.256  0.3722 -0.1581 -0.1946
  558TMC3    C4 8277   3.064   4.645  10.047  0.4889 -0.1262  0.9799
  558TMC3    C5 8278   2.962   4.552  10.054  0.2998 -0.3024  0.1204
  558TMC3    C6 8279   2.862   4.554  10.153  0.1962 -0.1116 -0.3225
  558TMC3     C 8280   3.186   0.113  10.131  0.9068  0.2900 -0.1730
  558TMC3     O 8281   3.252   0.129  10.231 -0.1619  0.0477  0.4970
  558TMC3     H 8282   3.009   0.087  10.330 -2.7570 -0.5820  0.5853
  558TMC3    H1 8283   3.134   4.641   9.965 -0.2635 -1.3319  0.4038
  558TMC3    H2 8284   2.776   4.488  10.152 -0.9182  1.3467  0.0819
  558TMC3    C7 8285   2.936   4.467   9.931  0.0717  1.0495  0.2122
  558TMC3    C8 8286   2.825   4.620  10.378  0.5579  0.2402  0.1444
  558TMC3    O1 8287   3.036   4.407   9.895  0.5782  0.3530 -0.6381
  558TMC3    O2 8288   2.716   4.573  10.360  0.0407 -0.1638  0.0589
  559MPD2     C 8289   3.580   0.710  10.274  0.4826 -0.2069  0.7152
  559MPD2    C1 8290   3.510   0.624  10.353  0.4693  0.1751 -0.2608
  559MPD2    C2 8291   3.552   0.589  10.484  0.4755 -0.4394  0.2030
  559MPD2    C3 8292   3.666   0.645  10.535  0.6615  0.1112 -0.9415
  559MPD2    C4 8293   3.733   0.730  10.451  0.0261 -0.1921  0.1045
  559MPD2    C5 8294   3.687   0.762  10.327  0.4737  0.0074  0.6865
  559MPD2     H 8295   3.495   0.527  10.552 -0.0370  0.6758  0.7819
  559MPD2    H1 8296   3.819   0.787  10.483  2.2920 -2.4138 -2.0422
  559MPD2    H2 8297   3.553   0.733  10.172 -0.5474 -0.3022  0.9641
  559MPD2    H3 8298   3.752   0.822  10.263 -0.3003  0.9170  0.7619
  559MPD2     N 8299   3.714   0.599  10.659  0.0809 -0.5611 -0.0159
  559MPD2    H5 8300   3.647   0.538  10.706 -0.9839  1.3597  0.9841
  559MPD2    N1 8301   3.385   0.582  10.304 -0.2974  0.0612 -0.3076
  559MPD2    H7 8302   3.362   0.633  10.220  0.2766 -0.1490 -0.5941
  560TMC3    C1 8303   3.832   0.595  10.859  0.5322 -0.1234 -0.3192
  560TMC3    C2 8304   3.749   0.495  10.896 -0.1594 -0.3648 -1.0632
  560TMC3    C3 8305   3.738   0.474  11.029 -0.0125  0.0191 -0.2068
  560TMC3    C4 8306   3.901   0.667  10.956  0.0636 -0.4658  0.1042
  560TMC3    C5 8307   3.878   0.654  11.086  0.1265  0.2761 -0.2754
  560TMC3    C6 8308   3.797   0.546  11.121 -0.2635  0.3620 -0.5542
  560TMC3     C 8309   3.827   0.644  10.720 -0.1846  0.5894 -1.0509
  560TMC3     O 8310   3.909   0.726  10.679 -0.1819  0.2673 -0.2345
  560TMC3     H 8311   3.701   0.430  10.823  0.7928 -0.0594 -1.9733
  560TMC3    H1 8312   3.975   0.738  10.921  0.0596 -1.0791 -1.1454
  560TMC3    H2 8313   3.789   0.531  11.228  0.3239 -1.6732 -0.7925
  560TMC3    C7 8314   3.962   0.699  11.204  0.1799 -0.3272 -0.5106
  560TMC3    C8 8315   3.665   0.359  11.073 -0.0256  0.0322  0.2742
  560TMC3    O1 8316   3.913   0.694  11.316  0.4465 -0.2621 -0.0538
  560TMC3    O2 8317   3.560   0.345  11.010 -0.1293  0.2531 -0.2031
  561TMC3    C1 8318   1.286   4.441  11.238  0.6419  0.5365  0.4354
  561TMC3    C2 8319   1.188   4.409  11.328 -0.5028  0.1053  0.3392
  561TMC3    C3 8320   1.181   4.479  11.448 -0.3084 -0.2962 -0.3588
  561TMC3    C4 8321   1.341   4.567  11.250 -0.6335  0.3707  0.2127
  561TMC3    C5 8322   1.315   4.646  11.363  0.4799 -0.4509 -0.6344
  561TMC3    C6 8323   1.238   4.601  11.465  0.4637 -0.0443  0.3315
  561TMC3     C 8324   1.296   4.351  11.130 -0.3533  0.6852 -0.3058
  561TMC3     O 8325   1.209   4.268  11.114  0.1643  0.0853 -0.4813
  561TMC3     H 8326   1.139   4.312  11.321  3.6461 -1.7938 -2.1930
  561TMC3    H1 8327   1.387   4.600  11.158 -1.5648 -0.4886 -0.5562
  561TMC3    H2 8328   1.227   4.656  11.558 -1.8325 -1.1308  0.7014
  561TMC3    C7 8329   1.344   0.065  11.356 -0.5473 -0.1962 -0.1556
  561TMC3    C8 8330   1.100   4.429  11.554  1.0388  0.4811  0.1038
  561TMC3    O1 8331   1.320   0.129  11.461 -0.0814  0.3421 -0.3622
  561TMC3    O2 8332   1.116   4.306  11.567 -0.3829  0.7018  0.1541
  562TMC3    C1 8333   1.962   1.432  16.318  0.0167 -0.5620  0.0845
  562TMC3    C2 8334   1.863   1.431  16.227  0.6573 -0.3573 -0.3519
  562TMC3    C3 8335   1.864   1.339  16.129 -0.4259  0.1279 -0.5314
  562TMC3    C4 8336   2.031   1.313  16.339  0.3821  0.1280 -0.5702
  562TMC3    C5 8337   2.018   1.212  16.250  0.1553  0.2847 -0.6938
  562TMC3    C6 8338   1.935   1.226  16.139  0.6516  0.4792 -0.1591
  562TMC3     C 8339   1.986   1.537  16.404  0.2061  0.1102  0.3767
  562TMC3     O 8340   2.060   1.515  16.498  0.4081 -0.3488  0.2412
  562TMC3     H 8341   1.774   1.490  16.248  1.5069  1.0887 -0.8625
  562TMC3    H1 8342   2.106   1.316  16.418  0.5813 -1.4675 -0.7099
  562TMC3    H2 8343   1.935   1.152  16.059 -1.0171  0.2900  0.0159
  562TMC3    C7 8344   2.031   1.077  16.288 -0.2409  0.6351  0.0058
  562TMC3    C8 8345   1.743   1.328  16.045 -0.6742 -0.0137  0.0945
  562TMC3    O1 8346   1.998   0.997  16.206  0.5719 -0.1043  0.5607
  562TMC3    O2 8347   1.641   1.380  16.085  0.1874 -0.1755 -0.0418
  563MPD2     C 8348   4.174   2.413  15.779  0.5226 -0.6549  0.3351
  563MPD2    C1 8349   4.258   2.516  15.815  0.2992 -0.4809  0.2840
  563MPD2    C2 8350   4.390   2.488  15.861  0.2288  0.0341 -0.4169
  563MPD2    C3 8351   4.435   2.360  15.874  0.6067  0.3417  0.0918
  563MPD2    C4 8352   4.355   2.255  15.833  0.0340 -0.4437  0.5722
  563MPD2    C5 8353   4.224   2.285  15.795  0.1006  0.8376  0.4971
  563MPD2     H 8354   4.449   2.568  15.906  2.1931 -0.5763 -1.9554
  563MPD2    H1 8355   4.378   2.151  15.855  0.1665 -0.5026  0.1582
  563MPD2    H2 8356   4.069   2.428  15.755  0.9859  0.8381 -0.7301
  563MPD2    H3 8357   4.160   2.201  15.770  4.0150 -1.6901 -1.2209
  563MPD2     N 8358   4.565   2.340  15.931 -0.1618  0.7338  0.8443
  563MPD2    H5 8359   4.607   2.426  15.967 -3.6955  2.0533  1.8488
  563MPD2    N1 8360   4.201   2.641  15.832 -0.4632 -0.6996 -0.4898
  563MPD2    H7 8361   4.101   2.647  15.817 -0.3971 -0.6536 -0.9206
  564TMC3    C1 8362   4.196   2.809  15.996 -0.5024 -0.1771 -0.3401
  564TMC3    C2 8363   4.068   2.792  16.012 -0.2509  0.6707 -0.0667
  564TMC3    C3 8364   4.013   2.771  16.138  0.5372 -0.3071  0.8560
  564TMC3    C4 8365   4.276   2.803  16.106 -0.9492  0.1242 -0.4711
  564TMC3    C5 8366   4.228   2.771  16.229 -0.2548 -0.0940 -0.5279
  564TMC3    C6 8367   4.094   2.751  16.244  0.6535  0.5442  0.2156
  564TMC3     C 8368   4.269   2.757  15.876 -1.1573 -0.2213  1.4139
  564TMC3     O 8369   4.387   2.782  15.871  0.0166  0.7110  0.1052
  564TMC3     H 8370   4.000   2.792  15.928 -0.2567  1.7657 -0.0678
  564TMC3    H1 8371   4.382   2.784  16.095 -0.7604  0.9172 -0.0710
  564TMC3    H2 8372   4.055   2.726  16.342  1.0349 -1.1928 -0.0820
  564TMC3    C7 8373   4.297   2.648  16.271 -0.6541 -0.1061 -0.0512
  564TMC3    C8 8374   3.895   2.685  16.149  0.3203 -0.6147  0.7890
  564TMC3    O1 8375   4.410   2.661  16.319 -0.0853 -0.3531  0.1183
  564TMC3    O2 8376   3.857   2.661  16.263 -0.3473 -0.0881  0.8211
  565TMC3    C1 8377   3.943   3.588  10.275 -0.3892 -0.0252 -0.3359
  565TMC3    C2 8378   4.027   3.589  10.386  0.7430 -0.7809  0.4770
  565TMC3    C3 8379   3.963   3.560  10.498 -0.4713 -0.1835 -0.1424
  565TMC3    C4 8380   3.808   3.562  10.270 -0.2154  0.0667 -0.0578
  565TMC3    C5 8381   3.756   3.527  10.393 -0.2975 -0.2662  0.0728
  565TMC3    C6 8382   3.832   3.519  10.505 -0.0545 -0.1655  0.2889
  565TMC3     C 8383   3.995   3.650  10.152  0.5770 -0.9041  0.1985
  565TMC3     O 8384   3.918   3.731  10.098  0.0866  0.7111 -0.5102
  565TMC3     H 8385   4.134   3.609  10.396  0.5257  1.7576 -2.2350
  565TMC3    H1 8386   3.754   3.575  10.178 -2.3799 -1.4460  1.0117
  565TMC3    H2 8387   3.787   3.524  10.604 -0.5496  1.0060  0.0099
  565TMC3    C7 8388   3.628   3.457  10.393 -0.2354 -0.1118  0.4150
  565TMC3    C8 8389   4.051   3.551  10.615 -0.8154 -0.3773  0.8314
  565TMC3    O1 8390   3.573   3.469  10.283 -0.0378 -0.1719  0.3067
  565TMC3    O2 8391   4.162   3.600  10.615  0.0933  0.3501  0.7833
  566MPD2     C 8392   1.704   0.406  14.420  0.0719 -0.0912  0.0663
  566MPD2    C1 8393   1.776   0.323  14.332  0.3115  0.1648 -0.0622
  566MPD2    C2 8394   1.777   0.354  14.198 -0.0165 -0.1344 -0.1341
  566MPD2    C3 8395   1.694   0.453  14.139  0.0489 -0.4481  0.0924
  566MPD2    C4 8396   1.605   0.517  14.225  0.3470 -0.1599  0.0432
  566MPD2    C5 8397   1.622   0.504  14.362 -0.3860  0.3112  0.2399
  566MPD2     H 8398   1.837   0.307  14.121 -1.8399  0.3849 -1.8679
  566MPD2    H1 8399   1.539   0.597  14.191 -0.1018 -0.1934  0.8352
  566MPD2    H2 8400   1.720   0.385  14.525  0.6328  0.6355  0.1240
  566MPD2    H3 8401   1.564   0.569  14.427  2.9152  1.6804  1.7995
  566MPD2     N 8402   1.732   0.496  14.011 -0.6266  0.1583  0.4585
  566MPD2    H5 8403   1.812   0.452  13.966 -1.9562 -0.1250 -1.6402
  566MPD2    N1 8404   1.868   0.233  14.395  0.4138 -0.0941 -0.0179
  566MPD2    H7 8405   1.882   0.250  14.494  1.9360 -0.2478 -0.2066
  567TMC3    C1 8406   2.056   0.112  14.404  0.5470 -0.3225  0.4695
  567TMC3    C2 8407   2.180   0.112  14.341 -0.0997 -0.1158 -0.2760
  567TMC3    C3 8408   2.294   0.091  14.411  0.2101  0.4940  0.8461
  567TMC3    C4 8409   2.047   0.094  14.541  0.3421  0.2210 -0.2219
  567TMC3    C5 8410   2.164   0.083  14.614  0.2906 -0.7052 -0.0667
  567TMC3    C6 8411   2.282   0.080  14.553 -0.3698  0.3426  0.3384
  567TMC3     C 8412   1.951   0.153  14.326  0.0645 -0.3908  0.6481
  567TMC3     O 8413   1.949   0.123  14.206  0.0140 -0.7278 -0.4594
  567TMC3     H 8414   2.173   0.104  14.233  1.0734 -1.2985 -0.2621
  567TMC3    H1 8415   1.947   0.068  14.574  1.2132 -2.0180  0.6290
  567TMC3    H2 8416   2.371   0.068  14.613 -1.1779 -1.1756  1.2403
  567TMC3    C7 8417   2.164   0.057  14.755  0.2690  0.6774 -0.2795
  567TMC3    C8 8418   2.402   0.167  14.354  0.6154  0.3415  0.3103
  567TMC3    O1 8419   2.247   4.694  14.786  0.1958 -0.1347 -0.1947
  567TMC3    O2 8420   2.369   0.277  14.309  0.3684 -0.3139  0.1320
  568MPD2     C 8421   4.514   1.571  16.782  0.3445  0.2218  0.0106
  568MPD2    C1 8422   4.378   1.582  16.825  0.3268  0.0315 -0.1426
  568MPD2    C2 8423   4.302   1.688  16.779  0.2115 -0.5024  0.1318
  568MPD2    C3 8424   4.358   1.772  16.684 -0.5675 -0.3661 -0.1898
  568MPD2    C4 8425   4.488   1.758  16.644  0.8337  0.3582 -0.0920
  568MPD2    C5 8426   4.574   1.664  16.702 -0.1093  0.2645  0.6439
  568MPD2     H 8427   4.199   1.713  16.801  0.2122 -0.4055  0.0204
  568MPD2    H1 8428   4.529   1.824  16.568 -0.3795  0.3387 -0.7430
  568MPD2    H2 8429   4.578   1.488  16.811  2.1152  1.1305 -1.2645
  568MPD2    H3 8430   4.679   1.665  16.676  0.1611  0.4790  1.7349
  568MPD2     N 8431   4.272   1.873  16.623  0.3118 -0.0279 -0.1768
  568MPD2    H5 8432   4.173   1.868  16.642 -0.3417  1.8016 -3.0202
  568MPD2    N1 8433   4.334   1.487  16.918  0.0385  0.1296 -0.3059
  568MPD2    H7 8434   4.399   1.421  16.960  0.5174 -0.3611 -1.8383
  569TMC3    C1 8435   4.217   2.070  16.505  0.4862 -0.9147  0.0261
  569TMC3    C2 8436   4.222   2.197  16.551 -0.4500 -0.3656  0.4899
  569TMC3    C3 8437   4.106   2.258  16.567 -0.7173 -0.0090  0.3241
  569TMC3    C4 8438   4.104   2.011  16.454  0.8416 -0.0653 -0.4134
  569TMC3    C5 8439   3.980   2.075  16.475 -0.2294  0.5035  0.0782
  569TMC3    C6 8440   3.983   2.196  16.537  0.0106  0.3228 -0.1363
  569TMC3     C 8441   4.324   1.980  16.551 -0.3127  0.7717 -0.4020
  569TMC3     O 8442   4.434   2.025  16.566 -0.6805 -0.0683 -0.1221
  569TMC3     H 8443   4.322   2.231  16.575 -0.2096 -1.3384  0.8393
  569TMC3    H1 8444   4.115   1.917  16.402  0.4837  0.2189 -1.0178
  569TMC3    H2 8445   3.888   2.239  16.566 -1.7920 -3.4993 -0.4565
  569TMC3    C7 8446   3.901   2.074  16.357  0.2083 -0.4511  0.0556
  569TMC3    C8 8447   4.095   2.406  16.581 -0.3043 -0.2435  0.4324
  569TMC3    O1 8448   3.916   1.980  16.286 -0.4576  0.3535  0.1503
  569TMC3    O2 8449   3.985   2.446  16.569 -0.0235  0.3130 -0.6860
  570TMC3    C1 8450   3.071   4.561  16.477  0.4165  0.4425 -0.1853
  570TMC3    C2 8451   3.137   4.567  16.356 -0.4756 -0.3077 -0.4362
  570TMC3    C3 8452   3.164   4.694  16.300 -0.9655 -0.2970 -0.5107
  570TMC3    C4 8453   3.025   4.676  16.541 -0.3903  0.4445 -0.5357
  570TMC3    C5 8454   3.035   0.071  16.473 -0.2738 -0.0471 -0.6448
  570TMC3    C6 8455   3.105   0.083  16.355  0.2693  0.5115 -0.2189
  570TMC3     C 8456   3.091   4.449  16.561  0.0153 -0.1084 -0.1504
  570TMC3     O 8457   3.098   4.341  16.505  0.2156  0.0289  0.0517
  570TMC3     H 8458   3.176   4.475  16.316  3.6103  0.2337  2.3286
  570TMC3    H1 8459   2.984   4.680  16.641 -1.3266 -0.6926 -0.8683
  570TMC3    H2 8460   3.143   0.181  16.327 -0.3343  0.4354 -1.3129
  570TMC3    C7 8461   2.995   0.191  16.546  0.5080  0.0520 -0.0739
  570TMC3    C8 8462   3.284   4.719  16.227  0.2246  0.8318 -0.1519
  570TMC3    O1 8463   3.070   0.287  16.529 -0.8905 -0.2596 -0.1796
  570TMC3    O2 8464   3.340   0.096  16.249  0.1812  0.0050 -0.1033
  571MPD2     C 8465   2.314   2.098  17.265 -0.5805  0.1066  0.3730
  571MPD2    C1 8466   2.211   2.053  17.343  0.6441 -0.1537 -0.1148
  571MPD2    C2 8467   2.138   2.137  17.417  0.8196 -0.0886 -0.0786
  571MPD2    C3 8468   2.150   2.277  17.412 -0.4851  0.0279 -0.0955
  571MPD2    C4 8469   2.252   2.317  17.332 -0.0653  0.2807 -0.3197
  571MPD2    C5 8470   2.325   2.235  17.255  0.1854  0.3988 -0.1120
  571MPD2     H 8471   2.062   2.087  17.477  0.5226  0.5253  0.0639
  571MPD2    H1 8472   2.283   2.420  17.330 -0.2150  0.2632 -2.6190
  571MPD2    H2 8473   2.393   2.041  17.216  1.0194  3.0749 -0.5394
  571MPD2    H3 8474   2.401   2.266  17.185  1.5594  3.4909  2.7434
  571MPD2     N 8475   2.069   2.369  17.484 -0.5848 -0.3061  0.4991
  571MPD2    H5 8476   2.100   2.465  17.472 -0.1096 -0.5779 -0.4777
  571MPD2    N1 8477   2.186   1.916  17.341 -0.0505 -0.2051  0.5125
  571MPD2    H7 8478   2.257   1.862  17.292  0.0371 -1.3970  1.9424
  572TMC3    C1 8479   1.911   2.448  17.627 -0.1309 -0.1048  0.6607
  572TMC3    C2 8480   1.813   2.400   0.015  0.4956 -0.1711 -0.2031
  572TMC3    C3 8481   1.691   2.467   0.025  0.6436 -0.2653 -0.2822
  572TMC3    C4 8482   1.876   2.551  17.537 -0.3760  0.2250  0.6182
  572TMC3    C5 8483   1.749   2.604  17.546 -0.4310  0.1325  0.0294
  572TMC3    C6 8484   1.659   2.571  17.639 -0.3888 -0.1098 -0.4621
  572TMC3     C 8485   1.966   2.332  17.565 -0.0037  0.2807  0.9443
  572TMC3     O 8486   1.927   2.223  17.604  0.0006  0.4491 -0.3677
  572TMC3     H 8487   1.851   2.323   0.081 -0.1508 -0.5778 -0.3080
  572TMC3    H1 8488   1.926   2.573  17.444  1.1221 -0.1056  1.3586
  572TMC3    H2 8489   1.567   2.626  17.630  0.3098  0.9469 -1.0992
  572TMC3    C7 8490   1.732   2.732  17.488  0.6758  0.0966  0.6969
  572TMC3    C8 8491   1.600   2.414   0.113 -0.8243  0.0033 -0.5223
  572TMC3    O1 8492   1.614   2.752  17.450  0.0169 -0.3311 -0.3678
  572TMC3    O2 8493   1.652   2.335   0.192  0.0644  0.1275 -0.1828
  573MPD2     C 8494   2.988   2.122   0.758  0.4944  0.5552 -0.2549
  573MPD2    C1 8495   2.885   2.043   0.706 -0.1503  0.9112 -0.3200
  573MPD2    C2 8496   2.812   2.098   0.601  0.1941  0.4178  0.6659
  573MPD2    C3 8497   2.846   2.218   0.540  0.6309  0.3654 -0.1182
  573MPD2    C4 8498   2.959   2.282   0.588 -0.2901 -0.0442  0.1256
  573MPD2    C5 8499   3.023   2.237   0.701  0.7374  0.2233 -0.1350
  573MPD2     H 8500   2.715   2.059   0.572  0.0317  1.7108 -0.5205
  573MPD2    H1 8501   2.987   2.381   0.555  1.0436 -0.0700  1.1519
  573MPD2    H2 8502   3.046   2.088   0.843  0.8087 -1.5158 -1.2863
  573MPD2    H3 8503   3.110   2.294   0.731  1.0459  0.5994 -1.7849
  573MPD2     N 8504   2.775   2.265   0.430 -0.0756 -0.0080  0.2103
  573MPD2    H5 8505   2.685   2.222   0.414 -0.4608  1.1409 -0.7352
  573MPD2    N1 8506   2.852   1.918   0.764  0.9393 -0.7526 -0.7061
  573MPD2    H7 8507   2.771   1.865   0.733 -0.9022  1.8934 -0.3078
  574TMC3    C1 8508   2.697   2.426   0.270  0.3115  0.1481  0.4346
  574TMC3    C2 8509   2.727   2.473   0.149 -0.0169 -0.2870  0.0975
  574TMC3    C3 8510   2.666   2.577   0.093 -0.7075  0.1250  0.0332
  574TMC3    C4 8511   2.599   2.487   0.346 -0.3180 -0.2790  0.1247
  574TMC3    C5 8512   2.545   2.601   0.291 -0.6693  0.1653 -0.4589
  574TMC3    C6 8513   2.571   2.647   0.167 -0.3441  0.1014  0.6470
  574TMC3     C 8514   2.805   2.369   0.351 -0.2057  0.3337 -0.4466
  574TMC3     O 8515   2.918   2.415   0.332  0.3227  0.2096 -0.1906
  574TMC3     H 8516   2.797   2.417   0.088  0.9702 -0.0634  1.0346
  574TMC3    H1 8517   2.590   2.459   0.450  1.1393  0.1851  0.3688
  574TMC3    H2 8518   2.496   2.718   0.133 -0.3605  0.3676  1.2383
  574TMC3    C7 8519   2.435   2.668   0.368  0.5073 -0.4330 -0.5758
  574TMC3    C8 8520   2.649   2.573  17.643  0.4785 -0.7149 -0.6355
  574TMC3    O1 8521   2.430   2.786   0.343  0.0201 -0.0657 -0.3731
  574TMC3    O2 8522   2.704   2.478  17.581 -0.6198 -0.3120 -0.1795
  575TMC3    C1 8523   0.085   3.671  11.042 -0.3325  0.0992 -0.0782
  575TMC3    C2 8524   0.078   3.754  11.156  0.2662  0.3477 -0.2650
  575TMC3    C3 8525   4.686   3.764  11.231  0.0709 -0.8961 -0.2864
  575TMC3    C4 8526   4.690   3.617  10.993 -0.0324 -0.4474  0.2507
  575TMC3    C5 8527   4.575   3.630  11.067 -0.3459 -0.5418 -0.2421
  575TMC3    C6 8528   4.570   3.697  11.192 -0.0410  0.4607 -0.6571
  575TMC3     C 8529   0.197   3.667  10.947  0.0656  0.3863  0.7345
  575TMC3     O 8530   0.191   3.575  10.867  0.5653 -0.0298  0.2892
  575TMC3     H 8531   0.167   3.804  11.192  0.3898 -0.2122  0.2247
  575TMC3    H1 8532   4.690   3.563  10.899  0.8461 -2.2834  1.3045
  575TMC3    H2 8533   4.479   3.709  11.249 -0.3077 -0.9085 -0.8156
  575TMC3    C7 8534   4.447   3.615  11.000 -0.6171 -0.7045 -0.9083
  575TMC3    C8 8535   4.688   3.828  11.364 -0.0108 -0.1392 -0.5066
  575TMC3    O1 8536   4.449   3.609  10.878  0.1502  0.1133 -0.0055
  575TMC3    O2 8537   4.607   3.786  11.443 -0.6575  0.4343 -0.3026
  576MPD2     C 8538   4.717   0.104  12.378 -0.2988 -0.3965  0.3229
  576MPD2    C1 8539   0.022   0.218  12.304  0.1631  0.0136 -0.3998
  576MPD2    C2 8540   4.681   0.338  12.339  1.0862 -0.1503  0.0407
  576MPD2    C3 8541   4.605   0.341  12.450 -0.1325 -0.0994 -0.3860
  576MPD2    C4 8542   4.585   0.222  12.525  0.5988  0.3494  0.8114
  576MPD2    C5 8543   4.637   0.104  12.484  0.3119  0.0447 -0.1778
  576MPD2     H 8544   4.688   0.425  12.275  0.7556 -0.4395 -0.3889
  576MPD2    H1 8545   4.528   0.222  12.618 -0.4909 -2.0933  0.1373
  576MPD2    H2 8546   0.037   0.008  12.353  1.0893  0.0406  1.0369
  576MPD2    H3 8547   4.611   0.016  12.542  0.1401 -1.0503 -1.9414
  576MPD2     N 8548   4.550   0.466  12.490 -0.4886  0.2179 -0.0376
  576MPD2    H5 8549   4.583   0.541  12.429 -1.8263  1.0422  0.2602
  576MPD2    N1 8550   0.106   0.216  12.194 -0.3923  0.0510 -0.2559
  576MPD2    H7 8551   0.128   0.306  12.151 -1.6444  0.1962 -0.5976
  577TMC3    C1 8552   0.285   0.138  12.065 -0.7462 -0.5211  0.1090
  577TMC3    C2 8553   0.403   0.085  12.096 -0.0742  0.1667  0.0232
  577TMC3    C3 8554   0.510   0.088  12.013 -0.4765  0.1174  0.1720
  577TMC3    C4 8555   0.266   0.204  11.947 -0.3260 -0.0930  0.4862
  577TMC3    C5 8556   0.379   0.218  11.873 -0.0479  0.5835 -0.1994
  577TMC3    C6 8557   0.499   0.160  11.896  0.1615  0.2581 -0.2026
  577TMC3     C 8558   0.165   0.100  12.145  0.4713 -0.2103 -0.9239
  577TMC3     O 8559   0.165   4.704  12.180  0.3589  0.2049  0.2960
  577TMC3     H 8560   0.409   0.007  12.171  1.5550  2.0013  1.7960
  577TMC3    H1 8561   0.173   0.253  11.923 -1.9478 -3.1889  0.5030
  577TMC3    H2 8562   0.575   0.160  11.818 -1.5138 -1.6383 -1.8121
  577TMC3    C7 8563   0.368   0.253  11.738  0.9181  0.5238  0.1996
  577TMC3    C8 8564   0.572   4.681  11.988 -0.0108 -0.6924  0.2163
  577TMC3    O1 8565   0.468   0.293  11.677  0.3495  0.0019  0.2282
  577TMC3    O2 8566   0.522   4.581  12.039 -0.6217  0.0119 -0.1161
  578MPD2     C 8567   2.645   0.257   0.862  0.3311 -0.1148 -0.0702
  578MPD2    C1 8568   2.752   0.224   0.941  0.3811  0.0862  0.1040
  578MPD2    C2 8569   2.738   0.230   1.077 -0.3363 -0.4956  0.1948
  578MPD2    C3 8570   2.622   0.271   1.137  0.7751  0.3792  0.7743
  578MPD2    C4 8571   2.521   0.319   1.055  0.0007 -0.3727  0.0913
  578MPD2    C5 8572   2.531   0.304   0.919  0.5503  0.3683 -0.9051
  578MPD2     H 8573   2.822   0.194   1.136 -0.9910  0.4508  1.6752
  578MPD2    H1 8574   2.429   0.364   1.089  0.6145  0.2961  0.8666
  578MPD2    H2 8575   2.653   0.257   0.754  0.6455  1.3403 -0.0505
  578MPD2    H3 8576   2.440   0.322   0.864  0.4940  0.3196 -0.8270
  578MPD2     N 8577   2.618   0.269   1.273  0.1604  0.4064  0.2835
  578MPD2    H5 8578   2.701   0.231   1.318  0.4225 -0.7778 -1.1649
  578MPD2    N1 8579   2.877   0.197   0.878  0.3135  0.2623  0.0622
  578MPD2    H7 8580   2.878   0.229   0.781  0.4018  0.9668  0.2903
  579TMC3    C1 8581   2.530   0.339   1.494  0.5573  0.7900  0.3901
  579TMC3    C2 8582   2.543   0.468   1.523 -0.3469  0.2420 -0.5380
  579TMC3    C3 8583   2.666   0.498   1.573 -0.6401  0.4320 -0.4724
  579TMC3    C4 8584   2.608   0.242   1.557 -0.0902  0.1361  0.0945
  579TMC3    C5 8585   2.717   0.286   1.641  0.2000  0.2152  0.1255
  579TMC3    C6 8586   2.755   0.415   1.637 -0.2924  0.8761  0.0918
  579TMC3     C 8587   2.510   0.314   1.350 -0.7971  0.3624  0.2991
  579TMC3     O 8588   2.401   0.354   1.316 -0.7105 -0.0622  0.6630
  579TMC3     H 8589   2.490   0.545   1.468  0.6405  1.8886  0.8227
  579TMC3    H1 8590   2.582   0.137   1.544  0.7743  0.1416 -1.6419
  579TMC3    H2 8591   2.844   0.454   1.684  0.1014  1.7109 -1.3658
  579TMC3    C7 8592   2.777   0.190   1.728  0.4188 -0.6504  0.4602
  579TMC3    C8 8593   2.720   0.625   1.531  0.0377 -0.2570  0.0050
  579TMC3    O1 8594   2.826   0.213   1.836  0.2932  0.1506 -0.4849
  579TMC3    O2 8595   2.640   0.717   1.501  0.3877  0.6726  0.4904
  580TMC3    C1 8596   2.519   3.911  12.005  0.2264 -0.4183  0.2947
  580TMC3    C2 8597   2.591   3.868  11.894 -0.1214  0.1484  0.5732
  580TMC3    C3 8598   2.683   3.773  11.913 -0.1342  0.0374  0.1161
  580TMC3    C4 8599   2.527   3.857  12.130 -0.1289  0.1300 -0.0487
  580TMC3    C5 8600   2.608   3.749  12.137  0.7453 -0.8664  0.4516
  580TMC3    C6 8601   2.698   3.726  12.039  0.3535  0.0277  1.2808
  580TMC3     C 8602   2.488   4.048  12.001 -0.0962  0.9983 -0.4272
  580TMC3     O 8603   2.525   4.113  11.904 -0.3424  0.1106 -0.2620
  580TMC3     H 8604   2.591   3.923  11.800  0.2271 -0.5817  0.1452
  580TMC3    H1 8605   2.467   3.887  12.215  1.4227 -0.7639  1.3634
  580TMC3    H2 8606   2.771   3.646  12.044 -1.3139 -1.7247 -2.1536
  580TMC3    C7 8607   2.622   3.678  12.257  0.3326 -0.9638  0.3805
  580TMC3    C8 8608   2.805   3.829  11.857 -0.2489 -0.2904  0.0539
  580TMC3    O1 8609   2.638   3.740  12.359  0.0783 -0.3580 -0.0285
  580TMC3    O2 8610   2.809   3.849  11.737  0.1723  0.1302 -0.1409
  581MPD2     C 8611   0.797   3.712  14.966 -0.1726  0.6455 -0.6114
  581MPD2    C1 8612   0.678   3.751  15.027  0.3168  0.0186  0.0099
  581MPD2    C2 8613   0.606   3.847  14.964  0.4748  0.5797 -0.3360
  581MPD2    C3 8614   0.653   3.912  14.854  0.4578  0.1031 -0.1293
  581MPD2    C4 8615   0.769   3.867  14.789 -0.5227 -0.2149 -0.8504
  581MPD2    C5 8616   0.839   3.765  14.852 -0.0740  0.3508 -0.2936
  581MPD2     H 8617   0.510   3.878  15.004 -0.1297  1.2769 -2.3526
  581MPD2    H1 8618   0.806   3.907  14.695 -1.0224  0.9709 -0.5373
  581MPD2    H2 8619   0.855   3.630  15.007  0.9266  0.9857 -1.4912
  581MPD2    H3 8620   0.940   3.747  14.819  0.6839 -2.1642  3.3560
  581MPD2     N 8621   0.578   4.022  14.812 -0.2382 -0.1643  0.4473
  581MPD2    H5 8622   0.498   4.047  14.869  0.5508 -0.9279  1.8936
  581MPD2    N1 8623   0.616   3.686  15.141 -0.1391  0.4178 -0.1453
  581MPD2    H7 8624   0.535   3.733  15.181  0.3639  2.5559 -1.6387
  582TMC3    C1 8625   0.600   3.548  15.324  0.3102  0.4217  0.3858
  582TMC3    C2 8626   0.671   3.514  15.431  0.1709  0.0193 -0.1929
  582TMC3    C3 8627   0.601   3.450  15.531 -0.0439 -0.5117 -0.0639
  582TMC3    C4 8628   0.473   3.520  15.305 -0.1753  0.0661  0.4671
  582TMC3    C5 8629   0.406   3.474  15.418 -0.3144 -0.5347 -0.3973
  582TMC3    C6 8630   0.472   3.429  15.529 -0.2558  0.2595 -0.0291
  582TMC3     C 8631   0.672   3.582  15.210  0.8307 -0.1295 -0.7230
  582TMC3     O 8632   0.783   3.536  15.204  0.2718 -0.2048 -0.3185
  582TMC3     H 8633   0.778   3.532  15.434  0.0289  0.5490  1.5124
  582TMC3    H1 8634   0.418   3.547  15.216  1.3542  1.0414 -0.1879
  582TMC3    H2 8635   0.413   3.398  15.614  1.7676  0.0294  1.2856
  582TMC3    C7 8636   0.268   3.504  15.433  0.6028 -0.7927  0.0015
  582TMC3    C8 8637   0.650   3.480  15.667  0.0099  0.4683 -0.0301
  582TMC3    O1 8638   0.196   3.435  15.507 -0.3425 -0.0949 -0.3652
  582TMC3    O2 8639   0.561   3.518  15.741  0.4343 -0.0496  0.3869
  583MPD2     C 8640   0.544   0.485  17.097  0.0947 -0.0110 -0.2410
  583MPD2    C1 8641   0.599   0.602  17.051  0.5145  0.1922 -0.1375
  583MPD2    C2 8642   0.526   0.721  17.058 -0.1843  0.1548 -0.8641
  583MPD2    C3 8643   0.399   0.733  17.113  0.9450 -0.1324  0.0497
  583MPD2    C4 8644   0.353   0.618  17.166  0.4511 -0.0466  0.2445
  583MPD2    C5 8645   0.426   0.496  17.160  0.7853 -0.6368 -0.2725
  583MPD2     H 8646   0.586   0.807  17.031 -0.9345  1.3844  1.4126
  583MPD2    H1 8647   0.268   0.616  17.233  1.3372 -0.6653  1.3569
  583MPD2    H2 8648   0.586   0.388  17.074  1.2513  0.7537 -1.3267
  583MPD2    H3 8649   0.372   0.413  17.204  0.3274 -0.1649  0.0569
  583MPD2     N 8650   0.323   0.857  17.120  0.6073 -0.4437  0.3612
  583MPD2    H5 8651   0.374   0.944  17.112 -1.1379  0.5364 -0.1165
  583MPD2    N1 8652   0.723   0.608  16.980  0.0763  0.2204 -0.2800
  583MPD2    H7 8653   0.736   0.685  16.914 -0.9976 -0.1046 -0.8680
  584TMC3    C1 8654   0.179   1.005  17.204  0.3751  0.1622  0.6683
  584TMC3    C2 8655   0.226   1.109  17.125  0.1618  0.1414 -1.2234
  584TMC3    C3 8656   0.233   1.227  17.183  0.6712  0.0377  0.1955
  584TMC3    C4 8657   0.166   1.018  17.339  0.0737  0.2123  0.2410
  584TMC3    C5 8658   0.190   1.144  17.392  0.3064  0.0805  0.4422
  584TMC3    C6 8659   0.214   1.251  17.318 -0.2448  0.0909 -0.1187
  584TMC3     C 8660   0.199   0.866  17.161 -0.1238  0.0323  1.0872
  584TMC3     O 8661   0.119   0.786  17.207  0.0277  0.0916 -0.5004
  584TMC3     H 8662   0.256   1.095  17.022 -0.6179 -1.3632 -1.2412
  584TMC3    H1 8663   0.157   0.930  17.401 -2.4366  0.4361  0.1804
  584TMC3    H2 8664   0.223   1.348  17.365  0.7557 -0.0449 -0.0342
  584TMC3    C7 8665   0.244   1.142  17.520 -0.1650  0.6072  0.0534
  584TMC3    C8 8666   0.295   1.327  17.111  0.2230 -0.0371  0.1099
  584TMC3    O1 8667   0.327   1.060  17.554 -0.2899 -0.2088  0.3922
  584TMC3    O2 8668   0.263   1.332  16.988 -0.4967 -0.3099  0.0124
  585MPD2     C 8669   4.149   0.273   0.644  0.5868 -0.0168  0.4444
  585MPD2    C1 8670   4.189   0.296   0.515 -0.0747 -0.7511  0.0700
  585MPD2    C2 8671   4.288   0.218   0.456 -0.5482 -0.5241  0.0269
  585MPD2    C3 8672   4.340   0.108   0.519  0.7713 -0.3712  0.3438
  585MPD2    C4 8673   4.278   0.078   0.643  0.2931 -0.2059  0.0441
  585MPD2    C5 8674   4.191   0.161   0.707 -0.3276  0.5727 -0.1525
  585MPD2     H 8675   4.316   0.229   0.352  1.1157  0.5480  0.5770
  585MPD2    H1 8676   4.305   4.706   0.689 -2.7800 -0.2291  1.8008
  585MPD2    H2 8677   4.081   0.345   0.688 -1.5928 -0.5413 -2.0557
  585MPD2    H3 8678   4.151   0.132   0.804  1.8714 -0.6651  0.3718
  585MPD2     N 8679   4.434   0.014   0.475 -0.0516  0.3640  0.6812
  585MPD2    H5 8680   4.444   4.653   0.530 -2.5832  0.0963  0.7352
  585MPD2    N1 8681   4.131   0.407   0.450  0.4739  0.6374  0.9855
  585MPD2    H7 8682   4.070   0.466   0.504 -0.5228 -0.3825  0.9733
  586TMC3    C1 8683   4.583   4.628   0.329  0.1968  0.0472  0.1242
  586TMC3    C2 8684   4.721   4.637   0.321  0.3507  0.4817 -0.0273
  586TMC3    C3 8685   0.072   4.524   0.360 -0.2612  0.3781  0.5834
  586TMC3    C4 8686   4.527   4.512   0.373 -0.0330 -0.0127  0.4760
  586TMC3    C5 8687   4.598   4.399   0.404  0.4310 -0.5993 -0.3508
  586TMC3    C6 8688   0.010   4.410   0.408  0.2890  0.6667 -0.2912
  586TMC3     C 8689   4.504   0.025   0.357  0.2831  0.0872 -0.4520
  586TMC3     O 8690   4.518   0.126   0.288  0.3008  0.3217  0.3516
  586TMC3     H 8691   0.049   0.008   0.304 -0.3451  1.0187  0.8268
  586TMC3    H1 8692   4.419   4.502   0.372 -0.0885  0.5629  1.0387
  586TMC3    H2 8693   0.067   4.320   0.427 -0.8431  0.4100  1.8970
  586TMC3    C7 8694   4.543   4.285   0.331 -0.1374  0.2610 -0.0846
  586TMC3    C8 8695   0.169   4.488   0.256  0.0643 -0.0799  0.6749
  586TMC3    O1 8696   4.424   4.261   0.361  1.0246  0.4764 -0.2753
  586TMC3    O2 8697   0.225   4.386   0.280 -0.2925 -0.0127 -0.3205
  587TMC3    C1 8698   2.010   2.981  16.543 -0.2513 -0.5964  0.2615
  587TMC3    C2 8699   2.018   3.108  16.587 -0.4515  0.0990 -0.8839
  587TMC3    C3 8700   2.137   3.152  16.649  0.0505 -0.3355 -0.0082
  587TMC3    C4 8701   2.109   2.890  16.566  0.0827 -0.1718 -1.3313
  587TMC3    C5 8702   2.233   2.937  16.618  0.5843  0.8855 -0.2437
  587TMC3    C6 8703   2.246   3.069  16.662 -0.6014  0.4696 -0.1142
  587TMC3     C 8704   1.920   2.942  16.435  0.3766  0.6253  0.1481
  587TMC3     O 8705   1.891   2.824  16.411 -0.1982 -0.0176  0.5132
  587TMC3     H 8706   1.930   3.170  16.596 -1.3302 -0.6606 -4.3290
  587TMC3    H1 8707   2.095   2.785  16.542  0.9218 -1.0206  1.7928
  587TMC3    H2 8708   2.335   3.115  16.702  0.0958 -0.7981 -0.2003
  587TMC3    C7 8709   2.338   2.835  16.668  0.0023  0.1050  0.1973
  587TMC3    C8 8710   2.136   3.281  16.714 -0.7726  0.0032 -0.2945
  587TMC3    O1 8711   2.300   2.721  16.657  0.1790 -0.6527 -0.1062
  587TMC3    O2 8712   2.219   3.287  16.802 -0.4715  0.1090 -0.0447
  588TMC3    C1 8713   4.505   0.917   9.817  0.0482  0.8744 -0.6355
  588TMC3    C2 8714   4.466   0.793   9.788  0.3422 -0.3184 -0.9933
  588TMC3    C3 8715   4.554   0.685   9.787 -0.2683 -0.2632  0.2880
  588TMC3    C4 8716   4.638   0.937   9.828  0.8031 -0.5104 -0.2482
  588TMC3    C5 8717   0.001   0.829   9.822  0.8437  0.2113  0.0836
  588TMC3    C6 8718   4.688   0.700   9.815  0.4066 -0.4343 -0.2327
  588TMC3     C 8719   4.413   1.033   9.818 -0.1198  0.2267  0.2577
  588TMC3     O 8720   4.301   1.020   9.771  0.3038  0.9035 -0.5332
  588TMC3     H 8721   4.363   0.783   9.756 -0.1918  0.5346  0.4436
  588TMC3    H1 8722   4.664   1.041   9.813 -0.0054 -0.1412  0.9393
  588TMC3    H2 8723   0.043   0.625   9.811  0.5967 -0.1705 -1.6176
  588TMC3    C7 8724   0.137   0.863   9.858  0.0397 -0.1809  0.1961
  588TMC3    C8 8725   4.501   0.554   9.786  1.1055 -0.2254 -0.5660
  588TMC3    O1 8726   0.231   0.796   9.819  0.0030  0.1369 -0.6491
  588TMC3    O2 8727   4.387   0.538   9.745  0.1799 -0.0886 -0.0597
  589TMC3    C1 8728   4.087   2.833   1.363 -0.3172  0.5958 -0.1934
  589TMC3    C2 8729   4.161   2.871   1.468 -0.4477 -0.0217  0.6695
  589TMC3    C3 8730   4.298   2.885   1.457  0.1051  1.0244 -0.0456
  589TMC3    C4 8731   4.144   2.807   1.246 -0.6765  0.6854  0.1723
  589TMC3    C5 8732   4.282   2.826   1.235  0.0794  0.5084  0.4948
  589TMC3    C6 8733   4.364   2.865   1.337  0.5496 -0.6729 -0.2091
  589TMC3     C 8734   3.943   2.819   1.378  0.8592 -0.4840 -0.9202
  589TMC3     O 8735   3.889   2.790   1.270 -0.1450  0.3618  0.2497
  589TMC3     H 8736   4.114   2.923   1.551 -1.1555  1.6997 -0.7970
  589TMC3    H1 8737   4.085   2.795   1.156  2.0161  0.8115 -1.6394
  589TMC3    H2 8738   4.472   2.857   1.327  0.7807  0.4379  1.4717
  589TMC3    C7 8739   4.347   2.763   1.127 -0.1712 -0.5228 -0.3647
  589TMC3    C8 8740   4.375   2.938   1.568  0.1531  0.0044  0.1770
  589TMC3    O1 8741   4.460   2.717   1.149  0.3300  0.4069  0.7829
  589TMC3    O2 8742   4.307   2.950   1.670  0.2826 -0.2945 -0.3404
  590MPD2     C 8743   2.754   1.572  16.681  0.2552  0.6802 -0.2600
  590MPD2    C1 8744   2.719   1.579  16.549  1.7174 -0.1486 -0.1927
  590MPD2    C2 8745   2.797   1.640  16.454 -0.1026  0.1030 -0.1638
  590MPD2    C3 8746   2.925   1.684  16.488 -0.1424  0.1047  0.2348
  590MPD2    C4 8747   2.965   1.667  16.614 -0.6084  0.1561  0.5574
  590MPD2    C5 8748   2.884   1.619  16.715 -0.4381 -0.1174 -0.3223
  590MPD2     H 8749   2.762   1.648  16.352 -0.2827 -0.4553 -0.1484
  590MPD2    H1 8750   3.056   1.719  16.642  0.6051  0.3576 -3.8311
  590MPD2    H2 8751   2.691   1.525  16.755 -1.2668  1.4332 -1.0795
  590MPD2    H3 8752   2.923   1.620  16.816  2.2708  0.5033 -1.3686
  590MPD2     N 8753   2.998   1.744  16.380 -0.0245  0.2451 -1.1147
  590MPD2    H5 8754   2.941   1.767  16.299 -0.3667 -0.6092 -1.1248
  590MPD2    N1 8755   2.578   1.558  16.518 -0.3059  0.9327  0.4195
  590MPD2    H7 8756   2.510   1.554  16.593 -0.2850 -0.2303  0.3741
  591TMC3    C1 8757   3.166   1.865  16.279 -0.3551 -0.6931  0.4344
  591TMC3    C2 8758   3.297   1.852  16.240 -0.3016 -0.1740 -0.5928
  591TMC3    C3 8759   3.326   1.906  16.123 -0.2352  0.6478 -0.7266
  591TMC3    C4 8760   3.073   1.948  16.222  0.1319 -0.1951 -0.4708
  591TMC3    C5 8761   3.110   2.004  16.106 -0.0395  0.1554  0.2247
  591TMC3    C6 8762   3.235   1.986  16.054 -0.0003 -0.7092 -0.3649
  591TMC3     C 8763   3.128   1.783  16.391  0.3319  0.0862 -0.8611
  591TMC3     O 8764   3.217   1.739  16.460 -0.8915 -0.3552  0.4146
  591TMC3     H 8765   3.373   1.793  16.290 -1.1742 -0.5835  0.2321
  591TMC3    H1 8766   2.968   1.959  16.246 -0.2593 -0.5675 -1.9975
  591TMC3    H2 8767   3.260   2.035  15.960 -1.2893  2.0119  0.7134
  591TMC3    C7 8768   3.046   2.129  16.077 -0.7847  0.2198 -0.3846
  591TMC3    C8 8769   3.436   1.844  16.056 -0.2419 -0.3709  0.2121
  591TMC3    O1 8770   2.923   2.135  16.077 -0.4655 -0.3433  0.1264
  591TMC3    O2 8771   3.439   1.722  16.080  0.0252  0.6507  0.2524
  592MPD2     C 8772   3.798   3.895  11.526 -0.6612  0.0928 -0.7461
  592MPD2    C1 8773   3.824   3.898  11.660 -0.2946 -0.6170 -0.2371
  592MPD2    C2 8774   3.746   3.823  11.744  0.0804 -0.3004  0.1029
  592MPD2    C3 8775   3.655   3.737  11.695 -0.0847  0.6954 -0.1266
  592MPD2    C4 8776   3.646   3.722  11.560  0.2302  0.7361 -0.0472
  592MPD2    C5 8777   3.729   3.792  11.475 -0.0162  0.0434  0.1498
  592MPD2     H 8778   3.754   3.839  11.851  0.0089  0.2397  0.0279
  592MPD2    H1 8779   3.578   3.655  11.509  3.6333 -0.6190 -2.8163
  592MPD2    H2 8780   3.865   3.947  11.459  1.8917 -0.4862  1.3666
  592MPD2    H3 8781   3.717   3.779  11.368  2.2791 -0.7691  0.0046
  592MPD2     N 8782   3.582   3.651  11.783 -0.4473  0.3247 -0.6592
  592MPD2    H5 8783   3.595   3.663  11.882  1.2807 -4.0176 -0.3659
  592MPD2    N1 8784   3.915   3.996  11.708 -0.5656  0.2469  0.1893
  592MPD2    H7 8785   3.959   4.059  11.641  0.0068  1.6789  1.9094
  593TMC3    C1 8786   4.081   4.096  11.847 -0.1667 -0.7391 -0.0540
  593TMC3    C2 8787   4.129   4.119  11.979  0.2273  0.1168  0.2691
  593TMC3    C3 8788   4.249   4.186  11.994 -1.0238 -0.0782  0.0159
  593TMC3    C4 8789   4.146   4.147  11.735 -0.3528 -0.4700 -1.0636
  593TMC3    C5 8790   4.267   4.207  11.760 -0.1671 -0.5786 -0.3523
  593TMC3    C6 8791   4.320   4.227  11.887 -0.5205 -0.6165  0.0566
  593TMC3     C 8792   3.967   4.003  11.837  0.3980  0.1566  0.8254
  593TMC3     O 8793   3.926   3.950  11.939  0.0028 -0.0664  0.4839
  593TMC3     H 8794   4.084   4.082  12.070 -0.4067  0.1777 -0.0152
  593TMC3    H1 8795   4.117   4.131  11.632  1.2784  0.2630 -1.6254
  593TMC3    H2 8796   4.409   4.287  11.899 -0.7536 -0.2876  0.1474
  593TMC3    C7 8797   4.339   4.261  11.645  0.1917 -0.5391  0.6382
  593TMC3    C8 8798   4.305   4.202  12.125  0.3401  0.2967 -0.3000
  593TMC3    O1 8799   4.263   4.330  11.579  0.0257 -0.1633  0.0912
  593TMC3    O2 8800   4.222   4.206  12.214  0.0086  0.7806 -0.0719
  594MPD2     C 8801   2.270   2.408  14.167  0.0645 -0.6428 -0.5663
  594MPD2    C1 8802   2.270   2.449  14.300  0.3000  0.3229 -0.2898
  594MPD2    C2 8803   2.380   2.529  14.346  0.6979  0.7369  0.7203
  594MPD2    C3 8804   2.485   2.558  14.261  0.1987 -0.0976 -0.0642
  594MPD2    C4 8805   2.470   2.526  14.122  0.6187  0.4072 -0.4007
  594MPD2    C5 8806   2.362   2.457  14.076  0.3050  0.8803 -0.0612
  594MPD2     H 8807   2.383   2.553  14.451  1.0074 -0.1555  0.9160
  594MPD2    H1 8808   2.544   2.559  14.049  0.1378  0.2609 -0.9567
  594MPD2    H2 8809   2.185   2.366  14.114 -0.6223 -0.0012  0.0342
  594MPD2    H3 8810   2.362   2.445  13.968  1.4596 -1.0206  0.1422
  594MPD2     N 8811   2.585   2.642  14.313 -0.0615 -0.0196 -0.1919
  594MPD2    H5 8812   2.565   2.687  14.402  1.3010 -0.4348  0.3134
  594MPD2    N1 8813   2.174   2.385  14.387  0.6367 -0.0022 -0.1684
  594MPD2    H7 8814   2.117   2.312  14.345  2.3140  0.1557 -2.7423
  595TMC3    C1 8815   2.958   2.897  14.397 -0.4702  0.3541 -0.1846
  595TMC3    C2 8816   2.901   2.786  14.330  0.0747 -0.7712 -0.5602
  595TMC3    C3 8817   2.767   2.782  14.318 -0.2939 -0.6438 -0.3718
  595TMC3    C4 8818   2.884   3.007  14.425 -0.8938  0.0767  0.5048
  595TMC3    C5 8819   2.750   3.000  14.407  0.2236 -0.0089  0.2569
  595TMC3    C6 8820   2.689   2.888  14.354  0.5604  0.3560 -0.4071
  595TMC3     C 8821   3.096   2.908  14.409 -0.2288 -0.7395 -0.3548
  595TMC3     O 8822   3.142   2.994  14.481  0.2459 -0.5524  0.3812
  595TMC3     H 8823   2.945   2.688  14.312 -0.2341 -1.4854  2.7254
  595TMC3    H1 8824   2.939   3.082  14.481 -0.7113 -0.0977  0.5570
  595TMC3    H2 8825   2.584   2.895  14.329  0.0982  0.9614  1.6763
  595TMC3    C7 8826   2.660   3.106  14.465  0.4148 -0.1653  0.0368
  595TMC3    C8 8827   2.704   2.670  14.254  0.2780 -0.4262 -0.0187
  595TMC3    O1 8828   2.540   3.081  14.473  0.9267 -0.3317 -0.1944
  595TMC3    O2 8829   2.756   2.622  14.157 -0.3624 -0.0276  0.1848
  596MPD2     C 8830   1.725   0.300  17.038  0.5304  0.0228 -0.3549
  596MPD2    C1 8831   1.706   0.431  16.997  0.4925  0.0246  0.6028
  596MPD2    C2 8832   1.722   0.462  16.863  0.2371  0.9594  0.3149
  596MPD2    C3 8833   1.721   0.359  16.767  0.2550  0.8552  0.1825
  596MPD2    C4 8834   1.734   0.232  16.810 -0.6472  0.4108 -0.0876
  596MPD2    C5 8835   1.740   0.204  16.942  0.2067  0.1020  0.6382
  596MPD2     H 8836   1.716   0.564  16.827  0.9238  1.5606  1.9488
  596MPD2    H1 8837   1.751   0.154  16.737 -0.9505  0.1368  0.1369
  596MPD2    H2 8838   1.728   0.272  17.143 -1.7199  1.5297  0.1070
  596MPD2    H3 8839   1.757   0.103  16.978  2.5124  0.6575  1.1364
  596MPD2     N 8840   1.714   0.381  16.625  0.2972 -0.8921  1.2234
  596MPD2    H5 8841   1.712   0.302  16.561  1.6016  0.1794 -0.1447
  596MPD2    N1 8842   1.692   0.536  17.086  0.0302 -0.0403  0.3754
  596MPD2    H7 8843   1.695   0.634  17.058 -0.7165 -0.6791 -1.9426
  597TMC3    C1 8844   1.681   0.620  17.307  0.2238 -0.4010  0.0130
  597TMC3    C2 8845   1.770   0.711  17.253 -0.2001  0.1881 -0.6067
  597TMC3    C3 8846   1.740   0.847  17.251  0.0767  0.0492  0.3084
  597TMC3    C4 8847   1.573   0.665  17.382 -0.5929  0.2286 -0.0542
  597TMC3    C5 8848   1.547   0.803  17.386  0.1419  0.0631  0.0025
  597TMC3    C6 8849   1.626   0.886  17.320  0.2143  1.0914  0.1068
  597TMC3     C 8850   1.657   0.515  17.215 -0.4309  0.1413  0.7244
  597TMC3     O 8851   1.612   0.418  17.269  0.1162  0.7528  0.1822
  597TMC3     H 8852   1.856   0.670  17.200  0.4246  2.0332 -1.0412
  597TMC3    H1 8853   1.485   0.608  17.409 -0.5560 -1.4686 -3.4751
  597TMC3    H2 8854   1.625   0.993  17.336  1.0668  0.9935  0.7888
  597TMC3    C7 8855   1.417   0.845  17.433 -0.2996  0.1208  0.4227
  597TMC3    C8 8856   1.827   0.941  17.193 -0.6648  0.0237  0.2279
  597TMC3    O1 8857   1.366   0.785  17.527 -0.6021 -0.2737 -0.1655
  597TMC3    O2 8858   1.942   0.903  17.194  0.5355 -0.2121 -0.2573
  598TMC3    C1 8859   4.222   1.886  15.590 -0.1713  0.4284  0.2793
  598TMC3    C2 8860   4.132   1.857  15.492 -0.5408  0.5737 -0.1305
  598TMC3    C3 8861   4.096   1.958  15.405 -0.0770 -0.4993  0.9995
  598TMC3    C4 8862   4.285   2.010  15.591  0.4260  0.9341  0.0662
  598TMC3    C5 8863   4.253   2.102  15.493 -0.4859  0.5709  0.0012
  598TMC3    C6 8864   4.160   2.079  15.404 -0.4599  0.6994 -0.0886
  598TMC3     C 8865   4.192   1.822  15.717  0.7386 -0.2778  0.1730
  598TMC3     O 8866   4.086   1.763  15.734  0.2054  0.2171  0.2957
  598TMC3     H 8867   4.078   1.765  15.510 -0.0987  0.7033  1.8628
  598TMC3    H1 8868   4.353   2.049  15.666  1.2773  1.4452 -0.9671
  598TMC3    H2 8869   4.131   2.151  15.328  0.3544  1.8361  0.6752
  598TMC3    C7 8870   4.348   2.216  15.469  0.0474  0.6750 -0.1773
  598TMC3    C8 8871   3.958   1.953  15.351  0.2770  0.3372  0.4670
  598TMC3    O1 8872   4.307   2.314  15.404 -0.2425 -0.1931  0.0630
  598TMC3    O2 8873   3.887   2.050  15.362 -1.0097  0.0802  0.0104
  599MPD2     C 8874   4.301   0.021  16.243  0.7080 -0.1079  0.4051
  599MPD2    C1 8875   4.232   4.628  16.208 -0.4811 -0.4570  0.1181
  599MPD2    C2 8876   4.092   4.615  16.227 -0.6753  0.1826  0.1419
  599MPD2    C3 8877   4.023   0.001  16.285 -0.1753 -0.1399  0.0867
  599MPD2    C4 8878   4.097   0.117  16.314  0.0441 -0.3775  0.2668
  599MPD2    C5 8879   4.231   0.128  16.291  0.4890  0.0402 -0.5017
  599MPD2     H 8880   4.042   4.525  16.191 -1.7572  1.0199 -0.4605
  599MPD2    H1 8881   4.047   0.198  16.365  0.0717  0.8163 -1.6274
  599MPD2    H2 8882   4.409   0.016  16.234  0.8208  5.0347 -0.6888
  599MPD2    H3 8883   4.281   0.220  16.319 -0.8661  0.5147  0.3657
  599MPD2     N 8884   3.881   0.001  16.319 -0.2473  0.6158 -0.2482
  599MPD2    H5 8885   3.864   0.082  16.377 -1.1532 -0.0116  0.3685
  599MPD2    N1 8886   4.311   4.526  16.153  0.1240  0.1848  0.0349
  599MPD2    H7 8887   4.411   4.542  16.155  0.2071 -0.2200 -1.0529
  600TMC3    C1 8888   3.682   4.633  16.404 -1.2170  0.0496  0.1042
  600TMC3    C2 8889   3.617   4.514  16.439  0.1998  0.0630  0.2407
  600TMC3    C3 8890   3.511   4.532  16.526  0.1172  0.1190  0.0397
  600TMC3    C4 8891   3.645   0.034  16.465  0.0859  0.0643  0.1478
  600TMC3    C5 8892   3.534   0.039  16.543 -0.3414 -0.3496  0.5071
  600TMC3    C6 8893   3.461   4.652  16.574 -0.2540  0.3346 -0.0742
  600TMC3     C 8894   3.802   4.613  16.333  0.1495 -0.0911 -0.1435
  600TMC3     O 8895   3.828   4.499  16.287  0.7694  0.0376 -0.3603
  600TMC3     H 8896   3.648   4.417  16.402  0.8532 -0.3560  1.9026
  600TMC3    H1 8897   3.684   0.129  16.428 -0.9716  0.3752 -0.1835
  600TMC3    H2 8898   3.390   4.661  16.655 -0.9285  0.5863 -0.6960
  600TMC3    C7 8899   3.504   0.153  16.620 -0.3376 -0.2877  0.2413
  600TMC3    C8 8900   3.502   4.426  16.622 -0.0580  0.3976 -0.3772
  600TMC3    O1 8901   3.388   0.170  16.653 -0.9121  0.1580 -0.3303
  600TMC3    O2 8902   3.522   4.455  16.736 -0.3229  0.3008  0.2543
  601MPD2     C 8903   1.856   3.219  17.485  0.5951 -0.7329 -0.5587
  601MPD2    C1 8904   1.730   3.163  17.471 -0.0585 -0.1170  0.5562
  601MPD2    C2 8905   1.728   3.019  17.482  0.2891 -0.3451  0.1221
  601MPD2    C3 8906   1.844   2.942  17.480  1.3004 -0.4641  0.3129
  601MPD2    C4 8907   1.963   3.008  17.490 -0.2041  0.1006 -0.5813
  601MPD2    C5 8908   1.973   3.142  17.492  0.4417 -0.1631 -0.0932
  601MPD2     H 8909   1.628   2.976  17.479 -0.0597  0.4942 -0.4506
  601MPD2    H1 8910   2.057   2.954  17.499 -1.2063 -1.4514  0.6779
  601MPD2    H2 8911   1.874   3.326  17.486  1.6542 -0.9201  0.4301
  601MPD2    H3 8912   2.073   3.183  17.495  0.4672 -0.1787 -0.6671
  601MPD2     N 8913   1.844   2.802  17.484 -0.2746 -0.4985 -0.1694
  601MPD2    H5 8914   1.935   2.761  17.504 -0.5847 -0.9255  0.3665
  601MPD2    N1 8915   1.601   3.221  17.465 -0.0729 -0.1268 -0.1365
  601MPD2    H7 8916   1.521   3.161  17.447  1.5400 -2.7810  1.5272
  602TMC3    C1 8917   1.443   3.392  17.469 -0.8650 -0.0911  0.1404
  602TMC3    C2 8918   1.416   3.524  17.439  0.6778  0.1426 -0.0533
  602TMC3    C3 8919   1.291   3.548  17.391 -0.5743  0.0968 -0.0077
  602TMC3    C4 8920   1.354   3.292  17.474  0.0274 -0.6485 -0.1808
  602TMC3    C5 8921   1.226   3.332  17.437  0.8011 -0.2026  0.5677
  602TMC3    C6 8922   1.197   3.453  17.385 -0.5717 -0.2019 -0.0238
  602TMC3     C 8923   1.583   3.354  17.479  0.0660 -0.7237 -0.2920
  602TMC3     O 8924   1.670   3.440  17.489 -0.8877 -0.0373  0.2775
  602TMC3     H 8925   1.498   3.595  17.428 -0.5574  1.1262 -3.1038
  602TMC3    H1 8926   1.369   3.197  17.525 -0.8166 -1.9510 -2.3645
  602TMC3    H2 8927   1.095   3.485  17.365 -0.5006  0.0972  0.0985
  602TMC3    C7 8928   1.137   3.217  17.409 -1.3244 -0.1554 -0.3706
  602TMC3    C8 8929   1.289   3.660  17.298 -1.0243  0.5279 -0.7967
  602TMC3    O1 8930   1.121   3.133  17.495  0.5803  0.0703 -0.5220
  602TMC3    O2 8931   1.335   3.766  17.349  0.7875  0.1109  0.5760
  603TMC3    C1 8932   0.087   3.247  10.976  0.3867 -0.6972  0.2576
  603TMC3    C2 8933   0.145   3.294  11.087 -0.3595 -0.2077  0.8607
  603TMC3    C3 8934   0.064   3.334  11.190 -0.0440 -0.3432  0.2385
  603TMC3    C4 8935   4.672   3.245  10.953  0.4070  0.2633 -0.4018
  603TMC3    C5 8936   4.592   3.272  11.059  0.3186  1.0656  0.8788
  603TMC3    C6 8937   4.651   3.305  11.182 -0.2152  0.5180  0.1005
  603TMC3     C 8938   0.172   3.220  10.866 -0.0879 -0.3412 -0.3572
  603TMC3     O 8939   0.141   3.242  10.747 -0.3237  0.4216  0.5641
  603TMC3     H 8940   0.252   3.311  11.090 -0.3664 -0.2697  1.4442
  603TMC3    H1 8941   4.631   3.204  10.862 -0.1485  1.9204 -0.9038
  603TMC3    H2 8942   4.585   3.333  11.264 -0.4933  1.6272 -0.5009
  603TMC3    C7 8943   4.467   3.200  11.074 -0.8755 -0.5285 -0.3408
  603TMC3    C8 8944   0.118   3.317  11.320  0.3983 -0.3226  0.4754
  603TMC3    O1 8945   4.435   3.157  11.180  0.0576  0.5405  0.7255
  603TMC3    O2 8946   0.207   3.234  11.333  0.2530 -0.2934  1.0954
  604MPD2     C 8947   0.226   1.476  16.612  0.8693 -0.4846  0.3977
  604MPD2    C1 8948   0.204   1.559  16.500 -0.8529  0.0653  0.3730
  604MPD2    C2 8949   0.224   1.505  16.372  0.1585 -1.2802 -0.3622
  604MPD2    C3 8950   0.269   1.373  16.358 -0.0064 -0.3958  0.0345
  604MPD2    C4 8951   0.258   1.291  16.469  0.2572  0.1375 -0.0666
  604MPD2    C5 8952   0.238   1.337  16.597  0.0114 -0.3781  0.2192
  604MPD2     H 8953   0.217   1.562  16.280 -0.6290 -0.4591  0.2103
  604MPD2    H1 8954   0.289   1.187  16.472 -0.1292  0.0662  1.3077
  604MPD2    H2 8955   0.235   1.528  16.707  0.9783 -0.6308  0.4669
  604MPD2    H3 8956   0.230   1.265  16.678  0.1893 -0.5794  0.0577
  604MPD2     N 8957   0.337   1.335  16.237 -0.2057  0.8170 -0.3194
  604MPD2    H5 8958   0.344   1.399  16.159 -0.3755  1.4637  0.1901
  604MPD2    N1 8959   0.173   1.699  16.520 -0.6323 -0.2707  0.0192
  604MPD2    H7 8960   0.185   1.724  16.618  2.5183 -0.7632 -0.2406
  605TMC3    C1 8961   0.138   1.929  16.466 -0.3043  0.2414 -0.1831
  605TMC3    C2 8962   0.220   1.975  16.563  0.0592 -0.2236  0.0275
  605TMC3    C3 8963   0.219   2.109  16.598 -0.2322  0.3506 -0.3622
  605TMC3    C4 8964   0.045   2.012  16.411  0.2421 -0.3930 -0.2783
  605TMC3    C5 8965   0.038   2.144  16.453  0.7222 -0.1935 -0.5341
  605TMC3    C6 8966   0.143   2.197  16.523  0.2414 -0.5936 -0.7609
  605TMC3     C 8967   0.138   1.788  16.421 -0.3682  0.0013  0.1160
  605TMC3     O 8968   0.109   1.766  16.306  0.0577 -0.0334  0.0958
  605TMC3     H 8969   0.287   1.906  16.613  0.6361 -0.3262 -0.9030
  605TMC3    H1 8970   4.707   1.964  16.335  0.8067 -0.8402 -0.4518
  605TMC3    H2 8971   0.137   2.298  16.563 -0.6160 -1.2782  0.8399
  605TMC3    C7 8972   4.653   2.233  16.405  0.4936  0.0162 -0.1270
  605TMC3    C8 8973   0.338   2.165  16.666  0.2062  0.6486  0.0503
  605TMC3    O1 8974   4.654   2.349  16.439  0.0530 -0.5341 -0.5725
  605TMC3    O2 8975   0.409   2.075  16.716  0.3511 -0.0352 -0.1269
  606TMC3    C1 8976   2.025   0.704   0.305  0.5177  0.0122  0.6517
  606TMC3    C2 8977   2.054   0.593   0.382 -0.5346 -0.0355  0.2916
  606TMC3    C3 8978   1.994   0.473   0.349 -0.4549  0.1263 -0.0717
  606TMC3    C4 8979   1.911   0.696   0.229 -0.9559  0.0714 -0.4246
  606TMC3    C5 8980   1.848   0.576   0.205 -0.7361  0.5325 -0.4106
  606TMC3    C6 8981   1.891   0.463   0.265  0.2710 -0.3988 -0.4914
  606TMC3     C 8982   2.133   0.786   0.268 -0.1924 -0.3478  0.3929
  606TMC3     O 8983   2.243   0.741   0.284 -0.0147 -0.0813 -0.0997
  606TMC3     H 8984   2.141   0.592   0.446 -0.9857  0.9761  0.9178
  606TMC3    H1 8985   1.877   0.791   0.190 -0.2652  0.4419 -0.1112
  606TMC3    H2 8986   1.852   0.368   0.231 -3.6595  0.1709  2.4145
  606TMC3    C7 8987   1.738   0.563   0.117  0.1753  0.0462 -0.1237
  606TMC3    C8 8988   2.061   0.357   0.398  0.4370  0.4637 -0.8218
  606TMC3    O1 8989   1.705   0.661   0.051  0.1563  0.1096  0.1185
  606TMC3    O2 8990   2.116   0.365   0.510 -0.1962  0.3765  0.4851
  607MPD2     C 8991   3.701   3.205  11.990 -0.3994  0.8589  0.3558
  607MPD2    C1 8992   3.796   3.296  12.035  0.6009  0.0686  0.0705
  607MPD2    C2 8993   3.851   3.275  12.161 -0.5142 -0.4101  0.9192
  607MPD2    C3 8994   3.813   3.171  12.246 -0.0211 -0.0045  0.5335
  607MPD2    C4 8995   3.713   3.092  12.206  0.0359  0.2286  0.6162
  607MPD2    C5 8996   3.663   3.106  12.073  0.0003  0.3401  0.5047
  607MPD2     H 8997   3.936   3.336  12.190 -0.8361  0.4911 -0.0289
  607MPD2    H1 8998   3.683   3.010  12.271 -4.4722  1.1636 -0.2968
  607MPD2    H2 8999   3.656   3.223  11.894  3.1444 -0.1210 -1.5033
  607MPD2    H3 9000   3.586   3.041  12.033  0.6363  0.7247 -1.3673
  607MPD2     N 9001   3.886   3.162  12.375  0.2498 -0.1748  0.0825
  607MPD2    H5 9002   3.945   3.241  12.397 -0.3590  0.1489  0.5584
  607MPD2    N1 9003   3.842   3.407  11.966  0.0748  0.5486  0.6768
  607MPD2    H7 9004   3.910   3.462  12.018  1.3914 -0.6225  0.1878
  608TMC3    C1 9005   3.978   3.474  11.786  0.2113  0.1286 -0.3477
  608TMC3    C2 9006   4.084   3.451  11.868  0.5996  0.1365  0.3682
  608TMC3    C3 9007   4.206   3.491  11.824  0.8502  0.0574  0.9091
  608TMC3    C4 9008   3.990   3.532  11.667 -0.1452  0.3427  0.0071
  608TMC3    C5 9009   4.112   3.576  11.626 -0.3531 -0.4249  0.0377
  608TMC3    C6 9010   4.224   3.556  11.706 -0.5157  0.3777 -0.3670
  608TMC3     C 9011   3.851   3.420  11.825  0.0107 -0.0442  0.8584
  608TMC3     O 9012   3.781   3.375  11.736 -0.1851 -0.0883  0.0637
  608TMC3     H 9013   4.068   3.388  11.955 -2.3430 -0.9361 -0.9477
  608TMC3    H1 9014   3.896   3.559  11.619 -0.9713 -1.9056  0.3591
  608TMC3    H2 9015   4.322   3.587  11.672 -0.1932  1.1930  1.2829
  608TMC3    C7 9016   4.134   3.627  11.495  0.2887 -0.7796 -0.0768
  608TMC3    C8 9017   4.323   3.475  11.910  0.0931  0.2533  0.1458
  608TMC3    O1 9018   4.248   3.658  11.463  0.0003  0.2272 -0.2762
  608TMC3    O2 9019   4.434   3.502  11.857  0.6019 -0.7271  0.8018
  609TMC3    C1 9020   3.009   2.072   9.171  0.0267  0.6964 -0.7245
  609TMC3    C2 9021   2.984   1.975   9.077 -0.5090  0.0116  0.4569
  609TMC3    C3 9022   3.087   1.894   9.039  0.1835 -0.8054  1.2497
  609TMC3    C4 9023   3.130   2.096   9.226 -0.1406  0.7326 -0.4231
  609TMC3    C5 9024   3.229   2.007   9.194 -0.3047  0.4529 -0.1742
  609TMC3    C6 9025   3.209   1.908   9.097  0.1489  0.5240  0.0884
  609TMC3     C 9026   2.905   2.158   9.221  0.8865 -1.0410 -0.5097
  609TMC3     O 9027   2.797   2.100   9.225  0.4610 -0.0744  0.1123
  609TMC3     H 9028   2.884   1.953   9.040 -0.1129 -0.1491 -0.5231
  609TMC3    H1 9029   3.140   2.169   9.306  1.9037 -0.3150  0.2772
  609TMC3    H2 9030   3.294   1.854   9.056 -0.0903  0.0261  0.2468
  609TMC3    C7 9031   3.336   1.991   9.285  0.5344  1.0077  0.2515
  609TMC3    C8 9032   3.088   1.805   8.934 -0.2677 -0.2269  0.3479
  609TMC3    O1 9033   3.358   2.080   9.363 -0.0119 -0.4020  0.2889
  609TMC3    O2 9034   3.172   1.711   8.926 -0.2173 -0.3477 -0.0943
  610TMC3    C1 9035   4.247   3.098  13.366 -0.3894  1.2128 -0.5766
  610TMC3    C2 9036   4.258   3.186  13.262  0.3721  0.1910 -0.4490
  610TMC3    C3 9037   4.375   3.230  13.230 -0.1346  0.5542 -0.3187
  610TMC3    C4 9038   4.356   3.038  13.421 -0.5704  0.2992  0.2202
  610TMC3    C5 9039   4.479   3.075  13.373  0.0791  0.5339 -0.0401
  610TMC3    C6 9040   4.491   3.181  13.283 -0.3120  0.0330  0.0573
  610TMC3     C 9041   4.119   3.070  13.426  0.4780  0.1991  0.1536
  610TMC3     O 9042   4.105   2.965  13.480 -0.2782  0.3417 -0.2181
  610TMC3     H 9043   4.170   3.235  13.220  0.7994 -0.8783 -2.5980
  610TMC3    H1 9044   4.346   2.971  13.506 -1.3338 -0.4175 -0.4346
  610TMC3    H2 9045   4.584   3.233  13.265  0.0273 -0.1516  1.2651
  610TMC3    C7 9046   4.604   3.030  13.443 -0.6687  0.0662 -1.1597
  610TMC3    C8 9047   4.387   3.330  13.125 -0.1511 -1.0515 -0.0289
  610TMC3    O1 9048   4.715   3.033  13.390 -0.3824 -0.0776 -0.0505
  610TMC3    O2 9049   4.288   3.401  13.111 -0.3315  0.3189 -0.3486
  611MPD2     C 9050   3.149   3.205  10.033  0.7765  0.2446 -0.4003
  611MPD2    C1 9051   3.205   3.086  10.082  0.3364  0.2056 -0.5657
  611MPD2    C2 9052   3.327   3.074  10.133 -0.7859 -0.0697  1.3185
  611MPD2    C3 9053   3.407   3.188  10.130 -0.6408  0.0338 -0.4334
  611MPD2    C4 9054   3.361   3.304  10.078 -0.1522  0.6124 -0.6274
  611MPD2    C5 9055   3.227   3.313  10.034 -0.1192  0.4817  0.6606
  611MPD2     H 9056   3.355   2.987  10.191 -2.3166 -1.2844  0.2347
  611MPD2    H1 9057   3.415   3.397  10.069  1.0395 -0.0326 -0.1920
  611MPD2    H2 9058   3.055   3.212   9.979  1.2245 -0.4578 -1.2736
  611MPD2    H3 9059   3.188   3.407   9.996 -0.5709  0.5391  1.2530
  611MPD2     N 9060   3.537   3.196  10.187  0.2349 -0.1823  0.2908
  611MPD2    H5 9061   3.589   3.275  10.151  1.3505 -0.4786  1.2594
  611MPD2    N1 9062   3.120   2.975  10.093 -0.0198  0.4098 -0.3963
  611MPD2    H7 9063   3.019   2.987  10.098 -0.1953 -1.9560  1.9607
  612TMC3    C1 9064   3.727   3.132  10.323 -0.0548  0.9026 -0.4526
  612TMC3    C2 9065   3.765   3.075  10.445 -0.8934  0.1864  0.2124
  612TMC3    C3 9066   3.897   3.077  10.473 -0.3023 -1.0578  0.8622
  612TMC3    C4 9067   3.819   3.193  10.238 -0.7164 -0.1563 -0.3991
  612TMC3    C5 9068   3.955   3.190  10.271  0.1560  0.1447 -0.3414
  612TMC3    C6 9069   3.991   3.130  10.388  0.5691 -0.8231  0.9686
  612TMC3     C 9070   3.594   3.097  10.272 -0.1778  0.4090  0.3025
  612TMC3     O 9071   3.535   3.008  10.337  0.1456 -0.7525  0.3886
  612TMC3     H 9072   3.690   3.027  10.506 -1.0946 -2.3652 -2.0507
  612TMC3    H1 9073   3.784   3.220  10.139  0.3829 -2.1429 -1.3208
  612TMC3    H2 9074   4.094   3.128  10.421  0.0422  0.0717  2.6594
  612TMC3    C7 9075   4.039   3.211  10.158 -0.3724  1.2043  0.3755
  612TMC3    C8 9076   3.940   3.036  10.606 -0.1703  0.2268  0.1716
  612TMC3    O1 9077   4.009   3.312  10.092 -0.0522  0.1801  0.5194
  612TMC3    O2 9078   3.856   2.976  10.668  0.2069  0.3463  0.2396
  613MPD2     C 9079   2.353   1.226  16.440  0.3335  0.1111 -0.1383
  613MPD2    C1 9080   2.394   1.094  16.422  0.2607 -0.3196  0.2145
  613MPD2    C2 9081   2.415   1.007  16.533  0.4358  0.2251 -0.2960
  613MPD2    C3 9082   2.400   1.056  16.663  0.0939  0.1783 -0.0771
  613MPD2    C4 9083   2.365   1.186  16.682  0.1520  0.3034 -0.0494
  613MPD2    C5 9084   2.349   1.271  16.570  0.3205  0.0011  0.5893
  613MPD2     H 9085   2.457   0.908  16.519  0.4508  0.3325 -1.0197
  613MPD2    H1 9086   2.372   1.237  16.777  0.4227  1.1741 -0.5314
  613MPD2    H2 9087   2.321   1.291  16.359 -0.8167 -1.5752 -1.0478
  613MPD2    H3 9088   2.308   1.370  16.583  0.1043 -0.0094  0.0060
  613MPD2     N 9089   2.404   0.962  16.772 -0.1600 -0.3397 -0.0638
  613MPD2    H5 9090   2.415   0.868  16.734  1.1270 -0.1132 -0.2366
  613MPD2    N1 9091   2.392   1.040  16.291  0.2635 -0.5936 -0.1208
  613MPD2    H7 9092   2.409   0.940  16.294 -3.5989 -1.2834 -1.1001
  614TMC3    C1 9093   2.341   1.021  16.064 -1.0161 -0.1449 -0.5744
  614TMC3    C2 9094   2.391   0.893  16.083 -0.3394 -0.3956  0.3125
  614TMC3    C3 9095   2.307   0.787  16.063  0.1598  1.1484 -0.0309
  614TMC3    C4 9096   2.232   1.038  15.990 -0.4100 -0.0470  0.4298
  614TMC3    C5 9097   2.160   0.928  15.950 -0.3378 -0.4381 -0.0753
  614TMC3    C6 9098   2.196   0.803  15.989  0.0853 -0.6301  0.0405
  614TMC3     C 9099   2.364   1.103  16.171 -0.4670 -0.7201  0.2791
  614TMC3     O 9100   2.347   1.225  16.155  0.0743  0.6765 -0.0271
  614TMC3     H 9101   2.486   0.882  16.134  0.1938  0.7373 -0.4442
  614TMC3    H1 9102   2.193   1.137  15.968 -1.8529 -0.9667 -1.1465
  614TMC3    H2 9103   2.130   0.727  15.948 -0.8683  0.4696 -0.4649
  614TMC3    C7 9104   2.058   0.944  15.841  0.0254 -0.0794 -0.2365
  614TMC3    C8 9105   2.316   0.695  16.180  0.0533 -0.1111  0.3067
  614TMC3    O1 9106   1.982   1.041  15.845  0.4167  0.0386  0.1756
  614TMC3    O2 9107   2.420   0.700  16.248 -0.2225  0.3082 -0.6101
  615MPD2     C 9108   1.802   2.292  15.637 -0.1388  0.2235  0.1383
  615MPD2    C1 9109   1.853   2.202  15.735  0.3216  0.1543 -0.1763
  615MPD2    C2 9110   1.827   2.069  15.719  0.1066  0.2496  0.1000
  615MPD2    C3 9111   1.760   2.016  15.609 -0.1881 -0.0595  0.3917
  615MPD2    C4 9112   1.705   2.106  15.520 -0.0120  0.0971  0.1787
  615MPD2    C5 9113   1.728   2.237  15.536 -0.0750  0.2964  0.0221
  615MPD2     H 9114   1.861   1.998  15.794 -1.5092 -0.8870 -0.2406
  615MPD2    H1 9115   1.644   2.075  15.435 -0.2133 -0.1981  0.4319
  615MPD2    H2 9116   1.818   2.399  15.635 -2.8766  0.5958 -2.5164
  615MPD2    H3 9117   1.687   2.308  15.465  0.4561  1.3964  0.8162
  615MPD2     N 9118   1.725   1.880  15.602  0.2199  0.0445 -0.6038
  615MPD2    H5 9119   1.682   1.856  15.514 -2.0680  1.4967  0.1168
  615MPD2    N1 9120   1.926   2.250  15.845 -0.7841  0.1347  0.0001
  615MPD2    H7 9121   1.950   2.189  15.922  1.4121  3.4641  1.9351
  616TMC3    C1 9122   2.015   2.419  15.991  0.1226  0.4451 -0.4674
  616TMC3    C2 9123   2.086   2.538  15.987  0.4483  0.4345  0.4788
  616TMC3    C3 9124   2.081   2.627  16.088  0.1394 -0.3328 -0.0785
  616TMC3    C4 9125   1.940   2.396  16.100 -0.1392 -0.2893 -0.6521
  616TMC3    C5 9126   1.936   2.486  16.204  0.2174 -0.1745  0.1036
  616TMC3    C6 9127   2.007   2.600  16.196  0.0494 -0.7040 -0.1437
  616TMC3     C 9128   1.960   2.379  15.856 -0.1009  0.2926 -0.5227
  616TMC3     O 9129   1.990   2.449  15.758  0.4479 -0.4835  0.0436
  616TMC3     H 9130   2.129   2.571  15.893 -0.3788  1.5094  0.4796
  616TMC3    H1 9131   1.878   2.307  16.106 -0.1332 -0.2091  0.4459
  616TMC3    H2 9132   1.996   2.679  16.269 -0.3255 -1.7694  0.9434
  616TMC3    C7 9133   1.874   2.446  16.330 -0.2726 -0.4222  0.3651
  616TMC3    C8 9134   2.162   2.748  16.086  0.0510 -0.7893 -0.0394
  616TMC3    O1 9135   1.807   2.347  16.320 -0.5840 -0.1949  0.0076
  616TMC3    O2 9136   2.106   2.843  16.140 -0.1209  0.3685 -0.2959
  617MPD2     C 9137   0.198   0.591  13.991  0.5631  0.3821  0.1249
  617MPD2    C1 9138   0.217   0.491  14.088  0.0985  0.5091  0.1136
  617MPD2    C2 9139   0.119   0.445  14.176  0.2768 -0.3074 -0.2726
  617MPD2    C3 9140   4.714   0.504  14.173 -0.0310  0.2582 -0.3439
  617MPD2    C4 9141   4.691   0.593  14.073  0.1630  0.0639  0.4589
  617MPD2    C5 9142   0.067   0.638  13.987  0.0329  0.4389 -0.4549
  617MPD2     H 9143   0.143   0.374  14.255 -3.3956 -0.2845  0.8617
  617MPD2    H1 9144   4.590   0.632  14.063 -0.2424 -1.7095 -2.2819
  617MPD2    H2 9145   0.281   0.620  13.929  2.0616 -3.6793  0.1946
  617MPD2    H3 9146   0.044   0.698  13.899  0.8410 -0.5763 -1.3589
  617MPD2     N 9147   4.608   0.472  14.255 -0.0511  1.0778  0.3530
  617MPD2    H5 9148   4.518   0.512  14.230  1.1189  2.6548 -1.4003
  617MPD2    N1 9149   0.349   0.440  14.097  0.1104 -0.0135 -0.5723
  617MPD2    H7 9150   0.419   0.468  14.029 -0.7178  1.0984 -0.9812
  618TMC3    C1 9151   0.540   0.322  14.147  0.0985  0.0027  0.2080
  618TMC3    C2 9152   0.567   0.197  14.098  0.3313 -0.4524 -0.0433
  618TMC3    C3 9153   0.673   0.194  14.005 -0.3927  0.1690 -0.7886
  618TMC3    C4 9154   0.598   0.435  14.095  1.3625  0.0146 -1.0285
  618TMC3    C5 9155   0.697   0.430  14.004 -0.4423 -0.0371  0.2043
  618TMC3    C6 9156   0.735   0.308  13.960  0.1452  0.3508 -0.4382
  618TMC3     C 9157   0.401   0.340  14.173 -0.6098  0.8571  0.1878
  618TMC3     O 9158   0.355   0.279  14.273 -0.0849  0.1328  0.0200
  618TMC3     H 9159   0.505   0.111  14.120 -0.4077 -0.2492 -1.2876
  618TMC3    H1 9160   0.568   0.535  14.123  0.4841 -0.0736 -1.6507
  618TMC3    H2 9161   0.807   0.308  13.880 -0.1292  0.9433 -0.6870
  618TMC3    C7 9162   0.656   0.511  13.894 -0.7865 -0.7756 -0.4152
  618TMC3    C8 9163   0.683   0.069  13.925  0.0949  0.5174  0.0541
  618TMC3    O1 9164   0.540   0.539  13.901  0.8600 -0.3336 -0.5563
  618TMC3    O2 9165   0.576   0.012  13.909  0.3057  0.1507 -0.1360
  619MPD2     C 9166   1.961   1.613  13.724  0.0404  0.0241  0.4598
  619MPD2    C1 9167   1.888   1.718  13.676 -0.3710 -0.2624  0.6520
  619MPD2    C2 9168   1.761   1.695  13.625  0.0757 -0.0573  0.4992
  619MPD2    C3 9169   1.705   1.571  13.624  0.1917 -0.1797  0.7275
  619MPD2    C4 9170   1.767   1.469  13.689 -0.3029 -0.2295  0.1547
  619MPD2    C5 9171   1.899   1.491  13.732 -0.0736  0.1730 -0.1492
  619MPD2     H 9172   1.714   1.783  13.582  1.0795  0.3424  0.2083
  619MPD2    H1 9173   1.722   1.370  13.698 -1.3323  0.0037 -2.3501
  619MPD2    H2 9174   2.053   1.632  13.778 -0.4552 -3.8838  2.6351
  619MPD2    H3 9175   1.944   1.398  13.762  4.7293  2.4861 -0.2163
  619MPD2     N 9176   1.570   1.544  13.578 -0.1789 -0.0512 -0.1800
  619MPD2    H5 9177   1.530   1.451  13.580 -0.9073  0.2242 -1.5254
  619MPD2    N1 9178   1.939   1.847  13.663  0.1488 -0.7152 -0.5210
  619MPD2    H7 9179   1.875   1.908  13.612  3.3138  0.0251 -3.6281
  620TMC3    C1 9180   2.073   2.033  13.662  0.0399  0.0375 -0.4104
  620TMC3    C2 9181   2.019   2.064  13.542  0.2967  0.3433  0.4548
  620TMC3    C3 9182   1.977   2.194  13.522  0.0806 -0.8177  0.0993
  620TMC3    C4 9183   2.083   2.118  13.765  0.1899  0.4000  0.2511
  620TMC3    C5 9184   2.040   2.244  13.741 -0.4144  0.3560 -0.2173
  620TMC3    C6 9185   1.994   2.288  13.618 -0.0244  0.5372  0.0081
  620TMC3     C 9186   2.063   1.892  13.698  0.2714 -0.0442  0.3112
  620TMC3     O 9187   2.158   1.838  13.755 -0.2314 -0.6648 -0.3570
  620TMC3     H 9188   2.010   1.992  13.461  0.0439  1.2239 -0.2893
  620TMC3    H1 9189   2.095   2.076  13.864 -0.6593  0.5532  0.4153
  620TMC3    H2 9190   1.996   2.390  13.582  0.4299  0.5432  0.0427
  620TMC3    C7 9191   2.009   2.318  13.862  0.0008 -0.6024 -0.4190
  620TMC3    C8 9192   1.864   2.222  13.439  0.1141  0.3290  0.3644
  620TMC3    O1 9193   2.019   2.255  13.968 -0.3174  0.1114 -0.0760
  620TMC3    O2 9194   1.816   2.335  13.449 -0.0790 -0.3433  0.0537
  621MPD2     C 9195   2.976   1.137   9.282  0.0568  0.9293  0.9229
  621MPD2    C1 9196   2.856   1.211   9.286 -0.6084  0.0565  0.5294
  621MPD2    C2 9197   2.843   1.303   9.389  0.1381  0.2256 -0.0529
  621MPD2    C3 9198   2.948   1.327   9.478 -0.4741  0.2117  0.6268
  621MPD2    C4 9199   3.063   1.256   9.463  0.3711  0.1152 -0.5098
  621MPD2    C5 9200   3.073   1.160   9.368  0.2149  0.2477 -0.0279
  621MPD2     H 9201   2.756   1.367   9.398  0.5723  0.7844  0.1822
  621MPD2    H1 9202   3.151   1.286   9.519  0.4289  1.8508 -1.5379
  621MPD2    H2 9203   2.996   1.065   9.204 -0.3137  0.6904  1.0492
  621MPD2    H3 9204   3.160   1.096   9.362  0.5991  0.7405  0.3479
  621MPD2     N 9205   2.924   1.419   9.584  0.5040  0.3554  0.6147
  621MPD2    H5 9206   2.832   1.462   9.577  0.4911  0.1817 -0.2325
  621MPD2    N1 9207   2.747   1.191   9.197  0.6927  0.0225  0.0012
  621MPD2    H7 9208   2.661   1.244   9.205 -0.0426 -0.8613 -2.2084
  622TMC3    C1 9209   2.613   1.083   9.040 -1.0494  0.8169  0.0660
  622TMC3    C2 9210   2.541   1.196   9.048 -0.3138  0.1569  0.1097
  622TMC3    C3 9211   2.404   1.184   9.019 -0.5294  0.1156  0.2486
  622TMC3    C4 9212   2.565   0.963   9.016 -1.2303 -0.1704  0.4008
  622TMC3    C5 9213   2.428   0.950   9.015 -0.2532  0.1147 -0.0141
  622TMC3    C6 9214   2.344   1.060   9.000  0.0539 -0.4820  0.9010
  622TMC3     C 9215   2.742   1.093   9.093  0.2186  0.4113  0.1690
  622TMC3     O 9216   2.828   1.003   9.062  0.6222  0.7240 -0.1944
  622TMC3     H 9217   2.587   1.293   9.062 -0.0835  0.1202 -0.3956
  622TMC3    H1 9218   2.625   0.877   9.041  0.4052  1.1223  0.9247
  622TMC3    H2 9219   2.242   1.048   8.966  0.0575 -4.1051  2.1300
  622TMC3    C7 9220   2.386   0.814   8.989 -0.6075  0.6518  0.3587
  622TMC3    C8 9221   2.319   1.301   9.023 -0.4530  0.7173 -0.8467
  622TMC3    O1 9222   2.463   0.736   8.940 -0.1355 -0.2985  0.2291
  622TMC3    O2 9223   2.374   1.407   9.009  0.3344 -0.5020  0.2747
  623MPD2     C 9224   0.495   1.806  16.200 -0.2242  0.5569 -0.3211
  623MPD2    C1 9225   0.511   1.936  16.229 -0.8603  0.0533 -0.7261
  623MPD2    C2 9226   0.618   1.973  16.313 -0.6203  0.1484 -0.1150
  623MPD2    C3 9227   0.691   1.877  16.377  0.6297  0.0124  0.1322
  623MPD2    C4 9228   0.665   1.745  16.350  0.7868  0.1883  0.5381
  623MPD2    C5 9229   0.565   1.712  16.268  0.1674  0.2560  0.2320
  623MPD2     H 9230   0.632   2.080  16.325 -2.9052  0.0126  3.8002
  623MPD2    H1 9231   0.715   1.664  16.401  1.7011  0.7907  0.6072
  623MPD2    H2 9232   0.412   1.771  16.141  0.6566  1.8668 -2.3414
  623MPD2    H3 9233   0.532   1.609  16.262  2.3591 -0.4698  0.7122
  623MPD2     N 9234   0.796   1.917  16.461 -0.3444  0.1045  0.0399
  623MPD2    H5 9235   0.840   2.008  16.459  1.1363 -0.6085 -0.0618
  623MPD2    N1 9236   0.430   2.045  16.187 -0.0902 -0.0347 -0.1915
  623MPD2    H7 9237   0.441   2.131  16.240  1.3551 -0.9569  1.0170
  624TMC3    C1 9238   1.066   1.932  16.843 -1.0365 -0.0260 -0.5974
  624TMC3    C2 9239   1.029   2.060  16.867  0.0638 -0.8726  0.0522
  624TMC3    C3 9240   0.935   2.113  16.781  0.3621 -0.4045  0.1555
  624TMC3    C4 9241   1.022   1.854  16.735 -0.0703  0.4448  0.0809
  624TMC3    C5 9242   0.936   1.919  16.650 -0.7298  0.0907 -0.1919
  624TMC3    C6 9243   0.903   2.049  16.663 -0.4016 -1.0632  0.4890
  624TMC3     C 9244   1.193   1.905  16.911 -0.5425 -0.4970  0.4535
  624TMC3     O 9245   1.206   1.968  17.012 -0.0568  0.2386  0.4697
  624TMC3     H 9246   1.038   2.105  16.966 -1.7358 -0.5945  0.0950
  624TMC3    H1 9247   1.035   1.747  16.727  2.9655  1.1236 -3.7703
  624TMC3    H2 9248   0.827   2.104  16.608  1.5004 -0.6071 -1.7109
  624TMC3    C7 9249   0.868   1.836  16.553 -0.5965 -0.4077 -0.3360
  624TMC3    C8 9250   0.832   2.199  16.823 -0.0493  0.6958 -0.8850
  624TMC3    O1 9251   0.858   1.717  16.574 -0.2648 -0.2646 -1.0149
  624TMC3    O2 9252   0.742   2.136  16.873  0.1737  0.8174  0.3817
  625MPD2     C 9253   1.271   3.458   0.786 -0.5702 -0.5977  0.4122
  625MPD2    C1 9254   1.325   3.571   0.837  0.1473  0.4781  0.3001
  625MPD2    C2 9255   1.397   3.557   0.955 -0.6904  0.1859 -0.1542
  625MPD2    C3 9256   1.414   3.437   1.011  0.0149  0.0295  0.2213
  625MPD2    C4 9257   1.363   3.325   0.959  0.6366  0.2370 -0.7278
  625MPD2    C5 9258   1.297   3.339   0.843  0.3705  0.1403 -0.3056
  625MPD2     H 9259   1.445   3.648   0.989 -0.5969  0.1077 -0.0736
  625MPD2    H1 9260   1.374   3.226   1.001 -0.4512 -0.2962 -1.6995
  625MPD2    H2 9261   1.222   3.466   0.690  1.0308 -1.8206 -0.5032
  625MPD2    H3 9262   1.243   3.259   0.792  0.7002  0.6456 -1.4447
  625MPD2     N 9263   1.494   3.441   1.131  0.2536  0.0306 -0.3038
  625MPD2    H5 9264   1.530   3.532   1.156  0.5911 -0.3890  0.7207
  625MPD2    N1 9265   1.320   3.703   0.773  0.0601 -0.4289  0.3172
  625MPD2    H7 9266   1.375   3.777   0.816 -1.1558  0.0392  1.0465
  626TMC3    C1 9267   1.247   3.876   0.626  0.2482 -0.2402  0.5299
  626TMC3    C2 9268   1.182   3.918   0.518  0.3171  0.3262 -0.1971
  626TMC3    C3 9269   1.138   4.046   0.510  0.0528 -0.5645  0.6735
  626TMC3    C4 9270   1.269   3.958   0.739  0.5391 -0.5052  0.2295
  626TMC3    C5 9271   1.225   4.088   0.723  0.1456 -0.2255 -0.6056
  626TMC3    C6 9272   1.155   4.133   0.614 -0.3362  0.1265  1.5012
  626TMC3     C 9273   1.251   3.731   0.656 -0.0011 -0.7110 -0.0415
  626TMC3     O 9274   1.183   3.659   0.584  0.3203  0.2961  1.1037
  626TMC3     H 9275   1.150   3.856   0.434 -1.4321  1.1360 -0.1334
  626TMC3    H1 9276   1.329   3.943   0.828  0.4082 -0.2766  0.3577
  626TMC3    H2 9277   1.123   4.237   0.619  1.2730  0.7009 -0.0147
  626TMC3    C7 9278   1.243   4.173   0.841  0.3460 -0.6002 -0.9244
  626TMC3    C8 9279   1.061   4.082   0.397 -0.0238  0.3924 -0.4668
  626TMC3    O1 9280   1.350   4.170   0.903  0.8379  0.1906  0.5467
  626TMC3    O2 9281   1.076   4.020   0.290  0.0752 -0.3373 -0.4861
  627MPD2     C 9282   0.151   4.077  14.186 -0.7384  0.1591 -0.2254
  627MPD2    C1 9283   0.228   4.045  14.296 -0.5787 -0.8633  0.5537
  627MPD2    C2 9284   0.250   3.915  14.328  0.2035  0.6162 -1.0830
  627MPD2    C3 9285   0.178   3.812  14.265 -0.7077 -1.0890  0.2785
  627MPD2    C4 9286   0.099   3.842  14.161  0.1141 -0.4256  0.6731
  627MPD2    C5 9287   0.094   3.973  14.117  0.5015 -0.6854  0.0509
  627MPD2     H 9288   0.316   3.891  14.411 -0.4467 -2.0280 -1.3298
  627MPD2    H1 9289   0.036   3.768  14.113  0.6769 -0.6186  0.2390
  627MPD2    H2 9290   0.133   4.183  14.170  1.4563  0.1079 -3.0402
  627MPD2    H3 9291   0.024   3.999  14.037 -1.4772  2.6627  2.8329
  627MPD2     N 9292   0.184   3.684  14.329  0.4511 -0.1663 -0.1765
  627MPD2    H5 9293   0.245   3.687  14.410 -0.9870 -2.6610  0.9720
  627MPD2    N1 9294   0.294   4.134  14.384  0.3797  0.6441  0.0004
  627MPD2    H7 9295   0.331   4.097  14.471 -0.6853  0.6294  0.4393
  628TMC3    C1 9296   0.353   4.306  14.506  0.1305 -0.1000 -0.1869
  628TMC3    C2 9297   0.452   4.216  14.537  0.2562 -0.5464 -0.0993
  628TMC3    C3 9298   0.475   4.177  14.665 -0.8625  0.0633  0.1140
  628TMC3    C4 9299   0.275   4.358  14.603 -0.2577  0.3310  0.2221
  628TMC3    C5 9300   0.296   4.314  14.735  0.1772  0.1830 -0.2871
  628TMC3    C6 9301   0.396   4.224  14.766  0.0637 -0.4611 -0.2068
  628TMC3     C 9302   0.281   4.272  14.387 -0.0530  0.0898  0.5988
  628TMC3     O 9303   0.230   4.351  14.314  0.0033 -0.1036  0.0919
  628TMC3     H 9304   0.528   4.191  14.465 -0.0288 -0.1803 -0.5238
  628TMC3    H1 9305   0.185   4.412  14.574  0.9342  1.5094 -1.2214
  628TMC3    H2 9306   0.419   4.217  14.872  1.3150  0.2631 -0.4381
  628TMC3    C7 9307   0.228   4.385  14.842  0.7058  0.1936 -0.5430
  628TMC3    C8 9308   0.588   4.086  14.690  0.7701 -0.1475 -0.4168
  628TMC3    O1 9309   0.216   4.320  14.944 -0.4489 -0.2952 -0.4595
  628TMC3    O2 9310   0.650   4.056  14.590 -0.0417 -0.2685 -0.7218
  629MPD2     C 9311   2.596   3.006  16.044 -0.2993 -0.0669  0.1476
  629MPD2    C1 9312   2.624   2.871  16.050  0.3315 -0.1291 -0.4832
  629MPD2    C2 9313   2.521   2.780  16.041 -0.0396  0.6225 -0.6088
  629MPD2    C3 9314   2.391   2.827  16.044  0.0603 -0.3045  0.5472
  629MPD2    C4 9315   2.362   2.959  16.042  0.6956  1.4515 -0.6304
  629MPD2    C5 9316   2.463   3.049  16.044 -0.5345  0.3027  0.5698
  629MPD2     H 9317   2.547   2.675  16.031  2.7359  0.8607  4.2467
  629MPD2    H1 9318   2.264   2.994  16.011 -0.4156  1.3237  2.7012
  629MPD2    H2 9319   2.677   3.078  16.045  0.5225 -0.9832 -1.6049
  629MPD2    H3 9320   2.454   3.157  16.037 -2.5385  0.0018 -1.5729
  629MPD2     N 9321   2.292   2.731  16.044 -0.3102 -0.4198  0.6625
  629MPD2    H5 9322   2.327   2.637  16.025  2.0295  0.3253  1.3726
  629MPD2    N1 9323   2.757   2.828  16.083 -0.0891  0.5241 -0.3463
  629MPD2    H7 9324   2.828   2.900  16.098 -0.0030  0.4321 -0.3111
  630TMC3    C1 9325   2.935   2.680  16.130  0.0191  1.1462  0.9486
  630TMC3    C2 9326   3.024   2.776  16.105 -0.1618  0.9141  1.0204
  630TMC3    C3 9327   3.145   2.762  16.160  0.4356 -0.8810 -0.0030
  630TMC3    C4 9328   2.970   2.567  16.199  0.5112  0.2376  0.1942
  630TMC3    C5 9329   3.092   2.555  16.245  0.4650 -0.0354 -0.3779
  630TMC3    C6 9330   3.186   2.652  16.228  0.0499 -0.0175  0.3404
  630TMC3     C 9331   2.796   2.700  16.093 -0.2552 -0.7872 -0.4560
  630TMC3     O 9332   2.733   2.597  16.101  0.1419 -0.5456  0.1457
  630TMC3     H 9333   2.998   2.865  16.049  0.2821  1.5326  1.7989
  630TMC3    H1 9334   2.889   2.511  16.243  0.1145  1.4220  0.9715
  630TMC3    H2 9335   3.285   2.643  16.270 -0.6139 -0.6818  1.7423
  630TMC3    C7 9336   3.111   2.471  16.363 -0.9454  0.6300 -0.1260
  630TMC3    C8 9337   3.218   2.879  16.184 -0.2199 -0.0439  0.1522
  630TMC3    O1 9338   3.217   2.479  16.426  0.2291  0.0198  0.6808
  630TMC3    O2 9339   3.282   2.881  16.290 -0.2138 -0.7385  0.3103
  631MPD2     C 9340   0.905   1.841  15.994  0.1856 -0.0995 -0.3168
  631MPD2    C1 9341   0.971   1.915  15.902  0.4663 -0.7643 -0.3292
  631MPD2    C2 9342   1.092   1.872  15.839 -0.2038  0.5312  0.0641
  631MPD2    C3 9343   1.143   1.746  15.874 -0.5829 -0.3900  0.1927
  631MPD2    C4 9344   1.079   1.668  15.969 -0.2433 -0.0188 -0.1907
  631MPD2    C5 9345   0.956   1.711  16.024 -0.2860 -0.2899  0.8813
  631MPD2     H 9346   1.146   1.941  15.775  1.0987 -1.0085 -0.4782
  631MPD2    H1 9347   1.111   1.570  16.001  0.7449  1.0395  2.1119
  631MPD2    H2 9348   0.810   1.885  16.023  1.6226  1.8976  1.3605
  631MPD2    H3 9349   0.909   1.639  16.090 -0.6970 -1.2226 -0.4336
  631MPD2     N 9350   1.255   1.699  15.803  0.3867 -0.0295  0.0851
  631MPD2    H5 9351   1.307   1.761  15.741  1.7157 -0.4611  0.7845
  631MPD2    N1 9352   0.918   2.043  15.880  0.1060  0.3953 -0.3395
  631MPD2    H7 9353   0.836   2.070  15.935  0.8443  0.2327  0.8386
  632TMC3    C1 9354   0.899   2.268  15.785 -0.1341  0.2231 -0.0037
  632TMC3    C2 9355   0.890   2.343  15.897 -0.2168 -0.4412  0.5992
  632TMC3    C3 9356   0.865   2.481  15.881 -0.1082 -0.0627 -0.6785
  632TMC3    C4 9357   0.901   2.326  15.655  0.1356 -0.8988 -0.7932
  632TMC3    C5 9358   0.880   2.459  15.639  0.4846 -0.8182 -0.3561
  632TMC3    C6 9359   0.859   2.540  15.753 -0.0144 -0.2131 -0.0553
  632TMC3     C 9360   0.961   2.135  15.787 -0.1598 -0.0271 -0.6225
  632TMC3     O 9361   1.051   2.132  15.705 -0.3700  0.1583 -0.6117
  632TMC3     H 9362   0.914   2.305  15.996 -1.9593 -2.9603  0.0515
  632TMC3    H1 9363   0.922   2.271  15.564 -0.1418  0.1630 -1.4939
  632TMC3    H2 9364   0.840   2.647  15.747  0.5872 -0.2215 -1.9778
  632TMC3    C7 9365   0.978   2.512  15.542  0.2465  0.2796  0.3539
  632TMC3    C8 9366   0.846   2.565  16.001 -0.4206  0.3292  0.3673
  632TMC3    O1 9367   1.000   2.450  15.441 -0.0416 -0.8715 -0.5798
  632TMC3    O2 9368   0.906   2.531  16.102  0.1942 -0.0440 -0.0563
  633MPD2     C 9369   1.031   0.584   0.170  0.8402  0.5758 -0.6300
  633MPD2    C1 9370   1.023   0.505   0.059  0.3448 -0.1149 -0.2348
  633MPD2    C2 9371   1.021   0.371   0.074 -1.1556 -0.3840 -1.0109
  633MPD2    C3 9372   1.010   0.310   0.204  0.0328  0.1998  0.1172
  633MPD2    C4 9373   1.025   0.395   0.314 -0.1601  1.4645  0.3514
  633MPD2    C5 9374   1.045   0.529   0.299 -0.1973  0.3032  0.3300
  633MPD2     H 9375   1.012   0.302  17.685 -1.5086  0.7281 -1.8939
  633MPD2    H1 9376   1.023   0.365   0.418 -0.4370 -2.4005 -0.7829
  633MPD2    H2 9377   1.033   0.692   0.166  1.8718  0.6075  0.7215
  633MPD2    H3 9378   1.042   0.595   0.385 -2.3089  1.3776 -0.5730
  633MPD2     N 9379   1.021   0.171   0.226 -0.4107 -0.0817 -0.0287
  633MPD2    H5 9380   1.055   0.130   0.313 -3.7599  0.0340  1.3313
  633MPD2    N1 9381   1.026   0.559  17.619  0.2923  0.6666 -1.0008
  633MPD2    H7 9382   1.034   0.485  17.551  1.4807  0.9473 -1.1656
  634TMC3    C1 9383   1.049   0.691  17.433 -0.0977  0.0075 -0.2646
  634TMC3    C2 9384   1.144   0.606  17.381 -0.3470 -0.1969  0.4014
  634TMC3    C3 9385   1.200   0.635  17.261  0.2533 -0.1911  0.5896
  634TMC3    C4 9386   1.010   0.810  17.369 -0.4266  0.8705  0.3012
  634TMC3    C5 9387   1.065   0.830  17.246 -1.0414  0.2682 -0.1101
  634TMC3    C6 9388   1.154   0.741  17.188 -0.0079  0.4367  0.1854
  634TMC3     C 9389   1.023   0.687  17.578  0.3617  0.3662 -0.1697
  634TMC3     O 9390   0.989   0.786  17.640  0.3222 -0.0166 -0.0266
  634TMC3     H 9391   1.176   0.516  17.434  0.3444 -0.7332 -0.9348
  634TMC3    H1 9392   0.939   0.882  17.408  0.2559  1.7984 -0.1702
  634TMC3    H2 9393   1.192   0.769  17.090  3.6922 -1.7337  0.9844
  634TMC3    C7 9394   1.004   0.923  17.151 -0.2772  0.5146  0.0878
  634TMC3    C8 9395   1.248   0.524  17.179 -0.0952 -0.8510  0.0049
  634TMC3    O1 9396   1.019   0.889  17.031  0.0536  0.5617 -0.6650
  634TMC3    O2 9397   1.187   0.424  17.213  0.7914  0.5137  0.4169
  635TMC3    C1 9398   2.087   1.703  17.360 -0.9168 -0.2024  0.4004
  635TMC3    C2 9399   2.198   1.636  17.325 -0.7010  0.4208  0.1464
  635TMC3    C3 9400   2.197   1.502  17.304  0.2164 -0.5128 -0.1937
  635TMC3    C4 9401   1.969   1.646  17.343 -0.3319  0.3954 -0.3842
  635TMC3    C5 9402   1.965   1.510  17.334 -0.1517  0.2415  0.1265
  635TMC3    C6 9403   2.073   1.439  17.303 -0.2520 -0.5091  0.4586
  635TMC3     C 9404   2.079   1.847  17.392 -0.8678 -0.1982 -0.6249
  635TMC3     O 9405   1.976   1.884  17.446  0.0732 -0.4727  0.1433
  635TMC3     H 9406   2.290   1.691  17.343  1.4499 -3.1933  0.1965
  635TMC3    H1 9407   1.876   1.701  17.337 -0.3812  0.5499  2.0682
  635TMC3    H2 9408   2.078   1.333  17.283  0.1839  0.0021 -2.1654
  635TMC3    C7 9409   1.845   1.441  17.381 -0.2856 -0.5090 -0.1683
  635TMC3    C8 9410   2.314   1.430  17.246 -0.0785 -0.3077 -0.3857
  635TMC3    O1 9411   1.743   1.504  17.412 -0.1448  0.1101 -0.5096
  635TMC3    O2 9412   2.302   1.309  17.238  0.4760  0.1285  0.5979
  636MPD2     C 9413   2.018   0.833  16.433  0.0064 -0.2504 -0.1609
  636MPD2    C1 9414   2.042   0.950  16.496 -0.8786 -0.0820  0.7726
  636MPD2    C2 9415   2.059   0.956  16.633 -0.0771 -0.3257  0.1727
  636MPD2    C3 9416   2.039   0.837  16.702 -0.4462 -0.0868  0.3081
  636MPD2    C4 9417   1.998   0.721  16.641  0.3709 -0.5267  0.2594
  636MPD2    C5 9418   1.983   0.722  16.506 -0.0707  0.1662  0.7432
  636MPD2     H 9419   2.091   1.046  16.684  0.8776 -0.4300 -0.2336
  636MPD2    H1 9420   1.984   0.628  16.695 -0.0128  0.1235  1.2807
  636MPD2    H2 9421   2.016   0.818  16.325 -2.1139 -1.4532  0.0359
  636MPD2    H3 9422   1.959   0.632  16.452  1.5986  0.8275 -1.1003
  636MPD2     N 9423   2.072   0.844  16.836 -0.6440  0.5444  0.2214
  636MPD2    H5 9424   2.118   0.929  16.866 -0.1428  0.8366 -1.3950
  636MPD2    N1 9425   2.055   1.067  16.426  0.4993  0.0775  0.5498
  636MPD2    H7 9426   2.069   1.151  16.481 -3.2610  2.4782 -2.0590
  637TMC3    C1 9427   2.167   0.714  16.998  0.2941 -0.1796 -0.4836
  637TMC3    C2 9428   2.236   0.834  17.021  0.1725  0.8009  0.0458
  637TMC3    C3 9429   2.369   0.852  16.968 -0.0397 -0.0257  0.0949
  637TMC3    C4 9430   2.224   0.615  16.917  0.8490 -0.0107 -0.3605
  637TMC3    C5 9431   2.353   0.637  16.874 -0.4135  0.2492  0.0839
  637TMC3    C6 9432   2.426   0.749  16.904  0.1274  0.3673 -0.0715
  637TMC3     C 9433   2.045   0.748  16.933 -0.5700  0.5409 -0.3747
  637TMC3     O 9434   1.982   0.645  16.932 -0.8807 -0.7487  0.2829
  637TMC3     H 9435   2.172   0.911  17.061 -0.3239 -0.3018  1.3581
  637TMC3    H1 9436   2.174   0.519  16.908  1.8755 -0.5255 -0.5903
  637TMC3    H2 9437   2.526   0.749  16.861  0.4740 -0.1495  0.7299
  637TMC3    C7 9438   2.356   0.612  16.731 -0.1691 -0.0571  0.6006
  637TMC3    C8 9439   2.376   0.984  16.904  0.0455 -0.0754 -0.1114
  637TMC3    O1 9440   2.435   0.688  16.664 -0.7133 -0.2147  0.0297
  637TMC3    O2 9441   2.329   1.079  16.961  0.9710 -0.0884  0.2892
  638MPD2     C 9442   2.345   4.406  14.954  1.0096 -0.4039 -0.7962
  638MPD2    C1 9443   2.263   4.332  14.872  0.3211  0.3186  0.0603
  638MPD2    C2 9444   2.194   4.224  14.918  0.6961 -0.1666  0.5479
  638MPD2    C3 9445   2.200   4.188  15.045  0.0751  0.0971  0.5139
  638MPD2    C4 9446   2.285   4.251  15.135 -0.4917  0.0471  0.2762
  638MPD2    C5 9447   2.364   4.360  15.081 -0.8760  0.9156 -0.0309
  638MPD2     H 9448   2.123   4.170  14.856 -0.1457  1.0414  0.4531
  638MPD2    H1 9449   2.305   4.217  15.236  1.8540 -1.5037 -0.7339
  638MPD2    H2 9450   2.389   4.500  14.923  1.9506 -0.7513 -0.4995
  638MPD2    H3 9451   2.416   4.422  15.153  0.7830 -2.1824  1.4674
  638MPD2     N 9452   2.113   4.084  15.086 -0.3894  0.0637 -0.2580
  638MPD2    H5 9453   2.044   4.054  15.018  0.0066 -2.2511  0.3383
  638MPD2    N1 9454   2.243   4.392  14.743  0.4550 -0.0660  0.5291
  638MPD2    H7 9455   2.298   4.472  14.715  2.7419 -1.5796  0.6721
  639TMC3    C1 9456   2.007   3.917  15.221 -0.4058 -0.5352 -0.0588
  639TMC3    C2 9457   1.925   3.891  15.116 -0.6095  0.2625 -0.1527
  639TMC3    C3 9458   1.876   3.761  15.108 -0.0963 -0.3969 -0.0500
  639TMC3    C4 9459   2.032   3.819  15.320 -0.2364 -0.0227 -0.4176
  639TMC3    C5 9460   1.982   3.689  15.308  0.2732  0.7297  0.1979
  639TMC3    C6 9461   1.902   3.662  15.198 -0.7471 -0.0475  0.2134
  639TMC3     C 9462   2.105   4.029  15.215  0.1788  0.4207 -0.2615
  639TMC3     O 9463   2.172   4.046  15.315  0.6645  0.2239 -0.8782
  639TMC3     H 9464   1.901   3.961  15.037 -1.4771 -0.8856 -0.9239
  639TMC3    H1 9465   2.096   3.837  15.406 -0.0654  1.0207 -0.7673
  639TMC3    H2 9466   1.851   3.566  15.198 -1.1781  0.1807  0.1558
  639TMC3    C7 9467   2.082   3.589  15.321 -0.7771  0.4548 -0.8582
  639TMC3    C8 9468   1.796   3.718  14.989 -0.2100  0.6354  0.2341
  639TMC3    O1 9469   2.057   3.471  15.324  0.1418 -0.2662 -0.0488
  639TMC3    O2 9470   1.835   3.748  14.878 -0.0786 -0.1891  0.1024
  640MPD2     C 9471   3.064   2.782   9.753 -0.5335  0.8632 -0.1702
  640MPD2    C1 9472   3.083   2.913   9.727 -0.0309 -0.0179 -0.8656
  640MPD2    C2 9473   2.986   3.006   9.759 -0.2713 -0.5576 -0.0609
  640MPD2    C3 9474   2.861   2.965   9.806 -0.3526 -0.3814 -1.5411
  640MPD2    C4 9475   2.835   2.826   9.817  0.1387 -0.9413  0.3986
  640MPD2    C5 9476   2.939   2.735   9.801 -0.4377 -0.6167  0.1051
  640MPD2     H 9477   3.007   3.112   9.748 -1.1421 -0.2593  1.2674
  640MPD2    H1 9478   2.740   2.791   9.855 -0.7000  0.8781 -0.0155
  640MPD2    H2 9479   3.145   2.710   9.748  0.0758  1.5073  0.3662
  640MPD2    H3 9480   2.917   2.633   9.830  1.3410 -0.9445  0.2657
  640MPD2     N 9481   2.759   3.051   9.847  0.1582  0.4922 -0.4205
  640MPD2    H5 9482   2.685   3.003   9.898  0.1320  0.2226 -0.7102
  640MPD2    N1 9483   3.217   2.949   9.695 -0.0584 -0.2263 -0.1505
  640MPD2    H7 9484   3.290   2.879   9.686  0.0369 -0.0612 -0.6601
  641TMC3    C1 9485   3.400   3.088   9.644 -0.2130  0.6419  0.2863
  641TMC3    C2 9486   3.481   2.986   9.603  0.1347 -0.4088  0.4617
  641TMC3    C3 9487   3.596   2.996   9.547 -0.6263  0.3695  0.1095
  641TMC3    C4 9488   3.454   3.216   9.614  0.6461  0.8216 -0.2576
  641TMC3    C5 9489   3.579   3.230   9.565  0.6288 -0.2566 -0.4972
  641TMC3    C6 9490   3.650   3.122   9.530  0.4367 -0.0993 -0.2108
  641TMC3     C 9491   3.259   3.077   9.663 -0.1845 -0.3068 -0.1209
  641TMC3     O 9492   3.192   3.177   9.650 -0.2410 -0.1536 -0.1005
  641TMC3     H 9493   3.445   2.883   9.607  1.5205 -0.8527  1.4439
  641TMC3    H1 9494   3.398   3.302   9.650  0.7696  0.0100  1.8414
  641TMC3    H2 9495   3.734   3.124   9.461  0.6312  0.4458  0.0454
  641TMC3    C7 9496   3.600   3.363   9.511 -0.8394  1.0532  0.5221
  641TMC3    C8 9497   3.674   2.871   9.551  0.3001 -0.8491 -0.7621
  641TMC3    O1 9498   3.503   3.426   9.479  0.0365  0.6202 -1.0994
  641TMC3    O2 9499   3.633   2.782   9.619  0.1814  0.1854 -0.0937
  642TMC3    C1 9500   3.969   4.198  12.421 -0.8828 -0.2109  0.1738
  642TMC3    C2 9501   4.033   4.213  12.548  0.2864  0.5706 -0.0352
  642TMC3    C3 9502   4.066   4.092  12.615  0.1697 -0.1712 -0.2502
  642TMC3    C4 9503   3.941   4.077  12.373  0.8127 -0.2355 -0.4093
  642TMC3    C5 9504   3.976   3.957  12.437  0.2568 -0.0609  0.0252
  642TMC3    C6 9505   4.035   3.970  12.557 -0.3304  0.0494 -0.1367
  642TMC3     C 9506   3.878   4.295  12.384  0.7247 -0.0578  0.1800
  642TMC3     O 9507   3.839   4.295  12.268 -0.0377  0.2462  0.0087
  642TMC3     H 9508   4.037   4.305  12.604  0.6123  0.0549  0.7945
  642TMC3    H1 9509   3.904   4.075  12.272 -2.5669  0.0994  0.8160
  642TMC3    H2 9510   4.075   3.877  12.595  1.9842  2.2447  2.8151
  642TMC3    C7 9511   3.914   3.837  12.389  0.3489  0.1303  0.5109
  642TMC3    C8 9512   4.164   4.090  12.718 -0.0874  0.0740 -0.2349
  642TMC3    O1 9513   3.865   3.846  12.277 -0.1673 -0.7295 -0.1386
  642TMC3    O2 9514   4.191   3.981  12.763  0.2682  0.1867  0.1151
  643TMC3    C1 9515   3.070   3.214   0.726  0.3385 -0.2908 -0.3494
  643TMC3    C2 9516   2.934   3.227   0.730 -0.2942  0.4156 -0.1102
  643TMC3    C3 9517   2.855   3.146   0.657  0.2425  0.0920 -0.4977
  643TMC3    C4 9518   3.134   3.117   0.655 -0.1953  0.3500  0.0485
  643TMC3    C5 9519   3.051   3.029   0.591 -0.6241  0.1160  0.3375
  643TMC3    C6 9520   2.911   3.032   0.604 -0.5824  0.8158  0.2496
  643TMC3     C 9521   3.142   3.316   0.797 -0.1003 -0.4054 -0.6639
  643TMC3     O 9522   3.090   3.427   0.802 -0.2921 -0.2434  0.0606
  643TMC3     H 9523   2.886   3.314   0.772 -0.3825 -0.2845  1.2347
  643TMC3    H1 9524   3.242   3.118   0.647 -0.0523 -0.8249  1.8218
  643TMC3    H2 9525   2.842   2.967   0.551  1.2789 -2.2062  1.5819
  643TMC3    C7 9526   3.092   3.017   0.447 -0.0824 -0.2719 -0.0878
  643TMC3    C8 9527   2.776   3.224   0.563  0.4458 -0.5090  0.4028
  643TMC3    O1 9528   3.184   3.085   0.413  0.7860  0.3805 -0.1951
  643TMC3    O2 9529   2.696   3.151   0.505  0.1717 -0.1427  0.0237
  644MPD2     C 9530   3.735   4.200   9.851 -0.2257 -0.5001  0.3764
  644MPD2    C1 9531   3.665   4.084   9.872  0.0554  0.9994  0.3796
  644MPD2    C2 9532   3.536   4.098   9.932 -0.0224 -0.3786 -0.2839
  644MPD2    C3 9533   3.481   4.223   9.959 -0.2655  0.1641  0.0215
  644MPD2    C4 9534   3.546   4.335   9.922 -0.0115  0.3205  0.1229
  644MPD2    C5 9535   3.671   4.323   9.865  0.2749 -0.2569 -0.3127
  644MPD2     H 9536   3.481   4.007   9.955  1.1722 -0.9703  0.2432
  644MPD2    H1 9537   3.514   4.434   9.953 -0.4535  0.0119  0.6539
  644MPD2    H2 9538   3.837   4.208   9.816 -0.4708  0.3817 -0.1271
  644MPD2    H3 9539   3.724   4.411   9.831  1.7172 -1.0503 -0.1365
  644MPD2     N 9540   3.368   4.222  10.040 -0.5270  0.4055 -0.2804
  644MPD2    H5 9541   3.331   4.130  10.066  1.4227  0.1065  1.4345
  644MPD2    N1 9542   3.722   3.962   9.843  0.6498  0.2022 -0.4864
  644MPD2    H7 9543   3.816   3.954   9.807  1.1803 -0.5268  1.0767
  645TMC3    C1 9544   3.171   4.302  10.152 -0.0625 -1.0711 -0.4170
  645TMC3    C2 9545   3.142   4.354  10.275  0.3571  0.6840 -0.3558
  645TMC3    C3 9546   3.045   4.299  10.355 -0.0686 -0.4948 -0.6628
  645TMC3    C4 9547   3.104   4.193  10.101  0.4140  0.4198 -0.3966
  645TMC3    C5 9548   3.009   4.132  10.181 -0.0124  0.5393  0.8211
  645TMC3    C6 9549   2.976   4.185  10.313 -0.9782  0.4017  0.1904
  645TMC3     C 9550   3.306   4.333  10.097  0.1478 -0.6909  0.1667
  645TMC3     O 9551   3.343   4.449  10.109 -0.5380  0.1155 -0.2408
  645TMC3     H 9552   3.209   4.431  10.313 -0.6198  1.1883  0.3690
  645TMC3    H1 9553   3.128   4.162   9.999  1.6675  3.8797 -1.1674
  645TMC3    H2 9554   2.905   4.134  10.377 -1.3826 -1.2902 -1.6095
  645TMC3    C7 9555   2.983   3.997  10.139  0.2774 -0.0943 -0.2257
  645TMC3    C8 9556   3.014   4.341  10.491  0.4522  0.0265 -0.0556
  645TMC3    O1 9557   2.971   3.979  10.017 -0.8413 -0.2065  0.0754
  645TMC3    O2 9558   3.108   4.396  10.546 -0.1749  0.0094  0.0122
  646MPD2     C 9559   2.192   3.176  14.407 -0.1157  0.4443  0.1855
  646MPD2    C1 9560   2.082   3.146  14.486  0.4503  0.6082  0.0964
  646MPD2    C2 9561   1.954   3.188  14.446 -0.1571 -1.3090  0.0367
  646MPD2    C3 9562   1.931   3.275  14.340  0.2447 -0.1527  0.0564
  646MPD2    C4 9563   2.040   3.317  14.266  0.2694 -0.7172  0.3698
  646MPD2    C5 9564   2.166   3.256  14.297 -1.4810  0.9195 -0.3022
  646MPD2     H 9565   1.868   3.149  14.499 -1.1523  1.6624  0.6171
  646MPD2    H1 9566   2.020   3.377  14.178  1.0650 -0.2396  0.5092
  646MPD2    H2 9567   2.294   3.145  14.422 -0.0943  0.7848  0.7517
  646MPD2    H3 9568   2.248   3.293  14.238  0.6322 -1.3731  1.2115
  646MPD2     N 9569   1.796   3.306  14.306  0.3987 -0.2679  0.2631
  646MPD2    H5 9570   1.728   3.262  14.366 -0.6275 -2.5493 -2.5413
  646MPD2    N1 9571   2.101   3.067  14.602 -0.1176 -0.1358 -0.7901
  646MPD2    H7 9572   2.192   3.025  14.617 -1.1157 -2.3015 -0.7399
  647TMC3    C1 9573   2.069   2.955  14.800  0.4927 -0.0465 -0.1267
  647TMC3    C2 9574   1.983   2.885  14.881 -0.0811 -0.4345 -0.0811
  647TMC3    C3 9575   2.013   2.846  15.011  0.5400 -0.5421 -0.1090
  647TMC3    C4 9576   2.190   2.989  14.848  0.2471 -0.0956 -0.2849
  647TMC3    C5 9577   2.229   2.946  14.975 -0.3706 -0.4284 -0.3220
  647TMC3    C6 9578   2.140   2.881  15.052  0.1748 -0.6083  0.1276
  647TMC3     C 9579   2.009   3.030  14.695 -1.0167  0.6646  0.3272
  647TMC3     O 9580   1.888   3.048  14.687 -0.3685 -0.0497  0.4559
  647TMC3     H 9581   1.885   2.859  14.843 -0.7937  1.7263  0.3094
  647TMC3    H1 9582   2.252   3.057  14.791 -0.8095 -0.4465 -1.8345
  647TMC3    H2 9583   2.174   2.838  15.145  0.8670  1.0144  0.6193
  647TMC3    C7 9584   2.370   2.927  15.014  0.5896  0.3848  0.0507
  647TMC3    C8 9585   1.977   2.712  15.035  0.2869 -0.8737  0.4858
  647TMC3    O1 9586   2.397   2.920  15.133 -0.0763  0.3108  0.2445
  647TMC3    O2 9587   2.075   2.641  15.042 -0.1690 -0.1047 -0.1334
  648TMC3    C1 9588   1.671   0.476  16.419  0.6161 -0.0434 -0.6650
  648TMC3    C2 9589   1.731   0.367  16.357  0.0475  0.0717 -0.0816
  648TMC3    C3 9590   1.698   0.333  16.232  0.3527 -0.0013  0.2558
  648TMC3    C4 9591   1.584   0.553  16.354 -0.6503 -0.4134  0.2941
  648TMC3    C5 9592   1.562   0.524  16.221  0.3679  0.0604 -0.3927
  648TMC3    C6 9593   1.615   0.408  16.160  0.2560  0.2395 -0.3899
  648TMC3     C 9594   1.686   0.499  16.562 -0.3202  0.3192  0.1722
  648TMC3     O 9595   1.664   0.611  16.612 -0.1201 -0.0634 -0.1652
  648TMC3     H 9596   1.814   0.318  16.406 -0.9656 -1.7427 -0.1682
  648TMC3    H1 9597   1.548   0.646  16.396  0.5370 -0.5631  1.6235
  648TMC3    H2 9598   1.604   0.396  16.053  0.8168 -0.3564 -0.3848
  648TMC3    C7 9599   1.448   0.587  16.153 -0.3643  0.1877  0.0364
  648TMC3    C8 9600   1.751   0.210  16.178  0.1843 -0.0622  0.0022
  648TMC3    O1 9601   1.418   0.552  16.038 -0.0465  0.5657  0.0601
  648TMC3    O2 9602   1.862   0.176  16.224  0.1775  0.0461  0.1283
  649TMC3    C1 9603   4.717   1.744  12.895  0.2628 -0.4699  0.1582
  649TMC3    C2 9604   0.115   1.766  12.823  0.1563 -0.3704 -0.9952
  649TMC3    C3 9605   0.207   1.663  12.819 -0.5422  0.1589 -0.3941
  649TMC3    C4 9606   4.682   1.619  12.950 -0.2465 -0.1586  0.0334
  649TMC3    C5 9607   0.062   1.523  12.944  0.2634  0.3146 -0.1100
  649TMC3    C6 9608   0.178   1.543  12.885 -0.0256 -0.1706 -0.3001
  649TMC3     C 9609   4.629   1.854  12.898 -0.7134  0.4976 -0.0048
  649TMC3     O 9610   4.611   1.899  13.007 -0.2438  0.1564  0.2712
  649TMC3     H 9611   0.128   1.867  12.787  0.0154  0.0763  0.1840
  649TMC3    H1 9612   4.585   1.614  12.997 -0.5223  0.4641 -0.4777
  649TMC3    H2 9613   0.253   1.468  12.864  0.7200 -0.2599  2.7428
  649TMC3    C7 9614   0.070   1.452  13.072  0.1495  0.2708  0.9005
  649TMC3    C8 9615   0.340   1.682  12.762  0.6389 -1.0356 -0.1163
  649TMC3    O1 9616   4.689   1.439  13.135 -0.2391  0.2047  0.3997
  649TMC3    O2 9617   0.425   1.595  12.771  0.3245  0.4733  0.2674
  650TMC3    C1 9618   3.172   3.353  12.964  0.8951  0.1978 -0.2794
  650TMC3    C2 9619   3.142   3.481  13.003 -0.3987 -0.6097 -0.0514
  650TMC3    C3 9620   3.040   3.552  12.941 -0.7458  0.3793 -0.4360
  650TMC3    C4 9621   3.094   3.292  12.865  0.7547  0.5081  0.1409
  650TMC3    C5 9622   3.003   3.365  12.800 -0.2243 -0.7178 -0.3774
  650TMC3    C6 9623   2.967   3.494  12.838 -0.4802 -0.4190 -0.2094
  650TMC3     C 9624   3.302   3.298  13.003 -0.2842  1.0140 -0.9132
  650TMC3     O 9625   3.401   3.369  13.018 -0.1802 -0.5720  0.3467
  650TMC3     H 9626   3.198   3.506  13.092 -1.9080 -0.4822  0.8562
  650TMC3    H1 9627   3.124   3.200  12.817 -2.4269  0.2809 -1.3981
  650TMC3    H2 9628   2.874   3.542  12.810  0.4699  1.9034  0.6168
  650TMC3    C7 9629   2.918   3.302  12.698  0.0506  0.3163 -0.2835
  650TMC3    C8 9630   3.015   3.689  12.964  0.3640 -0.3161  0.1925
  650TMC3    O1 9631   2.926   3.177  12.687  0.1156 -0.3758  0.8284
  650TMC3    O2 9632   2.969   3.757  12.872 -0.1771 -0.1882 -0.1710
  651MPD2     C 9633   2.359   0.175  10.421  0.0683 -0.4681  0.0133
  651MPD2    C1 9634   2.368   0.291  10.492  0.1504  0.6391  0.3806
  651MPD2    C2 9635   2.483   0.369  10.488  0.0719  0.7775  0.3152
  651MPD2    C3 9636   2.591   0.323  10.414  0.3860 -0.4202  0.5535
  651MPD2    C4 9637   2.586   0.198  10.359 -0.0370 -0.4360  0.6025
  651MPD2    C5 9638   2.471   0.129  10.354 -0.8081  0.2295  0.3096
  651MPD2     H 9639   2.470   0.466  10.535 -1.8931  1.2233 -1.1717
  651MPD2    H1 9640   2.670   0.146  10.315 -0.1539 -0.7676  0.7643
  651MPD2    H2 9641   2.268   0.116  10.432  0.3878 -1.2579 -1.6271
  651MPD2    H3 9642   2.458   0.028  10.317 -0.9960 -0.2805  1.7741
  651MPD2     N 9643   2.710   0.394  10.425 -0.4861 -0.6917  0.1589
  651MPD2    H5 9644   2.713   0.463  10.500 -1.2527  0.2049 -0.6396
  651MPD2    N1 9645   2.259   0.339  10.565 -0.6132  0.0113 -0.7552
  651MPD2    H7 9646   2.258   0.438  10.587 -2.3179 -0.0378 -0.5972
  652TMC3    C1 9647   3.165   0.512  10.355 -0.5127 -0.3423 -0.0434
  652TMC3    C2 9648   3.067   0.419  10.340 -0.0358  0.3764 -0.4444
  652TMC3    C3 9649   2.940   0.453  10.387  0.0757  0.1193 -0.0449
  652TMC3    C4 9650   3.138   0.635  10.414 -0.1423  0.1794  0.3684
  652TMC3    C5 9651   3.017   0.653  10.468  0.4066  0.2029  0.9824
  652TMC3    C6 9652   2.911   0.569  10.453  0.5351 -0.4663  0.3803
  652TMC3     C 9653   3.303   0.483  10.347 -0.0839  0.1871 -0.3492
  652TMC3     O 9654   3.331   0.389  10.421 -0.1414  0.1890  0.1658
  652TMC3     H 9655   3.087   0.318  10.305 -1.4683 -0.1923  0.3690
  652TMC3    H1 9656   3.214   0.711  10.429 -1.0641  1.1594  0.1134
  652TMC3    H2 9657   2.816   0.602  10.493  1.2192 -0.6752  2.1717
  652TMC3    C7 9658   3.008   0.710  10.595 -0.2404 -0.2988  0.0173
  652TMC3    C8 9659   2.827   0.363  10.360  0.1733  0.3168 -0.2402
  652TMC3    O1 9660   2.941   0.654  10.681  0.1143 -0.0537 -0.4714
  652TMC3    O2 9661   2.855   0.264  10.290  0.1689  0.3754 -0.6562
  653MPD2     C 9662   0.665   0.578   0.264 -0.3432  0.1262 -0.6046
  653MPD2    C1 9663   0.602   0.686   0.213  0.0390  0.0453 -0.0146
  653MPD2    C2 9664   0.473   0.668   0.158 -0.3443 -0.2020 -0.3069
  653MPD2    C3 9665   0.420   0.538   0.138  0.3154  0.6287  0.4520
  653MPD2    C4 9666   0.496   0.431   0.180  0.0813 -0.3826  0.5597
  653MPD2    C5 9667   0.610   0.454   0.245 -0.0894  0.0453 -0.3159
  653MPD2     H 9668   0.429   0.757   0.116 -1.3753 -1.8047 -2.6134
  653MPD2    H1 9669   0.469   0.326   0.174 -0.4247 -0.1999 -0.2820
  653MPD2    H2 9670   0.762   0.584   0.312 -0.4917  1.0520 -0.4229
  653MPD2    H3 9671   0.671   0.373   0.285 -1.0724 -0.3368  0.4248
  653MPD2     N 9672   0.299   0.525   0.065 -0.2975 -0.4426 -0.6840
  653MPD2    H5 9673   0.271   0.601   0.003 -0.6814 -1.0515 -1.2530
  653MPD2    N1 9674   0.664   0.816   0.226 -0.2111  0.2430  0.1966
  653MPD2    H7 9675   0.622   0.897   0.182 -0.1577 -0.9936 -2.1255
  654TMC3    C1 9676   0.137   0.418  17.621  0.7732 -0.1371 -0.8579
  654TMC3    C2 9677   0.074   0.540  17.593 -0.3867  0.3244 -0.3505
  654TMC3    C3 9678   0.033   0.562  17.465 -0.0347  0.2717  0.0941
  654TMC3    C4 9679   0.164   0.332  17.515  0.4702  0.5580  0.0976
  654TMC3    C5 9680   0.127   0.359  17.389  0.2157 -0.3013  0.0973
  654TMC3    C6 9681   0.064   0.477  17.362 -0.0688 -0.6052 -0.1421
  654TMC3     C 9682   0.227   0.410   0.042  0.2224 -0.1522 -0.0353
  654TMC3     O 9683   0.235   0.305   0.104 -0.6772  0.9387 -0.2870
  654TMC3     H 9684   0.055   0.613  17.671 -0.0924  1.1309 -1.0323
  654TMC3    H1 9685   0.198   0.233  17.543  1.9117  1.4395  1.5190
  654TMC3    H2 9686   0.018   0.501  17.266  2.6025 -0.6728 -1.4203
  654TMC3    C7 9687   0.144   0.268  17.269  0.2738 -0.0572  0.1521
  654TMC3    C8 9688   4.669   0.675  17.441  0.5654 -0.1575  0.6556
  654TMC3    O1 9689   0.068   0.284  17.176 -0.3086 -0.8371 -0.7485
  654TMC3    O2 9690   4.579   0.652  17.355 -0.3767  0.4709 -0.5962
  655MPD2     C 9691   1.880   0.526  16.008  0.5481  0.4305 -0.2371
  655MPD2    C1 9692   1.816   0.627  15.937 -0.0225 -0.2233  0.1883
  655MPD2    C2 9693   1.759   0.607  15.817  0.3811 -0.0653 -0.5373
  655MPD2    C3 9694   1.770   0.488  15.747  0.2006  0.4779  0.2998
  655MPD2    C4 9695   1.842   0.387  15.810 -0.0019 -0.1384  0.6493
  655MPD2    C5 9696   1.895   0.411  15.933  0.1392 -0.2831 -0.4065
  655MPD2     H 9697   1.696   0.690  15.785 -1.7294 -1.4557 -0.0057
  655MPD2    H1 9698   1.842   0.285  15.773 -0.7958  0.1589 -0.1984
  655MPD2    H2 9699   1.917   0.524  16.110  0.3603  1.2212 -0.1543
  655MPD2    H3 9700   1.944   0.327  15.983 -0.7376 -0.3470  0.3424
  655MPD2     N 9701   1.701   0.465  15.629 -0.5072 -0.6650 -0.0376
  655MPD2    H5 9702   1.734   0.386  15.574  1.8645  0.3156 -0.0351
  655MPD2    N1 9703   1.784   0.751  15.993  0.0558  0.6209  0.0739
  655MPD2    H7 9704   1.728   0.816  15.938 -1.0130  0.1179  0.5583
  656TMC3    C1 9705   1.713   0.895  16.156 -0.1971 -0.1637 -0.2785
  656TMC3    C2 9706   1.675   0.912  16.286 -0.8532  0.2862 -0.1462
  656TMC3    C3 9707   1.569   0.997  16.310  0.3698 -0.4659 -0.0134
  656TMC3    C4 9708   1.649   0.955  16.049 -0.1125 -0.1018 -0.6108
  656TMC3    C5 9709   1.525   1.014  16.071  0.0852 -0.3434  0.4252
  656TMC3    C6 9710   1.493   1.046  16.200 -0.6898  0.4195  0.2996
  656TMC3     C 9711   1.799   0.778  16.127 -0.6102 -0.1239  0.1782
  656TMC3     O 9712   1.837   0.712  16.220 -0.2467  0.8026  0.2597
  656TMC3     H 9713   1.723   0.861  16.368 -2.7136  2.8149  2.4833
  656TMC3    H1 9714   1.686   0.963  15.948  1.9299 -1.1118  0.0634
  656TMC3    H2 9715   1.395   1.088  16.219 -0.7048  0.0669  1.0156
  656TMC3    C7 9716   1.434   0.967  15.976  0.2685 -1.1162 -0.6424
  656TMC3    C8 9717   1.480   0.962  16.419 -0.3521 -0.0501  0.1574
  656TMC3    O1 9718   1.480   0.876  15.907  0.2635  0.1103 -0.5563
  656TMC3    O2 9719   1.471   0.845  16.450  0.4867 -0.2051  0.0480
  657TMC3    C1 9720   0.743   0.099  15.262 -0.4323  0.4494 -0.3995
  657TMC3    C2 9721   0.812   0.038  15.360  0.3921  0.1585  0.2416
  657TMC3    C3 9722   0.770   0.058  15.485 -0.0813 -0.5575 -0.3597
  657TMC3    C4 9723   0.620   0.151  15.281 -0.1594 -0.0139  0.1649
  657TMC3    C5 9724   0.592   0.193  15.414  0.1860 -0.5908 -0.4318
  657TMC3    C6 9725   0.661   0.139  15.517 -0.3872  0.6979 -0.3527
  657TMC3     C 9726   0.794   0.108  15.122  0.3825  0.2375  0.4400
  657TMC3     O 9727   0.711   0.133  15.035 -0.9327 -0.3895 -0.5685
  657TMC3     H 9728   0.913   0.005  15.336  0.3100  1.0964 -1.3948
  657TMC3    H1 9729   0.585   0.219  15.204 -0.2411  1.1793  1.2466
  657TMC3    H2 9730   0.623   0.140  15.618 -1.1139  2.2146 -0.6542
  657TMC3    C7 9731   0.494   0.293  15.443 -0.3867 -0.1201  0.3332
  657TMC3    C8 9732   0.858   0.037  15.600 -0.5963  0.7182 -0.0529
  657TMC3    O1 9733   0.430   0.335  15.349 -0.0712 -0.4951 -0.3994
  657TMC3    O2 9734   0.833   0.090  15.705  0.2364  0.4420 -0.2592
  658MPD2     C 9735   1.954   0.108  15.214  0.6076  0.1246 -0.5434
  658MPD2    C1 9736   1.892   0.198  15.127  0.0659  0.1753 -0.4526
  658MPD2    C2 9737   1.930   0.196  14.997  0.5219  0.4287  0.3104
  658MPD2    C3 9738   2.024   0.112  14.948 -0.1661 -0.1806 -0.1103
  658MPD2    C4 9739   2.089   0.029  15.035 -0.4434 -0.1214 -0.1320
  658MPD2    C5 9740   2.050   0.018  15.163  0.1180  0.0727  0.1114
  658MPD2     H 9741   1.877   0.250  14.920  0.6350 -0.5846 -0.4728
  658MPD2    H1 9742   2.163   4.681  15.003 -0.4168 -1.4123  2.7824
  658MPD2    H2 9743   1.926   0.099  15.318  0.3407  1.8435 -0.4713
  658MPD2    H3 9744   2.100   4.671  15.228  0.8580  0.2885 -0.2302
  658MPD2     N 9745   2.055   0.112  14.810  1.1459 -0.0382  0.6666
  658MPD2    H5 9746   2.002   0.180  14.756  1.6359  0.9759  1.4531
  658MPD2    N1 9747   1.800   0.288  15.193 -0.3154  0.1508 -0.1598
  658MPD2    H7 9748   1.783   0.273  15.292 -2.7860 -1.1082 -0.7801
  659TMC3    C1 9749   1.640   0.455  15.207  0.6514  0.4203  0.4868
  659TMC3    C2 9750   1.671   0.467  15.342  0.8499  0.0440  1.5176
  659TMC3    C3 9751   1.575   0.518  15.431 -0.0807  0.7671 -0.0145
  659TMC3    C4 9752   1.522   0.502  15.154  0.1295 -0.8968 -0.1681
  659TMC3    C5 9753   1.438   0.564  15.242  0.5117  0.0242  0.0212
  659TMC3    C6 9754   1.455   0.572  15.380 -0.0613 -0.6764  0.1836
  659TMC3     C 9755   1.733   0.386  15.122  0.0619  0.2631  0.3366
  659TMC3     O 9756   1.736   0.408  14.999 -0.1874  0.4359 -0.0768
  659TMC3     H 9757   1.769   0.435  15.376  1.3578  0.6364  0.6078
  659TMC3    H1 9758   1.507   0.513  15.048  2.3065 -2.3997 -0.6327
  659TMC3    H2 9759   1.379   0.617  15.444  0.4204 -1.6480  1.4416
  659TMC3    C7 9760   1.305   0.606  15.197  0.4693  0.3888  0.2708
  659TMC3    C8 9761   1.602   0.536  15.577 -0.1133 -0.3102  0.5991
  659TMC3    O1 9762   1.247   0.683  15.271 -0.3306 -0.2746 -0.2760
  659TMC3    O2 9763   1.524   0.610  15.637  0.2460 -0.3028 -0.0938
  660MPD2     C 9764   0.683   3.711  12.948 -0.4573 -0.3778  0.0020
  660MPD2    C1 9765   0.557   3.761  12.916 -0.8087  0.2860  0.3576
  660MPD2    C2 9766   0.456   3.757  13.011 -0.7416  0.0382  0.0676
  660MPD2    C3 9767   0.477   3.717  13.140  0.7255  0.2370  0.1529
  660MPD2    C4 9768   0.605   3.671  13.175 -0.6471  0.5128  0.1692
  660MPD2    C5 9769   0.704   3.674  13.078  0.1939 -0.4007  0.1516
  660MPD2     H 9770   0.360   3.797  12.981 -1.0055  2.8037  4.5495
  660MPD2    H1 9771   0.638   3.629  13.270  0.0793  0.2099 -0.2147
  660MPD2    H2 9772   0.770   3.692  12.886 -0.7203  2.2233 -1.1529
  660MPD2    H3 9773   0.804   3.645  13.106  0.3137 -1.2289 -1.1248
  660MPD2     N 9774   0.375   3.718  13.242  0.3484 -0.8244  0.1607
  660MPD2    H5 9775   0.408   3.683  13.331 -0.8139 -2.2668  0.0214
  660MPD2    N1 9776   0.550   3.819  12.790 -0.1035 -0.1858 -0.5495
  660MPD2    H7 9777   0.637   3.830  12.739 -0.2466  0.8351 -0.5718
  661TMC3    C1 9778   0.462   3.933  12.609  0.3287  0.2456 -0.7623
  661TMC3    C2 9779   0.480   3.855  12.490 -0.2229  0.2524  0.5256
  661TMC3    C3 9780   0.470   3.929  12.371  0.5586  0.3817 -0.0631
  661TMC3    C4 9781   0.379   4.042  12.604  0.0736  0.3835  0.2618
  661TMC3    C5 9782   0.335   4.095  12.486 -0.4020  0.2229 -0.9117
  661TMC3    C6 9783   0.384   4.042  12.368 -0.0881  0.0229 -0.1315
  661TMC3     C 9784   0.438   3.857  12.728 -0.4291 -0.1833 -0.2471
  661TMC3     O 9785   0.323   3.852  12.770 -0.8374  0.4062  0.0264
  661TMC3     H 9786   0.531   3.760  12.502 -0.2665  0.4476  2.2426
  661TMC3    H1 9787   0.351   4.080  12.702 -1.4647 -0.2767  0.0741
  661TMC3    H2 9788   0.353   4.089  12.276  0.0633  1.2131  0.4320
  661TMC3    C7 9789   0.208   4.164  12.499  0.1263  0.1602  0.4931
  661TMC3    C8 9790   0.512   3.873  12.239 -0.5671 -0.3190  0.3380
  661TMC3    O1 9791   0.197   4.239  12.599  0.2854 -0.2599 -0.6461
  661TMC3    O2 9792   0.565   3.763  12.223  0.1690  0.0491 -0.1028
  662MPD2     C 9793   0.210   4.391  17.444 -0.1022  0.3133 -0.3859
  662MPD2    C1 9794   0.242   4.312  17.550 -0.6583  0.2419  0.2855
  662MPD2    C2 9795   0.237   4.371  17.672 -0.0040  0.4465  0.0012
  662MPD2    C3 9796   0.180   4.494  17.693 -0.2832  0.1887 -0.2618
  662MPD2    C4 9797   0.145   4.569  17.584  0.0593  0.2791 -0.3111
  662MPD2    C5 9798   0.168   4.519  17.461 -0.5514 -0.8372  0.1241
  662MPD2     H 9799   0.264   4.310   0.062  1.6091  1.2159  0.0506
  662MPD2    H1 9800   0.097   4.664  17.607  0.5432  0.5477 -0.4131
  662MPD2    H2 9801   0.215   4.365  17.339 -2.5601  3.7931 -1.3915
  662MPD2    H3 9802   0.134   4.577  17.377 -0.5075 -1.3372 -0.2397
  662MPD2     N 9803   0.135   4.541   0.130  0.5675  0.3784  0.6851
  662MPD2    H5 9804   0.087   4.631   0.131  0.4647  0.3376 -1.8364
  662MPD2    N1 9805   0.272   4.173  17.530  0.0319 -0.3658  0.0545
  662MPD2    H7 9806   0.285   4.122  17.617  0.4109  2.3789  1.6047
  663TMC3    C1 9807   0.272   3.971  17.440 -0.0436 -0.2315 -0.7276
  663TMC3    C2 9808   0.164   3.932  17.508 -0.0944  0.0569 -0.3499
  663TMC3    C3 9809   0.102   3.810  17.485  0.9868  1.3529 -0.0771
  663TMC3    C4 9810   0.333   3.882  17.355  0.2579  0.1522  0.1826
  663TMC3    C5 9811   0.287   3.752  17.353 -0.0552  0.3553  0.2114
  663TMC3    C6 9812   0.181   3.704  17.428 -0.1035  0.4877 -0.6742
  663TMC3     C 9813   0.269   4.111  17.410  0.3563 -0.2383 -0.4201
  663TMC3     O 9814   0.282   4.152  17.295 -0.3056  0.2037 -0.2900
  663TMC3     H 9815   0.089   4.000  17.545 -2.1356 -0.7077 -3.0485
  663TMC3    H1 9816   0.404   3.913  17.279  2.3634  0.1895  2.1462
  663TMC3    H2 9817   0.143   3.607  17.401 -0.2472  0.3055  0.1818
  663TMC3    C7 9818   0.382   3.650  17.307  0.8030  0.0795 -0.0025
  663TMC3    C8 9819   0.019   3.753  17.593 -0.3755  0.1150  0.7840
  663TMC3    O1 9820   0.495   3.695  17.296  0.0277 -0.0838  0.4322
  663TMC3    O2 9821   0.006   3.630  17.583 -0.1523  0.0422  0.3204
  664MPD2     C 9822   3.021   1.962  17.541  0.4145  0.6686  0.0996
  664MPD2    C1 9823   3.108   2.062  17.528 -0.1632  0.2758  0.2884
  664MPD2    C2 9824   3.180   2.101  17.642 -0.4370  0.6801 -0.5931
  664MPD2    C3 9825   3.166   2.042   0.070  0.0088  0.4435 -0.0314
  664MPD2    C4 9826   3.082   1.932   0.077  0.0294 -0.4519 -0.0242
  664MPD2    C5 9827   3.008   1.894  17.661 -0.3686  0.3796  0.2024
  664MPD2     H 9828   3.243   2.188  17.637  1.5712 -0.7527 -0.1114
  664MPD2    H1 9829   3.058   1.884   0.171 -0.8492 -2.5893 -1.3492
  664MPD2    H2 9830   2.972   1.920  17.454  2.5946 -1.6480 -0.0025
  664MPD2    H3 9831   2.945   1.807  17.673  0.3677 -0.0554  0.8854
  664MPD2     N 9832   3.237   2.101   0.177  0.0116  0.0351 -0.1219
  664MPD2    H5 9833   3.286   2.190   0.167  2.2655 -1.0616  1.1234
  664MPD2    N1 9834   3.129   2.124  17.401  0.3411 -0.2475 -1.1753
  664MPD2    H7 9835   3.185   2.209  17.400  1.7446 -1.1474  0.9177
  665TMC3    C1 9836   3.344   2.101   0.387 -1.1799 -0.1950 -0.5244
  665TMC3    C2 9837   3.426   2.025   0.467  0.8336 -0.6664  0.1579
  665TMC3    C3 9838   3.496   2.084   0.564  0.3711 -0.1741 -0.2804
  665TMC3    C4 9839   3.314   2.233   0.418  0.8519 -0.4385  0.5005
  665TMC3    C5 9840   3.370   2.281   0.533  0.2149 -0.5769 -0.2079
  665TMC3    C6 9841   3.470   2.216   0.598  0.0015  0.4237  0.6971
  665TMC3     C 9842   3.273   2.027   0.288  0.1888 -0.2167 -0.9012
  665TMC3     O 9843   3.265   1.906   0.298 -0.7346 -0.4811  0.2578
  665TMC3     H 9844   3.439   1.921   0.440  0.6965 -0.2160 -1.6520
  665TMC3    H1 9845   3.234   2.287   0.368 -1.0196 -2.3195  1.4020
  665TMC3    H2 9846   3.524   2.253   0.684  0.5010  0.5491  0.3290
  665TMC3    C7 9847   3.318   2.405   0.584 -0.3308 -0.1003  0.5844
  665TMC3    C8 9848   3.538   2.004   0.675 -0.0065 -0.3759  0.1571
  665TMC3    O1 9849   3.240   2.470   0.517 -0.1899 -0.2594 -0.1909
  665TMC3    O2 9850   3.638   2.045   0.735  0.5632 -0.6830  0.0444
  666TMC3    C1 9851   2.949   1.555   9.775 -0.7870 -0.3063  0.6924
  666TMC3    C2 9852   3.033   1.586   9.876 -0.0593  0.5168 -0.2065
  666TMC3    C3 9853   3.049   1.715   9.920  0.1356 -0.3377  0.6738
  666TMC3    C4 9854   2.858   1.649   9.735 -0.4291 -0.9879 -0.4174
  666TMC3    C5 9855   2.878   1.775   9.786 -0.4230 -0.1121 -0.4533
  666TMC3    C6 9856   2.969   1.820   9.878  0.0129  0.2954 -0.3709
  666TMC3     C 9857   3.005   1.454   9.688  0.3667 -0.0703  0.1757
  666TMC3     O 9858   3.118   1.424   9.701  0.7854 -0.0527  0.0397
  666TMC3     H 9859   3.089   1.506   9.923 -0.3527 -0.3248 -1.2740
  666TMC3    H1 9860   2.778   1.634   9.663 -1.6873  0.4498  0.6814
  666TMC3    H2 9861   2.967   1.917   9.926 -0.0137  0.5134 -0.8103
  666TMC3    C7 9862   2.789   1.880   9.737  0.3787  0.3438  0.2922
  666TMC3    C8 9863   3.152   1.727  10.021 -0.2445 -0.8871  0.7204
  666TMC3    O1 9864   2.673   1.848   9.703 -0.6387 -0.4188 -0.1551
  666TMC3    O2 9865   3.199   1.626  10.069 -0.3776  0.5191  0.0208
  667MPD2     C 9866   3.970   1.979  15.009 -0.3612  0.1517 -0.2274
  667MPD2    C1 9867   3.869   2.064  14.980 -0.2163 -0.0477 -0.2206
  667MPD2    C2 9868   3.756   2.006  14.923  1.0936  0.4178  0.2997
  667MPD2    C3 9869   3.754   1.872  14.879 -0.4045 -0.3665  0.5508
  667MPD2    C4 9870   3.860   1.790  14.902 -0.6957 -0.7014  0.3981
  667MPD2    C5 9871   3.969   1.846  14.967 -0.5791 -0.3016 -0.0593
  667MPD2     H 9872   3.665   2.064  14.917  0.9313  0.3318  2.1272
  667MPD2    H1 9873   3.864   1.684  14.882  4.5957  0.0104 -2.2218
  667MPD2    H2 9874   4.046   2.008  15.081  0.5110  1.4303 -1.6736
  667MPD2    H3 9875   4.048   1.778  14.993 -1.8264 -0.9642  2.0240
  667MPD2     N 9876   3.634   1.815  14.831  0.1035 -0.3554 -0.1353
  667MPD2    H5 9877   3.617   1.715  14.845  0.8892 -0.3041  1.2093
  667MPD2    N1 9878   3.853   2.194  15.032  0.1613  0.1426 -0.6505
  667MPD2    H7 9879   3.761   2.237  15.028  0.2766  0.6304  2.1208
  668TMC3    C1 9880   3.939   2.372  15.177  0.6877 -0.4826  0.2739
  668TMC3    C2 9881   4.049   2.445  15.196 -0.2708  0.1645 -0.0883
  668TMC3    C3 9882   4.073   2.486  15.326  0.4228 -0.4219  0.3228
  668TMC3    C4 9883   3.857   2.331  15.281 -0.0642  1.1088  0.0629
  668TMC3    C5 9884   3.892   2.369  15.404  0.3920 -0.6315 -0.4377
  668TMC3    C6 9885   3.996   2.446  15.433 -0.0749 -0.1247  0.9275
  668TMC3     C 9886   3.967   2.259  15.085  0.2980  0.4245  0.0492
  668TMC3     O 9887   4.088   2.222  15.091  0.2425 -0.3129  0.3404
  668TMC3     H 9888   4.122   2.460  15.117  1.3309 -0.6342  1.2410
  668TMC3    H1 9889   3.769   2.274  15.254 -0.1136  1.4024 -0.4008
  668TMC3    H2 9890   4.016   2.481  15.533  0.9173  0.4268  0.5431
  668TMC3    C7 9891   3.811   2.333  15.514 -0.3304 -0.4672  0.3032
  668TMC3    C8 9892   4.153   2.601  15.352  0.3132  0.2458  0.5550
  668TMC3    O1 9893   3.824   2.402  15.618  0.0093 -0.4985  0.6004
  668TMC3    O2 9894   4.140   2.653  15.463 -0.0506  0.8822 -0.0512
  669TMC3    C1 9895   1.982   2.111  14.687 -0.4848 -0.0024  0.0061
  669TMC3    C2 9896   1.868   2.114  14.621 -0.0229 -0.2089 -0.0047
  669TMC3    C3 9897   1.855   2.218  14.526  0.0190  0.0526 -0.6763
  669TMC3    C4 9898   2.091   2.199  14.654 -1.0061 -0.0232  0.1366
  669TMC3    C5 9899   2.065   2.305  14.575  0.4737  0.2843 -0.7633
  669TMC3    C6 9900   1.943   2.317  14.511  0.6706  0.0137 -0.3797
  669TMC3     C 9901   1.988   2.020  14.803 -0.7187  0.3760 -0.4824
  669TMC3     O 9902   1.882   1.986  14.847 -0.4568  0.2370  0.0293
  669TMC3     H 9903   1.785   2.052  14.652  0.9476 -1.1391  0.7282
  669TMC3    H1 9904   2.193   2.188  14.691 -1.3475  1.6015  1.5523
  669TMC3    H2 9905   1.937   2.389  14.431  1.7155 -0.6723 -1.0593
  669TMC3    C7 9906   2.178   2.380  14.524 -0.4272  0.0189  0.7403
  669TMC3    C8 9907   1.728   2.231  14.448  0.4642 -0.2797 -0.4143
  669TMC3    O1 9908   2.262   2.424  14.602 -0.2593  0.6043  0.1632
  669TMC3    O2 9909   1.657   2.135  14.416  0.1408 -0.2561  0.3487
  670MPD2     C 9910   4.451   0.394  13.679  0.0796 -0.2474 -0.1658
  670MPD2    C1 9911   4.579   0.430  13.708  0.1601 -0.1593  0.6297
  670MPD2    C2 9912   4.654   0.368  13.807 -0.2555 -0.7270 -0.7013
  670MPD2    C3 9913   4.582   0.281  13.893  0.0061 -0.3815 -0.0179
  670MPD2    C4 9914   4.447   0.249  13.870 -0.2641 -0.4572 -0.9530
  670MPD2    C5 9915   4.382   0.310  13.767  0.3629 -0.0561  0.5000
  670MPD2     H 9916   0.036   0.391  13.821 -0.6166 -0.3940  1.4666
  670MPD2    H1 9917   4.376   0.197  13.934 -0.0881  1.4901  0.8531
  670MPD2    H2 9918   4.392   0.450  13.608  0.0187 -0.1325 -0.0224
  670MPD2    H3 9919   4.277   0.291  13.748  0.4289 -0.9036  0.9596
  670MPD2     N 9920   4.649   0.213  13.992 -0.0276 -0.5192  0.5419
  670MPD2    H5 9921   0.009   0.253  14.034 -1.3335  0.2609  2.4058
  670MPD2    N1 9922   4.646   0.524  13.624 -0.5052  0.4056 -0.4766
  670MPD2    H7 9923   0.019   0.545  13.649 -0.5944  1.5176 -1.0718
  671TMC3    C1 9924   4.682   0.068  14.156  0.6507 -0.1217  0.0462
  671TMC3    C2 9925   0.098   0.088  14.160  0.2031  0.1434 -1.0514
  671TMC3    C3 9926   0.169   0.013  14.248 -1.4002 -0.0098  0.3437
  671TMC3    C4 9927   4.620   4.721  14.257 -0.3837 -0.0332  0.4789
  671TMC3    C5 9928   4.697   4.662  14.354 -0.2904 -1.0373  0.2755
  671TMC3    C6 9929   0.110   4.672  14.360  0.7225 -0.1153  0.4108
  671TMC3     C 9930   4.600   0.103  14.051 -0.4290 -0.0740  1.2315
  671TMC3     O 9931   4.505   0.030  14.033  0.1279 -0.3235 -0.6468
  671TMC3     H 9932   0.146   0.108  14.065 -1.4995  0.2843 -1.8922
  671TMC3    H1 9933   4.512   4.713  14.261 -0.2549 -2.3017 -0.7005
  671TMC3    H2 9934   0.158   4.613  14.437  0.4374 -1.5505 -0.5229
  671TMC3    C7 9935   4.653   4.533  14.401 -0.6101 -0.6069  0.4814
  671TMC3    C8 9936   0.291   4.680  14.206 -0.5405  0.6977 -0.3045
  671TMC3    O1 9937   4.692   4.478  14.501 -0.4899 -0.6389 -0.8338
  671TMC3    O2 9938   0.304   4.672  14.087 -0.2844  0.8819  0.4645
  672MPD2     C 9939   1.022   0.008   1.454  0.0918  0.5131  0.4454
  672MPD2    C1 9940   1.045   0.073   1.333  0.4044  0.2304 -0.3892
  672MPD2    C2 9941   1.141   0.168   1.313 -0.4623 -0.1267  0.1392
  672MPD2    C3 9942   1.209   0.212   1.431  0.1584 -0.0454  0.3590
  672MPD2    C4 9943   1.178   0.151   1.555  0.9209 -0.2373  0.0748
  672MPD2    C5 9944   1.087   0.051   1.565 -0.0541 -0.6307  0.8633
  672MPD2     H 9945   1.155   0.219   1.219 -1.6980  1.3452  0.7621
  672MPD2    H1 9946   1.215   0.192   1.648  0.6712  2.5902 -1.0863
  672MPD2    H2 9947   0.952   4.648   1.464  1.6956 -0.9134 -0.1533
  672MPD2    H3 9948   1.068   0.007   1.663 -2.4745  0.3194  0.8225
  672MPD2     N 9949   1.306   0.315   1.426 -0.2841  0.2357  0.3592
  672MPD2    H5 9950   1.351   0.335   1.515 -0.1433  0.4054  0.2505
  672MPD2    N1 9951   0.964   0.045   1.221 -0.6093 -0.5233  0.3596
  672MPD2    H7 9952   1.004   0.070   1.131  1.7822 -1.0204  1.2807
  673TMC3    C1 9953   0.765   4.682   1.121 -0.8719  0.2016 -0.9949
  673TMC3    C2 9954   0.853   4.665   1.015  0.1451  0.9565  0.5553
  673TMC3    C3 9955   0.794   4.676   0.893  0.1077 -0.0275 -0.0890
  673TMC3    C4 9956   0.636   0.006   1.112 -0.2325  0.2620 -0.5491
  673TMC3    C5 9957   0.588   0.010   0.984  0.3265  0.5025 -0.2576
  673TMC3    C6 9958   0.657   4.707   0.879 -0.2851  0.6486 -0.4137
  673TMC3     C 9959   0.839   4.706   1.239  0.5173  0.3484  0.5168
  673TMC3     O 9960   0.772   4.680   1.343 -0.5717  0.2834 -0.0082
  673TMC3     H 9961   0.951   4.618   1.019  0.1592  1.0275  1.1643
  673TMC3    H1 9962   0.573   0.026   1.199 -0.0343  0.4785 -0.4541
  673TMC3    H2 9963   0.609   4.722   0.783 -0.7867  0.5528 -0.1836
  673TMC3    C7 9964   0.470   0.087   0.950  0.2028 -0.2264 -0.2987
  673TMC3    C8 9965   0.860   4.635   0.772 -0.3366  0.3214 -0.0963
  673TMC3    O1 9966   0.400   0.038   0.866  0.4673  0.1530  0.7583
  673TMC3    O2 9967   0.786   4.611   0.674 -0.3433  0.3121 -0.2872
  674MPD2     C 9968   0.129   0.783   0.313  0.7288 -0.6100 -0.3762
  674MPD2    C1 9969   0.080   0.658   0.291  0.8336  0.2770 -0.1652
  674MPD2    C2 9970   4.681   0.642   0.234 -0.2755  0.6607  0.0471
  674MPD2    C3 9971   4.597   0.756   0.214  0.0553 -0.4163  0.2814
  674MPD2    C4 9972   4.649   0.883   0.242  0.1360  0.3568  0.4919
  674MPD2    C5 9973   0.054   0.894   0.291  0.6190 -0.7943  0.7118
  674MPD2     H 9974   4.646   0.542   0.211 -2.0009  1.3851 -0.4256
  674MPD2    H1 9975   4.591   0.973   0.224 -0.4147 -0.1476 -0.2442
  674MPD2    H2 9976   0.218   0.792   0.375  0.8976  0.3770 -0.7642
  674MPD2    H3 9977   0.091   0.994   0.308 -0.0521 -0.7432  1.8567
  674MPD2     N 9978   4.459   0.731   0.182  0.1752 -0.4268  0.5272
  674MPD2    H5 9979   4.421   0.637   0.178 -1.9134  0.4812 -1.2534
  674MPD2    N1 9980   0.147   0.550   0.354  0.3253 -0.0238 -0.0138
  674MPD2    H7 9981   0.224   0.580   0.413 -0.8341  1.0370  0.9667
  675TMC3    C1 9982   0.188   0.329   0.424 -0.7575 -0.6166 -0.2664
  675TMC3    C2 9983   0.116   0.223   0.474  0.6787 -0.3239  0.0851
  675TMC3    C3 9984   0.177   0.129   0.551 -0.5307 -0.0014  0.6203
  675TMC3    C4 9985   0.317   0.351   0.449 -0.2143 -0.6932  0.3690
  675TMC3    C5 9986   0.377   0.254   0.521  0.3816  0.1273 -0.1219
  675TMC3    C6 9987   0.313   0.143   0.562  0.3232  0.1390  0.3819
  675TMC3     C 9988   0.104   0.424   0.355  0.0397 -0.0125  0.4416
  675TMC3     O 9989   0.017   0.368   0.288  0.3652  0.8334  0.8472
  675TMC3     H 9990   0.012   0.212   0.446  1.0631 -1.6263 -0.7911
  675TMC3    H1 9991   0.364   0.442   0.413  0.6384 -0.7377  1.3855
  675TMC3    H2 9992   0.366   0.078   0.631  3.7872  0.3570 -2.1032
  675TMC3    C7 9993   0.514   0.248   0.547  0.2524  0.7225 -0.2742
  675TMC3    C8 9994   0.092   0.035   0.626 -0.0436 -0.1437 -0.2463
  675TMC3    O1 9995   0.564   0.141   0.576 -0.2473  0.1661  0.7593
  675TMC3    O2 9996   4.694   0.042   0.617  0.1850  0.2004  0.1783
  676MPD2     C 9997   3.356   3.240  11.371 -0.4861 -0.3335  0.1977
  676MPD2    C1 9998   3.236   3.161  11.388 -0.2801 -0.1510 -0.2471
  676MPD2    C2 9999   3.251   3.022  11.363 -0.3181  1.0315  0.4141
  676MPD2    C310000   3.373   2.964  11.331 -0.4972 -0.0314  0.2488
  676MPD2    C410001   3.481   3.047  11.328  0.5810 -0.0401 -0.2795
  676MPD2    C510002   3.477   3.181  11.352  0.4517  0.7049  0.4079
  676MPD2     H10003   3.164   2.958  11.375  0.4044  0.1752  1.0338
  676MPD2    H110004   3.578   3.004  11.307  1.0178 -1.1488  3.8871
  676MPD2    H210005   3.349   3.348  11.385 -0.8487 -0.3271 -0.0300
  676MPD2    H310006   3.563   3.242  11.327  2.2119 -0.2897  4.0190
  676MPD2     N10007   3.385   2.831  11.287  0.6258  0.1717  0.6233
  676MPD2    H510008   3.476   2.800  11.255 -0.4435 -1.0271 -1.2486
  676MPD2    N110009   3.115   3.222  11.424 -0.4107 -0.0142  0.6788
  676MPD2    H710010   3.038   3.156  11.425 -0.5319  0.0893 -1.7357
  677TMC3    C110011   2.960   3.384  11.494  0.6249  0.0121 -0.3936
  677TMC3    C210012   2.859   3.295  11.462 -0.7106  0.1145  0.1843
  677TMC3    C310013   2.767   3.270  11.563  0.0074 -0.6085 -0.6270
  677TMC3    C410014   2.964   3.461  11.614 -0.3052 -0.1462  0.2548
  677TMC3    C510015   2.864   3.444  11.702 -0.0838 -0.0716 -0.4468
  677TMC3    C610016   2.773   3.344  11.676  0.2144 -0.5781 -0.2876
  677TMC3     C10017   3.091   3.356  11.443 -0.2403  0.1611 -0.1782
  677TMC3     O10018   3.162   3.459  11.438  0.1812 -0.1981  0.2812
  677TMC3     H10019   2.860   3.228  11.378 -0.7267 -1.3709  1.3748
  677TMC3    H110020   3.050   3.527  11.626 -0.4527  0.3537 -1.4470
  677TMC3    H210021   2.692   3.309  11.738  0.5869 -2.2358 -0.7436
  677TMC3    C710022   2.883   3.466  11.845  0.3554  0.7084  1.2677
  677TMC3    C810023   2.697   3.142  11.562  0.4763 -0.3202 -0.3749
  677TMC3    O110024   2.789   3.434  11.918 -0.4371  0.5647  0.0815
  677TMC3    O210025   2.628   3.129  11.465 -0.1098 -0.3834  0.0136
  678MPD2     C10026   0.028   3.217   1.773  0.4127  0.0066 -0.3272
  678MPD2    C110027   0.046   3.213   1.635 -0.0619  0.2832  0.2765
  678MPD2    C210028   4.687   3.125   1.567 -0.3251  0.4822  0.4304
  678MPD2    C310029   4.581   3.062   1.627  0.5062 -0.6372  0.3874
  678MPD2    C410030   4.560   3.062   1.761  0.1852 -0.8677 -0.3650
  678MPD2    C510031   4.650   3.138   1.831  0.0453 -0.3405 -0.0993
  678MPD2     H10032   4.711   3.098   1.464  0.6752 -0.6144  0.9452
  678MPD2    H110033   4.476   3.023   1.817 -0.3996 -0.4183 -0.9255
  678MPD2    H210034   0.084   3.278   1.843  0.2268  0.8169 -0.8851
  678MPD2    H310035   4.650   3.144   1.940  3.2044 -0.9920 -0.0562
  678MPD2     N10036   4.503   2.989   1.538  0.1243  0.3004  0.0767
  678MPD2    H510037   4.528   2.996   1.439 -0.9630 -0.3766 -0.2414
  678MPD2    N110038   0.146   3.285   1.566  0.7527 -0.4402 -0.1057
  678MPD2    H710039   0.171   3.262   1.470 -1.0403  0.1896 -0.7396
  679TMC3    C110040   0.515   3.448   1.442  0.5350  0.2253 -0.3397
  679TMC3    C210041   0.404   3.385   1.500  0.0230  0.0202 -0.7483
  679TMC3    C310042   0.294   3.457   1.532 -0.1731  0.6593  0.3007
  679TMC3    C410043   0.513   3.582   1.413 -0.0123 -0.2012 -0.8509
  679TMC3    C510044   0.401   3.655   1.453  0.4923 -1.1956 -0.8122
  679TMC3    C610045   0.295   3.596   1.519 -0.5099 -0.7800  0.7245
  679TMC3     C10046   0.625   3.360   1.399  0.2477  0.0663 -0.1991
  679TMC3     O10047   0.604   3.242   1.410  0.4173  0.2801 -0.0882
  679TMC3     H10048   0.399   3.277   1.512 -0.8984 -0.2222 -3.2292
  679TMC3    H110049   0.593   3.626   1.355  0.4394 -0.8642 -0.7276
  679TMC3    H210050   0.210   3.658   1.546 -1.1681 -1.5882  0.5408
  679TMC3    C710051   0.371   3.779   1.382 -0.3831 -0.0450  0.1400
  679TMC3    C810052   0.204   3.395   1.621 -0.3298 -0.6780 -0.4303
  679TMC3    O110053   0.254   3.803   1.370  0.2376 -0.2605 -0.0679
  679TMC3    O210054   0.170   3.467   1.714  0.4842  0.4767 -0.0459
  680MPD2     C10055   4.648   2.125  13.942 -0.3713 -0.0043 -0.8305
  680MPD2    C110056   4.683   2.041  14.041  0.7975  0.2411  0.0545
  680MPD2    C210057   4.708   2.090  14.166 -0.0508  0.0648  0.1819
  680MPD2    C310058   4.712   2.231  14.190 -0.3598 -0.2459  0.4380
  680MPD2    C410059   4.663   2.315  14.091 -0.6048 -0.1080  0.0547
  680MPD2    C510060   4.626   2.256  13.972  0.4380 -0.3753 -0.2650
  680MPD2     H10061   0.020   2.026  14.247  1.2250 -0.7148 -0.9798
  680MPD2    H110062   4.645   2.422  14.098  2.6037  0.2359  2.8367
  680MPD2    H210063   4.601   2.090  13.851  1.6779 -1.5234 -1.3231
  680MPD2    H310064   4.586   2.323  13.897  0.5050  0.1925  0.2030
  680MPD2     N10065   0.035   2.286  14.315  0.3754  0.7914 -0.3064
  680MPD2    H510066   0.031   2.387  14.320 -0.0574  0.9664 -3.8432
  680MPD2    N110067   4.696   1.896  14.022 -0.0221  0.4842  0.2121
  680MPD2    H710068   0.006   1.837  14.098 -0.2155  1.9523  1.4240
  681TMC3    C110069   4.674   1.688  13.914  0.2377 -0.2303  0.5388
  681TMC3    C210070   4.674   1.620  14.037  0.1711 -0.2058  0.0951
  681TMC3    C310071   4.721   1.491  14.040  0.1884  0.0735  0.4559
  681TMC3    C410072   0.014   1.638  13.806 -0.1605  0.1459  0.2976
  681TMC3    C510073   0.062   1.506  13.819  0.0165 -0.5379 -0.0409
  681TMC3    C610074   0.047   1.428  13.932 -0.0159  0.0483 -0.1071
  681TMC3     C10075   4.653   1.829  13.910  0.4570  0.1482 -0.3245
  681TMC3     O10076   4.631   1.877  13.799 -0.3402  0.0185  0.4998
  681TMC3     H10077   4.629   1.665  14.124  1.2104  2.4473 -0.7592
  681TMC3    H110078   0.020   1.693  13.713  2.1255 -2.5554 -1.1618
  681TMC3    H210079   0.103   1.335  13.941 -3.2302 -1.9509 -0.8569
  681TMC3    C710080   0.166   1.465  13.726  0.0874 -0.3189  0.3975
  681TMC3    C810081   4.712   1.418  14.168 -0.0711 -0.8636  0.6953
  681TMC3    O110082   0.256   1.398  13.773 -0.2388  0.1967 -0.0560
  681TMC3    O210083   0.032   1.305  14.172 -0.2989  0.2604 -0.4111
  682MPD2     C10084   2.149   2.964  10.264 -0.6142 -0.6456  0.1937
  682MPD2    C110085   2.109   2.837  10.296  0.0139 -0.1913 -0.6868
  682MPD2    C210086   2.040   2.820  10.415  0.0487 -0.2630 -0.3891
  682MPD2    C310087   2.011   2.930  10.497 -0.6369 -0.3847  0.1562
  682MPD2    C410088   2.054   3.057  10.459  0.1956 -0.3108 -0.2131
  682MPD2    C510089   2.109   3.074  10.334 -0.2339  0.0983  0.4807
  682MPD2     H10090   2.000   2.722  10.437 -0.2122  0.4536  2.3922
  682MPD2    H110091   2.036   3.139  10.527 -0.0753 -1.1983  0.7794
  682MPD2    H210092   2.214   2.976  10.178 -1.3449  2.0850  0.0252
  682MPD2    H310093   2.144   3.170  10.298 -1.5294 -1.0157 -3.7563
  682MPD2     N10094   1.939   2.909  10.619  0.0743  0.1745  0.3473
  682MPD2    H510095   1.923   2.986  10.682  0.3942  1.9609 -1.7398
  682MPD2    N110096   2.147   2.723  10.223  0.4793  0.0116  1.0870
  682MPD2    H710097   2.110   2.637  10.262 -0.7987 -0.9863 -2.3264
  683TMC3    C110098   1.791   2.857  10.991 -0.5824  0.4169  0.0222
  683TMC3    C210099   1.686   2.772  11.009 -0.5370 -0.4502 -0.0596
  683TMC3    C310100   1.635   2.704  10.900 -0.4714  0.1399 -0.0573
  683TMC3    C410101   1.846   2.881  10.868  0.2904 -0.5167  0.1518
  683TMC3    C510102   1.790   2.808  10.766  0.3090  0.1366 -1.0247
  683TMC3    C610103   1.688   2.723  10.780  0.3193 -0.3921 -0.7852
  683TMC3     C10104   1.855   2.925  11.110 -0.6531  0.5746 -0.4031
  683TMC3     O10105   1.968   2.973  11.096 -0.2908  0.2368  0.0505
  683TMC3     H10106   1.661   2.728  11.105  0.8299 -0.3544  0.3448
  683TMC3    H110107   1.938   2.939  10.861 -0.1668 -0.2626 -3.4152
  683TMC3    H210108   1.660   2.665  10.692  0.9693  0.9447 -1.8745
  683TMC3    C710109   1.856   2.804  10.638 -0.0411 -0.2564  0.4420
  683TMC3    C810110   1.587   2.571  10.927  1.7271 -0.2574  0.2650
  683TMC3    O110111   1.819   2.718  10.557 -0.0627 -0.8541  0.1499
  683TMC3    O210112   1.528   2.551  11.029  0.3398  0.1313 -0.2124
  684MPD2     C10113   0.265   2.747  16.345  1.0467 -0.5597 -0.5034
  684MPD2    C110114   0.211   2.713  16.225  0.0748  0.1591 -0.0320
  684MPD2    C210115   0.185   2.821  16.137 -0.7310  0.7666 -0.1720
  684MPD2    C310116   0.221   2.953  16.167  0.1168 -0.0529 -0.1042
  684MPD2    C410117   0.288   2.978  16.281  0.5404  0.2669 -0.3674
  684MPD2    C510118   0.318   2.872  16.368 -0.2159 -0.0055  0.3507
  684MPD2     H10119   0.149   2.799  16.037 -0.0290 -0.6472 -0.1209
  684MPD2    H110120   0.311   3.079  16.313  0.1215  1.6147 -4.4080
  684MPD2    H210121   0.293   2.669  16.414 -0.5615  0.4730  1.3179
  684MPD2    H310122   0.372   2.897  16.459  1.0851 -1.5436 -0.0079
  684MPD2     N10123   0.190   3.059  16.079 -0.2154  0.5374  0.0070
  684MPD2    H510124   0.228   3.149  16.107 -0.1743  1.0296 -1.6560
  684MPD2    N110125   0.177   2.583  16.185 -0.3222  0.4955 -0.0404
  684MPD2    H710126   0.151   2.570  16.087  1.6203  0.2515 -0.5164
  685TMC3    C110127   0.168   2.353  16.173 -0.4193  0.6087  0.0760
  685TMC3    C210128   0.055   2.356  16.100 -0.4744  0.0831  0.1823
  685TMC3    C310129   0.030   2.240  16.023  0.2883  1.2565 -0.2554
  685TMC3    C410130   0.252   2.248  16.182 -0.0081  0.7694 -0.1714
  685TMC3    C510131   0.229   2.140  16.106 -0.2461  0.3709  0.1827
  685TMC3    C610132   0.118   2.139  16.018 -0.0438 -0.4703 -0.5255
  685TMC3     C10133   0.200   2.472  16.257  0.4010 -0.1521 -1.1062
  685TMC3     O10134   0.258   2.445  16.359  0.3129  0.7049  0.3954
  685TMC3     H10135   4.719   2.446  16.101 -1.0670 -0.3146  0.8015
  685TMC3    H110136   0.338   2.265  16.246  1.0839  1.5485 -1.8448
  685TMC3    H210137   0.096   2.048  15.963 -2.7699 -0.7324  0.9972
  685TMC3    C710138   0.322   2.032  16.107 -0.5230 -0.1910  0.3021
  685TMC3    C810139   4.631   2.225  15.949  0.4903  0.3214 -0.0641
  685TMC3    O110140   0.291   1.944  16.034  0.1792  0.3843 -0.2883
  685TMC3    O210141   4.603   2.111  15.911  0.3230 -0.0920  0.4954
  686MPD2     C10142   1.420   2.073  15.278 -0.1057 -1.2448  0.0833
  686MPD2    C110143   1.422   2.004  15.396  1.0039 -0.3034 -0.5019
  686MPD2    C210144   1.440   1.866  15.392 -0.1640 -0.0077 -0.3542
  686MPD2    C310145   1.448   1.793  15.279 -0.2333  0.2269  0.1014
  686MPD2    C410146   1.442   1.861  15.162  0.2801 -0.1009  0.6587
  686MPD2    C510147   1.431   1.998  15.164  0.4535  0.1209  0.0156
  686MPD2     H10148   1.430   1.816  15.488 -1.0915 -1.0648 -1.0080
  686MPD2    H110149   1.451   1.819  15.063  0.9581  0.8943  0.2985
  686MPD2    H210150   1.414   2.181  15.276 -0.3562 -1.2532  0.3551
  686MPD2    H310151   1.436   2.061  15.076  1.7987 -0.8242 -0.5766
  686MPD2     N10152   1.463   1.659  15.260  0.3525  0.1450  0.2174
  686MPD2    H510153   1.455   1.631  15.163 -0.4494 -0.1858  0.3715
  686MPD2    N110154   1.394   2.079  15.512 -0.0517 -0.2165  0.2227
  686MPD2    H710155   1.374   2.179  15.513 -1.6129 -0.5445  1.2900
  687TMC3    C110156   1.493   1.584  15.492  0.6901  0.5224 -0.3263
  687TMC3    C210157   1.398   1.544  15.582 -0.0266 -0.6294 -0.4614
  687TMC3    C310158   1.423   1.563  15.712  0.0747 -0.2413  0.8042
  687TMC3    C410159   1.609   1.645  15.528 -0.3433 -0.3516 -0.4236
  687TMC3    C510160   1.625   1.675  15.659 -0.3848  0.3838  0.3900
  687TMC3    C610161   1.537   1.632  15.755  0.4423 -0.8217  0.1537
  687TMC3     C10162   1.469   1.554  15.353 -0.1471 -0.0901  0.2632
  687TMC3     O10163   1.440   1.439  15.330  0.6471 -0.1326  0.4629
  687TMC3     H10164   1.311   1.486  15.555 -0.0932 -1.7001  2.0369
  687TMC3    H110165   1.671   1.680  15.446 -0.4270  3.1870  1.0301
  687TMC3    H210166   1.544   1.658  15.860  2.8692 -1.3311  0.1241
  687TMC3    C710167   1.714   1.786  15.700 -0.1595 -0.0858 -0.3861
  687TMC3    C810168   1.305   1.570  15.798  0.5080  0.5173 -0.3866
  687TMC3    O110169   1.745   1.794  15.818  0.1999 -0.3225 -0.4245
  687TMC3    O210170   1.287   1.478  15.877 -0.6281 -0.4763  0.6002
  688MPD2     C10171   1.092   1.241  17.465 -1.0683  0.2311 -0.2011
  688MPD2    C110172   1.090   1.127  17.543  0.3181 -0.1646 -0.6731
  688MPD2    C210173   1.192   1.033  17.513  0.1714  0.2895  0.4692
  688MPD2    C310174   1.276   1.046  17.405  0.1869 -0.2058 -0.0852
  688MPD2    C410175   1.275   1.173  17.338 -0.3399  0.0129 -0.9217
  688MPD2    C510176   1.180   1.268  17.369 -0.0424 -0.1271  0.6340
  688MPD2     H10177   1.213   0.959  17.590 -1.0263 -0.7165 -0.1928
  688MPD2    H110178   1.347   1.200  17.261 -1.3907  0.8319 -1.6210
  688MPD2    H210179   1.031   1.328  17.485 -1.8451 -0.6847  1.3982
  688MPD2    H310180   1.171   1.361  17.313  0.2262  0.1639  1.0665
  688MPD2     N10181   1.379   0.959  17.369  0.4330 -0.0510  0.3604
  688MPD2    H510182   1.426   0.979  17.281  1.5307  0.9421  1.1770
  688MPD2    N110183   1.017   1.108  17.663  0.3497  0.2600  0.4824
  688MPD2    H710184   1.035   1.014   0.004  0.9227 -0.0350 -0.5939
  689TMC3    C110185   0.874   1.167   0.146 -0.5002  0.2312  0.0233
  689TMC3    C210186   0.862   1.249   0.246 -0.3470 -0.4440 -1.2061
  689TMC3    C310187   0.831   1.201   0.371 -0.6632 -0.2574  0.1087
  689TMC3    C410188   0.839   1.038   0.154 -0.5252  0.2215  0.1337
  689TMC3    C510189   0.805   0.993   0.279 -0.1063  0.0761 -1.0909
  689TMC3    C610190   0.802   1.070   0.391 -0.5903 -0.6868 -0.7202
  689TMC3     C10191   0.951   1.208   0.032  0.0749  0.7328  0.0762
  689TMC3     O10192   0.940   1.326  17.692  0.5062  0.2893 -0.7434
  689TMC3     H10193   0.874   1.354   0.223  0.4426 -0.2817 -0.0624
  689TMC3    H110194   0.820   0.978   0.066 -0.7323  1.9961 -1.0403
  689TMC3    H210195   0.755   1.040   0.484 -1.3716 -1.9750 -1.5163
  689TMC3    C710196   0.784   0.843   0.291 -0.0525  0.0411 -0.0966
  689TMC3    C810197   0.837   1.298   0.482 -0.4342 -0.3467 -0.1937
  689TMC3    O110198   0.849   0.785   0.374  0.3816 -0.5112  0.0786
  689TMC3    O210199   0.758   1.269   0.571  0.3990 -0.5743  0.4543
  690MPD2     C10200   2.899   3.203  15.701  0.1837 -0.2219 -0.1381
  690MPD2    C110201   2.850   3.188  15.569 -0.3263 -0.8993 -0.1064
  690MPD2    C210202   2.940   3.222  15.470 -0.1361  0.6845  0.4953
  690MPD2    C310203   3.064   3.274  15.492 -0.4069  0.1212  0.1187
  690MPD2    C410204   3.109   3.283  15.624 -0.5101 -0.8558 -0.2233
  690MPD2    C510205   3.027   3.244  15.725 -0.0117  0.1159 -0.3095
  690MPD2     H10206   2.906   3.227  15.367 -0.3898  0.4313  0.5657
  690MPD2    H110207   3.202   3.331  15.653 -0.1664 -0.4676 -1.9477
  690MPD2    H210208   2.839   3.179  15.789  1.0975  0.2715  0.6164
  690MPD2    H310209   3.057   3.255  15.828 -1.1322  1.4516 -0.1183
  690MPD2     N10210   3.149   3.311  15.382  0.0380 -0.4044  0.0160
  690MPD2    H510211   3.120   3.299  15.286 -2.2262 -1.1974  0.7897
  690MPD2    N110212   2.718   3.146  15.542  0.3964 -0.1810 -0.6206
  690MPD2    H710213   2.687   3.131  15.446  1.1260 -1.2490 -0.6900
  691TMC3    C110214   2.509   3.042  15.577 -0.2683 -0.4565 -0.6545
  691TMC3    C210215   2.404   3.017  15.655  0.4725  0.2697  0.0189
  691TMC3    C310216   2.335   2.904  15.627  0.5368 -0.5865  0.8391
  691TMC3    C410217   2.547   2.955  15.481 -0.3457  0.3279 -0.6347
  691TMC3    C510218   2.479   2.840  15.466  0.2053  0.5908  0.0342
  691TMC3    C610219   2.372   2.811  15.536  0.7696 -0.2301  0.1540
  691TMC3     C10220   2.614   3.120  15.635  0.0775 -0.0030  0.0150
  691TMC3     O10221   2.620   3.134  15.756  0.2845 -0.1687 -0.0707
  691TMC3     H10222   2.377   3.091  15.730  1.7573  2.1930 -1.3962
  691TMC3    H110223   2.630   2.964  15.413 -1.0616 -0.1027 -1.5771
  691TMC3    H210224   2.298   2.733  15.515  1.3466 -0.3541 -1.4155
  691TMC3    C710225   2.540   2.743  15.371 -0.5696  0.0938 -0.1437
  691TMC3    C810226   2.233   2.867  15.723  0.2320 -0.4223 -0.5015
  691TMC3    O110227   2.644   2.758  15.306  0.4219 -0.0249 -0.2851
  691TMC3    O210228   2.215   2.748  15.744  0.2776 -0.0711 -0.2088
  692TMC3    C110229   4.355   4.303  16.075  0.5383  0.6121  0.1563
  692TMC3    C210230   4.491   4.320  16.110 -1.1052  0.9928  0.3280
  692TMC3    C310231   4.587   4.227  16.060 -0.5762 -0.1065 -0.0516
  692TMC3    C410232   4.309   4.186  16.026  0.3428  0.7528 -0.4664
  692TMC3    C510233   4.405   4.094  15.993  0.3497 -0.3775  0.0589
  692TMC3    C610234   4.540   4.110  16.006 -0.0250  0.2814 -0.2741
  692TMC3     C10235   4.263   4.414  16.090  0.2326  0.2601  0.5705
  692TMC3     O10236   4.151   4.385  16.050 -0.0755  0.2617  0.1435
  692TMC3     H10237   4.526   4.418  16.140  1.7716  0.1139 -0.1613
  692TMC3    H110238   4.204   4.169  16.006  0.6155 -0.6982 -0.6920
  692TMC3    H210239   4.608   4.040  15.959  0.4839  0.6977 -0.1543
  692TMC3    C710240   4.362   3.980  15.916 -1.0345 -0.5290  0.9399
  692TMC3    C810241   4.707   4.215  16.139 -0.1501 -0.2319  0.1985
  692TMC3    O110242   4.251   3.979  15.868  0.0254  0.3164 -0.5492
  692TMC3    O210243   0.057   4.121  16.117  0.2260 -0.5979 -0.3864
  693MPD2     C10244   4.673   2.021  10.679 -0.2520  0.3789 -0.3552
  693MPD2    C110245   4.608   1.897  10.716  0.7958 -0.6790  0.8340
  693MPD2    C210246   4.685   1.797  10.769  0.0547  0.5612  0.1893
  693MPD2    C310247   0.095   1.809  10.778 -0.1652  0.2097 -0.0918
  693MPD2    C410248   0.157   1.922  10.736 -0.0121  0.2868  0.5288
  693MPD2    C510249   0.086   2.024  10.680  0.1084  0.9680 -0.6929
  693MPD2     H10250   4.634   1.711  10.813 -2.6351  1.8880 -0.3237
  693MPD2    H110251   0.262   1.938  10.758  0.2935  1.7095 -1.9343
  693MPD2    H210252   4.616   2.110  10.655 -0.0919 -0.0160 -2.2246
  693MPD2    H310253   0.133   2.118  10.653  1.1249  0.2048 -1.5931
  693MPD2     N10254   0.177   1.704  10.833  0.2777 -0.0121  0.7742
  693MPD2    H510255   0.276   1.722  10.816  0.6258 -0.5741  2.2292
  693MPD2    N110256   4.467   1.896  10.715  0.4747 -0.0737  0.4370
  693MPD2    H710257   4.426   1.988  10.701 -0.2567 -0.3821  0.5318
  694TMC3    C110258   4.247   1.824  10.708  0.2656  0.7941 -0.2806
  694TMC3    C210259   4.167   1.733  10.641  0.2419  0.2725  0.0701
  694TMC3    C310260   4.038   1.765  10.617  0.3325 -0.2516  0.2022
  694TMC3    C410261   4.188   1.932  10.764  0.4007  0.5576  0.2887
  694TMC3    C510262   4.054   1.955  10.754  0.4088 -0.0893  0.6504
  694TMC3    C610263   3.981   1.873  10.673  0.2981 -0.1826  0.7026
  694TMC3     C10264   4.385   1.789  10.729  0.3182  0.3584 -0.8298
  694TMC3     O10265   4.408   1.673  10.717  0.2528 -0.5797 -0.5164
  694TMC3     H10266   4.209   1.639  10.607  0.5727 -0.2063  1.8256
  694TMC3    H110267   4.249   2.000  10.823  1.5255 -0.4412  0.2765
  694TMC3    H210268   3.874   1.892  10.673  0.1354 -1.0577  2.2808
  694TMC3    C710269   4.017   1.987  10.879 -0.1758  0.5098  0.0732
  694TMC3    C810270   3.948   1.672  10.550 -0.1449  0.2343 -0.6056
  694TMC3    O110271   4.067   2.084  10.927 -0.2586 -0.0206  0.1459
  694TMC3    O210272   3.952   1.549  10.570  0.4785  0.2233  0.9173
  695MPD2     C10273   0.224   4.126  13.394  0.2673 -0.0336  0.3521
  695MPD2    C110274   0.210   4.148  13.529 -0.0725  0.6977 -0.2250
  695MPD2    C210275   0.086   4.180  13.578  0.1203  0.3760  0.1302
  695MPD2    C310276   4.703   4.214  13.498  0.3431  0.3260  0.0018
  695MPD2    C410277   4.722   4.200  13.364 -0.2828 -0.8911 -0.1396
  695MPD2    C510278   0.112   4.155  13.320 -0.1225 -0.2393 -1.0514
  695MPD2     H10279   0.065   4.189  13.684  1.7519  1.4707  0.3431
  695MPD2    H110280   4.653   4.228  13.284 -1.2614  1.1636  1.4121
  695MPD2    H210281   0.320   4.107  13.346  1.7476  2.9529  2.1251
  695MPD2    H310282   0.117   4.151  13.212  1.1023 -0.9428 -0.9768
  695MPD2     N10283   4.584   4.268  13.555 -0.3236  0.2868  0.4330
  695MPD2    H510284   4.574   4.271  13.656 -0.8301  0.2359  0.3835
  695MPD2    N110285   0.323   4.138  13.617 -0.0636 -0.3099 -0.4639
  695MPD2    H710286   0.320   4.169  13.713 -2.2168 -1.0435 -0.2943
  696TMC3    C110287   4.377   4.339  13.584 -0.6055 -0.4538 -0.1202
  696TMC3    C210288   4.363   4.260  13.699  0.2325  0.3181 -0.3439
  696TMC3    C310289   4.254   4.271  13.784 -0.1869  0.2256 -0.2114
  696TMC3    C410290   4.288   4.443  13.568 -0.4345  0.0317  0.1008
  696TMC3    C510291   4.179   4.456  13.653 -0.3421 -0.4817 -0.1189
  696TMC3    C610292   4.158   4.363  13.754 -0.1948  0.0654  0.2833
  696TMC3     C10293   4.472   4.310  13.483 -1.2737 -0.0425 -0.6820
  696TMC3     O10294   4.456   4.363  13.376  0.3573  0.1395  0.2525
  696TMC3     H10295   4.431   4.178  13.721 -0.7853 -0.1269  1.1396
  696TMC3    H110296   4.294   4.508  13.481  1.5624 -0.4589 -0.1284
  696TMC3    H210297   4.077   4.383  13.824  1.1008  0.9867  1.5291
  696TMC3    C710298   4.121   4.585  13.682  0.5469 -0.0753  0.2958
  696TMC3    C810299   4.292   4.288  13.927 -0.5574  0.2103  0.0546
  696TMC3    O110300   4.107   4.653  13.581  0.3399  0.0336  0.0374
  696TMC3    O210301   4.258   4.393  13.976  0.1667 -0.9494  0.4990
  697MPD2     C10302   3.838   0.910  16.052  0.1024 -0.0044 -0.4215
  697MPD2    C110303   3.902   0.854  15.946  0.3410 -0.3862  0.1745
  697MPD2    C210304   3.950   0.931  15.843  0.2071  0.2395  0.0148
  697MPD2    C310305   3.936   1.074  15.839 -0.3329 -0.8198  0.4511
  697MPD2    C410306   3.878   1.128  15.952  0.2942  0.2954 -0.4861
  697MPD2    C510307   3.841   1.048  16.060 -0.0309  0.3025  0.2879
  697MPD2     H10308   4.008   0.883  15.766  0.5906 -1.4450  1.3546
  697MPD2    H110309   3.859   1.234  15.959 -0.1648  0.2609 -1.1803
  697MPD2    H210310   3.795   0.858  16.137 -2.2879  0.3505 -1.4073
  697MPD2    H310311   3.796   1.094  16.147 -0.6504  0.5173 -0.1477
  697MPD2     N10312   3.991   1.152  15.733 -0.0887 -0.4015 -0.2539
  697MPD2    H510313   4.032   1.101  15.655 -0.5607  1.4456 -1.7269
  697MPD2    N110314   3.927   0.718  15.936 -0.4476  0.0616 -0.6159
  697MPD2    H710315   3.966   0.677  15.852  1.3365  0.6287 -0.0619
  698TMC3    C110316   4.079   1.352  15.636  0.2442  0.6307  0.5346
  698TMC3    C210317   4.169   1.438  15.691  0.9868 -0.1022  0.3390
  698TMC3    C310318   4.288   1.465  15.632  0.9975 -0.5012 -0.1837
  698TMC3    C410319   4.116   1.273  15.530 -0.2100 -0.1917 -0.4511
  698TMC3    C510320   4.236   1.304  15.473 -0.3103  0.2878  0.1795
  698TMC3    C610321   4.321   1.396  15.517  0.2480 -0.5081  0.7915
  698TMC3     C10322   4.006   1.286  15.739  0.1671  0.3056  0.2093
  698TMC3     O10323   3.982   1.367  15.827  0.0746 -0.3873 -0.3280
  698TMC3     H10324   4.146   1.504  15.773 -0.9115 -0.2125 -0.1046
  698TMC3    H110325   4.051   1.202  15.480  2.3265 -1.3435 -2.1174
  698TMC3    H210326   4.390   1.437  15.443  0.0364  0.2134  0.9914
  698TMC3    C710327   4.246   1.261  15.332 -0.0957  0.2102  0.5003
  698TMC3    C810328   4.397   1.464  15.734  0.5901  0.0729 -0.7814
  698TMC3    O110329   4.149   1.234  15.261  0.2127  0.4891  0.5673
  698TMC3    O210330   4.375   1.395  15.831 -0.0114 -0.0991 -0.0054
  699TMC3    C110331   0.172   3.774  13.362  0.0906 -0.5986 -0.0815
  699TMC3    C210332   0.221   3.721  13.481 -0.9766  0.5210  0.3367
  699TMC3    C310333   0.156   3.732  13.598  0.0387  0.0019 -0.3013
  699TMC3    C410334   0.051   3.833  13.359 -0.0038  0.6035 -0.6248
  699TMC3    C510335   4.698   3.840  13.476 -0.1033  0.6478 -0.5999
  699TMC3    C610336   0.027   3.785  13.593 -0.3660  0.7483 -0.5871
  699TMC3     C10337   0.249   3.783  13.239 -0.3078 -0.0344  0.3489
  699TMC3     O10338   0.208   3.864  13.157 -0.0603  0.1198 -0.8823
  699TMC3     H10339   0.325   3.690  13.484 -0.3745  2.8193  3.2076
  699TMC3    H110340   0.027   3.881  13.265 -2.6304 -1.4664 -1.0032
  699TMC3    H210341   4.685   3.776  13.679 -0.1574 -2.1104 -0.7167
  699TMC3    C710342   4.564   3.896  13.485 -0.2434  0.5212 -0.2404
  699TMC3    C810343   0.155   3.636  13.709 -0.4357 -0.8255  0.6968
  699TMC3    O110344   4.506   3.902  13.592 -0.3713 -0.1344 -0.0625
  699TMC3    O210345   0.099   3.672  13.815 -0.0339 -0.1175 -0.2577
  700TMC3    C110346   3.343   1.786  17.296  0.2038  0.4832  0.0570
  700TMC3    C210347   3.376   1.651  17.312 -0.7967  0.3069 -0.0741
  700TMC3    C310348   3.447   1.621  17.429  0.4419 -0.3553  0.5539
  700TMC3    C410349   3.369   1.877  17.394  0.4160  0.0111  0.3891
  700TMC3    C510350   3.450   1.840  17.502 -0.1283 -0.3471  0.0088
  700TMC3    C610351   3.482   1.710  17.522 -0.4100  0.6846  0.2438
  700TMC3     C10352   3.378   1.837  17.160 -0.0079 -0.2164  0.3882
  700TMC3     O10353   3.347   1.769  17.061 -0.2577 -0.2018 -0.4028
  700TMC3     H10354   3.366   1.573  17.237  0.1156  2.3761 -2.3323
  700TMC3    H110355   3.342   1.981  17.382  1.1844  0.2009  0.3285
  700TMC3    H210356   3.547   1.677  17.602  0.3238 -1.0720 -1.0632
  700TMC3    C710357   3.539   1.945  17.544 -0.2449 -0.5510 -0.0303
  700TMC3    C810358   3.511   1.484  17.440  0.4046 -0.0617 -0.6061
  700TMC3    O110359   3.538   2.037  17.464  0.0701  0.0680 -0.0352
  700TMC3    O210360   3.623   1.477  17.494  0.1344  0.5631  0.4128
  701TMC3    C110361   3.334   0.133  15.818  0.0466 -0.4707  0.5403
  701TMC3    C210362   3.391   0.072  15.711  0.1645  0.0780  0.5237
  701TMC3    C310363   3.510   0.135  15.660 -0.3023  0.7976  0.4398
  701TMC3    C410364   3.387   0.242  15.879 -0.1467  0.7461  0.0638
  701TMC3    C510365   3.511   0.285  15.842 -0.1618  0.1036  0.9114
  701TMC3    C610366   3.576   0.230  15.732 -0.2367 -0.1682 -0.5393
  701TMC3     C10367   3.192   0.109  15.859 -0.8717  0.5184 -0.0841
  701TMC3     O10368   3.139   0.169  15.951  0.3409  0.5369 -0.4421
  701TMC3     H10369   3.353   4.704  15.666 -0.0305  1.9310 -3.0706
  701TMC3    H110370   3.341   0.278  15.971 -0.9849  0.0428 -0.0803
  701TMC3    H210371   3.675   0.265  15.705 -0.4570  0.2475 -0.8029
  701TMC3    C710372   3.553   0.419  15.875  0.5556  0.4868  0.0396
  701TMC3    C810373   3.582   0.077  15.547  0.6627 -0.3756  0.1036
  701TMC3    O110374   3.651   0.465  15.811  0.0167 -0.4899  0.5405
  701TMC3    O210375   3.698   0.113  15.541 -0.0872 -0.2160 -0.1282
  702MPD2     C10376   3.551   2.478  10.658  0.3639 -0.1557  0.0387
  702MPD2    C110377   3.421   2.460  10.711 -0.8541 -0.7493  0.3531
  702MPD2    C210378   3.312   2.461  10.620 -0.5186 -0.4933  0.9689
  702MPD2    C310379   3.330   2.456  10.485 -1.2894 -0.0820 -0.0044
  702MPD2    C410380   3.463   2.455  10.433 -0.1672 -0.2437  0.2574
  702MPD2    C510381   3.566   2.467  10.523 -0.5393  0.6750 -0.1758
  702MPD2     H10382   3.214   2.466  10.665 -0.9036  2.0031 -0.1866
  702MPD2    H110383   3.490   2.446  10.329 -0.6114 -1.2497  0.2228
  702MPD2    H210384   3.640   2.490  10.719 -0.4924  1.0050  1.0450
  702MPD2    H310385   3.666   2.479  10.483 -0.2779 -0.7254  0.0446
  702MPD2     N10386   3.229   2.487  10.392 -0.6931 -0.3209  0.3334
  702MPD2    H510387   3.257   2.498  10.295 -0.6453  0.3991  0.4307
  702MPD2    N110388   3.387   2.457  10.851 -0.2357 -0.4837  0.5780
  702MPD2    H710389   3.291   2.437  10.877 -0.1689  0.5377  1.6035
  703TMC3    C110390   3.040   2.599  10.309  0.1407 -0.4295  0.4272
  703TMC3    C210391   2.913   2.650  10.341  0.0265  1.4944 -0.5881
  703TMC3    C310392   2.862   2.749  10.263 -0.0341  0.2176 -0.8420
  703TMC3    C410393   3.115   2.650  10.208 -0.2775  0.2567  0.3778
  703TMC3    C510394   3.063   2.756  10.136  0.7584  0.3038  0.6334
  703TMC3    C610395   2.936   2.806  10.168 -0.1704  1.0572  0.2528
  703TMC3     C10396   3.101   2.524  10.413 -0.7482 -0.1961 -0.4889
  703TMC3     O10397   3.031   2.501  10.511 -0.1351 -0.2867 -0.1595
  703TMC3     H10398   2.856   2.607  10.423  1.2590  2.1640  0.6227
  703TMC3    H110399   3.221   2.631  10.200 -0.7602 -1.2894 -2.4726
  703TMC3    H210400   2.891   2.884  10.108  0.1521  2.1254  1.4186
  703TMC3    C710401   3.165   2.845  10.091 -0.5622 -0.5670 -0.4538
  703TMC3    C810402   2.725   2.789  10.286  0.0743 -0.1127 -0.2627
  703TMC3    O110403   3.281   2.808  10.074 -0.1858 -0.2105  0.3448
  703TMC3    O210404   2.651   2.772  10.188 -0.0079 -0.2392  0.5981
  704TMC3    C110405   0.821   0.609  12.839  0.2526  0.6005 -0.0171
  704TMC3    C210406   0.935   0.673  12.866 -0.0936 -0.7439 -0.4316
  704TMC3    C310407   1.041   0.616  12.933 -0.7884 -0.8606  0.6649
  704TMC3    C410408   0.805   0.472  12.864  0.2981  0.0188 -0.0238
  704TMC3    C510409   0.906   0.410  12.927 -0.4656 -0.7422 -0.4038
  704TMC3    C610410   1.028   0.476  12.954 -0.4159 -0.2356  0.1447
  704TMC3     C10411   0.763   0.647  12.712  0.4980 -0.1486  0.0339
  704TMC3     O10412   0.647   0.625  12.684 -0.1883 -0.3431  0.1749
  704TMC3     H10413   0.947   0.777  12.839  1.5895 -0.5997  0.8714
  704TMC3    H110414   0.711   0.420  12.847  0.3759 -0.3472  0.6674
  704TMC3    H210415   1.106   0.425  13.010  1.0390  2.3210  0.4665
  704TMC3    C710416   0.927   0.282  12.871 -0.2753  0.0272  0.1940
  704TMC3    C810417   1.172   0.675  12.889 -0.8920  0.2141 -0.4185
  704TMC3    O110418   1.046   0.259  12.856  0.6325  0.7145 -0.1015
  704TMC3    O210419   1.166   0.756  12.796 -0.3713 -0.2356  0.2496
  705MPD2     C10420   0.161   3.580  16.533  0.0219  0.1725  0.1996
  705MPD2    C110421   0.200   3.703  16.594  0.3407  0.4747  0.7112
  705MPD2    C210422   0.102   3.764  16.672  0.4605 -0.0080  0.3418
  705MPD2    C310423   4.701   3.706  16.691  0.1326 -0.1502 -0.5597
  705MPD2    C410424   4.674   3.581  16.637  0.3376 -0.5330 -0.2529
  705MPD2    C510425   0.045   3.513  16.570 -0.2897 -0.8517  0.6158
  705MPD2     H10426   0.126   3.857  16.721 -0.0023 -1.5270  3.4243
  705MPD2    H110427   4.577   3.534  16.649 -0.1426  0.8289  1.2230
  705MPD2    H210428   0.219   3.529  16.458  1.0071 -1.3973  2.0478
  705MPD2    H310429   0.008   3.423  16.521  1.2794 -1.5382  0.6708
  705MPD2     N10430   4.586   3.776  16.742 -0.7684 -0.1773 -0.4957
  705MPD2    H510431   4.499   3.731  16.770 -1.7804 -0.0431 -3.4760
  705MPD2    N110432   0.324   3.760  16.565  0.8450 -0.2459 -0.0356
  705MPD2    H710433   0.355   3.832  16.630  0.2072 -0.0691  0.0751
  706TMC3    C110434   0.730   3.825  16.315  0.2284 -0.5531 -0.2952
  706TMC3    C210435   0.767   3.938  16.387  0.5236 -0.6941  0.1758
  706TMC3    C310436   0.687   3.970  16.486 -0.5564 -0.6804 -0.1209
  706TMC3    C410437   0.612   3.759  16.331 -0.0539  0.3221  0.1416
  706TMC3    C510438   0.527   3.798  16.430 -0.1856 -0.5927 -0.3451
  706TMC3    C610439   0.567   3.903  16.516  0.0847 -0.4216  0.3474
  706TMC3     C10440   0.835   3.767  16.235  0.1584 -0.4533 -0.0314
  706TMC3     O10441   0.949   3.809  16.248 -0.3229 -0.3444  0.8216
  706TMC3     H10442   0.851   4.003  16.362  1.9959 -3.0710 -1.0224
  706TMC3    H110443   0.584   3.667  16.281  1.1495 -1.3686  2.5646
  706TMC3    H210444   0.512   3.945  16.599  0.7363 -2.3072  1.7309
  706TMC3    C710445   0.395   3.732  16.447 -0.6082  0.1035 -0.4397
  706TMC3    C810446   0.658   4.112  16.462 -0.4070  0.0340 -0.6011
  706TMC3    O110447   0.354   3.670  16.350  0.8478 -0.1670  0.2397
  706TMC3    O210448   0.665   4.163  16.351 -0.5312  0.3839 -0.0109
  707TMC3    C110449   3.079   1.021   1.591  0.4370  0.1432 -1.0222
  707TMC3    C210450   3.192   1.068   1.655 -0.1494 -0.1439  0.6402
  707TMC3    C310451   3.252   0.985   1.743  0.1533  0.0759 -0.2053
  707TMC3    C410452   3.016   0.905   1.633 -0.9204  0.3469  0.0202
  707TMC3    C510453   3.074   0.834   1.741 -0.4654 -0.2630  0.4149
  707TMC3    C610454   3.195   0.874   1.797  0.2546  0.2841  0.4520
  707TMC3     C10455   3.022   1.114   1.501  0.0833 -0.6412 -0.1429
  707TMC3     O10456   3.099   1.163   1.423 -0.5246  0.6572  0.2104
  707TMC3     H10457   3.234   1.161   1.618  0.9915 -0.9141 -0.0179
  707TMC3    H110458   2.927   0.862   1.587 -0.5134  1.2954 -1.6486
  707TMC3    H210459   3.223   0.819   1.886  0.6123  0.5375  0.4960
  707TMC3    C710460   2.992   0.740   1.814  0.1726 -0.2929  0.2000
  707TMC3    C810461   3.364   1.039   1.825  1.1247  0.1144  0.5594
  707TMC3    O110462   3.051   0.644   1.859  0.7144 -0.2038 -0.6845
  707TMC3    O210463   3.388   0.984   1.932 -0.0447  0.2816 -0.1971
  708MPD2     C10464   3.958   1.583  14.009 -1.3499  0.5344 -0.3498
  708MPD2    C110465   3.989   1.718  13.993 -0.3808 -0.8186 -0.1672
  708MPD2    C210466   4.017   1.787  14.112 -0.2446  0.1646  0.5497
  708MPD2    C310467   3.989   1.727  14.233  0.4098  0.1087  0.0103
  708MPD2    C410468   3.942   1.596  14.242 -0.0358  0.2502  0.1526
  708MPD2    C510469   3.930   1.518  14.126  0.4166 -0.3875 -0.2904
  708MPD2     H10470   4.067   1.883  14.103 -2.0940  1.0005 -0.7516
  708MPD2    H110471   3.920   1.548  14.338  0.5830 -0.0260  0.1586
  708MPD2    H210472   3.932   1.526  13.920  0.6096  1.2275 -1.3782
  708MPD2    H310473   3.912   1.411  14.132  2.7620 -0.7519  0.6102
  708MPD2     N10474   4.019   1.811  14.340 -0.1833 -0.1137 -0.2163
  708MPD2    H510475   4.046   1.907  14.320  1.2244 -0.9620 -2.3700
  708MPD2    N110476   3.995   1.773  13.868  0.1039  0.0666  0.1200
  708MPD2    H710477   3.957   1.721  13.789  2.0764  0.6794 -1.2340
  709TMC3    C110478   4.003   1.934  13.700  0.4551 -0.2893  0.1326
  709TMC3    C210479   3.888   1.890  13.644  0.0802  0.1065  0.8775
  709TMC3    C310480   3.810   1.973  13.565 -0.7307 -0.4173  0.1841
  709TMC3    C410481   4.043   2.064  13.679  0.1919  0.3838  0.1987
  709TMC3    C510482   3.954   2.148  13.613  0.3025  0.1514  0.0943
  709TMC3    C610483   3.842   2.106  13.552 -0.6499 -0.7611  0.0964
  709TMC3     C10484   4.031   1.906  13.836 -0.1177  0.3057 -0.0219
  709TMC3     O10485   4.067   1.998  13.908 -0.1129  0.6741 -0.2257
  709TMC3     H10486   3.848   1.793  13.672  0.0106 -0.4429 -1.1269
  709TMC3    H110487   4.136   2.106  13.716  0.7331 -0.1262 -0.5802
  709TMC3    H210488   3.771   2.182  13.521 -1.8372 -1.8524  0.1447
  709TMC3    C710489   3.935   2.273  13.682 -0.0762 -0.3435  0.6584
  709TMC3    C810490   3.679   1.927  13.512 -0.3086 -0.4770 -0.0837
  709TMC3    O110491   3.868   2.360  13.627  0.5337 -0.5371  0.0661
  709TMC3    O210492   3.622   1.834  13.564  0.2006 -0.6317 -0.2281
  710TMC3    C110493   4.547   4.062   0.820 -0.2046 -0.1294  1.4217
  710TMC3    C210494   4.579   4.065   0.681 -0.5211 -0.2064  0.8259
  710TMC3    C310495   4.708   4.042   0.647  0.1095 -0.3005  0.2040
  710TMC3    C410496   4.646   4.037   0.908 -0.4848  0.0989 -0.7874
  710TMC3    C510497   0.060   4.039   0.870  0.1559 -0.2542 -0.1851
  710TMC3    C610498   0.092   4.042   0.740  0.0014 -0.7668  0.0723
  710TMC3     C10499   4.422   4.126   0.857 -0.2331  0.0096  1.0510
  710TMC3     O10500   4.360   4.198   0.777  0.6232  0.1967  0.3743
  710TMC3     H10501   4.500   4.070   0.607  1.2928 -2.3857 -1.2486
  710TMC3    H110502   4.626   4.050   1.014  3.2014 -1.3583  0.1001
  710TMC3    H210503   0.192   4.024   0.703  0.1555 -0.3428  0.2792
  710TMC3    C710504   0.154   4.035   0.982  0.0741  0.6135  0.1820
  710TMC3    C810505   0.009   3.981   0.513 -0.7132 -0.2602  0.0493
  710TMC3    O110506   0.102   4.014   1.092 -0.0837  1.2360 -0.3387
  710TMC3    O210507   0.123   3.993   0.467 -0.2267  0.6441  0.2455
  711TMC3    C110508   3.929   4.400  15.475 -0.5606  0.5071 -0.8665
  711TMC3    C210509   4.042   4.326  15.506 -0.1125 -0.7129 -0.6658
  711TMC3    C310510   4.117   4.370  15.611 -0.2526 -0.0425  0.3572
  711TMC3    C410511   3.888   4.516  15.536 -0.5402 -0.1257 -0.0645
  711TMC3    C510512   3.973   4.563  15.633 -0.2852 -0.3230  0.7359
  711TMC3    C610513   4.086   4.495  15.671  0.1946 -0.1677  0.0807
  711TMC3     C10514   3.876   4.386  15.338  0.2741 -0.0064 -0.5075
  711TMC3     O10515   3.761   4.412  15.310 -0.2362 -0.5441  0.1513
  711TMC3     H10516   4.058   4.236  15.449 -2.2013 -0.7803 -1.1400
  711TMC3    H110517   3.808   4.578  15.498 -0.4072  0.6896  0.9849
  711TMC3    H210518   4.148   4.531  15.752  0.1613  1.1444 -0.4695
  711TMC3    C710519   3.985   4.706  15.657  0.1958 -0.4315 -0.2597
  711TMC3    C810520   4.249   4.320  15.612 -0.8057 -0.1708 -0.9911
  711TMC3    O110521   3.923   0.024  15.754  0.0639  0.2206 -0.0071
  711TMC3    O210522   4.259   4.224  15.538 -0.1194 -0.4664 -0.1270
  712MPD2     C10523   1.094   0.890  13.914  0.2414  0.3240  0.2908
  712MPD2    C110524   1.000   0.987  13.881 -1.1013 -0.4227 -0.2934
  712MPD2    C210525   1.037   1.108  13.819 -0.1532 -0.1360 -0.4437
  712MPD2    C310526   1.168   1.133  13.784 -0.2469 -0.0411  0.3453
  712MPD2    C410527   1.266   1.038  13.825 -0.0363  0.8830  0.4095
  712MPD2    C510528   1.226   0.918  13.892 -0.0920 -0.7139  0.1921
  712MPD2     H10529   0.948   1.167  13.800 -0.0970  0.1601  0.2010
  712MPD2    H110530   1.371   1.056  13.803 -0.7011  2.9447 -1.0664
  712MPD2    H210531   1.080   0.794  13.961  4.1009 -0.4822 -0.2017
  712MPD2    H310532   1.300   0.841  13.912 -0.7962 -1.3918  0.2162
  712MPD2     N10533   1.216   1.251  13.717  0.1153 -0.3100  0.3367
  712MPD2    H510534   1.317   1.261  13.718  0.2363 -1.8377  3.0008
  712MPD2    N110535   0.859   0.966  13.889  0.6250  0.2281 -0.4519
  712MPD2    H710536   0.797   1.032  13.844  1.4809  2.0859  1.0820
  713TMC3    C110537   1.176   1.465  13.597 -0.0775  0.3876  0.0448
  713TMC3    C210538   1.313   1.484  13.592  0.6346  0.8298 -0.2571
  713TMC3    C310539   1.351   1.597  13.521 -0.0282 -0.2790  0.4592
  713TMC3    C410540   1.082   1.547  13.544  0.0800 -0.7412 -0.5452
  713TMC3    C510541   1.128   1.662  13.484  0.4631  0.0448 -0.5605
  713TMC3    C610542   1.263   1.689  13.465 -0.2330 -0.4038 -0.4864
  713TMC3     C10543   1.127   1.336  13.644 -0.2518 -0.0625 -0.5499
  713TMC3     O10544   1.007   1.315  13.633  0.1729 -0.5496  0.0188
  713TMC3     H10545   1.378   1.423  13.652  1.0099 -0.4859 -1.9889
  713TMC3    H110546   0.977   1.521  13.540  0.4814 -2.1997 -1.5755
  713TMC3    H210547   1.294   1.784  13.422  0.7203 -0.5515 -0.1398
  713TMC3    C710548   1.043   1.706  13.376  0.1708  0.1712 -0.2653
  713TMC3    C810549   1.484   1.641  13.529  0.0671  0.4381 -0.9076
  713TMC3    O110550   1.105   1.730  13.272 -0.1237  0.0199  0.3647
  713TMC3    O210551   1.511   1.758  13.498  0.0553  0.2061 -0.0618
  714MPD2     C10552   3.063   3.962   2.370 -0.2083  0.2122 -0.4417
  714MPD2    C110553   3.099   3.933   2.241  0.6871  0.3171 -1.0304
  714MPD2    C210554   3.019   3.980   2.136  0.4548 -0.0864  0.6037
  714MPD2    C310555   2.910   4.059   2.168 -0.0516  0.3326 -0.5814
  714MPD2    C410556   2.878   4.092   2.297 -0.3682 -0.4705 -0.3780
  714MPD2    C510557   2.953   4.040   2.405 -1.0006 -0.0437  0.5908
  714MPD2     H10558   3.032   3.948   2.034 -0.6529  1.3418  0.0188
  714MPD2    H110559   2.791   4.153   2.317 -0.6908 -0.9595 -0.2695
  714MPD2    H210560   3.121   3.917   2.450  0.8108  0.6523 -0.9361
  714MPD2    H310561   2.921   4.064   2.506 -1.9697  1.2249 -0.0189
  714MPD2     N10562   2.819   4.094   2.063  0.4925 -0.1979  0.1154
  714MPD2    H510563   2.854   4.074   1.970  0.2477 -2.4516  0.5094
  714MPD2    N110564   3.206   3.843   2.227 -0.6407 -0.2615  0.4137
  714MPD2    H710565   3.264   3.826   2.309  1.9072  4.0579 -0.4658
  715TMC3    C110566   3.396   3.764   2.116  0.1888 -0.0408 -0.1919
  715TMC3    C210567   3.444   3.673   2.027  0.7883 -0.4344  0.4777
  715TMC3    C310568   3.573   3.633   2.032  0.0838  0.7721 -0.4302
  715TMC3    C410569   3.478   3.822   2.208 -0.1017  0.0867 -0.1496
  715TMC3    C510570   3.610   3.785   2.209 -0.7432  0.8918 -0.0398
  715TMC3    C610571   3.656   3.685   2.127 -0.1710 -0.3817  0.1912
  715TMC3     C10572   3.254   3.793   2.112  0.1749 -0.6447 -0.3751
  715TMC3     O10573   3.188   3.771   2.009 -0.3366 -0.1115 -0.1997
  715TMC3     H10574   3.374   3.617   1.967 -0.0482  1.1827 -0.0547
  715TMC3    H110575   3.444   3.907   2.267  0.6138  0.2803 -0.0190
  715TMC3    H210576   3.758   3.653   2.143 -0.2739 -0.9500 -0.2898
  715TMC3    C710577   3.696   3.840   2.310 -0.1825  0.6665  0.8919
  715TMC3    C810578   3.611   3.522   1.941 -0.6536 -0.3764  0.8179
  715TMC3    O110579   3.816   3.846   2.280  0.7358 -0.9776  0.2091
  715TMC3    O210580   3.562   3.523   1.830  0.1376  0.1197  0.3845
  716MPD2     C10581   3.984   2.811   9.395 -0.4537 -0.3858 -0.8506
  716MPD2    C110582   3.886   2.792   9.482 -0.8812 -0.1801 -0.0018
  716MPD2    C210583   3.892   2.690   9.574 -0.2829  0.3928  0.5180
  716MPD2    C310584   4.002   2.598   9.573 -0.4014  0.2819  0.5507
  716MPD2    C410585   4.100   2.621   9.481  0.2013 -0.4583 -0.1617
  716MPD2    C510586   4.093   2.729   9.402 -0.3404  0.5028 -0.0637
  716MPD2     H10587   3.822   2.676   9.655 -0.0656 -2.3815  0.2062
  716MPD2    H110588   4.182   2.552   9.465  0.3090 -0.8667  2.1851
  716MPD2    H210589   3.978   2.887   9.317 -1.0408  0.8514  0.3973
  716MPD2    H310590   4.173   2.756   9.334  2.2482 -0.5631  2.5561
  716MPD2     N10591   3.988   2.479   9.646  0.2365  0.4358 -0.7794
  716MPD2    H510592   3.905   2.464   9.704  1.2119 -2.1187 -0.0269
  716MPD2    N110593   3.776   2.880   9.472 -0.3531 -0.1680 -0.2294
  716MPD2    H710594   3.788   2.952   9.401 -1.0101  1.0095  0.8526
  717TMC3    C110595   4.037   2.264   9.724  0.0532 -0.7261 -0.2921
  717TMC3    C210596   3.915   2.206   9.698 -0.0153 -0.1574  0.8184
  717TMC3    C310597   3.905   2.075   9.665  0.1648  0.5021 -0.6980
  717TMC3    C410598   4.152   2.180   9.735 -0.1011 -0.4652 -0.2756
  717TMC3    C510599   4.136   2.047   9.710 -0.2981  0.3027 -0.3879
  717TMC3    C610600   4.013   1.989   9.676 -0.0598  0.2837 -0.3402
  717TMC3     C10601   4.069   2.370   9.637  0.5116  0.3805  0.3124
  717TMC3     O10602   4.178   2.356   9.582 -0.3393  0.2129  0.0149
  717TMC3     H10603   3.828   2.270   9.700  1.1492  1.5130 -1.2522
  717TMC3    H110604   4.251   2.212   9.767  0.1873 -0.3054 -1.3056
  717TMC3    H210605   4.013   1.888   9.638 -2.4738 -0.6008  2.0313
  717TMC3    C710606   4.256   1.954   9.704 -0.4986 -0.3846 -0.2430
  717TMC3    C810607   3.781   2.030   9.604 -0.1510  0.1659  0.4644
  717TMC3    O110608   4.240   1.833   9.689  0.2005  0.5273  0.2825
  717TMC3    O210609   3.690   2.113   9.601 -0.0528 -0.1911 -0.0816
  718MPD2     C10610   2.330   1.270  12.660  0.6688 -0.0702 -0.2073
  718MPD2    C110611   2.262   1.386  12.668 -1.0830 -0.9067 -0.7780
  718MPD2    C210612   2.221   1.446  12.790 -0.3931 -0.2206 -1.3742
  718MPD2    C310613   2.244   1.376  12.906  0.9087  0.0054 -0.0285
  718MPD2    C410614   2.295   1.247  12.892  0.2158  0.3240 -0.7500
  718MPD2    C510615   2.352   1.199  12.773  0.5935  0.4403  0.2996
  718MPD2     H10616   2.181   1.546  12.788  2.4013  0.9326  0.7508
  718MPD2    H110617   2.304   1.188  12.982 -0.9106  2.0071  0.4722
  718MPD2    H210618   2.365   1.235  12.563 -0.6234  0.2888 -0.7960
  718MPD2    H310619   2.398   1.102  12.776  0.2071  0.2485  0.0904
  718MPD2     N10620   2.187   1.432  13.025 -0.2975  0.5517 -0.1930
  718MPD2    H510621   2.129   1.515  13.029 -1.7301 -0.5225  1.2489
  718MPD2    N110622   2.248   1.459  12.545 -0.1369  0.6345  0.1880
  718MPD2    H710623   2.287   1.411  12.465  0.8275 -0.1691  1.1402
  719TMC3    C110624   2.210   1.658  12.421 -0.5425  0.4793 -0.2188
  719TMC3    C210625   2.125   1.771  12.418 -0.4922  0.1601 -0.2056
  719TMC3    C310626   2.168   1.894  12.379 -0.1339  0.1356  0.0572
  719TMC3    C410627   2.335   1.667  12.373 -1.1465 -0.0530  0.1931
  719TMC3    C510628   2.374   1.791  12.330  0.2635  0.1373  0.1540
  719TMC3    C610629   2.292   1.903  12.333  0.0367  0.3070 -0.0745
  719TMC3     C10630   2.185   1.580  12.532  0.4809 -0.4729 -0.4067
  719TMC3     O10631   2.111   1.639  12.613  0.4365  0.4365  0.1149
  719TMC3     H10632   2.024   1.756  12.454  0.2095 -0.4540  1.4868
  719TMC3    H110633   2.400   1.580  12.362 -0.9125 -0.2200  2.8714
  719TMC3    H210634   2.321   2.003  12.303  0.0753  0.8408  1.7744
  719TMC3    C710635   2.517   1.812  12.298 -0.0278  0.3916  0.5946
  719TMC3    C810636   2.124   1.985  12.483 -0.8183  0.3695 -0.6793
  719TMC3    O110637   2.594   1.721  12.321 -0.3192 -0.8461 -0.2268
  719TMC3    O210638   2.140   2.106  12.462 -1.2565  0.7680 -0.5747
  720MPD2     C10639   0.668   3.078  14.440 -0.2278 -0.0633 -0.5239
  720MPD2    C110640   0.772   3.050  14.346 -0.4510 -0.3275 -0.7862
  720MPD2    C210641   0.884   2.989  14.393  0.6041  0.0940  0.4560
  720MPD2    C310642   0.890   2.966  14.532 -0.2059  0.2045  0.3253
  720MPD2    C410643   0.792   3.010  14.617  0.6311  0.6169 -0.2955
  720MPD2    C510644   0.682   3.073  14.571  0.0167  0.2793 -0.3243
  720MPD2     H10645   0.968   2.957  14.332  1.5881  1.3573  1.1416
  720MPD2    H110646   0.811   3.000  14.723 -0.4665 -0.3836 -0.1931
  720MPD2    H210647   0.572   3.110  14.404 -0.8669  1.9547  2.9681
  720MPD2    H310648   0.604   3.101  14.640  0.9548  0.1629  0.7732
  720MPD2     N10649   1.017   2.917  14.575 -0.0802 -0.9420 -0.2862
  720MPD2    H510650   1.095   2.933  14.513  0.0720  0.4602  0.2797
  720MPD2    N110651   0.755   3.054  14.203  0.1182 -0.3304  0.1042
  720MPD2    H710652   0.828   3.008  14.151  0.5493  1.0043 -0.4561
  721TMC3    C110653   1.173   2.838  14.734  1.1745 -0.5179 -0.3470
  721TMC3    C210654   1.184   2.811  14.868 -0.3038 -0.1402  0.5332
  721TMC3    C310655   1.305   2.758  14.915  1.0987 -0.1607  0.0074
  721TMC3    C410656   1.280   2.830  14.648  0.4565  0.6071 -0.4116
  721TMC3    C510657   1.403   2.799  14.703  0.2608  0.7322 -0.3494
  721TMC3    C610658   1.412   2.774  14.835 -0.0364 -0.0077 -0.2432
  721TMC3     C10659   1.037   2.858  14.702 -0.5219  0.5826 -0.0194
  721TMC3     O10660   0.952   2.814  14.781 -0.0401  0.2454  0.1786
  721TMC3     H10661   1.098   2.817  14.933 -0.4320 -2.3254  0.5576
  721TMC3    H110662   1.277   2.848  14.541 -1.6312  0.5514 -0.3772
  721TMC3    H210663   1.506   2.782  14.888  0.3057 -1.2586 -0.6523
  721TMC3    C710664   1.525   2.810  14.629  0.3924 -0.7062 -0.0724
  721TMC3    C810665   1.325   2.788  15.058 -0.0701 -0.5238 -0.0930
  721TMC3    O110666   1.521   2.866  14.518  0.1986 -0.2125  0.5804
  721TMC3    O210667   1.431   2.843  15.090  0.3394  0.2080  0.2533
  722MPD2     C10668   4.428   1.535  13.353  0.5718 -0.0060  0.0450
  722MPD2    C110669   4.466   1.630  13.263 -0.3687 -0.2720 -0.1286
  722MPD2    C210670   4.382   1.654  13.153 -0.7217  0.2224 -0.4215
  722MPD2    C310671   4.257   1.587  13.141  0.1741  0.1585 -0.4836
  722MPD2    C410672   4.218   1.502  13.239  0.6476 -0.6781  0.0439
  722MPD2    C510673   4.309   1.467  13.339 -0.4535  0.1045 -0.1292
  722MPD2     H10674   4.409   1.728  13.078 -0.5993  0.8270  0.2121
  722MPD2    H110675   4.119   1.459  13.244  0.7839 -0.8302  1.5358
  722MPD2    H210676   4.491   1.511  13.438  1.0430 -1.4163 -0.7084
  722MPD2    H310677   4.276   1.391  13.409 -0.0756 -0.2517 -0.3431
  722MPD2     N10678   4.187   1.609  13.016  0.1367  0.0678 -0.1501
  722MPD2    H510679   4.213   1.688  12.959 -2.1446  0.8500 -0.1045
  722MPD2    N110680   4.579   1.714  13.277 -0.1605  0.7402  0.2229
  722MPD2    H710681   4.602   1.781  13.205 -3.2385  2.1083  0.4993
  723TMC3    C110682   4.017   1.592  12.859  0.4433  0.3207 -0.2371
  723TMC3    C210683   3.955   1.499  12.775 -0.1843  0.5484 -0.9884
  723TMC3    C310684   3.877   1.550  12.675  0.1346 -0.1387  0.2263
  723TMC3    C410685   4.011   1.726  12.841 -0.0046  0.3306 -0.1589
  723TMC3    C510686   3.930   1.775  12.742  0.3482  0.0708 -0.0784
  723TMC3    C610687   3.863   1.689  12.655 -1.1489 -0.0865  0.2313
  723TMC3     C10688   4.073   1.542  12.984 -0.1278  0.0920 -0.2047
  723TMC3     O10689   4.038   1.438  13.035  0.3072 -0.4542 -0.1097
  723TMC3     H10690   3.963   1.394  12.802  1.2332  1.0101  0.4138
  723TMC3    H110691   4.045   1.799  12.914 -2.7343 -0.0385  1.4599
  723TMC3    H210692   3.806   1.730  12.572 -0.5578  0.1465 -0.0534
  723TMC3    C710693   3.983   1.899  12.684  0.7686 -0.9967  0.0326
  723TMC3    C810694   3.787   1.456  12.601 -0.0500  0.2431 -0.6394
  723TMC3    O110695   4.016   1.905  12.567 -0.3955  0.0263  0.3592
  723TMC3    O210696   3.685   1.499  12.554  0.1381  0.2427 -0.6671
  724TMC3    C110697   4.074   3.972  10.444  0.8128  0.7919 -0.2248
  724TMC3    C210698   4.014   3.998  10.324  0.4035  0.2386 -0.8485
  724TMC3    C310699   4.100   4.011  10.219 -0.7224 -0.7284  0.3287
  724TMC3    C410700   4.212   3.952  10.463 -0.1733 -0.4017 -0.0354
  724TMC3    C510701   4.287   3.936  10.349 -0.0165  0.7149 -0.5944
  724TMC3    C610702   4.227   3.967  10.227  0.3904 -0.0366 -0.4386
  724TMC3     C10703   3.978   3.929  10.543 -0.1390 -0.5968  0.2087
  724TMC3     O10704   4.025   3.899  10.653  0.0614  0.1202 -0.2419
  724TMC3     H10705   3.916   4.045  10.319  1.4836  2.5694  0.3937
  724TMC3    H110706   4.243   3.946  10.567 -1.4929  2.4478  0.5217
  724TMC3    H210707   4.289   3.966  10.138 -2.4321 -0.1650 -2.4029
  724TMC3    C710708   4.427   3.942  10.346  0.1452 -0.0138  0.3984
  724TMC3    C810709   4.071   4.101  10.115  0.3169  0.9679  0.1980
  724TMC3    O110710   4.469   4.018  10.260  0.4069 -0.3206 -0.2419
  724TMC3    O210711   3.951   4.112  10.092 -0.2806  0.0729  0.0696
  725TMC3    C110712   1.883   3.143  12.797 -0.2968 -0.3136  0.1058
  725TMC3    C210713   1.747   3.171  12.776  0.1545  0.7162 -0.6533
  725TMC3    C310714   1.660   3.074  12.733 -0.0688 -0.1233 -0.1443
  725TMC3    C410715   1.940   3.017  12.761 -0.5459  0.1439  0.5719
  725TMC3    C510716   1.849   2.926  12.713 -0.2838  0.0645 -1.1735
  725TMC3    C610717   1.712   2.951  12.703 -0.2490  0.4085 -0.4070
  725TMC3     C10718   1.974   3.249  12.808  0.0614 -0.1377  0.7177
  725TMC3     O10719   1.926   3.356  12.851 -0.0338 -0.3485 -0.3273
  725TMC3     H10720   1.710   3.268  12.808  1.3820  0.4033  1.6751
  725TMC3    H110721   2.044   2.997  12.784 -0.3727 -0.6712 -0.9420
  725TMC3    H210722   1.648   2.868  12.676 -0.3367  0.3800 -0.1143
  725TMC3    C710723   1.889   2.792  12.674  0.1979 -0.7578 -0.8461
  725TMC3    C810724   1.543   3.118  12.653  0.2726 -0.4831 -0.3878
  725TMC3    O110725   1.809   2.738  12.600 -0.2332 -0.1520 -0.0968
  725TMC3    O210726   1.459   3.044  12.620 -0.1887 -0.5329  0.3539
  726MPD2     C10727   4.607   4.297  11.115  0.1223 -0.9638 -0.9048
  726MPD2    C110728   4.528   4.362  11.012  0.4633 -0.4883  0.1654
  726MPD2    C210729   4.391   4.370  11.026  0.5357  0.0444 -0.2816
  726MPD2    C310730   4.339   4.317  11.142  0.9758  1.1053  0.8080
  726MPD2    C410731   4.410   4.242  11.229  0.5189  0.0684  0.1748
  726MPD2    C510732   4.545   4.230  11.215 -0.3001 -0.6705 -0.2275
  726MPD2     H10733   4.328   4.420  10.953 -0.8714  2.1819  2.3989
  726MPD2    H110734   4.366   4.203  11.320  1.5522 -0.4819  0.4369
  726MPD2    H210735   4.715   4.289  11.111  0.2152 -0.2065  0.2469
  726MPD2    H310736   4.592   4.175  11.295 -1.3992 -2.4933 -0.8354
  726MPD2     N10737   4.205   4.320  11.179  0.9899  0.7596 -0.2530
  726MPD2    H510738   4.190   4.300  11.277  1.6846  0.1449 -0.2763
  726MPD2    N110739   4.594   4.437  10.915 -0.5421 -0.2689 -0.3146
  726MPD2    H710740   4.548   4.475  10.832  2.5990  2.6964 -0.7105
  727TMC3    C110741   0.059   4.552  10.820 -0.1801  0.0269  0.2774
  727TMC3    C210742   0.171   4.635  10.843 -1.0564  0.3136  0.0677
  727TMC3    C310743   0.213   4.708  10.737 -0.1643  0.1807 -0.3314
  727TMC3    C410744   4.716   4.538  10.700 -0.0068 -0.2500  0.2197
  727TMC3    C510745   0.049   4.603  10.596 -0.3715  0.3382  0.6369
  727TMC3    C610746   0.154   4.696  10.612  0.5137 -0.3176  0.2317
  727TMC3     C10747   4.722   4.493  10.940 -0.6981 -0.5364 -0.2680
  727TMC3     O10748   0.070   4.500  11.039  0.4461  0.0928  0.7002
  727TMC3     H10749   0.209   4.662  10.941  1.4241  0.7585 -1.0419
  727TMC3    H110750   4.636   4.467  10.682  1.1066 -2.0005  2.1451
  727TMC3    H210751   0.192   0.030  10.529  1.9528  0.8938  1.7368
  727TMC3    C710752   4.676   4.622  10.480 -0.1967 -0.1405 -0.1262
  727TMC3    C810753   0.330   0.062  10.758  0.0714 -0.3523  0.0905
  727TMC3    O110754   4.612   4.531  10.431  0.0667 -0.1782  0.4442
  727TMC3    O210755   0.412   0.060  10.667 -0.3718 -0.2152 -0.2191
  728TMC3    C110756   3.357   3.349  15.274 -0.4479  0.1815  0.7349
  728TMC3    C210757   3.489   3.384  15.270  1.0060 -0.1170 -0.5912
  728TMC3    C310758   3.535   3.415  15.147  0.6119  0.8107  0.1735
  728TMC3    C410759   3.277   3.347  15.165  0.0193 -0.0174  0.0258
  728TMC3    C510760   3.318   3.410  15.056 -0.1545 -0.4503 -0.0486
  728TMC3    C610761   3.448   3.444  15.043  0.1668 -0.1639  0.3370
  728TMC3     C10762   3.281   3.352  15.401  0.1412  0.2641 -0.0486
  728TMC3     O10763   3.357   3.360  15.499  0.5291  0.1745 -0.6547
  728TMC3     H10764   3.556   3.374  15.355  3.4077 -1.3655 -2.6509
  728TMC3    H110765   3.185   3.289  15.165  0.0500 -0.0653 -0.7783
  728TMC3    H210766   3.490   3.497  14.959  0.2392  2.3055  1.9079
  728TMC3    C710767   3.220   3.471  14.979 -0.1801 -0.9084 -0.1835
  728TMC3    C810768   3.668   3.380  15.122 -0.6658 -0.2436  0.2314
  728TMC3    O110769   3.116   3.412  14.968 -0.0787 -0.1592  0.4424
  728TMC3    O210770   3.731   3.339  15.220 -0.0439  0.2094 -0.0773
  729MPD2     C10771   0.755   0.022  17.183 -0.5450  0.5317 -0.2258
  729MPD2    C110772   0.860   4.658  17.173 -0.3434 -0.2772  0.5267
  729MPD2    C210773   0.915   4.595  17.287 -0.3637 -0.4761 -0.2595
  729MPD2    C310774   0.853   4.620  17.410  0.7610 -0.0417  0.3803
  729MPD2    C410775   0.742   4.704  17.419  0.2967 -0.2714  0.1135
  729MPD2    C510776   0.704   0.059  17.307  0.3530  0.4489 -0.3577
  729MPD2     H10777   0.998   4.524  17.285  0.4018  0.4239 -0.3495
  729MPD2    H110778   0.705   0.002  17.519  0.7351  1.3937 -0.0871
  729MPD2    H210779   0.723   0.077  17.095  2.4030 -0.0438 -1.6562
  729MPD2    H310780   0.635   0.142  17.315  1.1557  1.0250  0.4304
  729MPD2     N10781   0.907   4.573  17.535 -0.7261  0.0182 -0.1640
  729MPD2    H510782   0.881   4.637  17.610  0.4769 -0.2201  0.4460
  729MPD2    N110783   0.906   4.635  17.039  0.0040  0.0935  0.3616
  729MPD2    H710784   0.842   4.671  16.969  0.5590 -1.8579 -1.1507
  730TMC3    C110785   1.049   4.505   0.008 -0.8650 -0.3551 -0.8176
  730TMC3    C210786   1.184   4.505   0.020  0.1480  0.1743 -0.6143
  730TMC3    C310787   1.235   4.604   0.101  0.9355  0.5060 -1.1845
  730TMC3    C410788   0.972   4.587   0.074 -0.1279 -0.8481 -0.6894
  730TMC3    C510789   1.027   4.668   0.166 -0.4805 -0.1860 -0.2947
  730TMC3    C610790   1.161   4.676   0.186 -0.0466  0.0509 -0.1558
  730TMC3     C10791   0.998   4.474  17.569 -0.4732  0.1182 -0.8596
  730TMC3     O10792   1.055   4.393  17.495  0.0610  0.5393  0.1071
  730TMC3     H10793   1.248   4.459  17.640  1.6028  1.8744 -0.4171
  730TMC3    H110794   0.864   4.578   0.073 -0.3088  1.2265 -0.6937
  730TMC3    H210795   1.214   0.025   0.248  0.8282 -1.1181  0.4691
  730TMC3    C710796   0.978   0.080   0.129 -0.3008 -0.1751  0.2595
  730TMC3    C810797   1.326   4.693   0.013  0.6566 -0.1055 -0.1005
  730TMC3    O110798   0.923   0.094   0.021 -0.1939  0.3140  0.2781
  730TMC3    O210799   1.312   4.686  17.586  0.1409  0.0280  0.1645
  731MPD2     C10800   0.837   2.713  12.328  0.1874  0.2055 -0.1108
  731MPD2    C110801   0.945   2.633  12.299  0.3927  0.3808  0.1228
  731MPD2    C210802   1.017   2.585  12.404 -0.4296  0.1418  0.2621
  731MPD2    C310803   0.989   2.633  12.535  1.3530 -0.3725  0.5188
  731MPD2    C410804   0.888   2.720  12.567  0.1530 -0.4730 -0.0550
  731MPD2    C510805   0.812   2.756  12.453  0.5403  0.6664 -0.5495
  731MPD2     H10806   1.095   2.511  12.395 -1.8313 -1.3065  0.0141
  731MPD2    H110807   0.868   2.757  12.666  1.4734 -1.0324  0.4187
  731MPD2    H210808   0.784   2.756  12.244  0.0756  3.1534  1.4542
  731MPD2    H310809   0.732   2.829  12.461 -0.1749 -0.3738  1.8742
  731MPD2     N10810   1.076   2.585  12.638 -0.1348 -0.2262 -0.1924
  731MPD2    H510811   1.153   2.528  12.606  0.5032  0.2368  0.5287
  731MPD2    N110812   0.960   2.600  12.162 -0.4236 -0.1998  0.4965
  731MPD2    H710813   0.895   2.647  12.100 -1.8172 -0.0380  2.0766
  732TMC3    C110814   1.052   2.518  11.963  0.3050  0.0959  0.2142
  732TMC3    C210815   0.922   2.505  11.912  0.2047  0.0151  0.5436
  732TMC3    C310816   0.904   2.446  11.792  0.6308  0.2328 -1.3485
  732TMC3    C410817   1.161   2.483  11.897  0.9868 -0.4052  0.8471
  732TMC3    C510818   1.138   2.418  11.782 -0.3180  0.3729 -0.4504
  732TMC3    C610819   1.012   2.394  11.725 -0.0789 -0.6890  0.6627
  732TMC3     C10820   1.076   2.540  12.101  0.5551  0.7317  0.7086
  732TMC3     O10821   1.181   2.506  12.157  0.1972  0.0436 -0.1369
  732TMC3     H10822   0.837   2.536  11.972 -0.2999  1.9412 -1.1668
  732TMC3    H110823   1.257   2.496  11.945  0.1442  4.0281  1.3164
  732TMC3    H210824   1.006   2.343  11.629 -2.1426  1.8623 -0.5814
  732TMC3    C710825   1.252   2.387  11.704 -0.1402  0.6408  0.0823
  732TMC3    C810826   0.783   2.359  11.772  0.4662 -0.1744  0.3775
  732TMC3    O110827   1.238   2.403  11.583  0.5716 -0.9442 -0.1006
  732TMC3    O210828   0.775   2.292  11.670 -0.6739 -0.0241  0.3471
  733TMC3    C110829   1.859   1.478  13.296  0.1343  0.0596  0.3153
  733TMC3    C210830   1.968   1.400  13.275 -0.0587 -0.2051 -0.2324
  733TMC3    C310831   2.084   1.456  13.227 -0.0437 -0.4728 -0.4811
  733TMC3    C410832   1.864   1.610  13.270  0.5795  0.3791  0.2631
  733TMC3    C510833   1.982   1.663  13.226  0.8282 -0.2481 -0.3859
  733TMC3    C610834   2.090   1.588  13.191 -0.5874  0.0006 -0.1602
  733TMC3     C10835   1.726   1.426  13.284 -0.4688 -0.0770  0.2670
  733TMC3     O10836   1.643   1.477  13.204 -0.1787 -0.2708  0.8024
  733TMC3     H10837   1.978   1.292  13.288  3.6858  0.0928 -0.5371
  733TMC3    H110838   1.778   1.675  13.276 -0.6548 -1.4655  2.5047
  733TMC3    H210839   2.187   1.634  13.174 -0.9996  1.2713  0.9145
  733TMC3    C710840   1.961   1.795  13.170  0.3152  0.7447  0.3716
  733TMC3    C810841   2.170   1.370  13.146  0.2446 -0.0888 -0.2642
  733TMC3    O110842   1.941   1.886  13.249 -0.9081 -0.5003  0.4151
  733TMC3    O210843   2.183   1.252  13.182  0.0017  0.4151 -0.2142
  734MPD2     C10844   4.478   3.278  12.359 -0.6673 -0.1921  0.3224
  734MPD2    C110845   4.346   3.311  12.367 -0.5799 -0.1079  0.4395
  734MPD2    C210846   4.286   3.365  12.260 -0.3245 -0.7342  0.2187
  734MPD2    C310847   4.358   3.391  12.142  0.0174 -0.2080 -0.1440
  734MPD2    C410848   4.491   3.368  12.137 -0.1456 -0.1351 -0.1976
  734MPD2    C510849   4.552   3.311  12.244  0.4517  0.4035  0.5863
  734MPD2     H10850   4.181   3.389  12.254  0.2967  1.9147  0.0011
  734MPD2    H110851   4.559   3.390  12.055 -2.2913 -0.2719 -2.0202
  734MPD2    H210852   4.528   3.234  12.444  0.1172  3.0791  1.5426
  734MPD2    H310853   4.655   3.283  12.228  0.7945  1.2356  1.3355
  734MPD2     N10854   4.285   3.449  12.037  0.1364 -0.2812 -0.6349
  734MPD2    H510855   4.187   3.467  12.058  0.3972  0.3028  0.0576
  734MPD2    N110856   4.287   3.282  12.489  0.4752 -0.0568  0.4847
  734MPD2    H710857   4.338   3.216  12.547 -1.3562 -1.7603  0.1449
  735TMC3    C110858   4.107   3.263  12.645  0.4010  1.3070 -0.2972
  735TMC3    C210859   3.988   3.223  12.612  0.4207 -0.2122  0.2435
  735TMC3    C310860   3.966   3.089  12.578 -0.0788 -0.9573 -0.3482
  735TMC3    C410861   4.199   3.169  12.685  0.3372  0.0937  1.0835
  735TMC3    C510862   4.181   3.035  12.660  0.8710  0.0868 -0.4920
  735TMC3    C610863   4.064   2.992  12.600  0.0435 -0.1191 -0.2950
  735TMC3     C10864   4.156   3.313  12.515 -0.0054  0.1810  0.8366
  735TMC3     O10865   4.083   3.374  12.443 -0.4731  0.4594 -0.5579
  735TMC3     H10866   3.916   3.296  12.578 -0.2690  0.3076  2.8247
  735TMC3    H110867   4.296   3.199  12.724  0.1562  1.2606  0.6451
  735TMC3    H210868   4.061   2.891  12.562 -0.6319  0.1955 -1.0647
  735TMC3    C710869   4.309   2.971  12.621  0.6708 -0.2789  0.8940
  735TMC3    C810870   3.877   3.064  12.473 -0.4339 -0.4996  1.0857
  735TMC3    O110871   4.401   3.045  12.614 -0.2145 -0.4885 -0.0476
  735TMC3    O210872   3.820   2.953  12.463  0.1543  0.1393 -0.3123
  736MPD2     C10873   4.375   2.634  12.505  0.6853  0.3510 -0.4217
  736MPD2    C110874   4.396   2.762  12.516 -0.3462 -0.0852 -0.7125
  736MPD2    C210875   4.503   2.824  12.452  0.3493 -0.0788 -0.2491
  736MPD2    C310876   4.583   2.753  12.361  0.6319  0.2632 -0.8502
  736MPD2    C410877   4.544   2.620  12.341  0.1673 -0.3352  0.4740
  736MPD2    C510878   4.451   2.558  12.414  0.8220  0.0874 -0.3997
  736MPD2     H10879   4.515   2.930  12.469 -0.9572 -0.1074  0.9131
  736MPD2    H110880   4.598   2.556  12.271  2.4907  1.1620  0.8963
  736MPD2    H210881   4.292   2.585  12.554  1.9631 -0.9029  0.4945
  736MPD2    H310882   4.435   2.452  12.399 -0.8384  0.3846 -0.7465
  736MPD2     N10883   4.693   2.800  12.286 -0.8875 -0.0168  0.0406
  736MPD2    H510884   0.015   2.733  12.225 -1.6982  0.4267 -1.0281
  736MPD2    N110885   4.301   2.835  12.591 -0.2790 -0.2079 -0.0059
  736MPD2    H710886   4.218   2.789  12.625 -2.1596  0.8577 -3.1701
  737TMC3    C110887   0.134   2.941  12.210 -0.2674 -0.6344 -0.0420
  737TMC3    C210888   0.134   3.061  12.157  0.5162 -0.4636 -0.1460
  737TMC3    C310889   0.189   3.071  12.029 -0.4806  0.1958  0.0356
  737TMC3    C410890   0.177   2.829  12.147  0.4528  0.2511 -0.3345
  737TMC3    C510891   0.231   2.842  12.026 -0.4407  0.0185 -0.2844
  737TMC3    C610892   0.242   2.964  11.963 -0.1168 -0.4401  0.0789
  737TMC3     C10893   0.020   2.930  12.301 -0.0402 -0.7482  0.2457
  737TMC3     O10894   4.702   3.027  12.369  0.1212  0.1661  0.0767
  737TMC3     H10895   0.101   3.150  12.209  2.1578 -0.7094  1.3020
  737TMC3    H110896   0.195   2.737  12.202  1.5303  0.2827 -0.6444
  737TMC3    H210897   0.262   2.975  11.857  1.5614 -0.8389  0.3584
  737TMC3    C710898   0.275   2.725  11.951 -0.0668  0.2460  0.1892
  737TMC3    C810899   0.179   3.210  11.971  0.2758  0.2758 -0.1678
  737TMC3    O110900   0.242   2.615  11.998 -0.1744  0.1995  0.0377
  737TMC3    O210901   0.152   3.305  12.044 -0.0396 -0.2939  0.1235
  738MPD2     C10902   4.602   1.539  15.934  0.1184 -0.4189 -0.4428
  738MPD2    C110903   4.601   1.577  15.799 -0.4785  0.6297 -0.1255
  738MPD2    C210904   4.700   1.654  15.746 -0.0187 -0.1431  0.2591
  738MPD2    C310905   0.083   1.700  15.834  0.1620  0.3050 -0.1631
  738MPD2    C410906   0.088   1.660  15.966 -0.8817 -0.7733 -0.0638
  738MPD2    C510907   4.706   1.585  16.018 -0.6443  0.2101  0.7263
  738MPD2     H10908   4.698   1.688  15.643 -0.5449  0.2817  0.4119
  738MPD2    H110909   0.164   1.697  16.033 -3.6894 -1.9440  3.7921
  738MPD2    H210910   4.515   1.488  15.976  0.0915 -0.2500 -0.2970
  738MPD2    H310911   4.703   1.540  16.117  0.8052 -0.7821  0.3125
  738MPD2     N10912   0.189   1.785  15.793 -1.3000 -0.3160  0.4225
  738MPD2    H510913   0.250   1.811  15.870 -0.1076 -1.5025 -0.1349
  738MPD2    N110914   4.499   1.548  15.708 -0.1991 -0.0293 -0.4217
  738MPD2    H710915   4.492   1.596  15.619 -2.0227  1.0121  0.2907
  739TMC3    C110916   0.311   1.932  15.668  1.0309  0.4654  0.2285
  739TMC3    C210917   0.318   1.986  15.543 -0.3766  0.1707 -0.2548
  739TMC3    C310918   0.437   1.962  15.470 -0.4799 -0.6663 -0.0013
  739TMC3    C410919   0.418   1.864  15.729 -0.0826 -0.3935  0.2574
  739TMC3    C510920   0.533   1.858  15.659  0.0489  0.2363 -0.6609
  739TMC3    C610921   0.538   1.894  15.527 -0.1506  0.0537  0.0257
  739TMC3     C10922   0.192   1.857  15.683  0.2449  0.1671 -0.1591
  739TMC3     O10923   0.107   1.857  15.598  0.0066 -0.9327  0.1188
  739TMC3     H10924   0.232   2.032  15.496 -1.1401 -0.0976  0.8887
  739TMC3    H110925   0.415   1.839  15.835 -0.1724  0.6658  0.5048
  739TMC3    H210926   0.624   1.870  15.465 -0.7744  0.4955 -1.0019
  739TMC3    C710927   0.629   1.765  15.719  0.3928 -0.1191  0.2487
  739TMC3    C810928   0.440   2.018  15.335  0.6654 -0.7507  0.8482
  739TMC3    O110929   0.591   1.686  15.801 -0.3477 -0.1572 -0.4523
  739TMC3    O210930   0.340   2.075  15.291  0.1092  0.2509  0.6747
  740TMC3    C110931   0.789   3.303  14.917 -0.0028  0.2855  0.7253
  740TMC3    C210932   0.837   3.297  15.044 -0.1824 -0.6044  0.3111
  740TMC3    C310933   0.973   3.265  15.054  0.0885  0.6913  0.0623
  740TMC3    C410934   0.874   3.306  14.808  0.2244 -0.3294  0.1460
  740TMC3    C510935   1.007   3.282  14.828  0.0955  0.0797 -0.3735
  740TMC3    C610936   1.057   3.267  14.946 -0.3516 -0.1360 -0.6316
  740TMC3     C10937   0.655   3.351  14.898 -0.7617 -0.2361  0.1714
  740TMC3     O10938   0.612   3.414  14.802  0.5392 -0.6516  0.0548
  740TMC3     H10939   0.790   3.315  15.140 -1.5650 -0.0389 -0.4743
  740TMC3    H110940   0.831   3.324  14.711 -0.8449  0.3640  0.7495
  740TMC3    H210941   1.164   3.253  14.954 -0.2866 -0.1167 -1.4325
  740TMC3    C710942   1.085   3.231  14.722 -0.5731  0.6399  0.4309
  740TMC3    C810943   1.040   3.263  15.186  0.0974 -0.2377 -0.2382
  740TMC3    O110944   1.167   3.146  14.756  0.5360  0.5725 -0.3977
  740TMC3    O210945   1.138   3.184  15.183 -0.1836  0.0808 -0.0566
  741TMC3    C110946   0.625   2.510  15.177 -0.4019 -0.2366 -0.3428
  741TMC3    C210947   0.500   2.507  15.126 -0.4602  0.4302  0.2344
  741TMC3    C310948   0.399   2.440  15.188  0.2692 -0.6023  0.2527
  741TMC3    C410949   0.651   2.434  15.287  0.1022  0.1302 -0.0989
  741TMC3    C510950   0.546   2.378  15.353 -0.4494 -0.2511  0.3593
  741TMC3    C610951   0.416   2.383  15.309  0.2907 -0.1247  0.6356
  741TMC3     C10952   0.730   2.536  15.073  0.2502 -0.1753  0.1728
  741TMC3     O10953   0.698   2.584  14.960  0.3155 -0.1250 -0.3351
  741TMC3     H10954   0.488   2.543  15.025  2.0209  0.0347 -0.2149
  741TMC3    H110955   0.747   2.430  15.337 -0.1773  3.9608  0.7109
  741TMC3    H210956   0.331   2.359  15.372 -1.0203  0.8668 -0.7536
  741TMC3    C710957   0.563   2.322  15.485  0.1573 -0.9216  0.0436
  741TMC3    C810958   0.280   2.420  15.116 -0.8844  0.0899 -0.2949
  741TMC3    O110959   0.643   2.233  15.499 -0.1295 -0.3909  0.4499
  741TMC3    O210960   0.252   2.503  15.027 -0.0155  0.1198 -0.2174
  742TMC3    C110961   0.037   1.021  15.993  0.1039  0.4990  0.2139
  742TMC3    C210962   4.668   0.988  15.897 -0.1009  1.0846 -0.5127
  742TMC3    C310963   4.713   0.912  15.787  0.1021 -0.4623  0.2797
  742TMC3    C410964   0.155   0.963  16.004 -0.0723 -0.4997  0.6317
  742TMC3    C510965   0.195   0.892  15.893 -0.5069  0.2868 -1.0424
  742TMC3    C610966   0.119   0.872  15.783 -0.0853  0.0417  0.0614
  742TMC3     C10967   0.001   1.097  16.109  0.3146  0.1701 -0.4936
  742TMC3     O10968   0.084   1.100  16.196  0.1858  0.0697  0.8684
  742TMC3     H10969   4.562   0.987  15.917  0.3512 -2.3602  1.5978
  742TMC3    H110970   0.217   0.979  16.091 -0.5768 -0.1380  0.9229
  742TMC3    H210971   0.155   0.822  15.694  1.6539 -0.5188  1.0907
  742TMC3    C710972   0.331   0.854  15.887 -0.0399 -0.0618 -0.2862
  742TMC3    C810973   4.631   0.881  15.673  0.4369 -1.0471  0.1686
  742TMC3    O110974   0.385   0.861  15.776 -0.0792 -0.1622 -0.7398
  742TMC3    O210975   4.664   0.785  15.605 -0.3208  0.0209 -0.3330
  743MPD2     C10976   4.062   1.934   1.883  0.1891  1.0638 -0.7368
  743MPD2    C110977   4.093   1.948   1.750  0.1857  0.6603  0.5662
  743MPD2    C210978   4.188   2.045   1.720 -0.4753 -1.4773 -0.3935
  743MPD2    C310979   4.263   2.114   1.815  0.7061 -0.1919  0.5794
  743MPD2    C410980   4.228   2.093   1.948 -0.4915 -0.3329 -0.6345
  743MPD2    C510981   4.133   1.997   1.985 -0.0455  0.3640  0.5472
  743MPD2     H10982   4.212   2.068   1.617  1.2973 -1.8226 -0.0554
  743MPD2    H110983   4.285   2.143   2.025 -1.0447 -0.2818 -0.2583
  743MPD2    H210984   3.984   1.864   1.912  0.3644  0.2483 -2.2456
  743MPD2    H310985   4.122   1.960   2.086  1.1066  0.1501  0.5984
  743MPD2     N10986   4.370   2.195   1.769 -0.2228  0.8933  0.1150
  743MPD2    H510987   4.399   2.193   1.672  1.3603  0.6176  0.6022
  743MPD2    N110988   4.017   1.871   1.659  0.1258 -0.0011  0.4619
  743MPD2    H710989   3.962   1.792   1.692 -1.8092  0.3032 -2.0827
  744TMC3    C110990   3.947   1.784   1.454  0.6279  0.0657 -0.0727
  744TMC3    C210991   3.905   1.673   1.528  0.0964 -0.2516  0.2324
  744TMC3    C310992   3.819   1.599   1.454  0.0392  0.8878 -0.3854
  744TMC3    C410993   3.911   1.822   1.325  0.1495  0.4103  0.0614
  744TMC3    C510994   3.825   1.738   1.259  0.2736 -0.1146  0.3281
  744TMC3    C610995   3.783   1.628   1.324 -0.6153 -0.1839  0.5529
  744TMC3     C10996   4.022   1.889   1.518  0.1047  0.3342  0.7034
  744TMC3     O10997   4.066   1.983   1.454  0.5630  0.2034  0.1399
  744TMC3     H10998   3.957   1.637   1.616 -1.0202  1.3057  1.5404
  744TMC3    H110999   3.940   1.919   1.286 -0.5666  0.8126  0.5192
  744TMC3    H211000   3.700   1.569   1.286 -1.0206  0.1670  0.8761
  744TMC3    C711001   3.753   1.769   1.135  0.0883 -0.7268  0.1240
  744TMC3    C811002   3.757   1.479   1.515 -0.4425  0.7712 -0.2000
  744TMC3    O111003   3.795   1.853   1.057 -0.3489  0.0353 -0.1551
  744TMC3    O211004   3.683   1.420   1.441 -0.1920  0.1097 -0.5786
  745TMC3    C111005   0.658   0.880  13.953 -0.3372 -0.2156  0.3438
  745TMC3    C211006   0.584   0.847  14.061  0.3387 -0.0230  0.2129
  745TMC3    C311007   0.449   0.858  14.066 -0.3418  0.0277  0.3236
  745TMC3    C411008   0.589   0.898  13.840  0.1545 -0.5525 -0.3345
  745TMC3    C511009   0.446   0.913  13.849 -0.4443  0.3796  0.0806
  745TMC3    C611010   0.378   0.899  13.960 -0.3902  0.2905 -0.1039
  745TMC3     C11011   0.800   0.869  13.952  0.7004 -0.0326 -0.1438
  745TMC3     O11012   0.851   0.777  14.017  0.4552 -0.1495  0.6793
  745TMC3     H11013   0.638   0.807  14.146 -2.8755 -1.6060  1.5216
  745TMC3    H111014   0.646   0.920  13.750  0.0914 -0.6666 -0.4020
  745TMC3    H211015   0.274   0.925  13.970 -0.9211 -1.0316 -2.0900
  745TMC3    C711016   0.377   0.970  13.738 -1.2334 -0.0353  0.0383
  745TMC3    C811017   0.402   0.892  14.205  1.0052  0.2016 -0.2482
  745TMC3    O111018   0.258   0.967  13.724  0.1313  0.5207  0.1744
  745TMC3    O211019   0.287   0.925  14.220 -0.0092 -0.3513  0.0909
  746TMC3    C111020   3.315   2.610  11.237  0.4989  0.5077  0.3932
  746TMC3    C211021   3.404   2.609  11.132  0.5450  0.0203 -0.0519
  746TMC3    C311022   3.430   2.490  11.078 -1.0529  0.1765  0.7833
  746TMC3    C411023   3.254   2.495  11.293 -0.7167  0.0561 -0.6372
  746TMC3    C511024   3.289   2.378  11.232 -0.5294  0.2804 -0.8186
  746TMC3    C611025   3.375   2.375  11.121  0.5442 -0.4510  0.2837
  746TMC3     C11026   3.284   2.739  11.295  0.5426  0.1298  0.4779
  746TMC3     O11027   3.186   2.737  11.374 -0.0768  0.1405  0.4125
  746TMC3     H11028   3.435   2.701  11.085 -0.5304  0.4902  0.1768
  746TMC3    H111029   3.185   2.498  11.377 -0.5654  0.8897 -0.5406
  746TMC3    H211030   3.397   2.283  11.067  0.9458  1.1943 -2.3388
  746TMC3    C711031   3.198   2.262  11.238  0.5679  0.0826 -0.2548
  746TMC3    C811032   3.480   2.496  10.948  0.5343 -0.0940 -0.0844
  746TMC3    O111033   3.219   2.176  11.155 -0.3505 -0.4356  0.5030
  746TMC3    O211034   3.592   2.540  10.937  0.2323 -0.7624  0.4057
  747TMC3    C111035   0.986   2.675  11.179 -0.2429  0.5035  0.0145
  747TMC3    C211036   0.877   2.602  11.226  0.5318  0.2846  0.0189
  747TMC3    C311037   0.861   2.591  11.360 -0.1820  0.4533 -0.4527
  747TMC3    C411038   1.072   2.733  11.272  0.2340 -0.3738 -0.7081
  747TMC3    C511039   1.054   2.709  11.405 -0.1480  0.3303 -0.8853
  747TMC3    C611040   0.952   2.633  11.451 -0.1507 -0.1732 -0.0363
  747TMC3     C11041   0.980   2.724  11.043 -0.0311 -0.3723  0.0167
  747TMC3     O11042   1.044   2.825  11.024 -0.0207 -0.0646  0.0841
  747TMC3     H11043   0.806   2.553  11.161 -0.3883  1.3717  0.1923
  747TMC3    H111044   1.151   2.795  11.231 -0.2884 -0.1460 -1.3680
  747TMC3    H211045   0.945   2.613  11.557  0.9307  1.8214  0.4002
  747TMC3    C711046   1.159   2.745  11.497  0.3367  0.1343  0.3904
  747TMC3    C811047   0.743   2.535  11.415  0.3318  0.6239  0.0016
  747TMC3    O111048   1.123   2.743  11.611 -0.3786  0.3330  0.1369
  747TMC3    O211049   0.686   2.451  11.344  0.4540  0.0366  0.4914
  748MPD2     C11050   2.092   3.099   2.179  0.1376 -0.3741 -0.1396
  748MPD2    C111051   2.183   2.996   2.194 -0.5158 -0.3530  0.1203
  748MPD2    C211052   2.307   3.020   2.150 -0.3428 -0.0581  0.3413
  748MPD2    C311053   2.351   3.132   2.095 -0.4017 -0.1686 -0.3440
  748MPD2    C411054   2.263   3.241   2.091 -0.4102  0.8704 -0.9249
  748MPD2    C511055   2.137   3.223   2.136 -0.1497  0.9133 -0.1730
  748MPD2     H11056   2.371   2.933   2.144  0.7339  0.4816  3.8534
  748MPD2    H111057   2.296   3.339   2.059 -0.2397  0.8068 -0.9405
  748MPD2    H211058   1.987   3.085   2.198  0.0607  2.2897  1.4401
  748MPD2    H311059   2.071   3.309   2.137  0.2526  1.2372 -1.5976
  748MPD2     N11060   2.481   3.142   2.036  0.6105 -0.2599  0.0697
  748MPD2    H511061   2.544   3.066   2.054  1.5991 -0.1958 -3.0670
  748MPD2    N111062   2.153   2.861   2.227  0.3990 -0.1930  0.1032
  748MPD2    H711063   2.230   2.797   2.243  0.7467  0.1380 -0.2661
  749TMC3    C111064   2.663   3.252   1.929 -0.2512 -0.0334 -0.5141
  749TMC3    C211065   2.754   3.177   2.003  0.3121  0.7380 -0.7420
  749TMC3    C311066   2.887   3.176   1.956 -0.0413 -0.8234 -0.3145
  749TMC3    C411067   2.705   3.328   1.825  0.2679 -0.3378 -0.6191
  749TMC3    C511068   2.833   3.322   1.784  0.3568  0.7228 -0.5722
  749TMC3    C611069   2.935   3.257   1.857  0.5173  0.3917 -0.6450
  749TMC3     C11070   2.523   3.241   1.956 -0.5596  0.3075  0.0644
  749TMC3     O11071   2.463   3.333   1.903 -0.4735 -0.2734 -0.3255
  749TMC3     H11072   2.731   3.116   2.089 -3.9160 -0.0100 -2.3970
  749TMC3    H111073   2.630   3.380   1.766  0.4406  0.4459 -0.1517
  749TMC3    H211074   3.042   3.248   1.839  0.6925 -1.0926  1.1138
  749TMC3    C711075   2.877   3.427   1.688  0.2801  0.0832 -0.1765
  749TMC3    C811076   2.973   3.085   2.022  0.1284 -0.2453  0.1138
  749TMC3    O111077   2.833   3.540   1.711 -0.1240  0.1526 -0.7805
  749TMC3    O211078   2.952   3.061   2.140  0.2544 -0.1883  0.0756
  750MPD2     C11079   3.353   4.561  11.751 -0.6215 -0.0430  0.0375
  750MPD2    C111080   3.230   4.544  11.694  0.6674  0.1056  0.1586
  750MPD2    C211081   3.206   4.437  11.607  0.2705  0.6120  0.0561
  750MPD2    C311082   3.312   4.354  11.562 -0.2722 -0.3762  0.2996
  750MPD2    C411083   3.440   4.382  11.617 -0.4139 -0.1928  0.4896
  750MPD2    C511084   3.457   4.483  11.709  0.3587  0.0222 -0.6460
  750MPD2     H11085   3.108   4.427  11.561  0.0612 -3.1144  1.2955
  750MPD2    H111086   3.523   4.319  11.589  0.9230  1.3812  0.9338
  750MPD2    H211087   3.384   4.629  11.829 -0.2044  1.4754 -1.4700
  750MPD2    H311088   3.557   4.499  11.748  0.4943 -0.9430 -0.6090
  750MPD2     N11089   3.289   4.247  11.472 -0.0704 -0.4998 -0.8025
  750MPD2    H511090   3.375   4.202  11.442 -1.1094 -2.7983 -0.3398
  750MPD2    N111091   3.131   4.636  11.741 -0.6697 -0.5706  0.4752
  750MPD2    H711092   3.170   4.692  11.817  0.9225  0.7455 -1.3166
  751TMC3    C111093   3.170   4.071  11.377  0.3384 -0.2271  0.0484
  751TMC3    C211094   3.067   3.975  11.394  0.3161 -0.8732 -0.0817
  751TMC3    C311095   3.067   3.874  11.291 -0.1575 -0.2337 -0.2920
  751TMC3    C411096   3.257   4.081  11.263 -0.0837  0.7115 -0.8125
  751TMC3    C511097   3.246   3.980  11.164  0.5157 -0.1031  0.7725
  751TMC3    C611098   3.156   3.875  11.185 -0.3031 -0.1884  0.2651
  751TMC3     C11099   3.170   4.178  11.469  0.1688 -0.3913 -0.5977
  751TMC3     O11100   3.065   4.199  11.529 -0.5822  0.1270 -0.0086
  751TMC3     H11101   3.018   3.969  11.490  1.6043 -3.1319  0.4336
  751TMC3    H111102   3.317   4.167  11.237  2.0593 -0.4166  0.3832
  751TMC3    H211103   3.134   3.809  11.102  1.5563  1.9737 -1.9003
  751TMC3    C711104   3.319   3.985  11.038 -0.0365 -0.0166  0.3260
  751TMC3    C811105   2.980   3.761  11.313  0.4508  0.5303  0.7296
  751TMC3    O111106   3.280   3.919  10.944 -0.0043  0.0086 -0.2061
  751TMC3    O211107   2.999   3.659  11.250  0.8848 -0.1536 -0.1876
  752TMC3    C111108   1.796   4.712  17.386  1.0970  0.7718 -0.1309
  752TMC3    C211109   1.742   4.620  17.475  1.1651 -0.2900  0.1769
  752TMC3    C311110   1.713   4.659  17.603  0.0413  0.2365 -0.1138
  752TMC3    C411111   1.828   0.116  17.429  0.0736  0.3273 -0.2919
  752TMC3    C511112   1.808   0.143  17.563 -0.8146 -0.0972 -0.3692
  752TMC3    C611113   1.748   0.060  17.649 -0.0035 -0.9887  0.1390
  752TMC3     C11114   1.799   4.695  17.241 -0.3032 -0.6222 -0.0089
  752TMC3     O11115   1.884   0.022  17.167  0.2191 -0.0166 -0.1602
  752TMC3     H11116   1.725   4.517  17.444  0.5923 -0.2111  0.2287
  752TMC3    H111117   1.877   0.177  17.354 -0.7820 -0.2462 -1.3334
  752TMC3    H211118   1.754   0.081   0.060 -0.7067  2.7586 -0.5667
  752TMC3    C711119   1.898   0.243  17.626 -0.5181 -0.0403  0.6781
  752TMC3    C811120   1.649   4.573   0.010 -0.6460  0.2798  0.6325
  752TMC3    O111121   1.940   0.224   0.047  0.6103 -0.0060 -0.1018
  752TMC3    O211122   1.647   4.604   0.128  0.0636  0.0146  0.0345
  753TMC3    C111123   3.808   1.245  13.570  0.3131  0.2751 -0.0052
  753TMC3    C211124   3.768   1.222  13.699  0.0210 -0.0130  0.8261
  753TMC3    C311125   3.697   1.105  13.715  0.0947 -0.1713  1.0068
  753TMC3    C411126   3.773   1.176  13.457  0.6323 -0.0741 -0.6920
  753TMC3    C511127   3.705   1.059  13.485 -0.2556  0.1754 -0.2972
  753TMC3    C611128   3.657   1.028  13.605 -0.1260 -0.2314 -0.2480
  753TMC3     C11129   3.903   1.351  13.552 -0.0861 -0.4983 -1.0796
  753TMC3     O11130   3.930   1.395  13.440 -0.1849 -0.2502  0.3123
  753TMC3     H11131   3.785   1.291  13.781  0.5249  1.1306 -0.2330
  753TMC3    H111132   3.808   1.190  13.355  0.6464  0.3453 -0.6278
  753TMC3    H211133   3.594   0.941  13.618 -2.4663  1.5413  0.1792
  753TMC3    C711134   3.673   0.975  13.377 -0.3277 -0.0781 -0.6386
  753TMC3    C811135   3.658   1.068  13.842 -0.0534  0.0051  0.3878
  753TMC3    O111136   3.677   1.024  13.265 -0.5010 -0.0720 -0.0268
  753TMC3    O211137   3.542   1.030  13.857 -0.4216  0.0444  0.2990
  754MPD2     C11138   2.774   3.785  13.609 -0.8084 -0.2816 -0.3852
  754MPD2    C111139   2.716   3.702  13.524 -0.0264  0.1964  0.0628
  754MPD2    C211140   2.634   3.761  13.426 -0.0558 -0.9048 -0.5959
  754MPD2    C311141   2.602   3.894  13.415 -0.2147  0.2941  0.2406
  754MPD2    C411142   2.663   3.970  13.507  0.3184  0.1623 -0.5770
  754MPD2    C511143   2.747   3.920  13.604  0.0460 -0.3422  0.2973
  754MPD2     H11144   2.597   3.707  13.340 -1.5386 -0.6812 -0.0917
  754MPD2    H111145   2.645   4.077  13.510 -2.5660 -0.3707  0.5520
  754MPD2    H211146   2.839   3.756  13.692 -1.8969  0.4017  0.7026
  754MPD2    H311147   2.795   3.985  13.677 -1.2628 -0.5222  1.3260
  754MPD2     N11148   2.513   3.946  13.315  0.5082  0.5925 -0.5798
  754MPD2    H511149   2.508   4.047  13.311 -0.4780  0.5070 -1.6055
  754MPD2    N111150   2.739   3.565  13.543  0.3205  0.8974  0.0666
  754MPD2    H711151   2.830   3.539  13.579 -0.8096 -1.3503  1.3046
  755MPD2     C11152   1.559   4.097  13.182 -0.5876  0.2978 -0.0731
  755MPD2    C111153   1.656   4.153  13.261  0.4138  0.0006  0.0095
  755MPD2    C211154   1.785   4.119  13.230 -0.2695 -0.8263 -0.4894
  755MPD2    C311155   1.815   4.046  13.116 -0.8622 -0.3967 -0.1180
  755MPD2    C411156   1.721   3.987  13.040 -0.4399 -0.0755  0.5014
  755MPD2    C511157   1.591   4.008  13.080  0.5735 -0.5314 -0.8367
  755MPD2     H11158   1.864   4.156  13.295 -1.2234  1.0353 -0.3958
  755MPD2    H111159   1.735   3.935  12.946 -3.6715  1.5474 -0.8898
  755MPD2    H211160   1.454   4.103  13.208 -1.4829 -1.0397 -3.3936
  755MPD2    H311161   1.512   3.963  13.021  1.2647 -0.3890 -1.8847
  755MPD2     N11162   1.951   4.026  13.073 -0.3274  0.4163  0.1831
  755MPD2    H511163   1.966   3.959  12.998 -2.7299 -0.1522  0.2110
  755MPD2    N111164   1.635   4.227  13.386  0.1204 -0.2113 -0.6646
  755MPD2    H711165   1.723   4.238  13.435 -0.5513 -1.2840  0.7792
  756MPD2     C11166   2.901   4.426   9.638 -0.7411  0.0330 -0.0120
  756MPD2    C111167   2.830   4.519   9.713  0.5695  0.6030 -0.0266
  756MPD2    C211168   2.755   4.616   9.648  0.2170  0.3600 -0.5241
  756MPD2    C311169   2.752   4.620   9.510 -0.0653 -1.0714  0.6148
  756MPD2    C411170   2.827   4.530   9.436 -0.0642 -0.0717  0.2329
  756MPD2    C511171   2.909   4.439   9.499  0.2500 -0.5227 -0.0970
  756MPD2     H11172   2.699   4.694   9.698  1.1553  0.1612  0.8093
  756MPD2    H111173   2.823   4.526   9.328 -3.8674  0.7184  0.3416
  756MPD2    H211174   2.956   4.338   9.669 -1.0687 -0.1275  0.1198
  756MPD2    H311175   2.973   4.372   9.444  0.7986 -0.2662  0.2351
  756MPD2     N11176   2.660   4.710   9.452 -0.3278  0.4470 -0.1378
  756MPD2    H511177   2.616   0.055   9.514 -1.7850 -1.4735  0.9139
  756MPD2    N111178   2.839   4.526   9.854  0.2657 -0.2122 -0.7624
  756MPD2    H711179   2.790   4.597   9.907  0.0965  0.8838 -2.4228
  757MPD2     C11180   1.845   4.295   9.345  0.1160  0.4283  0.2056
  757MPD2    C111181   1.975   4.248   9.364 -0.2590  0.3049  1.1971
  757MPD2    C211182   2.076   4.345   9.338  0.1868 -0.7119  0.7327
  757MPD2    C311183   2.045   4.475   9.299 -0.5805  0.0901 -0.0094
  757MPD2    C411184   1.915   4.519   9.284 -0.1044  0.2077 -0.3388
  757MPD2    C511185   1.817   4.426   9.315 -0.6894  0.7320  0.2341
  757MPD2     H11186   2.180   4.326   9.361  1.0659  2.2134 -0.8999
  757MPD2    H111187   1.878   4.616   9.253  0.7032  0.6528  0.1048
  757MPD2    H211188   1.765   4.224   9.366 -0.9970  1.0714 -1.9789
  757MPD2    H311189   1.713   4.452   9.298 -0.0101  1.5405 -2.6532
  757MPD2     N11190   2.155   4.569   9.295 -0.5266 -0.8048  0.0688
  757MPD2    H511191   2.251   4.538   9.305  0.1016  1.0233 -0.2371
  757MPD2    N111192   2.002   4.108   9.398 -0.2899 -1.0255  0.1854
  757MPD2    H711193   1.923   4.046   9.408  0.7564 -2.6270 -1.6180
  758MPD2     C11194   2.384   3.662  16.035  0.0128  0.1049 -0.2809
  758MPD2    C111195   2.461   3.616  16.133 -0.1111 -0.1814 -0.1763
  758MPD2    C211196   2.431   3.637  16.263  0.1551 -0.1322  0.9404
  758MPD2    C311197   2.319   3.712  16.294  0.4927  0.3093  0.3571
  758MPD2    C411198   2.240   3.761  16.198  0.4602  0.5932 -0.3991
  758MPD2    C511199   2.277   3.741  16.069  0.4874  0.2304 -0.0316
  758MPD2     H11200   2.491   3.593  16.342 -2.7516  0.9899  3.7863
  758MPD2    H111201   2.152   3.823  16.213  0.6460  0.5001  1.1310
  758MPD2    H211202   2.415   3.648  15.932  1.9337 -0.0232  0.3142
  758MPD2    H311203   2.210   3.776  15.991  3.1958  0.8664 -2.0554
  758MPD2     N11204   2.282   3.732  16.423 -0.1803  0.0331  0.5519
  758MPD2    H511205   2.189   3.770  16.437 -0.4624 -0.4876  0.0675
  758MPD2    N111206   2.582   3.545  16.094 -0.4666 -0.5407 -0.3918
  758MPD2    H711207   2.604   3.550  15.995  0.2974 -0.7911 -0.2322
  759MPD2     C11208   1.973   1.700   9.820  0.0866 -0.2604 -0.2531
  759MPD2    C111209   1.895   1.741   9.717  0.3076 -0.2700  0.8842
  759MPD2    C211210   1.925   1.858   9.656  0.0690 -1.0207  0.0241
  759MPD2    C311211   2.038   1.932   9.695  0.2971  0.1375 -0.4618
  759MPD2    C411212   2.110   1.888   9.800  0.0529 -0.3509  0.4787
  759MPD2    C511213   2.075   1.773   9.863  0.2435  0.3618 -0.4121
  759MPD2     H11214   1.863   1.890   9.573  0.2210 -0.8760 -0.0324
  759MPD2    H111215   2.207   1.933   9.820  0.5409 -0.9913 -0.4254
  759MPD2    H211216   1.958   1.609   9.877  2.5843  1.0509  2.4588
  759MPD2    H311217   2.133   1.741   9.949 -0.2990  1.3226  0.3203
  759MPD2     N11218   2.074   2.042   9.619 -0.0887  0.4030 -0.9524
  759MPD2    H511219   2.027   2.051   9.529 -0.9796 -0.2952 -0.5577
  759MPD2    N111220   1.781   1.660   9.667  0.0068 -0.0319  0.0670
  759MPD2    H711221   1.716   1.700   9.601 -0.0921  0.8257  0.6908
  760MPD2     C11222   1.168   4.528  11.965 -0.2325  0.5031  0.6915
  760MPD2    C111223   1.305   4.511  11.963  0.2023  0.1343 -0.2132
  760MPD2    C211224   1.361   4.398  12.019  0.4833  0.0888  0.1852
  760MPD2    C311225   1.275   4.296  12.054 -0.0104 -0.2533  0.6345
  760MPD2    C411226   1.139   4.322  12.070 -0.3699 -0.1012  0.3865
  760MPD2    C511227   1.088   4.439  12.029  0.3858 -0.6636  0.0469
  760MPD2     H11228   1.469   4.392  12.025  0.6262 -0.2551 -2.9219
  760MPD2    H111229   1.078   4.242  12.112 -2.2454  1.1805  0.1210
  760MPD2    H211230   1.122   4.620  11.929 -0.0412  0.9325  1.5360
  760MPD2    H311231   0.984   4.467  12.035  0.2949 -1.3434  1.7012
  760MPD2     N11232   1.324   4.178  12.108 -0.2104 -0.4047  0.1000
  760MPD2    H511233   1.256   4.113  12.145 -1.7998 -0.8488 -3.5554
  760MPD2    N111234   1.391   4.619  11.933 -0.0733 -0.0025  0.7196
  760MPD2    H711235   1.488   4.614  11.960  0.4341  0.4089 -1.0456
  761MPD2     C11236   2.496   3.627  11.450 -0.6478 -0.3431 -0.1954
  761MPD2    C111237   2.593   3.557  11.381 -0.5842 -0.7805 -0.6318
  761MPD2    C211238   2.721   3.613  11.369 -0.0176 -0.3174  0.5771
  761MPD2    C311239   2.752   3.735  11.417 -0.1176  0.2240  0.3423
  761MPD2    C411240   2.652   3.803  11.491  0.1364  0.1692 -0.1734
  761MPD2    C511241   2.527   3.747  11.508  0.9340  0.5945 -0.4273
  761MPD2     H11242   2.786   3.554  11.304 -2.8587 -1.8167 -0.8902
  761MPD2    H111243   2.665   3.895  11.547 -2.1710  0.1669  0.3837
  761MPD2    H211244   2.393   3.591  11.449 -0.5293 -0.6885  0.0652
  761MPD2    H311245   2.445   3.806  11.547  0.7855 -0.0902  0.2764
  761MPD2     N11246   2.878   3.805  11.391  0.0087  0.0042  0.0681
  761MPD2    H511247   2.890   3.896  11.433 -0.2772 -0.5844  1.4151
  761MPD2    N111248   2.549   3.445  11.309  1.0137  0.2523 -0.0784
  761MPD2    H711249   2.459   3.405  11.331  0.5250  1.9347  0.9976
  762MPD2     C11250   2.348   2.843  10.636 -0.4698  0.7162 -0.1461
  762MPD2    C111251   2.465   2.896  10.688 -0.3195  0.7711  0.3286
  762MPD2    C211252   2.581   2.893  10.612 -0.2295 -0.0580  0.7854
  762MPD2    C311253   2.581   2.829  10.487  0.3946  0.8661  0.6098
  762MPD2    C411254   2.464   2.773  10.438 -0.1096  0.5847 -0.3486
  762MPD2    C511255   2.349   2.786  10.510 -0.5091  0.8421 -0.1099
  762MPD2     H11256   2.677   2.929  10.648 -0.6517  1.1480  0.7276
  762MPD2    H111257   2.460   2.735  10.337  2.5666 -0.9437  0.1150
  762MPD2    H211258   2.260   2.845  10.699  0.0074 -0.4592  0.5537
  762MPD2    H311259   2.265   2.744  10.455 -0.4264  0.1189  0.3120
  762MPD2     N11260   2.701   2.831  10.415 -0.3332 -0.3708  0.2351
  762MPD2    H511261   2.783   2.865  10.465 -0.1715 -1.1511  0.4904
  762MPD2    N111262   2.456   2.979  10.806 -0.2455  0.1130  0.0293
  762MPD2    H711263   2.367   2.976  10.854 -0.2899  0.0301 -0.0607
  763MPD2     C11264   4.505   3.798  16.350  0.2496  0.8743  0.6340
  763MPD2    C111265   4.383   3.857  16.317  0.1500 -0.0300  0.2745
  763MPD2    C211266   4.368   3.987  16.364  0.3489  0.4727 -0.3090
  763MPD2    C311267   4.473   4.059  16.420 -0.4747 -0.0201 -0.2353
  763MPD2    C411268   4.594   3.996  16.437 -0.1790 -0.1156  0.2081
  763MPD2    C511269   4.603   3.863  16.416  0.0257  0.2438  0.4949
  763MPD2     H11270   4.273   4.037  16.348  0.7241  1.1519 -0.3981
  763MPD2    H111271   4.683   4.040  16.479  0.3166 -1.0644  0.1602
  763MPD2    H211272   4.518   3.692  16.336  0.0082  0.4839  3.4006
  763MPD2    H311273   4.692   3.803  16.431  0.3417  0.8517  1.0571
  763MPD2     N11274   4.460   4.187  16.479  0.6443  0.1174  0.1090
  763MPD2    H511275   4.547   4.212  16.523 -0.8243  2.3483  1.7134
  763MPD2    N111276   4.288   3.792  16.235 -0.5765 -0.6457 -0.1752
  763MPD2    H711277   4.208   3.852  16.216 -1.5061 -1.9233 -0.2722
  764MPD2     C11278   3.014   0.207   0.239  0.9242 -0.2262 -0.1196
  764MPD2    C111279   2.882   0.252   0.239  0.1304 -0.0044 -0.1860
  764MPD2    C211280   2.799   0.194   0.340  0.4428  0.3386 -0.1822
  764MPD2    C311281   2.852   0.100   0.432  0.6353 -0.4104 -0.2040
  764MPD2    C411282   2.985   0.056   0.413  0.2465 -0.0119 -0.5333
  764MPD2    C511283   3.063   0.117   0.322  0.2088  0.6319 -0.0432
  764MPD2     H11284   2.695   0.219   0.351  0.8153  1.1428  1.4908
  764MPD2    H111285   3.035   4.714   0.483  0.6620  0.8461 -0.0281
  764MPD2    H211286   3.081   0.262   0.174 -0.7846  0.6346 -1.1623
  764MPD2    H311287   3.167   0.085   0.321  0.3020  0.8871  2.2639
  764MPD2     N11288   2.771   0.050   0.538  0.2139  0.0283 -0.4354
  764MPD2    H511289   2.683   0.099   0.553 -0.7669 -1.3004 -1.9159
  764MPD2    N111290   2.828   0.341   0.145 -0.5867  0.3486  0.2145
  764MPD2    H711291   2.727   0.340   0.145 -0.5868 -0.7562 -0.5602
  765MPD2     C11292   1.737   2.944  15.836  0.6184 -0.2170  0.1917
  765MPD2    C111293   1.796   3.064  15.804 -0.1848  0.6390  0.4743
  765MPD2    C211294   1.934   3.062  15.778 -0.1582  0.0806 -0.5925
  765MPD2    C311295   2.015   2.954  15.783  0.5295 -0.7502  0.1956
  765MPD2    C411296   1.955   2.841  15.827 -0.5179  0.5412 -0.4462
  765MPD2    C511297   1.821   2.839  15.847 -0.3252 -0.2064  0.3042
  765MPD2     H11298   1.979   3.154  15.743  0.9796 -0.2754 -0.0793
  765MPD2    H111299   2.004   2.744  15.832  0.6622  1.0653 -1.9477
  765MPD2    H211300   1.630   2.929  15.844  0.2548  1.5832 -1.4983
  765MPD2    H311301   1.781   2.740  15.864 -0.5182 -0.5375 -2.1079
  765MPD2     N11302   2.151   2.974  15.748 -0.3712  0.3443  0.4646
  765MPD2    H511303   2.173   3.062  15.705 -2.0071  0.7534  0.4707
  765MPD2    N111304   1.712   3.179  15.802 -0.4975  0.3999  0.4320
  765MPD2    H711305   1.611   3.172  15.802 -0.2072 -3.6740 -1.1871
  766MPD2     C11306   1.438   3.201  15.171  0.9323  0.1928 -0.4230
  766MPD2    C111307   1.539   3.282  15.208  0.2326 -0.0400  0.2246
  766MPD2    C211308   1.635   3.321  15.117 -0.1276 -0.4438 -0.2517
  766MPD2    C311309   1.629   3.282  14.985 -0.4964 -0.3933  0.3245
  766MPD2    C411310   1.517   3.217  14.947  0.4985  0.1874 -0.6755
  766MPD2    C511311   1.427   3.166  15.042 -0.0287  0.1950  0.1996
  766MPD2     H11312   1.725   3.375  15.142 -0.8161  0.1849  0.8765
  766MPD2    H111313   1.497   3.201  14.841  1.5132 -1.9505 -0.5396
  766MPD2    H211314   1.365   3.169  15.244 -1.2202 -0.6090 -2.9359
  766MPD2    H311315   1.341   3.106  15.014  0.8259 -0.9007 -0.0441
  766MPD2     N11316   1.731   3.307  14.887 -0.5482 -0.7909  0.2285
  766MPD2    H511317   1.703   3.286  14.791  1.2312 -2.1919  0.0177
  766MPD2    N111318   1.546   3.329  15.348 -0.2154  0.0548 -0.3431
  766MPD2    H711319   1.486   3.281  15.415  0.4779  1.7074  1.4720
  767MPD2     C11320   1.462   3.569  15.013  0.0936 -0.0411  0.2556
  767MPD2    C111321   1.578   3.609  14.947 -0.2930 -0.0752 -0.1005
  767MPD2    C211322   1.576   3.605  14.810 -0.4642 -0.9289 -0.6805
  767MPD2    C311323   1.469   3.554  14.740  0.1310 -0.2963  1.1235
  767MPD2    C411324   1.355   3.520  14.810 -0.0331  0.3953 -1.0008
  767MPD2    C511325   1.350   3.530  14.945  0.1337  0.0154 -0.3947
  767MPD2     H11326   1.667   3.627  14.756 -0.4096  0.3721 -0.0797
  767MPD2    H111327   1.261   3.491  14.765  0.5093  0.0937 -1.9364
  767MPD2    H211328   1.457   3.566  15.121 -1.5634 -2.5434  0.1151
  767MPD2    H311329   1.261   3.508  15.003 -0.7598  3.2833 -0.4761
  767MPD2     N11330   1.480   3.538  14.597  0.1717  0.8608 -1.0325
  767MPD2    H511331   1.573   3.554  14.560  0.2819  0.0683 -1.0852
  767MPD2    N111332   1.683   3.655  15.030  0.2413 -0.6355 -0.1857
  767MPD2    H711333   1.656   3.643  15.126  0.3031 -0.4544 -0.1446
  768MPD2     C11334   3.166   2.024  10.706 -0.1894  0.1221 -0.5199
  768MPD2    C111335   3.155   1.909  10.785 -0.0541 -0.4628 -0.0857
  768MPD2    C211336   3.271   1.872  10.859 -0.4287 -0.3365 -0.2290
  768MPD2    C311337   3.373   1.962  10.884  0.4639  0.2723  0.4669
  768MPD2    C411338   3.377   2.075  10.811  0.2108 -0.1454 -0.3106
  768MPD2    C511339   3.276   2.105  10.723  0.0181 -0.1324 -0.7589
  768MPD2     H11340   3.266   1.771  10.898 -0.8158  0.1930  1.0694
  768MPD2    H111341   3.452   2.152  10.819 -0.1662  0.0997  0.7784
  768MPD2    H211342   3.093   2.054  10.632  1.0048  1.2412 -1.2183
  768MPD2    H311343   3.276   2.199  10.667 -0.3661 -0.1268 -0.7538
  768MPD2     N11344   3.478   1.931  10.974 -0.6947  0.2445  0.0856
  768MPD2    H511345   3.539   2.009  10.998 -0.4084  0.2800 -0.7514
  768MPD2    N111346   3.036   1.827  10.783  0.2801 -0.4258  0.5067
  768MPD2    H711347   3.039   1.740  10.835  1.4733 -0.2670  0.7168
  769MPD2     C11348   3.613   4.681  15.039 -0.4657 -0.2065  0.1719
  769MPD2    C111349   3.483   4.666  15.086  0.5660 -0.6227 -0.6984
  769MPD2    C211350   3.452   4.680  15.222 -0.1617 -0.2560 -0.5946
  769MPD2    C311351   3.551   4.710  15.315  0.1930  0.0453  0.1385
  769MPD2    C411352   3.686   4.720  15.272  0.3431  0.2306 -0.0928
  769MPD2    C511353   3.712   4.705  15.133 -0.6479 -0.7216 -0.2574
  769MPD2     H11354   3.351   4.699  15.257 -0.8796 -1.5565 -1.9649
  769MPD2    H111355   3.770   0.030  15.331 -0.9176 -1.0261  2.4085
  769MPD2    H211356   3.635   4.685  14.933 -0.6635 -3.5595 -0.0101
  769MPD2    H311357   3.808   0.014  15.095 -1.2737  0.6244 -0.6772
  769MPD2     N11358   3.503   0.034  15.441  0.1228 -0.2638 -0.2842
  769MPD2    H511359   3.403   0.047  15.456 -0.2699 -2.5126 -0.9002
  769MPD2    N111360   3.387   4.657  14.980  0.3446  0.1692 -0.5534
  769MPD2    H711361   3.415   4.672  14.883  0.9417  1.2270 -0.2070
  770MPD2     C11362   2.658   4.161  14.819 -0.0820 -0.4129  0.5474
  770MPD2    C111363   2.774   4.177  14.897 -0.6753  0.1331  1.0091
  770MPD2    C211364   2.837   4.300  14.912  0.2426 -0.1702  0.0003
  770MPD2    C311365   2.782   4.411  14.852 -0.2530 -0.0738 -0.3426
  770MPD2    C411366   2.663   4.406  14.775  0.4930  0.1815 -0.6242
  770MPD2    C511367   2.603   4.279  14.766  0.3288 -0.1361  0.4592
  770MPD2     H11368   2.933   4.297  14.963  0.0899  1.7683  0.3910
  770MPD2    H111369   2.619   4.496  14.733 -0.9024 -0.5520 -0.7320
  770MPD2    H211370   2.608   4.066  14.803 -1.5334  0.3719  0.4181
  770MPD2    H311371   2.510   4.263  14.712  0.8013  1.7434 -0.9522
  770MPD2     N11372   2.858   4.536  14.861  0.5854 -1.1564 -0.4105
  770MPD2    H511373   2.938   4.529  14.923  2.4645  1.8782 -2.5000
  770MPD2    N111374   2.829   4.055  14.949  0.5507 -0.4309  0.1530
  770MPD2    H711375   2.784   3.970  14.917  0.1465 -0.0419 -0.3131
  771MPD2     C11376   4.298   2.662  13.908 -0.3381  0.1734 -0.1485
  771MPD2    C111377   4.248   2.779  13.860  0.3956 -0.0012 -0.4943
  771MPD2    C211378   4.183   2.778  13.733  0.2503  0.8072 -0.1503
  771MPD2    C311379   4.177   2.661  13.667 -0.3875 -0.4156 -0.6782
  771MPD2    C411380   4.219   2.542  13.715 -0.5848  0.1824 -0.2023
  771MPD2    C511381   4.280   2.545  13.837  0.1609  0.1339 -0.1253
  771MPD2     H11382   4.151   2.870  13.686 -0.3428  0.8950  0.4166
  771MPD2    H111383   4.205   2.442  13.675 -1.0709  0.6457 -1.1954
  771MPD2    H211384   4.360   2.660  13.997  0.3538  1.3216 -0.6025
  771MPD2    H311385   4.318   2.457  13.889  1.9414  0.4639 -0.8556
  771MPD2     N11386   4.117   2.676  13.538  0.3178  0.7417 -0.9221
  771MPD2    H511387   4.099   2.768  13.500  1.3648  1.1653 -0.4008
  771MPD2    N111388   4.265   2.900  13.936  0.3732  0.4395 -0.8123
  771MPD2    H711389   4.230   2.982  13.888  0.6313  0.9527 -0.1050
  772MPD2     C11390   3.931   3.402  14.391 -0.6813 -0.4096  0.3882
  772MPD2    C111391   3.922   3.318  14.285  0.1572 -0.3313 -0.2072
  772MPD2    C211392   3.796   3.264  14.242 -0.9681  0.5240 -0.1726
  772MPD2    C311393   3.686   3.285  14.326  0.2519  0.3618  0.6773
  772MPD2    C411394   3.700   3.352  14.442 -0.3866 -0.3285 -0.2965
  772MPD2    C511395   3.815   3.420  14.461  0.6546  0.3419 -0.2266
  772MPD2     H11396   3.791   3.214  14.146  1.3815 -0.9366  0.4618
  772MPD2    H111397   3.615   3.360  14.509 -1.0610  1.3862 -1.3622
  772MPD2    H211398   4.020   3.454  14.426 -1.3513  1.4498 -0.6788
  772MPD2    H311399   3.818   3.487  14.546 -2.8630 -0.6067  0.6839
  772MPD2     N11400   3.557   3.227  14.298  0.1758  0.1592 -0.0082
  772MPD2    H511401   3.499   3.227  14.380  1.1308 -1.7832  0.6692
  772MPD2    N111402   4.029   3.302  14.200 -0.3577  0.0877 -0.6199
  772MPD2    H711403   4.013   3.247  14.116 -2.4674 -2.4481  1.4444
  773MPD2     C11404   3.359   4.088   0.630 -0.5299  0.7045 -0.4638
  773MPD2    C111405   3.349   3.974   0.545 -0.4008  0.1433  0.1192
  773MPD2    C211406   3.410   3.862   0.579 -0.0927  0.1207  0.1015
  773MPD2    C311407   3.487   3.860   0.691 -0.8363 -0.3725  0.0284
  773MPD2    C411408   3.499   3.971   0.764 -0.3917 -0.7776  0.3950
  773MPD2    C511409   3.439   4.088   0.739 -0.1243 -0.6195  0.2241
  773MPD2     H11410   3.414   3.774   0.517 -0.2516  0.7780 -0.8482
  773MPD2    H111411   3.560   3.975   0.854 -1.8468 -0.2604  1.3534
  773MPD2    H211412   3.288   4.167   0.612 -0.3686  0.8752 -0.3552
  773MPD2    H311413   3.445   4.174   0.805 -0.5399 -1.0210  0.7807
  773MPD2     N11414   3.546   3.730   0.712 -0.7821  0.1540  0.2072
  773MPD2    H511415   3.528   3.659   0.643  1.5726  0.2558 -0.4985
  773MPD2    N111416   3.280   3.981   0.420 -0.5061  0.0721  0.6328
  773MPD2    H711417   3.272   3.892   0.371  1.0835  1.1271 -1.5467
  774MPD2     C11418   2.105   2.740  13.518 -0.7168 -0.6937  0.2325
  774MPD2    C111419   2.098   2.826  13.631  0.1496 -0.3729  0.9355
  774MPD2    C211420   2.125   2.966  13.612  0.1909  0.2388 -0.5748
  774MPD2    C311421   2.167   3.012  13.487  0.1844 -0.8498 -0.3597
  774MPD2    C411422   2.177   2.932  13.378  0.3099 -0.8825  0.1925
  774MPD2    C511423   2.145   2.796  13.398 -0.8879  0.3158  0.3163
  774MPD2     H11424   2.135   3.030  13.699 -0.6174 -0.8304  0.3102
  774MPD2    H111425   2.229   2.956  13.286 -0.7110  0.9600  0.0962
  774MPD2    H211426   2.095   2.633  13.532  2.3178 -1.1872 -1.3374
  774MPD2    H311427   2.155   2.723  13.319 -0.8387 -1.4915  2.0040
  774MPD2     N11428   2.223   3.140  13.487  0.2180 -0.0772 -0.1129
  774MPD2    H511429   2.194   3.191  13.570 -1.2892 -1.4411  0.1809
  774MPD2    N111430   2.096   2.775  13.761 -0.2525 -0.2287  0.2467
  774MPD2    H711431   2.139   2.683  13.766  1.4923  0.5187 -1.1947
  775MPD2     C11432   3.458   4.518  15.976 -0.0441  0.1079 -0.2824
  775MPD2    C111433   3.451   4.618  16.077  0.7242 -0.3660  0.7055
  775MPD2    C211434   3.549   4.715  16.081  0.3729  0.1454 -0.2825
  775MPD2    C311435   3.654   4.715  15.985 -0.3090 -0.1409  0.2792
  775MPD2    C411436   3.661   4.610  15.894 -0.7471  0.0415 -0.0260
  775MPD2    C511437   3.561   4.517  15.892  0.5538  0.7393  0.0725
  775MPD2     H11438   3.547   0.056  16.168  0.2901 -1.6331  1.0184
  775MPD2    H111439   3.734   4.614  15.813 -0.2527  1.3681  0.4757
  775MPD2    H211440   3.380   4.446  15.955 -1.7774  1.8312  0.2743
  775MPD2    H311441   3.553   4.450  15.807  1.0309  1.7776 -0.7892
  775MPD2     N11442   3.760   0.086  15.984  0.0536 -0.2724  0.3505
  775MPD2    H511443   3.835   0.070  15.917  0.9472  0.3126  1.2035
  775MPD2    N111444   3.334   4.616  16.154 -0.0060 -0.2621 -0.1623
  775MPD2    H711445   3.276   4.533  16.148 -0.4390 -0.1794  2.6968
  776MPD2     C11446   3.251   0.497  11.986  0.1681 -0.0663  0.7224
  776MPD2    C111447   3.119   0.480  11.955 -0.1737 -0.4512 -0.0642
  776MPD2    C211448   3.053   0.590  11.894  0.3900 -0.2123 -0.0880
  776MPD2    C311449   3.121   0.712  11.866  0.6209  0.3356  0.8129
  776MPD2    C411450   3.244   0.730  11.913  0.1414  0.1458  0.7127
  776MPD2    C511451   3.310   0.627  11.976 -0.1095  0.0217  0.1340
  776MPD2     H11452   2.949   0.576  11.867 -0.2945  0.3394  2.2029
  776MPD2    H111453   3.297   0.824  11.902 -1.8607  1.2478  0.4180
  776MPD2    H211454   3.311   0.413  12.020 -2.2684 -1.4826  1.5294
  776MPD2    H311455   3.410   0.629  12.016  1.2064 -0.2008 -3.1356
  776MPD2     N11456   3.071   0.824  11.795  0.0848  0.0134  0.4060
  776MPD2    H511457   3.115   0.914  11.811 -2.2175  1.1816  0.2009
  776MPD2    N111458   3.060   0.354  11.973 -0.6340  0.3395  0.1891
  776MPD2    H711459   3.125   0.277  11.988  0.5127  1.1298 -0.7312
  777MPD2     C11460   3.206   2.672   1.000  0.1226 -0.0008 -0.3675
  777MPD2    C111461   3.306   2.583   1.036  0.5599 -0.1856 -0.9108
  777MPD2    C211462   3.348   2.500   0.936  0.2425  0.0761  0.6764
  777MPD2    C311463   3.302   2.511   0.811  0.4292  0.0136  0.2626
  777MPD2    C411464   3.212   2.605   0.773  0.0580 -0.0793 -0.0552
  777MPD2    C511465   3.153   2.678   0.875 -0.3157 -0.4436 -0.3027
  777MPD2     H11466   3.416   2.420   0.958  1.6861  0.9533 -0.6121
  777MPD2    H111467   3.171   2.622   0.674  0.1740 -0.6154 -0.1975
  777MPD2    H211468   3.157   2.736   1.072 -2.5362 -0.9972 -1.3120
  777MPD2    H311469   3.085   2.756   0.842  0.2648  0.3693  0.4215
  777MPD2     N11470   3.351   2.417   0.715 -0.1124 -0.4220 -0.4379
  777MPD2    H511471   3.405   2.340   0.753 -0.8252 -1.1977 -0.9941
  777MPD2    N111472   3.348   2.593   1.166  0.1495  0.4628 -0.4218
  777MPD2    H711473   3.314   2.669   1.224  1.4639  0.2202  0.6729
  778MPD2     C11474   4.244   2.873  15.290 -0.2396  0.2178 -0.1722
  778MPD2    C111475   4.298   2.754  15.243  0.0232  0.7330 -0.4512
  778MPD2    C211476   4.427   2.754  15.183  0.1700 -0.0462 -0.2647
  778MPD2    C311477   4.496   2.875  15.166 -0.1683  0.5419 -0.3021
  778MPD2    C411478   4.433   2.999  15.201 -0.3289  0.6618  0.2933
  778MPD2    C511479   4.315   2.988  15.265 -0.1349  0.4531 -0.7237
  778MPD2     H11480   4.476   2.664  15.149  0.1728 -0.2886  0.3877
  778MPD2    H111481   4.486   3.092  15.182 -1.0420  1.1959  0.9396
  778MPD2    H211482   4.147   2.867  15.339  0.3149  0.5634  0.9740
  778MPD2    H311483   4.271   3.079  15.305 -0.9423  0.2101 -1.0488
  778MPD2     N11484   4.623   2.859  15.100 -0.1979  0.0071 -0.7167
  778MPD2    H511485   4.658   2.765  15.081  1.6187  0.1035  2.1466
  778MPD2    N111486   4.237   2.632  15.255 -0.0609 -0.3174  0.6093
  778MPD2    H711487   4.271   2.566  15.185 -2.6816  0.3429 -1.2995
  779MPD2     C11488   4.365   1.735  14.159  0.0885 -0.1348 -0.0932
  779MPD2    C111489   4.359   1.720  14.296 -0.1704 -0.6687 -0.1490
  779MPD2    C211490   4.369   1.839  14.378 -0.2677  0.5490  0.0589
  779MPD2    C311491   4.384   1.961  14.320  0.1215 -0.3196 -0.0668
  779MPD2    C411492   4.385   1.971  14.183 -0.3578 -0.5263  0.0171
  779MPD2    C511493   4.380   1.856  14.110 -1.0377  0.3393  0.5728
  779MPD2     H11494   4.364   1.832  14.486  3.3446 -1.2664  0.1127
  779MPD2    H111495   4.408   2.064  14.134  1.9041 -0.0597  1.9259
  779MPD2    H211496   4.347   1.657  14.086 -0.4694 -0.8294  0.7878
  779MPD2    H311497   4.375   1.870  14.003  0.3104 -1.8770  0.2104
  779MPD2     N11498   4.395   2.078  14.400 -0.1368  0.3901  0.3819
  779MPD2    H511499   4.428   2.062  14.495 -1.5948  1.2501  1.0408
  779MPD2    N111500   4.330   1.589  14.349  0.3135  0.4386 -0.9664
  779MPD2    H711501   4.327   1.519  14.275  3.3718 -0.6783 -0.0199
  780MPD2     C11502   2.836   1.139   0.851 -0.3484 -0.2062  0.0922
  780MPD2    C111503   2.843   1.153   0.715  0.4562  0.3079 -0.0591
  780MPD2    C211504   2.965   1.191   0.664 -0.6669 -0.2203  0.0744
  780MPD2    C311505   3.076   1.232   0.742  0.4649  0.3926  0.1008
  780MPD2    C411506   3.066   1.223   0.880 -0.0449 -0.0178 -0.0713
  780MPD2    C511507   2.947   1.164   0.927 -0.2053  0.1903 -0.3116
  780MPD2     H11508   2.981   1.187   0.556 -0.6864  3.3589 -0.0447
  780MPD2    H111509   3.143   1.249   0.951 -0.6914  1.5728  0.0546
  780MPD2    H211510   2.749   1.105   0.907  1.0549  1.8054  3.5235
  780MPD2    H311511   2.933   1.140   1.032  1.5967 -1.1020 -0.3758
  780MPD2     N11512   3.190   1.283   0.680 -0.7634 -0.3058 -0.1215
  780MPD2    H511513   3.184   1.287   0.579  1.1853 -1.2531 -0.2716
  780MPD2    N111514   2.738   1.106   0.638 -0.0920 -0.4513  0.0288
  780MPD2    H711515   2.664   1.060   0.690 -0.1915 -1.0862 -0.6722
  781MPD2     C11516   0.968   3.175  12.312 -0.5037  0.6074  0.0335
  781MPD2    C111517   0.998   3.087  12.416  0.6548 -0.1239 -0.4443
  781MPD2    C211518   1.099   2.996  12.400  0.1087  0.1915 -0.1470
  781MPD2    C311519   1.168   2.980  12.279  0.9574 -0.0653  0.4456
  781MPD2    C411520   1.139   3.070  12.180  0.7312 -0.3731  0.4211
  781MPD2    C511521   1.038   3.170  12.196 -0.1862  0.3164  0.0574
  781MPD2     H11522   1.112   2.915  12.471  0.9128  0.3342 -0.1369
  781MPD2    H111523   1.198   3.083  12.091  0.8072 -1.4360  0.3103
  781MPD2    H211524   0.894   3.253  12.320 -0.3722  0.4783  2.8218
  781MPD2    H311525   1.028   3.247  12.121 -3.1200 -1.3188 -1.2188
  781MPD2     N11526   1.265   2.878  12.248  0.4071 -0.6255  0.1073
  781MPD2    H511527   1.309   2.865  12.157 -0.2588  0.0547 -0.3098
  781MPD2    N111528   0.926   3.097  12.534  0.1747  0.2188 -0.0366
  781MPD2    H711529   0.952   3.037  12.612 -1.2912  1.3137  1.3089
  782MPD2     C11530   3.277   4.564  10.755  0.5481  0.4124  0.3837
  782MPD2    C111531   3.394   4.560  10.690 -0.1625  0.1534 -0.3070
  782MPD2    C211532   3.496   4.514  10.763  0.1535 -0.3508 -0.4089
  782MPD2    C311533   3.485   4.478  10.895  0.0210 -0.2715 -0.4613
  782MPD2    C411534   3.359   4.471  10.949 -0.6491  0.5268 -0.0110
  782MPD2    C511535   3.250   4.508  10.875 -0.4431 -0.0088  0.2589
  782MPD2     H11536   3.594   4.509  10.718  0.3127 -0.6014 -0.0358
  782MPD2    H111537   3.340   4.435  11.049 -2.5685  0.5729 -0.3622
  782MPD2    H211538   3.190   4.599  10.700  0.7169 -0.7623 -0.6116
  782MPD2    H311539   3.147   4.502  10.907 -0.8693 -0.0607 -1.1192
  782MPD2     N11540   3.599   4.439  10.970  0.0013  0.2653 -0.4736
  782MPD2    H511541   3.682   4.439  10.912  0.5436  0.3274  0.3046
  782MPD2    N111542   3.393   4.583  10.557 -0.4778 -0.1408 -0.2048
  782MPD2    H711543   3.303   4.574  10.511 -0.2313  0.1423 -0.7351
  783MPD2     C11544   3.668   4.052  10.993  0.3190  0.2289 -0.2450
  783MPD2    C111545   3.536   4.051  10.952  0.3216  0.2011  0.2164
  783MPD2    C211546   3.508   4.060  10.815  0.6304 -0.0994 -0.3778
  783MPD2    C311547   3.603   4.102  10.726 -0.2223  0.5944  0.7522
  783MPD2    C411548   3.733   4.118  10.776 -0.1728 -0.4123  0.1615
  783MPD2    C511549   3.766   4.081  10.905  0.7475 -0.0747  0.1827
  783MPD2     H11550   3.406   4.066  10.779  0.5478 -0.2641 -0.1685
  783MPD2    H111551   3.813   4.148  10.710  0.0019 -1.3614 -0.0617
  783MPD2    H211552   3.684   4.040  11.099 -0.6001  2.2541  0.1185
  783MPD2    H311553   3.866   4.099  10.942  0.4450  2.4265 -0.2099
  783MPD2     N11554   3.568   4.156  10.599 -0.4265  0.0647 -0.7647
  783MPD2    H511555   3.468   4.154  10.582 -0.5295  0.1099 -0.1902
  783MPD2    N111556   3.444   4.036  11.052 -0.0891  0.8899 -0.0235
  783MPD2    H711557   3.477   4.051  11.146  0.9518  2.0783 -0.5713
  784MPD2     C11558   1.280   4.498   0.501  0.6310 -0.1008  0.2703
  784MPD2    C111559   1.317   4.535   0.622 -0.1530  0.9424 -0.5517
  784MPD2    C211560   1.223   4.573   0.716 -0.4625  0.5104 -0.2121
  784MPD2    C311561   1.089   4.570   0.688  0.1031 -0.1066 -0.8226
  784MPD2    C411562   1.055   4.534   0.562  0.1993  0.2155  0.4534
  784MPD2    C511563   1.145   4.492   0.470 -0.3023  0.5771 -0.1561
  784MPD2     H11564   1.261   4.593   0.815  1.5778 -1.3270 -0.6299
  784MPD2    H111565   0.951   4.524   0.532  0.7404 -0.0561 -1.3269
  784MPD2    H211566   1.357   4.477   0.428  0.7637 -0.2794  0.4609
  784MPD2    H311567   1.110   4.472   0.369 -1.2230  0.5681  0.1662
  784MPD2     N11568   0.995   4.615   0.789 -0.1451  0.4541 -0.8953
  784MPD2    H511569   1.037   4.649   0.875  1.2540 -0.1288 -1.3617
  784MPD2    N111570   1.458   4.544   0.660  0.4409  0.5465  0.2283
  784MPD2    H711571   1.474   4.590   0.750 -0.8747  1.5862 -0.0700
  785MPD2     C11572   1.604   1.961  10.702 -0.0746 -0.0699 -0.0838
  785MPD2    C111573   1.531   1.958  10.588  0.0206 -0.0379 -0.0559
  785MPD2    C211574   1.591   1.915  10.468  0.0438  0.2418  0.5761
  785MPD2    C311575   1.717   1.867  10.470  0.5491  0.4355 -0.1135
  785MPD2    C411576   1.785   1.854  10.586 -0.1776 -0.2898  0.0393
  785MPD2    C511577   1.726   1.912  10.698  0.4229 -0.0942  0.7970
  785MPD2     H11578   1.550   1.930  10.369 -2.2380  2.3122  1.8508
  785MPD2    H111579   1.888   1.820  10.596 -0.8895 -1.9104  1.9029
  785MPD2    H211580   1.565   2.004  10.793  0.5321 -0.7806  0.5117
  785MPD2    H311581   1.777   1.902  10.793 -0.9758  1.7565  1.7433
  785MPD2     N11582   1.771   1.833  10.345 -0.4997 -0.1786  0.2942
  785MPD2    H511583   1.709   1.839  10.265 -0.4400  0.2042  0.2799
  785MPD2    N111584   1.400   2.005  10.594  0.7061  0.1819 -0.0134
  785MPD2    H711585   1.381   2.049  10.684 -1.4727  0.1814 -0.4708
  786MPD2     C11586   4.234   0.895  15.370 -0.0000  0.0230  0.9783
  786MPD2    C111587   4.362   0.858  15.341  0.3215  0.2505  0.3230
  786MPD2    C211588   4.460   0.870  15.437 -0.2602 -0.4516  0.3277
  786MPD2    C311589   4.416   0.913  15.564 -0.4275  0.1258  0.1212
  786MPD2    C411590   4.288   0.947  15.593 -0.5370 -0.3907 -1.2373
  786MPD2    C511591   4.198   0.951  15.495 -0.8934 -0.4497  0.2045
  786MPD2     H11592   4.565   0.859  15.416 -0.5429 -0.4697 -1.0641
  786MPD2    H111593   4.256   0.978  15.692 -0.7547 -0.4953 -1.2747
  786MPD2    H211594   4.156   0.864  15.302  1.0047  0.3140 -0.3073
  786MPD2    H311595   4.095   0.972  15.522 -1.2514 -0.6189 -1.0094
  786MPD2     N11596   4.506   0.935  15.664  0.2330 -0.0388 -0.1487
  786MPD2    H511597   4.470   0.995  15.738  0.3272  0.1761 -0.2763
  786MPD2    N111598   4.401   0.799  15.217  0.2508  0.0937  0.0229
  786MPD2    H711599   4.493   0.756  15.216 -0.0560 -0.5984  0.8291
  787MPD2     C11600   4.701   0.333  15.276  0.2963 -0.3435 -0.0292
  787MPD2    C111601   4.719   0.338  15.140 -0.5708  0.4129  1.0229
  787MPD2    C211602   0.086   0.250  15.083 -0.2350  0.1173  0.7236
  787MPD2    C311603   0.155   0.159  15.169 -0.1964  0.6842  0.5935
  787MPD2    C411604   0.128   0.146  15.302  0.1937 -0.0023 -0.6377
  787MPD2    C511605   0.039   0.235  15.357 -0.1384  0.0150 -0.4742
  787MPD2     H11606   0.123   0.256  14.981  0.0823 -0.9480  0.7681
  787MPD2    H111607   0.163   0.075  15.376  3.6622  3.1093  0.7026
  787MPD2    H211608   4.638   0.410  15.320 -1.1613 -1.0260 -0.9120
  787MPD2    H311609   0.011   0.215  15.460 -0.2334 -0.0921 -0.5217
  787MPD2     N11610   0.251   0.080  15.113  0.0808  0.2686 -0.0378
  787MPD2    H511611   0.262   0.077  15.012 -0.2497  2.1641 -0.1193
  787MPD2    N111612   4.652   0.443  15.069 -0.3454  0.5248 -0.1713
  787MPD2    H711613   4.581   0.488  15.126  1.6172  1.1230  1.7605
  788MPD2     C11614   1.847   3.934   1.302  0.2805 -0.1602 -0.6053
  788MPD2    C111615   1.889   3.801   1.303  0.5145 -0.5997  0.7117
  788MPD2    C211616   2.000   3.764   1.232  0.0393  0.5432  0.0305
  788MPD2    C311617   2.067   3.863   1.162 -0.0183  0.0541 -0.1000
  788MPD2    C411618   2.035   3.995   1.162 -0.2241 -0.2704 -0.3260
  788MPD2    C511619   1.922   4.021   1.234  0.0503  0.2530 -0.4236
  788MPD2     H11620   2.026   3.659   1.222  2.6429  1.0447  1.5906
  788MPD2    H111621   2.093   4.075   1.116  0.2067  1.6755  3.6525
  788MPD2    H211622   1.760   3.970   1.356  1.7951  1.0092  1.0547
  788MPD2    H311623   1.881   4.122   1.231  0.2099  0.3685  1.3703
  788MPD2     N11624   2.183   3.833   1.088 -0.4406 -0.2495 -0.0829
  788MPD2    H511625   2.224   3.902   1.025 -0.2683 -1.1405 -0.9614
  788MPD2    N111626   1.820   3.712   1.381 -0.3004  0.0800 -0.2134
  788MPD2    H711627   1.727   3.739   1.414 -0.9640 -1.4798 -0.7985
  789MPD2     C11628   2.041   3.503  16.882  0.5106  0.0312 -0.5059
  789MPD2    C111629   1.998   3.480  16.758  0.3398  0.3465 -0.3813
  789MPD2    C211630   1.912   3.564  16.698  0.1805  0.5764  0.2811
  789MPD2    C311631   1.851   3.673  16.768  0.4057 -0.2229  0.0479
  789MPD2    C411632   1.904   3.696  16.898  0.1192  0.0958 -0.2602
  789MPD2    C511633   1.992   3.607  16.955 -0.3832 -0.3421  0.4636
  789MPD2     H11634   1.876   3.536  16.599 -0.2829  0.1133  0.5818
  789MPD2    H111635   1.873   3.777  16.963  0.6934  1.0047 -1.1065
  789MPD2    H211636   2.104   3.431  16.932 -1.9525 -2.1597 -0.5276
  789MPD2    H311637   2.033   3.628  17.053 -1.6254  0.3489  0.8396
  789MPD2     N11638   1.759   3.763  16.713  0.1290 -0.2406  0.1095
  789MPD2    H511639   1.739   3.841  16.775  1.3015  0.9069 -0.9520
  789MPD2    N111640   2.029   3.365  16.687 -0.3762 -0.2665  0.4322
  789MPD2    H711641   1.988   3.356  16.595 -0.9382 -0.1861  0.6690
  790MPD2     C11642   3.307   0.977  13.574  0.0259  0.3920 -0.1793
  790MPD2    C111643   3.334   0.849  13.614  0.2355 -0.0969  0.0170
  790MPD2    C211644   3.300   0.749  13.531 -0.5844  0.7230 -0.0125
  790MPD2    C311645   3.241   0.771  13.408 -0.5010 -0.0411  0.8946
  790MPD2    C411646   3.237   0.900  13.363 -0.1183 -0.5109 -0.1550
  790MPD2    C511647   3.267   1.000  13.444 -0.4746  0.6968  0.3515
  790MPD2     H11648   3.327   0.646  13.554 -1.3152  0.2765 -1.1694
  790MPD2    H111649   3.200   0.925  13.265  0.8910 -0.5235 -0.5418
  790MPD2    H211650   3.347   1.055  13.638  1.0038 -1.2559  1.2153
  790MPD2    H311651   3.267   1.105  13.415  0.9651  0.3797 -0.7773
  790MPD2     N11652   3.199   0.665  13.329  0.7018 -0.8038 -0.4485
  790MPD2    H511653   3.228   0.570  13.349  0.4142 -0.4986  1.3962
  790MPD2    N111654   3.400   0.831  13.734 -0.0904 -0.0869  0.0071
  790MPD2    H711655   3.445   0.912  13.775 -0.0279  0.0867 -0.4039
  791MPD2     C11656   2.509   0.558  13.041  0.1962 -0.0818 -0.7896
  791MPD2    C111657   2.581   0.438  13.046  0.1484  0.2286  0.0349
  791MPD2    C211658   2.527   0.328  12.989  0.2784 -0.5421  0.0470
  791MPD2    C311659   2.399   0.330  12.930 -0.2369 -0.0839  0.5266
  791MPD2    C411660   2.333   0.448  12.931 -0.5939  0.9698  0.4538
  791MPD2    C511661   2.385   0.563  12.991 -0.0710  0.3977 -0.4652
  791MPD2     H11662   2.570   0.228  12.988  1.4563 -0.0434  0.9824
  791MPD2    H111663   2.233   0.456  12.890 -0.8066 -2.2118  0.3464
  791MPD2    H211664   2.546   0.652  13.080  0.4803  0.3249 -2.0358
  791MPD2    H311665   2.330   0.657  12.996 -1.0551 -0.1939 -0.1446
  791MPD2     N11666   2.360   0.205  12.871 -0.2104 -0.6979  0.5960
  791MPD2    H511667   2.427   0.128  12.872  1.3895  0.7057  1.6646
  791MPD2    N111668   2.711   0.438  13.105 -0.0388  0.2515  0.0666
  791MPD2    H711669   2.755   0.527  13.126 -1.0569  0.3481  1.7955
  792MPD2     C11670   3.761   0.102  11.307 -0.2631  0.1427  0.3318
  792MPD2    C111671   3.682   0.168  11.222  0.4287  0.1101  0.2063
  792MPD2    C211672   3.557   0.113  11.195  0.2057 -0.1041  0.4921
  792MPD2    C311673   3.515   4.716  11.252 -0.1806  0.1913  0.7554
  792MPD2    C411674   3.605   4.648  11.337  0.5079  0.0001  0.0041
  792MPD2    C511675   3.723   4.704  11.363 -0.0224  0.1834 -1.3826
  792MPD2     H11676   3.491   0.174  11.134  0.9619  0.6015  0.3814
  792MPD2    H111677   3.589   4.550  11.380 -1.4086  0.6626  0.7986
  792MPD2    H211678   3.852   0.151  11.341  0.5986 -2.6527  2.0682
  792MPD2    H311679   3.800   4.656  11.422 -2.2486 -0.1585  1.2578
  792MPD2     N11680   3.380   4.679  11.242 -0.0578  0.6034 -0.1576
  792MPD2    H511681   3.360   4.593  11.291  1.5738 -0.5154 -1.4864
  792MPD2    N111682   3.734   0.284  11.165 -0.2785  0.3414  0.3434
  792MPD2    H711683   3.830   0.311  11.184 -0.1223 -0.4344  0.6873
  793MPD2     C11684   2.669   4.686  10.622 -0.1260  0.2865  0.6591
  793MPD2    C111685   2.810   4.689  10.611  0.5203 -0.1574  0.1861
  793MPD2    C211686   2.868   0.000  10.730  0.2319  0.6128  0.3646
  793MPD2    C311687   2.796   0.021  10.853  0.0542  0.1158  0.6849
  793MPD2    C411688   2.656   0.019  10.854  0.2066  0.0306 -0.5503
  793MPD2    C511689   2.596   4.714  10.738 -0.5999  0.3834  0.1964
  793MPD2     H11690   2.977   0.006  10.733  0.4016 -1.5298 -1.9342
  793MPD2    H111691   2.592   0.046  10.938  1.4076  0.1908  0.3228
  793MPD2    H211692   2.621   4.697  10.526 -2.1463 -0.0841  1.6076
  793MPD2    H311693   2.489   4.710  10.724 -0.5537 -0.7767  0.1393
  793MPD2     N11694   2.870   0.040  10.974 -0.0576 -0.2089 -0.3889
  793MPD2    H511695   2.969   0.059  10.960 -0.0495  1.0128  1.2857
  793MPD2    N111696   2.886   4.671  10.491  0.7992 -0.5292  0.1234
  793MPD2    H711697   2.984   4.697  10.486  0.1975  1.1860 -3.1147
  794MPD2     C11698   2.786   4.518  17.649  0.0057  0.2280  0.2666
  794MPD2    C111699   2.767   4.387  17.609 -0.0007 -0.1044 -0.1721
  794MPD2    C211700   2.653   4.349  17.543 -0.6491 -0.3648 -0.0532
  794MPD2    C311701   2.559   4.446  17.517  0.1392  0.0516 -0.3323
  794MPD2    C411702   2.586   4.582  17.541  0.5014 -0.2782 -0.5824
  794MPD2    C511703   2.697   4.616  17.611  0.6015 -0.1237  0.0020
  794MPD2     H11704   2.646   4.247  17.508  0.0814  0.0987 -1.5228
  794MPD2    H111705   2.514   4.662  17.537  1.8258  1.0085  1.4227
  794MPD2    H211706   2.866   4.560   0.016 -1.6580  1.0639  1.8437
  794MPD2    H311707   2.710   4.720  17.639 -1.7624  0.0668  0.3385
  794MPD2     N11708   2.444   4.418  17.441  0.6249  0.4971  0.8404
  794MPD2    H511709   2.383   4.498  17.424  0.6396  0.5003  0.8034
  794MPD2    N111710   2.864   4.286  17.635  0.4895 -0.5914 -0.2932
  794MPD2    H711711   2.837   4.190  17.613  2.9626 -1.1719 -0.8744
  795MPD2     C11712   0.614   1.731  13.087  0.0837  0.9474 -0.3377
  795MPD2    C111713   0.584   1.739  13.222 -0.3413  0.0509  0.5005
  795MPD2    C211714   0.680   1.731  13.321 -0.3823 -0.1466  0.2139
  795MPD2    C311715   0.808   1.708  13.291 -0.0368 -0.0082  0.2339
  795MPD2    C411716   0.838   1.685  13.156  0.5871  0.2649 -0.1835
  795MPD2    C511717   0.741   1.696  13.058 -0.5239 -0.7489  0.1344
  795MPD2     H11718   0.654   1.744  13.425 -0.8271 -0.1886  0.1090
  795MPD2    H111719   0.939   1.666  13.120 -0.2120  0.1890 -2.3740
  795MPD2    H211720   0.551   1.751  13.001  0.9194  1.8641 -0.7368
  795MPD2    H311721   0.782   1.705  12.958 -0.1553 -2.5092  0.1234
  795MPD2     N11722   0.902   1.708  13.399 -0.1560  0.4534  0.0541
  795MPD2    H511723   0.859   1.707  13.491 -0.2034  2.5833  0.0575
  795MPD2    N111724   0.461   1.774  13.269 -0.4722  0.5987 -0.2469
  795MPD2    H711725   0.443   1.788  13.368  0.2983  0.3260 -0.0693
  796MPD2     C11726   4.396   3.511  15.716 -0.1116  0.0862  0.6411
  796MPD2    C111727   4.511   3.537  15.766  0.4602  0.2459 -0.6394
  796MPD2    C211728   4.529   3.657  15.836  0.2777  0.2547 -0.0951
  796MPD2    C311729   4.423   3.748  15.847  0.1792 -0.1872  0.2518
  796MPD2    C411730   4.303   3.721  15.781 -0.0771 -0.2928  0.3514
  796MPD2    C511731   4.286   3.600  15.720 -0.5858  0.1354  0.2962
  796MPD2     H11732   4.621   3.679  15.890  0.7052 -0.8349 -0.3763
  796MPD2    H111733   4.211   3.777  15.792  0.6582  1.3070 -1.6454
  796MPD2    H211734   4.374   3.422  15.659 -1.3803 -0.1931  1.5590
  796MPD2    H311735   4.190   3.566  15.682 -0.3170 -0.6563  0.3332
  796MPD2     N11736   4.449   3.871  15.914 -0.9996 -0.0351 -0.2368
  796MPD2    H511737   4.534   3.877  15.969 -0.0123  1.5334 -1.9333
  796MPD2    N111738   4.618   3.445  15.751  0.1164  0.2654 -0.2684
  796MPD2    H711739   4.607   3.353  15.711 -0.7336  0.4286 -0.4162
  797MPD2     C11740   0.922   3.038  17.274 -0.7453 -0.2207 -0.1217
  797MPD2    C111741   0.963   3.161  17.238 -0.3100 -0.0899  0.4067
  797MPD2    C211742   0.885   3.227  17.138 -0.6940  0.3998 -0.2097
  797MPD2    C311743   0.783   3.168  17.076 -0.4468  0.2240 -0.5858
  797MPD2    C411744   0.750   3.042  17.108 -0.3119 -0.6010 -0.1329
  797MPD2    C511745   0.822   2.977  17.203 -0.1844  0.3913  0.4395
  797MPD2     H11746   0.916   3.330  17.123  1.3540 -0.3416 -1.0618
  797MPD2    H111747   0.665   2.996  17.058  0.2730 -0.3727 -1.3551
  797MPD2    H211748   0.977   2.991  17.355 -0.3081 -1.1828 -0.9700
  797MPD2    H311749   0.796   2.876  17.233 -1.1657  0.1545 -1.2240
  797MPD2     N11750   0.706   3.252  16.999 -0.2452  0.1411  0.3739
  797MPD2    H511751   0.730   3.350  17.012 -0.5727  0.3262 -0.4080
  797MPD2    N111752   1.070   3.237  17.295  0.0519  0.1258  0.2622
  797MPD2    H711753   1.101   3.315  17.238 -1.2316  0.6795  0.3183
  798MPD2     C11754   1.007   3.856  16.911  0.6499 -0.0670  0.0401
  798MPD2    C111755   0.947   3.742  16.955 -0.2625  0.7199  0.2539
  798MPD2    C211756   1.024   3.668  17.046 -0.0984 -0.7203  0.0009
  798MPD2    C311757   1.144   3.714  17.105 -0.6346  0.4703  0.8450
  798MPD2    C411758   1.202   3.834  17.064 -0.5801 -0.7314 -0.0574
  798MPD2    C511759   1.131   3.893  16.961 -0.0533 -0.1408 -0.2465
  798MPD2     H11760   0.984   3.579  17.092  2.4434 -1.0544  1.5629
  798MPD2    H111761   1.292   3.886  17.094 -0.7164 -1.9306  2.4401
  798MPD2    H211762   0.960   3.922  16.839  0.1703  0.5285  0.8950
  798MPD2    H311763   1.173   3.987  16.928  3.2343 -2.1431 -1.7162
  798MPD2     N11764   1.192   3.628  17.203  0.5049 -0.3095 -0.1315
  798MPD2    H511765   1.148   3.538  17.218 -0.1786 -0.4775 -3.2912
  798MPD2    N111766   0.817   3.702  16.909 -0.3692  0.0858  0.7535
  798MPD2    H711767   0.773   3.760  16.838 -1.7889  0.3411  1.8370
  799MPD2     C11768   0.025   4.552  15.006  0.8336 -0.4322  0.7237
  799MPD2    C111769   0.065   4.574  14.877  0.5877 -0.0551  0.0857
  799MPD2    C211770   0.004   4.676  14.803 -0.6378 -0.1610 -0.7153
  799MPD2    C311771   4.637   0.035  14.861  0.6879 -0.3439 -0.7411
  799MPD2    C411772   4.608   0.021  14.996  0.0809  0.0887 -0.6791
  799MPD2    C511773   4.664   4.641  15.067  0.5908 -0.5668 -0.3975
  799MPD2     H11774   0.025   4.698  14.699  0.7655  1.0614 -0.1909
  799MPD2    H111775   4.537   0.079  15.055  1.6144  0.1582  1.1031
  799MPD2    H211776   0.079   4.476  15.061  1.3831 -0.6902 -0.1686
  799MPD2    H311777   4.636   4.626  15.171 -0.8773  2.7451 -0.3389
  799MPD2     N11778   4.562   0.126  14.785 -0.7942  0.4033  0.0852
  799MPD2    H511779   4.512   0.206  14.823 -0.2870  1.2066 -0.9343
  799MPD2    N111780   0.163   4.504  14.800  0.3692  0.3973  0.0184
  799MPD2    H711781   0.181   4.533  14.705  1.1749  0.2826  0.1368
  800MPD2     C11782   0.468   1.005  14.698 -0.4911  0.6794 -0.1719
  800MPD2    C111783   0.588   1.037  14.629 -0.3870 -0.5706  0.4905
  800MPD2    C211784   0.605   1.005  14.493 -0.7473  0.1415  0.2561
  800MPD2    C311785   0.494   0.961  14.427 -0.0601  0.0626  0.6275
  800MPD2    C411786   0.378   0.917  14.493  0.5574 -0.2833 -0.5709
  800MPD2    C511787   0.374   0.935  14.626 -0.1496 -0.0035 -0.2493
  800MPD2     H11788   0.699   1.002  14.438 -0.5125 -0.2534  0.6735
  800MPD2    H111789   0.297   0.861  14.447  0.0622  1.7083 -2.1130
  800MPD2    H211790   0.450   1.025  14.803  0.5865 -0.1650  0.1739
  800MPD2    H311791   0.282   0.905  14.675 -0.1168  0.5932  0.1732
  800MPD2     N11792   0.508   0.935  14.289  0.6998  0.4788 -0.4634
  800MPD2    H511793   0.600   0.954  14.250  0.2267 -1.3214 -2.4743
  800MPD2    N111794   0.697   1.090  14.703 -0.1579  0.3580  0.6587
  800MPD2    H711795   0.684   1.098  14.803  1.2635 -0.1252  0.8817
  801MPD2     C11796   0.757   1.780  14.672 -0.0446  0.6655  1.0586
  801MPD2    C111797   0.721   1.706  14.788  1.0197  0.2897 -0.7550
  801MPD2    C211798   0.602   1.735  14.848  0.3750  0.0070  0.1027
  801MPD2    C311799   0.517   1.831  14.800  0.1851 -0.1636 -0.3636
  801MPD2    C411800   0.545   1.894  14.683  0.0972 -0.4047  0.0019
  801MPD2    C511801   0.667   1.873  14.617 -0.1688 -0.3596 -1.0784
  801MPD2     H11802   0.574   1.682  14.939  1.1858 -0.3651  0.1330
  801MPD2    H111803   0.485   1.978  14.650  0.4895  0.3844  1.2561
  801MPD2    H211804   0.850   1.768  14.617 -0.1540 -0.6857  1.1557
  801MPD2    H311805   0.692   1.929  14.527  0.1106  3.4093  1.3247
  801MPD2     N11806   0.394   1.862  14.859  0.0884 -0.1652 -0.7153
  801MPD2    H511807   0.336   1.933  14.815 -0.2541  0.3144  0.5072
  801MPD2    N111808   0.795   1.586  14.823  0.1792  0.3519 -0.2195
  801MPD2    H711809   0.761   1.544  14.909  1.6730  2.6751  1.5198
  802MPD2     C11810   4.453   1.736  17.261  0.4347 -0.4746 -0.2623
  802MPD2    C111811   4.486   1.832  17.358 -0.6388  0.3737 -0.4804
  802MPD2    C211812   4.616   1.888  17.353 -0.3573  0.4364 -0.5605
  802MPD2    C311813   4.698   1.867  17.242 -0.0103 -0.3429 -0.5565
  802MPD2    C411814   4.661   1.783  17.137  0.2186  0.9513 -0.7388
  802MPD2    C511815   4.541   1.720  17.159 -0.2524 -0.8477  0.1579
  802MPD2     H11816   4.655   1.959  17.425 -0.5587  0.7876 -0.7953
  802MPD2    H111817   4.721   1.763  17.049 -1.0568 -1.0432 -1.1613
  802MPD2    H211818   4.354   1.691  17.262  0.7543 -1.1295  1.4866
  802MPD2    H311819   4.514   1.661  17.072  1.9391  2.2461 -2.6240
  802MPD2     N11820   0.111   1.910  17.252 -0.3158  0.1554  0.4862
  802MPD2    H511821   0.144   1.956  17.336  1.9009  0.5189 -0.5909
  802MPD2    N111822   4.406   1.874  17.465 -0.5502 -0.1628  0.5935
  802MPD2    H711823   4.449   1.932  17.537  0.6708  0.1144 -0.3486
  803MPD2     C11824   1.289   0.540  12.040  0.7797 -0.2129 -0.1632
  803MPD2    C111825   1.378   0.492  12.142 -0.6081 -1.0602 -0.3598
  803MPD2    C211826   1.363   0.363  12.184 -0.0463  0.9229  0.1938
  803MPD2    C311827   1.267   0.273  12.139  0.2331 -0.4916 -0.1581
  803MPD2    C411828   1.181   0.326  12.035 -0.4479 -0.0558 -0.0982
  803MPD2    C511829   1.196   0.456  11.993 -0.1439 -0.4000  0.8288
  803MPD2     H11830   1.447   0.331  12.245  0.3694  0.2170 -0.7523
  803MPD2    H111831   1.094   0.264  12.015 -0.1314 -0.0487 -1.4524
  803MPD2    H211832   1.274   0.644  12.014  1.7834  0.0475  0.2925
  803MPD2    H311833   1.117   0.488  11.927 -1.3469  0.2092  2.5832
  803MPD2     N11834   1.238   0.150  12.194 -0.2764  0.3097 -0.2923
  803MPD2    H511835   1.155   0.100  12.163  0.0337 -0.0270 -0.5804
  803MPD2    N111836   1.478   0.580  12.198 -0.3319  1.1960 -0.0280
  803MPD2    H711837   1.530   0.543  12.277 -0.0934 -1.5223 -1.4729
  804MPD2     C11838   0.430   1.577  17.024 -1.0251 -0.3904 -0.1927
  804MPD2    C111839   0.438   1.525  17.149 -0.8148  0.2880 -0.1866
  804MPD2    C211840   0.518   1.581  17.251 -0.1107  0.1094 -0.1199
  804MPD2    C311841   0.589   1.699  17.228 -0.1012  0.3467 -0.0901
  804MPD2    C411842   0.582   1.748  17.098 -0.1450  0.6982 -0.3359
  804MPD2    C511843   0.495   1.697  17.013 -0.5622  0.0221  0.1374
  804MPD2     H11844   0.511   1.540  17.351 -1.7331  1.1502  0.2126
  804MPD2    H111845   0.623   1.845  17.072 -0.3855  0.5275 -1.3155
  804MPD2    H211846   0.374   1.536  16.942 -1.0123  1.5857 -1.1828
  804MPD2    H311847   0.480   1.746  16.917 -1.6413 -2.1654 -0.8184
  804MPD2     N11848   0.672   1.753  17.331  0.0022  0.6286  0.4992
  804MPD2    H511849   0.665   1.701  17.418 -0.5157 -1.9792 -1.1063
  804MPD2    N111850   0.376   1.406  17.187  0.2833  0.4643 -0.2283
  804MPD2    H711851   0.400   1.365  17.276  2.8646  1.8985 -0.2598
  805MPD2     C11852   4.535   4.220  15.664  0.6537  0.1417  0.0902
  805MPD2    C111853   4.485   4.346  15.699 -0.1130 -0.0488 -0.7818
  805MPD2    C211854   4.567   4.428  15.778  0.2184 -0.4546  0.0717
  805MPD2    C311855   4.691   4.395  15.812  0.0024  0.6588 -0.6666
  805MPD2    C411856   0.018   4.275  15.769  0.8908  0.1423 -0.5005
  805MPD2    C511857   4.665   4.191  15.705 -0.2841  0.8131  0.1524
  805MPD2     H11858   4.541   4.533  15.777  0.5504 -0.3790 -0.8031
  805MPD2    H111859   0.117   4.242  15.799  0.8678  1.3173  0.8669
  805MPD2    H211860   4.464   4.155  15.614 -1.5988  1.7895  1.1161
  805MPD2    H311861   4.700   4.094  15.671  0.0247  0.3378  1.8294
  805MPD2     N11862   0.048   4.493  15.868  0.3309  0.8318 -1.0979
  805MPD2    H511863   0.011   4.587  15.872 -2.1595 -0.2309  0.7508
  805MPD2    N111864   4.348   4.390  15.682  0.9927  0.1706  0.0366
  805MPD2    H711865   4.334   4.477  15.734 -0.6715  0.2458 -0.5499
  806MPD2     C11866   0.016   4.406   0.974  0.2617 -0.2559  0.0586
  806MPD2    C111867   0.144   4.447   0.974  0.6101 -0.2986  0.2847
  806MPD2    C211868   0.193   4.531   0.874 -0.6891 -0.1184  0.8825
  806MPD2    C311869   0.099   4.577   0.785  0.1809  0.0947  0.0644
  806MPD2    C411870   4.690   4.536   0.783  0.1687 -0.0798 -0.4840
  806MPD2    C511871   4.653   4.442   0.877 -0.7282  0.4422  0.3577
  806MPD2     H11872   0.298   4.553   0.865 -1.1600  2.0697  0.8145
  806MPD2    H111873   4.633   4.570   0.698 -1.5171 -1.5635  0.0519
  806MPD2    H211874   4.714   4.333   1.051  0.8801 -0.8461 -0.2981
  806MPD2    H311875   4.553   4.399   0.870 -0.3707 -0.2843 -0.2430
  806MPD2     N11876   0.157   4.676   0.702  0.0736 -0.1090  0.0886
  806MPD2    H511877   0.251   4.702   0.731  0.2497  0.5442 -1.0500
  806MPD2    N111878   0.229   4.408   1.073  0.3175  0.4332  0.0819
  806MPD2    H711879   0.190   4.364   1.156 -1.3456 -1.1733 -1.5548
  807MPD2     C11880   0.240   4.060   1.733 -0.7063 -0.6762 -0.0119
  807MPD2    C111881   0.356   4.026   1.672  0.9380  0.0765  0.2440
  807MPD2    C211882   0.421   3.911   1.722 -0.3938  0.6885  0.0856
  807MPD2    C311883   0.366   3.838   1.821 -0.4488 -0.3208 -0.0277
  807MPD2    C411884   0.228   3.858   1.853  0.5525  0.3805 -0.0776
  807MPD2    C511885   0.170   3.969   1.805  0.9334 -0.4474  0.8665
  807MPD2     H11886   0.526   3.898   1.699 -0.3494 -0.2501  0.8258
  807MPD2    H111887   0.175   3.779   1.904  2.1093  0.6117  1.8579
  807MPD2    H211888   0.195   4.158   1.722 -0.6102 -0.8699 -1.9966
  807MPD2    H311889   0.069   3.985   1.841  0.3367 -0.9264 -0.5620
  807MPD2     N11890   0.427   3.729   1.879 -0.7747 -1.2133 -0.1094
  807MPD2    H511891   0.377   3.683   1.955  1.3460 -1.6575  1.0287
  807MPD2    N111892   0.419   4.103   1.575  1.0096 -0.0417  0.8660
  807MPD2    H711893   0.516   4.082   1.557  1.3766  0.4048  2.3032
  808MPD2     C11894   0.592   4.524   9.903 -0.7239 -0.0070  1.2134
  808MPD2    C111895   0.532   4.644   9.868 -0.4842 -0.1308 -0.9760
  808MPD2    C211896   0.616   0.028   9.839 -0.1820 -0.7785  0.6402
  808MPD2    C311897   0.753   0.014   9.845 -0.4384 -0.3231 -0.2317
  808MPD2    C411898   0.812   4.620   9.884  0.1047  1.0209  0.3018
  808MPD2    C511899   0.729   4.515   9.915  0.1724 -0.0057  0.1290
  808MPD2     H11900   0.569   0.121   9.812 -3.6867 -1.8640  3.0590
  808MPD2    H111901   0.919   4.605   9.881  0.2184  1.4285  2.1430
  808MPD2    H211902   0.544   4.427   9.907 -0.2174 -0.3168 -0.2938
  808MPD2    H311903   0.772   4.416   9.924 -0.7888 -0.6543 -2.3755
  808MPD2     N11904   0.838   0.114   9.814 -0.2580 -0.4534  0.5148
  808MPD2    H511905   0.935   0.085   9.812 -0.6805 -1.7733 -1.0474
  808MPD2    N111906   0.391   4.651   9.851  0.6721 -0.7680  0.1400
  808MPD2    H711907   0.345   0.017   9.834 -0.4649 -1.2554  0.7054
  809MPD2     C11908   1.358   0.015   9.143 -0.1126 -0.2949 -0.2314
  809MPD2    C111909   1.359   0.150   9.164 -0.5666  0.1389  0.2811
  809MPD2    C211910   1.313   0.216   9.276 -0.2465  0.1579 -0.5413
  809MPD2    C311911   1.261   0.136   9.376 -0.1906  0.7686  1.2063
  809MPD2    C411912   1.263   4.719   9.356 -0.5797  0.5537 -0.0343
  809MPD2    C511913   1.312   4.658   9.241  0.0689 -0.1197  0.3350
  809MPD2     H11914   1.294   0.323   9.272  1.3145  0.4114 -0.9730
  809MPD2    H111915   1.213   4.651   9.423 -1.6821  0.1584 -1.2603
  809MPD2    H211916   1.395   4.691   9.053  1.0705  0.0986  0.0377
  809MPD2    H311917   1.320   4.550   9.227  0.1915 -0.0161 -0.4359
  809MPD2     N11918   1.201   0.185   9.491  0.2111  0.4640 -0.0997
  809MPD2    H511919   1.134   0.122   9.534 -1.3208  1.4831 -0.9686
  809MPD2    N111920   1.411   0.232   9.058 -0.1442  0.0683  0.0231
  809MPD2    H711921   1.414   0.332   9.076  2.2170  0.0841 -0.4278
  810MPD2     C11922   0.915   4.649  10.235  0.2039 -0.4524  0.1796
  810MPD2    C111923   0.804   4.714  10.284 -0.5716 -0.0101  0.2918
  810MPD2    C211924   0.825   0.088  10.386 -0.5386  0.6763 -0.1035
  810MPD2    C311925   0.952   0.121  10.419 -0.8074  0.1185  0.5601
  810MPD2    C411926   1.060   0.045  10.375  0.4369 -0.8675 -1.0076
  810MPD2    C511927   1.036   4.670  10.287  0.2211 -0.4353  0.6509
  810MPD2     H11928   0.738   0.123  10.440 -1.6040  0.4619 -1.6701
  810MPD2    H111929   1.165   0.056  10.398  0.3117 -0.0258 -0.8284
  810MPD2    H211930   0.897   4.590  10.146 -0.0129 -0.3748  0.1701
  810MPD2    H311931   1.117   4.614  10.242 -1.0691 -0.8673 -1.1287
  810MPD2     N11932   0.972   0.230  10.505  0.1607  0.5163 -0.4354
  810MPD2    H511933   0.887   0.273  10.540 -0.4848 -0.4462 -0.8076
  810MPD2    N111934   0.676   4.678  10.228  0.2821  0.4400  0.0203
  810MPD2    H711935   0.679   4.595  10.168 -0.5905  0.9988 -0.7921
  811MPD2     C11936   4.522   0.073   9.960 -0.0006 -0.2792 -0.4236
  811MPD2    C111937   4.639   0.136   9.985  0.3101  0.4949  0.1759
  811MPD2    C211938   4.650   0.275   9.962 -0.1302 -0.1493 -0.2646
  811MPD2    C311939   4.554   0.338   9.891  0.1388  0.1704 -0.3764
  811MPD2    C411940   4.434   0.269   9.859 -0.0563  0.7257 -0.2155
  811MPD2    C511941   4.425   0.142   9.894  0.1675 -0.2066  0.0054
  811MPD2     H11942   0.022   0.324   9.980 -1.1317  0.8249  2.4612
  811MPD2    H111943   4.345   0.306   9.811  0.6854  1.5461 -0.9569
  811MPD2    H211944   4.509   4.694   9.994 -2.5097  0.5083  0.9748
  811MPD2    H311945   4.334   0.089   9.865  0.1192  0.5139 -1.1707
  811MPD2     N11946   4.578   0.475   9.867  0.1533 -0.3415 -0.2775
  811MPD2    H511947   4.658   0.513   9.918 -0.4025 -2.1985  1.9621
  811MPD2    N111948   0.012   0.063  10.054 -0.3429  0.0923 -0.0401
  811MPD2    H711949   4.708   4.689  10.067  0.2731  0.0366  0.8525
  812MPD2     C11950   4.102   4.604  12.276 -0.5453  0.3785 -0.3164
  812MPD2    C111951   4.035   4.712  12.316 -0.3852  0.4583  0.4910
  812MPD2    C211952   4.003   0.005  12.455  0.0321 -0.6943  0.1838
  812MPD2    C311953   4.057   4.648  12.544  0.2444 -0.0732 -0.1280
  812MPD2    C411954   4.136   4.543  12.504 -0.0433  0.2844  0.0900
  812MPD2    C511955   4.158   4.522  12.372  0.8124 -0.3338 -0.0643
  812MPD2     H11956   3.929   0.078  12.484  1.4031 -0.0311  2.0282
  812MPD2    H111957   4.184   4.469  12.568  0.1760 -0.1396 -0.5606
  812MPD2    H211958   4.126   4.598  12.170  1.0793  0.2279  0.0607
  812MPD2    H311959   4.215   4.440  12.329  2.9315  0.2628  1.5696
  812MPD2     N11960   4.039   4.686  12.677 -0.4996 -0.0941 -0.1125
  812MPD2    H511961   3.995   0.051  12.699  0.8639  0.1076  1.8372
  812MPD2    N111962   3.995   0.087  12.219 -0.0458  0.0684  0.4339
  812MPD2    H711963   4.035   0.063  12.129 -0.8989 -1.5799  0.4976
  813MPD2     C11964   2.762   2.386  12.771 -0.2874 -0.0394 -0.1363
  813MPD2    C111965   2.870   2.300  12.800 -0.3205  0.7586  0.1138
  813MPD2    C211966   2.835   2.191  12.876 -0.0341 -0.5438 -0.0542
  813MPD2    C311967   2.709   2.174  12.929 -0.1461 -0.7012 -0.0035
  813MPD2    C411968   2.607   2.258  12.888  0.5044  0.3327  1.1517
  813MPD2    C511969   2.637   2.361  12.806  0.0269  0.2780 -0.0216
  813MPD2     H11970   2.913   2.123  12.907 -0.1055 -0.9755 -0.7992
  813MPD2    H111971   2.503   2.254  12.918  1.3356 -0.6889  3.9013
  813MPD2    H211972   2.786   2.479  12.720  0.6996  0.8905  2.0176
  813MPD2    H311973   2.558   2.428  12.773 -1.8201 -0.9973  1.7741
  813MPD2     N11974   2.694   2.064  13.016  0.3922  0.2454  0.4967
  813MPD2    H511975   2.765   1.992  13.003  1.0068  0.7915  0.8019
  813MPD2    N111976   3.007   2.334  12.767  0.2166  0.0507  0.5062
  813MPD2    H711977   3.020   2.413  12.705 -1.0308 -0.3298 -0.2449
  814MPD2     C11978   3.630   3.420  12.475 -0.5829  0.0485 -0.9964
  814MPD2    C111979   3.656   3.490  12.355  0.9078 -0.6158  1.0890
  814MPD2    C211980   3.754   3.592  12.363 -0.4327 -0.1721 -0.5971
  814MPD2    C311981   3.828   3.617  12.475 -0.0502 -0.1397  0.9006
  814MPD2    C411982   3.810   3.541  12.587 -1.0592 -0.2702 -0.7676
  814MPD2    C511983   3.712   3.443  12.585 -0.2436 -0.2579 -0.2341
  814MPD2     H11984   3.781   3.635  12.267 -2.5389  0.9553 -0.6927
  814MPD2    H111985   3.879   3.541  12.670 -0.7748  0.0752 -1.0025
  814MPD2    H211986   3.565   3.334  12.481 -0.7147  0.4476  3.1587
  814MPD2    H311987   3.706   3.371  12.666  0.9563  0.0637  0.1341
  814MPD2     N11988   3.913   3.728  12.482  0.3291 -0.0609 -0.6008
  814MPD2    H511989   3.963   3.740  12.570 -1.3772 -1.5037  0.5516
  814MPD2    N111990   3.583   3.478  12.232 -0.2714 -0.3990 -0.2468
  814MPD2    H711991   3.620   3.526  12.151 -2.4724  0.9874 -0.4200
  815MPD2     C11992   4.088   1.828  12.100  0.5630  0.0141 -0.5695
  815MPD2    C111993   4.025   1.706  12.078  0.3831 -0.7419 -0.0127
  815MPD2    C211994   3.897   1.679  12.127 -0.0379 -0.2498  0.2313
  815MPD2    C311995   3.833   1.768  12.212  0.5392  0.0887  0.0004
  815MPD2    C411996   3.898   1.888  12.239  0.4584  0.3486  0.0038
  815MPD2    C511997   4.024   1.916  12.181  0.3137 -0.3612  0.8207
  815MPD2     H11998   3.847   1.584  12.111  1.2099 -1.0039  0.8317
  815MPD2    H111999   3.863   1.963  12.309 -0.4831  0.8414 -0.9907
  815MPD2    H212000   4.187   1.846  12.060  0.7769 -0.5722 -0.3069
  815MPD2    H312001   4.078   2.002  12.217  1.1944 -1.1202  1.3041
  815MPD2     N12002   3.711   1.728  12.268 -0.6109 -0.5563 -0.3333
  815MPD2    H512003   3.680   1.638  12.234 -1.1922 -0.9048  1.1722
  815MPD2    N112004   4.094   1.615  11.991 -0.2623 -0.2009  0.5332
  815MPD2    H712005   4.182   1.642  11.947  0.5541 -2.2240  0.9192
  816MPD2     C12006   3.445   1.221  17.188  0.0341  0.0130  0.5693
  816MPD2    C112007   3.517   1.288  17.290  0.2367 -1.0639  0.6056
  816MPD2    C212008   3.664   1.268  17.287  0.6172 -0.6903 -0.0256
  816MPD2    C312009   3.720   1.174  17.199  0.8349  0.6533 -0.1685
  816MPD2    C412010   3.637   1.101  17.119 -0.7509  0.0906 -0.1967
  816MPD2    C512011   3.506   1.125  17.107 -0.1407  0.4660  0.1690
  816MPD2     H12012   3.732   1.320  17.353 -0.6385 -0.0518  0.7756
  816MPD2    H112013   3.670   1.017  17.059 -1.4470 -0.3573  0.0467
  816MPD2    H212014   3.342   1.252  17.175 -1.0058 -4.7268 -2.5156
  816MPD2    H312015   3.438   1.078  17.037 -1.1996 -0.2225  1.6696
  816MPD2     N12016   3.857   1.166  17.198 -0.2568 -0.0159 -0.6198
  816MPD2    H512017   3.905   1.224  17.266  2.6083  0.8015 -3.3324
  816MPD2    N112018   3.456   1.401  17.352  0.0873  0.6375 -0.2746
  816MPD2    H712019   3.357   1.418  17.340 -0.0458  0.6620  0.9135
  817MPD2     C12020   3.708   2.854   9.954 -0.0407 -0.4860  0.5753
  817MPD2    C112021   3.839   2.891   9.923  0.3058  0.2040 -0.1911
  817MPD2    C212022   3.870   3.023   9.892 -0.2560  0.0093 -0.1363
  817MPD2    C312023   3.765   3.114   9.887  0.5715  0.6943  0.4510
  817MPD2    C412024   3.635   3.074   9.909  0.7136 -0.0704  0.6990
  817MPD2    C512025   3.605   2.944   9.948 -0.8145  0.2417  0.3427
  817MPD2     H12026   3.973   3.057   9.889 -1.6794  4.2680 -1.2254
  817MPD2    H112027   3.549   3.139   9.909  1.9359  1.5529  0.9675
  817MPD2    H212028   3.689   2.750   9.980  0.3389 -0.9215 -0.8735
  817MPD2    H312029   3.503   2.911   9.966 -0.5835  0.6474  2.3694
  817MPD2     N12030   3.804   3.248   9.863  0.1980 -0.2083  0.7795
  817MPD2    H512031   3.898   3.270   9.831  0.3801 -1.6494  0.3092
  817MPD2    N112032   3.946   2.811   9.926 -0.2457 -0.7940 -0.3234
  817MPD2    H712033   4.032   2.846   9.886  0.8598 -2.5749  0.5161
  818MPD2     C12034   2.748   2.383   9.670 -0.4174  0.5683  0.1540
  818MPD2    C112035   2.667   2.290   9.729  0.1584  0.6932 -0.0956
  818MPD2    C212036   2.691   2.159   9.727 -0.1735 -0.0546 -0.2497
  818MPD2    C312037   2.819   2.124   9.686  0.7338  0.0541 -0.3372
  818MPD2    C412038   2.898   2.214   9.616 -0.1241  0.1545  0.4604
  818MPD2    C512039   2.868   2.350   9.615 -0.5078  0.1468  0.9018
  818MPD2     H12040   2.624   2.093   9.781  0.4802 -0.5314 -0.0198
  818MPD2    H112041   2.996   2.180   9.583 -0.1098  1.7342 -1.0975
  818MPD2    H212042   2.724   2.489   9.677  2.3781  1.0056  2.8220
  818MPD2    H312043   2.927   2.422   9.560 -0.7859  0.3035  0.8073
  818MPD2     N12044   2.870   1.990   9.716  0.2577  0.9352 -0.1399
  818MPD2    H512045   2.970   1.978   9.712  0.2739  0.3719  1.9476
  818MPD2    N112046   2.555   2.322   9.807  0.0301 -0.6133  0.4030
  818MPD2    H712047   2.498   2.252   9.855  0.4415 -0.2945  1.3646
  819MPD2     C12048   0.324   4.687  15.705 -1.0128  0.2848 -0.1953
  819MPD2    C112049   0.322   4.572  15.623  0.7272  0.5166  0.7245
  819MPD2    C212050   0.443   4.503  15.616  0.5083 -0.2549  0.5507
  819MPD2    C312051   0.550   4.538  15.697  0.0971  0.2189  0.0301
  819MPD2    C412052   0.548   4.653  15.777 -0.1768  0.8866  0.0383
  819MPD2    C512053   0.427   0.001  15.786 -0.7291 -0.2900  0.2959
  819MPD2     H12054   0.454   4.420  15.548 -1.2078 -0.6311  0.7315
  819MPD2    H112055   0.629   4.684  15.843 -0.9870 -0.0437  1.4883
  819MPD2    H212056   0.237   0.029  15.709 -1.8521 -0.8212 -0.2570
  819MPD2    H312057   0.418   0.093  15.842 -0.8449 -2.2951  3.5903
  819MPD2     N12058   0.667   4.458  15.685  0.7024 -0.5775  0.0031
  819MPD2    H512059   0.661   4.395  15.606  0.7442 -0.5034 -0.0593
  819MPD2    N112060   0.204   4.532  15.552  0.1384  0.5282 -0.2356
  819MPD2    H712061   0.119   4.587  15.565  0.7088  1.7826 -1.8727
  820MPD2     C12062   4.032   0.063  15.306  0.4929  0.5189  0.3568
  820MPD2    C112063   4.074   0.007  15.422  0.3834  0.4059  0.1079
  820MPD2    C212064   4.190   4.658  15.430 -0.5846 -0.2916  0.6980
  820MPD2    C312065   4.255   4.630  15.312 -0.0721  0.2741 -0.6286
  820MPD2    C412066   4.204   4.666  15.193  0.5192  0.2183 -0.5450
  820MPD2    C512067   4.095   0.021  15.192 -0.2497 -0.8923  0.9359
  820MPD2     H12068   4.230   4.617  15.521  0.5248 -0.1899  0.2523
  820MPD2    H112069   4.266   4.649  15.105 -1.2520 -0.4619 -1.6476
  820MPD2    H212070   3.941   0.122  15.299 -0.9487 -1.7577  0.2294
  820MPD2    H312071   4.057   0.059  15.098 -0.6218 -1.3635  0.8973
  820MPD2     N12072   4.373   4.562  15.308 -0.3736  0.0359  0.2547
  820MPD2    H512073   4.398   4.528  15.215  2.1389  3.3488 -0.2894
  820MPD2    N112074   4.004   0.050  15.539  0.7628  0.0647  0.2823
  820MPD2    H712075   3.945   0.132  15.529  1.2095  0.3155 -0.2474
  821MPD2     C12076   0.328   0.995  13.428  0.1366 -0.2570  0.4601
  821MPD2    C112077   0.438   1.036  13.495 -0.0312 -0.5535  0.2948
  821MPD2    C212078   0.544   1.103  13.427  0.5122  0.2699  0.0121
  821MPD2    C312079   0.538   1.136  13.291  0.3779  0.0080  0.4672
  821MPD2    C412080   0.427   1.090  13.225 -0.4404 -1.1513  0.8181
  821MPD2    C512081   0.330   1.018  13.291 -0.6888 -0.1830 -0.1004
  821MPD2     H12082   0.629   1.127  13.490  1.3776 -2.9633  0.1062
  821MPD2    H112083   0.413   1.122  13.123  0.3938 -2.0566  0.4250
  821MPD2    H212084   0.256   0.936  13.484  0.9406 -2.6771 -1.0894
  821MPD2    H312085   0.244   0.994  13.230 -1.4385  0.0265  0.8728
  821MPD2     N12086   0.642   1.182  13.218 -0.5236  0.1330 -0.0455
  821MPD2    H512087   0.627   1.196  13.118 -0.2716 -0.1742 -0.1257
  821MPD2    N112088   0.467   1.015  13.637 -0.6834  0.5269 -0.2008
  821MPD2    H712089   0.555   1.055  13.668  0.0882 -1.8183  0.6442
  822MPD2     C12090   1.153   0.622  16.136  0.3214  0.3043 -0.9057
  822MPD2    C112091   1.236   0.696  16.213  0.4322  0.4501  0.3050
  822MPD2    C212092   1.185   0.809  16.277 -0.4585  0.6899  0.1312
  822MPD2    C312093   1.049   0.850  16.253 -0.6697  0.6815 -0.6929
  822MPD2    C412094   0.961   0.771  16.172  0.4475  0.8628  0.3773
  822MPD2    C512095   1.019   0.655  16.124 -0.2683 -0.4458  0.4887
  822MPD2     H12096   1.248   0.865  16.345 -0.0200 -0.9402  1.0660
  822MPD2    H112097   0.860   0.799  16.146  0.4103 -1.9493 -2.5995
  822MPD2    H212098   1.192   0.538  16.078  0.4448 -1.2424  1.4257
  822MPD2    H312099   0.955   0.590  16.066 -1.2247 -0.9045  2.0555
  822MPD2     N12100   0.998   0.972  16.297  0.2720 -0.4843  0.0755
  822MPD2    H512101   0.897   0.979  16.307  0.1295 -1.3852 -0.7495
  822MPD2    N112102   1.373   0.663  16.238  0.6579 -0.3457  0.3361
  822MPD2    H712103   1.417   0.707  16.318 -1.2691  0.7710  0.7793
  823MPD2     C12104   0.751   1.347  17.040  0.6106 -1.1509  0.1916
  823MPD2    C112105   0.800   1.255  16.952  0.0101 -0.2578 -0.0012
  823MPD2    C212106   0.851   1.137  17.005 -0.7569 -0.1714  0.1671
  823MPD2    C312107   0.865   1.127  17.147 -1.0248  0.7986  0.0743
  823MPD2    C412108   0.811   1.224  17.230  0.3506  0.1609 -0.5560
  823MPD2    C512109   0.748   1.330  17.177  0.1868  0.6568 -0.4867
  823MPD2     H12110   0.895   1.060  16.943 -0.4952  4.3802 -5.2883
  823MPD2    H112111   0.825   1.232  17.338 -1.1118 -0.9002 -0.2883
  823MPD2    H212112   0.699   1.436  17.005  4.2079  0.6843 -0.4882
  823MPD2    H312113   0.708   1.409  17.240 -1.5242 -1.3266  0.9185
  823MPD2     N12114   0.937   1.028  17.213  0.3627 -0.6462  0.0490
  823MPD2    H512115   0.935   1.039  17.313  3.1580 -1.5662  0.2086
  823MPD2    N112116   0.811   1.282  16.813  0.2979 -0.8261  0.4963
  823MPD2    H712117   0.784   1.375  16.784  1.1025 -0.1802  1.8018
  824MPD2     C12118   1.587   4.664  15.984 -0.2212 -0.2730  0.1156
  824MPD2    C112119   1.692   0.017  16.032  0.5903 -0.2549  0.6968
  824MPD2    C212120   1.822   4.696  16.016  0.2409  0.1647 -0.9007
  824MPD2    C312121   1.844   4.572  15.956 -0.2142 -0.2499  0.4667
  824MPD2    C412122   1.739   4.498  15.917 -0.3865 -0.5412 -0.2505
  824MPD2    C512123   1.609   4.541  15.934  0.3066  0.4247  0.3302
  824MPD2     H12124   1.901   0.038  16.051 -2.7349  2.3019  1.8453
  824MPD2    H112125   1.753   4.394  15.893  1.4984 -0.1463 -0.8456
  824MPD2    H212126   1.489   4.709  15.995 -0.8119 -2.1285  2.6642
  824MPD2    H312127   1.531   4.471  15.907 -1.2100  1.6245  1.5958
  824MPD2     N12128   1.974   4.532  15.935 -0.0017 -0.1900 -0.4641
  824MPD2    H512129   2.047   4.603  15.937 -0.1526 -0.1336  2.1243
  824MPD2    N112130   1.659   0.132  16.108 -0.4827  0.2896 -0.2341
  824MPD2    H712131   1.564   0.166  16.099 -0.0653  1.3562 -0.7061
  825MPD2     C12132   2.587   4.565  15.290 -0.6664 -0.7741  0.1654
  825MPD2    C112133   2.469   4.607  15.353 -0.4314  0.6390  0.1881
  825MPD2    C212134   2.404   4.722  15.306 -0.3412  0.3587 -1.0066
  825MPD2    C312135   2.462   0.074  15.198 -0.2835 -0.1334  0.5424
  825MPD2    C412136   2.572   0.020  15.128  0.8020  0.0139  0.7056
  825MPD2    C512137   2.634   4.633  15.177  0.7385  0.2436  0.1251
  825MPD2     H12138   2.300   0.015  15.333 -0.6228 -2.4443 -0.3941
  825MPD2    H112139   2.598   0.065  15.033  0.4616 -2.5769 -0.5951
  825MPD2    H212140   2.648   4.483  15.326  1.2529  0.9023  0.7104
  825MPD2    H312141   2.713   4.594  15.114  2.0344 -3.0435  3.7873
  825MPD2     N12142   2.410   0.189  15.139 -0.3605  0.0854  0.0295
  825MPD2    H512143   2.448   0.220  15.050 -0.7556  0.8246  0.1123
  825MPD2    N112144   2.414   4.532  15.466  0.6226  0.0260  0.0971
  825MPD2    H712145   2.479   4.462  15.503  1.4407  0.4503 -0.5327
  826MPD2     C12146   2.023   0.040  13.416 -0.3693  0.0448 -0.0112
  826MPD2    C112147   2.117   0.079  13.502  0.3993 -0.5143 -0.4293
  826MPD2    C212148   2.103   0.201  13.565  0.4271  0.4718 -0.2154
  826MPD2    C312149   2.006   0.290  13.529  0.6441 -0.2588  0.0989
  826MPD2    C412150   1.911   0.249  13.433 -0.1403 -0.1077  0.1611
  826MPD2    C512151   1.928   0.127  13.376 -0.3518 -0.2293 -0.1917
  826MPD2     H12152   2.167   0.214  13.652 -0.7252  0.5924  0.6157
  826MPD2    H112153   1.830   0.313  13.401 -0.8374  0.3627  2.8582
  826MPD2    H212154   2.031   4.665  13.371 -1.3126  0.4466 -1.0383
  826MPD2    H312155   1.858   0.096  13.300 -1.0353 -1.2703  0.8627
  826MPD2     N12156   1.984   0.410  13.595 -0.2480  0.4982 -0.0302
  826MPD2    H512157   1.904   0.466  13.569  0.7037  0.9871 -1.8969
  826MPD2    N112158   2.218   4.708  13.525  0.2687  0.2747  0.7206
  826MPD2    H712159   2.202   4.625  13.469 -1.4701  0.0539  1.5313
  827MPD2     C12160   3.363   0.815   9.963 -0.1405 -0.2659  0.2191
  827MPD2    C112161   3.282   0.848  10.071 -0.3125 -0.2125 -0.4576
  827MPD2    C212162   3.165   0.769  10.084 -0.3089 -0.2461  0.3760
  827MPD2    C312163   3.135   0.657  10.003 -0.0003  0.4022 -0.5335
  827MPD2    C412164   3.226   0.629   9.900  0.3013  1.1298 -0.4150
  827MPD2    C512165   3.335   0.704   9.883 -0.5015 -0.0761  0.7589
  827MPD2     H12166   3.112   0.783  10.178  1.0778 -0.0062  1.1221
  827MPD2    H112167   3.201   0.554   9.826 -0.8652 -0.5174  1.6693
  827MPD2    H212168   3.447   0.878   9.935 -0.5355  0.5728  0.9122
  827MPD2    H312169   3.392   0.689   9.792  0.1634 -0.1347  1.1819
  827MPD2     N12170   3.007   0.588  10.019 -0.2656  0.7300  0.6714
  827MPD2    H512171   2.951   0.630  10.093 -0.5587  2.6526 -0.6183
  827MPD2    N112172   3.342   0.935  10.165  0.3052  0.0639 -0.3339
  827MPD2    H712173   3.435   0.971  10.146 -0.5810  2.6892  0.2482
  828MPD2     C12174   0.959   0.919  13.115  0.2662 -0.1170 -0.2534
  828MPD2    C112175   1.015   0.998  13.015  0.1690  1.0679 -0.2707
  828MPD2    C212176   1.151   1.025  13.012  0.5896  0.3582 -0.4083
  828MPD2    C312177   1.228   0.967  13.113  0.1316  0.3070 -0.1076
  828MPD2    C412178   1.177   0.885  13.213 -0.5771 -0.1672 -0.4491
  828MPD2    C512179   1.045   0.871  13.219 -0.7876  0.6848 -0.1308
  828MPD2     H12180   1.190   1.094  12.938  0.0635  0.7880 -0.2900
  828MPD2    H112181   1.249   0.859  13.290 -0.1631 -2.0029 -1.4465
  828MPD2    H212182   0.854   0.890  13.116 -0.5562  2.8470  0.3731
  828MPD2    H312183   0.993   0.812  13.294 -0.6222 -0.0634 -0.6069
  828MPD2     N12184   1.370   0.990  13.121  0.2037 -1.1222 -0.0851
  828MPD2    H512185   1.427   0.956  13.198  1.3086  0.0431 -0.3844
  828MPD2    N112186   0.933   1.044  12.905 -0.4457  0.1222 -0.2921
  828MPD2    H712187   0.981   1.094  12.830  1.4730  0.5666  1.2420
  829MPD2     C12188   1.282   1.395  12.206  0.2958  0.0661 -0.4165
  829MPD2    C112189   1.175   1.328  12.158  1.1298  0.3001 -0.0150
  829MPD2    C212190   1.082   1.270  12.243 -0.5162 -0.0190  0.3116
  829MPD2    C312191   1.094   1.289  12.377 -0.2303 -0.2280 -0.6552
  829MPD2    C412192   1.199   1.362  12.422 -0.5174 -0.2046  0.4109
  829MPD2    C512193   1.287   1.421  12.342  0.1584  0.0808  0.7246
  829MPD2     H12194   1.007   1.201  12.205  0.7863 -1.3342  0.1360
  829MPD2    H112195   1.209   1.366  12.530 -0.1440 -0.7350  0.3955
  829MPD2    H212196   1.352   1.441  12.137  2.6509  1.5551  2.9735
  829MPD2    H312197   1.358   1.492  12.383 -0.0245 -0.8645  2.6402
  829MPD2     N12198   1.001   1.245  12.478 -0.3112  0.3305 -0.0802
  829MPD2    H512199   1.014   1.265  12.576  1.3106  0.3242 -0.2891
  829MPD2    N112200   1.164   1.312  12.012 -0.0252 -0.3683  0.5831
  829MPD2    H712201   1.236   1.355  11.956  0.6169  0.2237  1.8451
  830MPD2     C12202   0.909   4.446  15.143  0.2897 -0.8003 -0.3039
  830MPD2    C112203   1.003   4.371  15.209  0.0335  0.4354  0.0367
  830MPD2    C212204   1.131   4.356  15.160 -0.7657  0.5876  0.3159
  830MPD2    C312205   1.160   4.411  15.034  0.0664  0.3492 -0.4099
  830MPD2    C412206   1.069   4.479  14.965 -0.1735 -0.5751 -0.4208
  830MPD2    C512207   0.945   4.496  15.021  0.4195  0.2458 -0.3890
  830MPD2     H12208   1.213   4.320  15.220 -0.4892  0.7714  0.0502
  830MPD2    H112209   1.082   4.527  14.869 -0.2355 -2.3409 -1.3149
  830MPD2    H212210   0.814   4.473  15.187  0.9066  0.2378  0.4051
  830MPD2    H312211   0.871   4.553  14.966 -1.1891 -1.2999  0.1700
  830MPD2     N12212   1.289   4.420  14.984  0.6890  0.2268  0.3162
  830MPD2    H512213   1.293   4.471  14.897 -0.0662  0.2466  0.2878
  830MPD2    N112214   0.966   4.330  15.341 -0.6036 -0.2786  0.2538
  830MPD2    H712215   0.874   4.365  15.367  0.2702  2.2879 -0.0828
  831MPD2     C12216   1.329   1.176  16.668 -0.2548 -0.5924 -0.4346
  831MPD2    C112217   1.336   1.067  16.587 -0.0982 -0.5206  0.1270
  831MPD2    C212218   1.253   0.957  16.611  0.3443 -0.1440  0.0176
  831MPD2    C312219   1.171   0.955  16.717 -0.4004  0.0415  0.4159
  831MPD2    C412220   1.157   1.069  16.790 -0.2063  0.2923  0.6427
  831MPD2    C512221   1.235   1.181  16.767 -0.0882 -0.1822 -0.3382
  831MPD2     H12222   1.265   0.873  16.543  1.0008 -0.5250  0.5999
  831MPD2    H112223   1.090   1.080  16.874  0.1209  0.8976  0.8279
  831MPD2    H212224   1.396   1.260  16.661  0.1521 -0.7783  1.1804
  831MPD2    H312225   1.227   1.274  16.821 -4.1358 -0.9881  0.4478
  831MPD2     N12226   1.090   0.847  16.747 -0.0980 -0.0709 -0.6832
  831MPD2    H512227   1.021   0.866  16.818  1.2126 -0.3699  0.6623
  831MPD2    N112228   1.430   1.073  16.483 -0.3256 -0.2018  0.1041
  831MPD2    H712229   1.479   1.160  16.462  0.2139 -0.8421 -1.2855
  832MPD2     C12230   4.577   2.370  16.884 -0.4363 -0.2002 -0.1285
  832MPD2    C112231   4.556   2.500  16.934 -0.3513 -0.2763  0.4963
  832MPD2    C212232   4.424   2.539  16.957  0.5853  0.2815  1.5973
  832MPD2    C312233   4.314   2.457  16.938  0.3127 -0.4932 -0.9899
  832MPD2    C412234   4.338   2.332  16.890  0.8141 -0.7499 -0.1174
  832MPD2    C512235   4.468   2.291  16.866 -0.1878 -0.9758  0.4656
  832MPD2     H12236   4.408   2.631  17.011 -0.3543 -0.0771  1.9328
  832MPD2    H112237   4.261   2.256  16.879  0.7015 -0.7188  0.4482
  832MPD2    H212238   4.681   2.341  16.878 -0.4878 -0.7447  1.5321
  832MPD2    H312239   4.480   2.187  16.835  0.2786 -0.4924 -0.9606
  832MPD2     N12240   4.179   2.486  16.963  0.3195  0.6407  0.2273
  832MPD2    H512241   4.117   2.407  16.946 -1.0480  1.4664  1.2958
  832MPD2    N112242   4.674   2.577  16.953 -0.1306  0.3424 -0.4463
  832MPD2    H712243   0.040   2.532  16.935 -0.7719  0.3543 -3.6240
  833MPD2     C12244   2.086   3.226  12.412 -0.7191  0.2930 -0.1295
  833MPD2    C112245   2.164   3.328  12.364  0.3632  0.9834 -0.3930
  833MPD2    C212246   2.242   3.309  12.253  0.1837  0.1903  0.2677
  833MPD2    C312247   2.219   3.198  12.173 -0.4322  0.0086 -0.1205
  833MPD2    C412248   2.133   3.101  12.220 -0.6719  0.1322 -0.8723
  833MPD2    C512249   2.074   3.111  12.338  0.2147  0.1410  0.7112
  833MPD2     H12250   2.319   3.381  12.229 -0.5874  0.8879 -0.1496
  833MPD2    H112251   2.095   3.024  12.154 -0.0980  0.8173 -2.0039
  833MPD2    H212252   2.033   3.242  12.505 -0.4355 -4.1915  0.7988
  833MPD2    H312253   2.007   3.037  12.381 -0.5705 -0.2307 -1.1636
  833MPD2     N12254   2.292   3.175  12.054  0.1139 -0.0951 -0.1062
  833MPD2    H512255   2.268   3.082  12.020  2.2582 -1.3124  1.6958
  833MPD2    N112256   2.162   3.449  12.439  0.2957 -0.2370  0.1167
  833MPD2    H712257   2.107   3.451  12.524  1.7048 -0.8639  1.0446
  834MPD2     C12258   1.690   2.985  11.433 -0.0117 -0.4579 -0.1192
  834MPD2    C112259   1.793   2.982  11.342 -0.0768 -0.4311  0.2631
  834MPD2    C212260   1.919   3.022  11.385  0.0910  0.7456 -0.5003
  834MPD2    C312261   1.942   3.059  11.517 -0.0430 -0.2278 -0.0568
  834MPD2    C412262   1.836   3.071  11.604 -0.3911 -0.5015 -0.1730
  834MPD2    C512263   1.721   3.034  11.555  0.4415 -0.2684 -0.2107
  834MPD2     H12264   2.005   3.041  11.321  0.6532  2.9583  0.9186
  834MPD2    H112265   1.842   3.097  11.709 -1.2390  0.2201 -0.3043
  834MPD2    H212266   1.590   2.958  11.400  0.3291 -0.2310 -1.3413
  834MPD2    H312267   1.642   3.038  11.629  0.1839 -1.8023 -0.4020
  834MPD2     N12268   2.074   3.095  11.552 -0.2820 -0.8683  0.6681
  834MPD2    H512269   2.138   3.093  11.473 -0.4764  1.8634  0.4443
  834MPD2    N112270   1.758   2.948  11.207  0.3926 -0.5573  0.6120
  834MPD2    H712271   1.663   2.923  11.182  0.5113 -1.4512  1.0381
  835MPD2     C12272   2.013   1.705  10.941 -0.0868  0.7280 -0.7450
  835MPD2    C112273   1.881   1.664  10.947  0.0967  0.5137  0.4576
  835MPD2    C212274   1.808   1.705  11.057  0.1155  0.9323  0.3879
  835MPD2    C312275   1.863   1.771  11.164  0.3588  0.1278 -0.4257
  835MPD2    C412276   1.999   1.800  11.154  0.1411 -0.2098  1.0465
  835MPD2    C512277   2.073   1.774  11.043 -0.4165 -0.1891  0.7393
  835MPD2     H12278   1.708   1.668  11.071  1.0678 -2.6317 -2.2780
  835MPD2    H112279   2.057   1.844  11.234  1.3954 -1.7449  0.9776
  835MPD2    H212280   2.073   1.684  10.853  0.2770 -0.5064 -0.2021
  835MPD2    H312281   2.179   1.797  11.038 -0.5767  0.9125  2.4507
  835MPD2     N12282   1.794   1.806  11.283  0.2009 -0.0832  1.0069
  835MPD2    H512283   1.849   1.835  11.363  1.0850 -0.1647  0.4266
  835MPD2    N112284   1.816   1.598  10.846  0.5538 -0.5625  0.0221
  835MPD2    H712285   1.716   1.586  10.858  0.1797  1.6385 -0.7664
  836MPD2     C12286   1.083   1.583  11.400 -0.3465  0.2021  0.6358
  836MPD2    C112287   1.134   1.636  11.515 -0.1520  0.6788  0.3575
  836MPD2    C212288   1.060   1.615  11.634 -0.1821  0.4734  0.9804
  836MPD2    C312289   0.939   1.549  11.632  0.3669  0.8338 -0.2082
  836MPD2    C412290   0.890   1.507  11.505 -0.3695 -0.1132  0.9214
  836MPD2    C512291   0.966   1.517  11.395 -0.0782 -0.0246  0.0592
  836MPD2     H12292   1.095   1.652  11.730 -1.3393 -0.7462  1.8752
  836MPD2    H112293   0.796   1.454  11.495  1.2981 -3.1866  1.5892
  836MPD2    H212294   1.138   1.571  11.307 -0.7915  0.9849  0.2724
  836MPD2    H312295   0.935   1.460  11.308 -1.6807  1.2125 -0.1656
  836MPD2     N12296   0.854   1.531  11.746  0.0884  0.9729  0.2326
  836MPD2    H512297   0.773   1.472  11.729  0.4377  1.2471 -2.3929
  836MPD2    N112298   1.259   1.706  11.519  0.4145 -0.0993  0.0673
  836MPD2    H712299   1.315   1.702  11.434  0.1694  1.1161 -0.1517
  837MPD2     C12300   0.382   1.048   9.934  0.1745 -0.0032 -0.6746
  837MPD2    C112301   0.249   1.056   9.976 -0.6832 -0.4868 -0.1612
  837MPD2    C212302   0.216   1.171  10.041 -0.7776 -0.5893 -0.0905
  837MPD2    C312303   0.308   1.274  10.070  0.0759 -0.5887 -0.6428
  837MPD2    C412304   0.446   1.252  10.046 -0.2957 -0.0844 -0.2509
  837MPD2    C512305   0.474   1.146   9.969  0.3536  0.0648  0.2157
  837MPD2     H12306   0.114   1.197  10.066 -0.1011  1.1676  0.8879
  837MPD2    H112307   0.524   1.324  10.065 -1.5259  1.0339  0.5678
  837MPD2    H212308   0.423   0.960   9.885 -0.4769 -0.5563 -0.2122
  837MPD2    H312309   0.576   1.133   9.935 -0.1298 -3.5197  0.1742
  837MPD2     N12310   0.262   1.399  10.120 -0.0242  0.2836 -0.0023
  837MPD2    H512311   0.162   1.413  10.129 -0.2343 -1.5643  0.5464
  837MPD2    N112312   0.142   0.968   9.942  0.4382 -0.2409  0.8821
  837MPD2    H712313   0.055   0.993   9.987 -0.7224 -0.5161 -1.2214
  838MPD2     C12314   3.158   4.181  11.958  1.0309  0.1137  0.0493
  838MPD2    C112315   3.137   4.110  12.071 -0.2561  0.4709 -0.5892
  838MPD2    C212316   3.055   4.001  12.066  0.0657  0.0822  0.5210
  838MPD2    C312317   2.992   3.968  11.951  0.3549  0.1714 -0.1937
  838MPD2    C412318   3.011   4.038  11.837  0.0519 -0.3581  0.1886
  838MPD2    C512319   3.089   4.149  11.844  0.0872  1.2953  0.0116
  838MPD2     H12320   3.042   3.941  12.155  0.7773 -1.6698 -0.5698
  838MPD2    H112321   2.957   4.022  11.744 -1.3120  0.2535  0.8869
  838MPD2    H212322   3.224   4.267  11.957 -1.0301  1.6870 -0.5676
  838MPD2    H312323   3.112   4.211  11.758 -0.6501 -1.3469 -2.1081
  838MPD2     N12324   2.898   3.865  11.959 -0.0461 -0.2902 -0.3764
  838MPD2    H512325   2.872   3.829  12.050 -0.2747  0.9849  0.0494
  838MPD2    N112326   3.210   4.122  12.182  0.0801 -0.3546 -0.6558
  838MPD2    H712327   3.188   4.054  12.254  1.3536 -1.2341 -1.0978
  839MPD2     C12328   2.977   3.494  12.123 -0.4590 -0.0625  0.1602
  839MPD2    C112329   3.039   3.559  12.011 -0.6185 -0.8337  0.6606
  839MPD2    C212330   3.149   3.644  12.035 -0.1722  0.6505 -0.3574
  839MPD2    C312331   3.195   3.673  12.159 -0.2558  0.3293 -0.2981
  839MPD2    C412332   3.138   3.602  12.267  0.1133 -0.5581 -0.1784
  839MPD2    C512333   3.033   3.520  12.243 -0.7335 -0.5738  0.8189
  839MPD2     H12334   3.190   3.702  11.953  1.9255 -1.6989 -0.9819
  839MPD2    H112335   3.178   3.614  12.368  3.4242  0.0968 -1.5581
  839MPD2    H212336   2.909   3.410  12.119 -0.5310  0.0099 -0.1160
  839MPD2    H312337   2.987   3.475  12.331  1.4920 -1.1046  1.7138
  839MPD2     N12338   3.303   3.759  12.194  0.0957 -0.0860 -0.0707
  839MPD2    H512339   3.323   3.774  12.292  1.4025 -0.7811 -0.2258
  839MPD2    N112340   2.995   3.539  11.874 -0.0144  0.2314 -0.1996
  839MPD2    H712341   3.049   3.575  11.795  0.6932  3.5295  1.7684
  840MPD2     C12342   3.533   1.606  10.242  0.0364  1.0593 -0.6881
  840MPD2    C112343   3.590   1.524  10.333 -0.4951  0.7148 -0.0915
  840MPD2    C212344   3.716   1.553  10.398  1.0592 -0.5913 -0.2299
  840MPD2    C312345   3.767   1.681  10.385  0.6045  0.3001  0.1900
  840MPD2    C412346   3.711   1.759  10.288  0.2248 -0.0931 -0.0829
  840MPD2    C512347   3.597   1.729  10.218  0.0159  0.4344 -0.2035
  840MPD2     H12348   3.767   1.478  10.456 -1.1766 -1.5200  0.5347
  840MPD2    H112349   3.752   1.857  10.267  0.1166  0.3985  2.0575
  840MPD2    H212350   3.439   1.588  10.190  1.1461 -0.7995 -2.0399
  840MPD2    H312351   3.543   1.814  10.178 -1.5508 -1.4496 -2.0993
  840MPD2     N12352   3.880   1.733  10.452  0.2233 -0.4059 -0.2408
  840MPD2    H512353   3.917   1.826  10.435  1.5976 -0.4239  2.6441
  840MPD2    N112354   3.537   1.394  10.363 -0.1334 -0.3277  0.3599
  840MPD2    H712355   3.463   1.362  10.302 -1.0602  1.1591  0.6987
  841MPD2     C12356   2.723   1.680  14.204 -0.0076  0.4321 -0.0198
  841MPD2    C112357   2.787   1.561  14.238 -0.1171  0.0055 -0.0281
  841MPD2    C212358   2.888   1.568  14.332 -0.3440 -0.1510  0.4504
  841MPD2    C312359   2.931   1.689  14.388  0.1594  0.5170 -0.0583
  841MPD2    C412360   2.865   1.802  14.352 -0.4918  0.2465 -0.2549
  841MPD2    C512361   2.756   1.796  14.265 -0.1213  0.0492 -0.0120
  841MPD2     H12362   2.952   1.484  14.359 -0.9700 -0.7778 -0.0353
  841MPD2    H112363   2.879   1.904  14.387 -0.0779  0.1337 -0.0947
  841MPD2    H212364   2.633   1.687  14.144 -0.1952  1.4665  0.3902
  841MPD2    H312365   2.715   1.890  14.231  1.4648  0.5430 -0.5936
  841MPD2     N12366   3.042   1.688  14.474  0.1999 -0.1477 -0.0672
  841MPD2    H512367   3.069   1.602  14.521 -0.0742  0.0106  0.3773
  841MPD2    N112368   2.753   1.444  14.166 -0.2771  0.4291  0.1209
  841MPD2    H712369   2.831   1.379  14.166 -0.5435  0.1361 -2.2703
  842MPD2     C12370   2.927   2.163  16.434  0.1077 -0.6459 -0.2546
  842MPD2    C112371   3.020   2.260  16.457  0.0464  0.0553 -0.4873
  842MPD2    C212372   3.100   2.258  16.572  1.0596  0.3148  0.1693
  842MPD2    C312373   3.080   2.152  16.658 -0.1969  0.4520 -0.0742
  842MPD2    C412374   2.985   2.056  16.634 -0.2131 -0.6077 -0.2301
  842MPD2    C512375   2.911   2.058  16.514 -0.6359  0.5921  0.0004
  842MPD2     H12376   3.159   2.342  16.606  0.8441 -0.5413  2.6353
  842MPD2    H112377   2.974   1.982  16.713  1.4397  0.3578  0.8916
  842MPD2    H212378   2.866   2.171  16.345  0.2772 -0.2340 -0.3359
  842MPD2    H312379   2.836   1.983  16.493  1.2173 -1.0294 -0.8275
  842MPD2     N12380   3.141   2.151  16.789  0.0599 -0.3365 -0.0272
  842MPD2    H512381   3.117   2.073  16.850 -2.7998 -0.6489 -1.5537
  842MPD2    N112382   3.022   2.364  16.368 -0.6852  0.2527  0.2570
  842MPD2    H712383   2.950   2.362  16.297  1.5115  2.1376 -1.9984
  843MPD2     C12384   1.247   3.057   0.169  0.7828  0.0206 -0.6486
  843MPD2    C112385   1.308   2.946   0.217  0.5828 -0.4008 -0.1951
  843MPD2    C212386   1.450   2.934   0.192 -0.4879  0.0622  0.0076
  843MPD2    C312387   1.524   3.036   0.126 -0.7537 -0.3813  0.0648
  843MPD2    C412388   1.453   3.149   0.083 -0.4030  0.0496  0.1261
  843MPD2    C512389   1.315   3.153   0.103 -0.5454  0.1295  0.1023
  843MPD2     H12390   1.491   2.843   0.232  1.8966  0.5679 -1.2886
  843MPD2    H112391   1.504   3.236   0.043  1.0135 -1.0386 -0.4672
  843MPD2    H212392   1.143   3.083   0.184  1.3301  1.5723  0.4605
  843MPD2    H312393   1.255   3.240   0.083 -0.3280 -0.1083 -1.5834
  843MPD2     N12394   1.662   3.040   0.126 -0.2643  0.0625  0.2691
  843MPD2    H512395   1.710   3.127   0.102  0.5102  0.2477  2.4825
  843MPD2    N112396   1.220   2.853   0.280 -0.2035  0.8420 -0.1786
  843MPD2    H712397   1.121   2.875   0.283 -0.4130 -0.1252 -0.0851
  844MPD2     C12398   4.133   2.693  16.627  0.4548 -0.1445  0.1192
  844MPD2    C112399   4.238   2.603  16.614  0.5331  0.3318 -1.2871
  844MPD2    C212400   4.369   2.649  16.639  0.1284  0.1335 -0.1994
  844MPD2    C312401   4.393   2.782  16.663  0.1798  0.2067  0.1411
  844MPD2    C412402   4.289   2.868  16.659 -0.2564 -0.0425  0.5360
  844MPD2    C512403   4.166   2.826  16.641  0.1059 -0.1719  0.0084
  844MPD2     H12404   4.454   2.583  16.652 -0.8990 -0.6867  2.3109
  844MPD2    H112405   4.312   2.974  16.668 -0.6377 -0.0142  1.1391
  844MPD2    H212406   4.031   2.662  16.608 -0.3342  0.6242  3.1087
  844MPD2    H312407   4.092   2.905  16.635  0.9472  0.2102 -5.3042
  844MPD2     N12408   4.527   2.818  16.688  0.3497 -0.2336 -0.8681
  844MPD2    H512409   4.594   2.744  16.704  1.4775  0.5113 -2.1794
  844MPD2    N112410   4.216   2.462  16.601  0.0404  0.4608  0.1577
  844MPD2    H712411   4.303   2.411  16.605  0.8909  1.8578 -0.2965
  845MPD2     C12412   0.114   3.706  17.062 -0.6684 -1.0661  0.2970
  845MPD2    C112413   0.015   3.619  17.101  0.3047  0.1262 -0.3719
  845MPD2    C212414   0.023   3.493  17.046  0.1106 -0.4024 -0.5170
  845MPD2    C312415   0.121   3.447  16.962  0.8670 -0.0695 -0.5103
  845MPD2    C412416   0.213   3.537  16.919  0.2749  0.1749  0.1504
  845MPD2    C512417   0.211   3.663  16.970 -0.3321 -0.0709 -0.2649
  845MPD2     H12418   4.662   3.426  17.060  0.2194 -0.0400  1.7500
  845MPD2    H112419   0.278   3.511  16.837 -0.0199 -0.2679  0.0543
  845MPD2    H212420   0.117   3.809  17.096 -0.7238 -0.3653 -1.7946
  845MPD2    H312421   0.281   3.733  16.926 -0.5479  0.3630  0.0808
  845MPD2     N12422   0.102   3.318  16.909 -0.1748 -0.0172 -0.5402
  845MPD2    H512423   0.021   3.265  16.940 -0.0674  0.1465  0.0164
  845MPD2    N112424   4.631   3.661  17.185 -0.3216 -0.5775  0.1198
  845MPD2    H712425   4.630   3.760  17.205  2.5142 -0.2785 -1.1683
  846MPD2     C12426   1.208   3.121  14.228  0.1400  0.1753  0.0625
  846MPD2    C112427   1.111   3.213  14.229 -0.7260 -0.1503 -0.0938
  846MPD2    C212428   1.066   3.269  14.355 -0.5681 -0.1270 -0.1147
  846MPD2    C312429   1.116   3.224  14.474  0.0886  0.4343  0.0537
  846MPD2    C412430   1.236   3.147  14.468  0.0038  0.2367 -0.3945
  846MPD2    C512431   1.270   3.097  14.346 -0.6072 -0.5825  0.5153
  846MPD2     H12432   0.992   3.348  14.352 -0.5557 -0.0257  2.7411
  846MPD2    H112433   1.303   3.130  14.552 -0.4644 -3.1533 -0.7345
  846MPD2    H212434   1.252   3.080  14.138 -0.4350 -1.3363  0.4624
  846MPD2    H312435   1.358   3.036  14.332  0.3499  1.1622 -1.1361
  846MPD2     N12436   1.052   3.271  14.596 -0.3569 -0.6518 -0.2153
  846MPD2    H512437   0.980   3.342  14.589 -0.6465 -0.6672  2.3577
  846MPD2    N112438   1.067   3.265  14.105  0.1128  0.2953 -0.1821
  846MPD2    H712439   1.025   3.357  14.106  1.1479  0.7595  0.6975
  847MPD2     C12440   1.209   4.122  14.229  0.4144 -0.5358  0.2377
  847MPD2    C112441   1.295   4.228  14.253 -1.0295 -0.7486  0.1103
  847MPD2    C212442   1.404   4.201  14.331 -0.4048 -0.9826 -0.2122
  847MPD2    C312443   1.431   4.077  14.381 -0.2386 -0.2956 -0.0701
  847MPD2    C412444   1.346   3.973  14.350 -0.2818 -0.4803 -0.0466
  847MPD2    C512445   1.238   3.993  14.266 -1.0598 -0.2829 -0.4547
  847MPD2     H12446   1.471   4.283  14.354 -0.7579 -0.6250 -0.4644
  847MPD2    H112447   1.354   3.871  14.386 -1.6083 -0.7058 -0.3719
  847MPD2    H212448   1.112   4.139  14.183  0.0596  0.8219  1.4943
  847MPD2    H312449   1.163   3.918  14.246 -1.0293  0.1245 -2.0694
  847MPD2     N12450   1.547   4.061  14.465 -0.6851  0.5664 -0.5360
  847MPD2    H512451   1.604   4.144  14.467  0.6123 -0.3727  1.6870
  847MPD2    N112452   1.276   4.360  14.215  0.3537  0.0332  0.2681
  847MPD2    H712453   1.359   4.414  14.237 -0.0425  0.0982  1.5840
  848MPD2     C12454   3.724   3.128  17.254  0.8983 -0.0991 -0.4348
  848MPD2    C112455   3.732   3.056  17.132 -0.2549  0.4243 -0.1822
  848MPD2    C212456   3.695   3.117  17.013 -0.0229  0.0468 -0.3766
  848MPD2    C312457   3.662   3.254  17.015  0.2313 -0.4407  0.0471
  848MPD2    C412458   3.657   3.321  17.135 -0.6298  0.2370  0.3854
  848MPD2    C512459   3.690   3.261  17.252  0.7718 -0.0740 -0.4622
  848MPD2     H12460   3.697   3.060  16.922 -0.9208  0.5916 -0.7449
  848MPD2    H112461   3.636   3.428  17.138  1.2074  0.6037  0.0357
  848MPD2    H212462   3.752   3.094  17.353 -0.0010 -1.0648 -0.5233
  848MPD2    H312463   3.673   3.313  17.346 -1.7493  1.5836 -1.8082
  848MPD2     N12464   3.632   3.326  16.902  0.5297 -0.3304  0.0783
  848MPD2    H512465   3.651   3.425  16.907  1.3225 -0.4949  0.4240
  848MPD2    N112466   3.787   2.921  17.135  0.2109 -0.1587 -0.5264
  848MPD2    H712467   3.810   2.882  17.044 -1.4884 -0.3334 -0.8828
  849MPD2     C12468   3.923   2.488  13.903 -0.3187  0.5679  0.5745
  849MPD2    C112469   3.946   2.349  13.916  0.4358 -0.2218 -0.1253
  849MPD2    C212470   3.952   2.292  14.038 -1.0040 -0.0251 -0.1798
  849MPD2    C312471   3.914   2.361  14.152  0.1555  0.0936  0.1136
  849MPD2    C412472   3.889   2.489  14.138 -0.2385 -0.5464 -0.0537
  849MPD2    C512473   3.901   2.556  14.017 -0.1444  0.2326 -0.3542
  849MPD2     H12474   3.985   2.190  14.053 -0.0826  0.1760 -0.8519
  849MPD2    H112475   3.876   2.542  14.232 -2.4190 -1.9062  0.4264
  849MPD2    H212476   3.916   2.535  13.806 -0.6277  0.9650  0.7938
  849MPD2    H312477   3.884   2.663  14.017 -1.5937  0.0114  1.0578
  849MPD2     N12478   3.910   2.307  14.286  0.2702 -0.0154  0.3555
  849MPD2    H512479   3.893   2.369  14.364 -1.5437 -1.9708  1.5337
  849MPD2    N112480   3.963   2.255  13.814  0.4411  0.4328 -0.1606
  849MPD2    H712481   3.994   2.163  13.845 -3.7651  0.4016  3.8719
  850MPD2     C12482   0.853   0.464  15.013  0.3159 -0.6310 -0.1826
  850MPD2    C112483   0.884   0.506  15.137 -0.2270 -0.4642  0.2955
  850MPD2    C212484   1.015   0.541  15.163  0.2654 -0.4759  0.9844
  850MPD2    C312485   1.112   0.505  15.075  0.4225  0.0473  0.4436
  850MPD2    C412486   1.072   0.439  14.955  0.8163 -0.3624 -0.5197
  850MPD2    C512487   0.944   0.428  14.921  0.4131  0.2116 -0.0873
  850MPD2     H12488   1.027   0.587  15.260  0.5322 -0.2809  0.8586
  850MPD2    H112489   1.147   0.391  14.893  0.2161 -2.4036  0.3614
  850MPD2    H212490   0.749   0.440  14.991 -0.0648  1.2244 -0.3498
  850MPD2    H312491   0.905   0.381  14.831  1.3259  0.3779 -0.5679
  850MPD2     N12492   1.254   0.524  15.099  0.4983 -0.2250  0.4271
  850MPD2    H512493   1.311   0.469  15.037  0.2467 -0.9531  0.8402
  850MPD2    N112494   0.773   0.525  15.225  0.3606 -0.3669  0.2686
  850MPD2    H712495   0.679   0.525  15.187  0.2326  0.0798  0.5863
  851MPD2     C12496   1.434   0.193  15.660 -0.0289  0.5617  0.2552
  851MPD2    C112497   1.360   0.187  15.550 -0.0420  0.1616 -0.1658
  851MPD2    C212498   1.395   0.124  15.435  0.0222  0.9153 -0.0495
  851MPD2    C312499   1.512   0.051  15.437  0.0802 -0.1859 -0.6831
  851MPD2    C412500   1.579   0.038  15.552  0.2340  0.1321 -0.1976
  851MPD2    C512501   1.534   0.103  15.667 -0.5932 -0.1947 -0.2538
  851MPD2     H12502   1.331   0.119  15.348  0.4950  1.4309 -0.4251
  851MPD2    H112503   1.667   4.699  15.562  0.4464  0.0334 -2.7205
  851MPD2    H212504   1.400   0.239  15.752 -1.4498 -0.2671  0.1496
  851MPD2    H312505   1.591   0.101  15.759 -1.1474  0.2283  0.0958
  851MPD2     N12506   1.550   4.721  15.314 -0.1223 -0.1522 -0.1320
  851MPD2    H512507   1.487   0.027  15.239  0.1015 -0.7734 -0.5672
  851MPD2    N112508   1.227   0.243  15.557  0.2286 -0.3526 -0.0952
  851MPD2    H712509   1.209   0.306  15.634 -0.3002 -1.9512  1.0858
  852MPD2     C12510   1.956   2.395   9.738 -0.3477  0.6131 -0.3037
  852MPD2    C112511   1.963   2.365   9.876  0.2430 -0.1917  0.4289
  852MPD2    C212512   1.946   2.462   9.967  0.8227 -0.5368 -0.4761
  852MPD2    C312513   1.932   2.591   9.923 -0.3845  0.3266 -0.7700
  852MPD2    C412514   1.933   2.621   9.788  0.2929 -0.4195 -0.7852
  852MPD2    C512515   1.950   2.526   9.697 -0.0925 -1.3767  0.3185
  852MPD2     H12516   1.964   2.443  10.073 -1.4781 -0.1795 -0.0206
  852MPD2    H112517   1.925   2.723   9.754 -0.9189  0.2572  1.5034
  852MPD2    H212518   1.941   2.321   9.660  1.4110  0.9787 -0.9916
  852MPD2    H312519   1.956   2.547   9.591  0.5109 -1.8402  0.2645
  852MPD2     N12520   1.891   2.686  10.022 -0.1780  0.2948 -0.2107
  852MPD2    H512521   1.895   2.652  10.118 -0.8057  1.3797  0.1930
  852MPD2    N112522   1.968   2.229   9.913  0.6019 -0.1755  0.1809
  852MPD2    H712523   1.953   2.156   9.844  1.7924 -0.1141 -0.1445
  853MPD2     C12524   3.105   3.055  12.399  0.1552  0.0058 -0.8143
  853MPD2    C112525   3.044   2.932  12.417 -0.2491 -0.5461 -0.0007
  853MPD2    C212526   3.048   2.842  12.313 -0.7422 -0.0230  0.7778
  853MPD2    C312527   3.130   2.857  12.201 -0.4169 -0.7035  0.0914
  853MPD2    C412528   3.212   2.970  12.195  0.5122 -0.0283 -0.4182
  853MPD2    C512529   3.192   3.066  12.293 -0.3247 -0.1540 -0.7715
  853MPD2     H12530   2.985   2.754  12.313 -0.8803  0.0750  1.1161
  853MPD2    H112531   3.284   2.984  12.116 -0.0652  1.9843 -0.5896
  853MPD2    H212532   3.093   3.143  12.462  2.1509 -1.2029  1.2376
  853MPD2    H312533   3.247   3.159  12.295 -1.1592  0.3296 -0.5987
  853MPD2     N12534   3.125   2.783  12.077  0.8023 -0.5013 -0.5720
  853MPD2    H512535   3.183   2.820  12.003  1.2384  2.0154  1.0359
  853MPD2    N112536   2.983   2.912  12.536  0.0252 -0.2192 -0.0080
  853MPD2    H712537   2.971   2.995  12.594 -0.2935 -0.3155  0.0572
  854MPD2     C12538   4.618   2.932  13.798  0.2635  0.2584 -0.1142
  854MPD2    C112539   4.661   2.936  13.665 -1.0817 -0.3141  0.1381
  854MPD2    C212540   0.055   2.866  13.634 -0.5955 -0.5063  0.1046
  854MPD2    C312541   0.120   2.792  13.732 -0.2321 -0.0799 -0.8690
  854MPD2    C412542   0.067   2.785  13.856  0.0092  0.7946  0.6580
  854MPD2    C512543   4.680   2.857  13.890  0.7241  0.9200 -0.0707
  854MPD2     H12544   0.084   2.860  13.530  0.1851 -0.8656  0.3377
  854MPD2    H112545   0.112   2.735  13.942  1.4129  0.3230 -0.3582
  854MPD2    H212546   4.525   2.984  13.818  1.1038  2.2977 -1.4295
  854MPD2    H312547   4.646   2.841  13.992  0.5931 -0.6440 -0.3586
  854MPD2     N12548   0.218   2.693  13.710 -0.5764  0.8535 -0.2962
  854MPD2    H512549   0.254   2.641  13.789 -0.9475 -2.3025 -2.2096
  854MPD2    N112550   4.576   3.001  13.575 -0.3360 -0.5979 -0.6528
  854MPD2    H712551   4.485   3.024  13.612 -0.4367 -0.7994 -0.7698
  855MPD2     C12552   0.665   2.631  14.306  0.1339 -0.3969 -0.4768
  855MPD2    C112553   0.571   2.543  14.267 -0.2061  0.7191 -0.9135
  855MPD2    C212554   0.559   2.511  14.130 -1.0883  0.1867 -0.5601
  855MPD2    C312555   0.639   2.573  14.033 -0.1570  0.1436 -0.2353
  855MPD2    C412556   0.730   2.675  14.075 -0.3361 -0.2549  0.4645
  855MPD2    C512557   0.739   2.694  14.209 -0.3026 -0.0083 -1.1931
  855MPD2     H12558   0.505   2.422  14.099 -1.8048  0.6921 -0.7546
  855MPD2    H112559   0.789   2.729  14.002  0.0695 -2.2262 -0.6495
  855MPD2    H212560   0.681   2.657  14.410  0.4984  0.9045 -0.8633
  855MPD2    H312561   0.820   2.749  14.256  1.7977 -2.1908 -2.2339
  855MPD2     N12562   0.633   2.540  13.895 -0.0485 -0.1800 -0.2579
  855MPD2    H512563   0.665   2.614  13.833  2.2396  0.3672  1.5958
  855MPD2    N112564   0.466   2.488  14.347 -0.7911 -0.4141 -0.7060
  855MPD2    H712565   0.405   2.418  14.308 -1.3632 -0.1518 -0.2842
  856MPD2     C12566   2.189   3.213  13.893  0.1235 -0.7371 -0.2275
  856MPD2    C112567   2.296   3.301  13.880 -0.2658  0.6873 -0.0799
  856MPD2    C212568   2.263   3.436  13.897 -0.2836  0.1316  0.2936
  856MPD2    C312569   2.125   3.485  13.908 -0.4297 -0.6693  0.5878
  856MPD2    C412570   2.027   3.393  13.892  0.1814  0.7777  0.4234
  856MPD2    C512571   2.061   3.259  13.895 -0.0957 -0.1023  0.7763
  856MPD2     H12572   2.347   3.503  13.913  0.0500 -0.4253  0.9201
  856MPD2    H112573   1.920   3.406  13.903  0.0867  0.0294  0.4021
  856MPD2    H212574   2.194   3.105  13.900 -0.2009 -0.6355  1.5165
  856MPD2    H312575   1.982   3.185  13.893  0.4419 -0.6122 -1.4212
  856MPD2     N12576   2.085   3.619  13.933 -0.0356  0.5090  0.8167
  856MPD2    H512577   1.984   3.632  13.928 -0.2325 -1.2262  0.2057
  856MPD2    N112578   2.428   3.273  13.842 -0.0516 -0.1227  0.0560
  856MPD2    H712579   2.507   3.334  13.857  0.0485 -0.6495  1.6207
  857MPD2     C12580   3.636   0.980  12.486 -0.0626 -0.5337  0.2810
  857MPD2    C112581   3.766   0.979  12.519  0.5252  0.0764  0.5119
  857MPD2    C212582   3.833   1.094  12.559 -0.2051  0.1174 -0.2905
  857MPD2    C312583   3.763   1.215  12.563  0.1851  0.9326 -0.0163
  857MPD2    C412584   3.627   1.211  12.536 -0.1325  0.1764 -0.0828
  857MPD2    C512585   3.566   1.099  12.490 -0.2314 -0.1316  0.1787
  857MPD2     H12586   3.932   1.092  12.602 -0.3758  2.8470  0.2387
  857MPD2    H112587   3.563   1.298  12.528 -2.5503 -1.3720  2.5529
  857MPD2    H212588   3.581   0.890  12.462 -1.8741  0.3888  0.9819
  857MPD2    H312589   3.465   1.123  12.458 -0.4486 -0.0009  0.9426
  857MPD2     N12590   3.834   1.326  12.611  0.3067 -0.1681  0.1214
  857MPD2    H512591   3.931   1.313  12.638 -0.3923 -3.1337  1.1992
  857MPD2    N112592   3.827   0.849  12.512  0.0010 -0.0670 -0.1996
  857MPD2    H712593   3.757   0.777  12.496  0.1938  0.1976 -2.1733
  858MPD2     C12594   4.110   0.117  16.854  0.7681 -0.3389  0.2065
  858MPD2    C112595   4.237   0.069  16.853  0.0926  0.1160 -0.5069
  858MPD2    C212596   4.319   0.066  16.963 -0.5168 -0.3025  0.4050
  858MPD2    C312597   4.272   0.124  17.083 -0.1163  0.8013 -0.5656
  858MPD2    C412598   4.144   0.163  17.086 -0.8507  0.5827 -0.0585
  858MPD2    C512599   4.062   0.164  16.975 -0.3235 -0.1807  0.0017
  858MPD2     H12600   4.416   0.018  16.956 -0.1847  0.5789 -0.8993
  858MPD2    H112601   4.103   0.206  17.176  0.8814  1.1796  0.4490
  858MPD2    H212602   4.046   0.126  16.768  1.3386 -0.8848 -0.2740
  858MPD2    H312603   3.961   0.204  16.975  0.5585  2.1018 -1.0214
  858MPD2     N12604   4.352   0.142  17.196  0.3652  0.2474 -0.4682
  858MPD2    H512605   4.319   0.167  17.289  2.4788 -0.3939  0.4578
  858MPD2    N112606   4.303   0.016  16.746 -0.0892 -0.2107  0.2276
  858MPD2    H712607   4.401   4.717  16.762  0.5439  1.7115 -1.0071
  859MPD2     C12608   2.696   2.309  15.595  0.3649 -0.3504  0.2391
  859MPD2    C112609   2.830   2.271  15.567 -0.8323 -0.1117  0.1997
  859MPD2    C212610   2.870   2.143  15.593 -0.3927 -0.5240 -0.2190
  859MPD2    C312611   2.778   2.049  15.646 -0.2806 -0.2144  1.0476
  859MPD2    C412612   2.646   2.084  15.663  0.5618 -0.0824 -0.0517
  859MPD2    C512613   2.609   2.214  15.641  1.0245 -0.3541  0.0008
  859MPD2     H12614   2.973   2.114  15.575 -0.2643 -0.8372  1.0207
  859MPD2    H112615   2.562   2.019  15.685  1.0470 -0.7307 -0.1246
  859MPD2    H212616   2.655   2.408  15.583  1.8724  0.3058  0.4735
  859MPD2    H312617   2.508   2.251  15.653  2.1253  2.7903 -0.1937
  859MPD2     N12618   2.816   1.916  15.669 -0.3868 -0.2643  0.7845
  859MPD2    H512619   2.739   1.852  15.686 -0.4792 -0.5621 -0.7520
  859MPD2    N112620   2.928   2.369  15.526 -0.3797 -0.6780 -0.5153
  859MPD2    H712621   3.018   2.332  15.495 -0.4649 -2.1534  0.9938
  860MPD2     C12622   0.562   2.175  11.822  0.3878 -0.4008  0.1804
  860MPD2    C112623   0.587   2.285  11.896  0.2580 -0.3914  0.1780
  860MPD2    C212624   0.510   2.313  12.010 -0.4520  0.5967  0.2839
  860MPD2    C312625   0.404   2.239  12.054 -0.2579 -0.5020  0.1607
  860MPD2    C412626   0.380   2.125  11.978 -0.5060 -0.0090  0.2644
  860MPD2    C512627   0.455   2.094  11.867 -0.2913 -0.8101  0.1458
  860MPD2     H12628   0.531   2.403  12.067 -2.2352  1.2280 -0.0267
  860MPD2    H112629   0.291   2.066  11.999 -0.8541 -0.7633 -3.4314
  860MPD2    H212630   0.612   2.154  11.728 -0.7905  0.2486 -0.5856
  860MPD2    H312631   0.434   2.011  11.800 -1.4184 -0.4266  0.0350
  860MPD2     N12632   0.328   2.279  12.170  0.2351 -0.1004  0.0350
  860MPD2    H512633   0.332   2.377  12.195 -0.4033  0.2151 -1.1102
  860MPD2    N112634   0.692   2.371  11.874  0.2134 -0.2613 -0.6906
  860MPD2    H712635   0.703   2.432  11.954  1.8993 -0.3156 -0.8882
  861MPD2     C12636   4.115   0.406  10.932  0.1370 -0.0322  0.3114
  861MPD2    C112637   4.218   0.456  11.011 -0.3014 -0.0005 -0.3505
  861MPD2    C212638   4.307   0.534  10.954 -0.0401  0.3003  0.2068
  861MPD2    C312639   4.310   0.571  10.823  0.5346 -0.3815 -0.5539
  861MPD2    C412640   4.202   0.526  10.741 -0.3512  0.1460 -0.1199
  861MPD2    C512641   4.106   0.445  10.799 -0.1421 -0.1018  0.2369
  861MPD2     H12642   4.386   0.567  11.021  0.4948  0.8282 -0.6920
  861MPD2    H112643   4.181   0.564  10.642  2.3914 -0.7815 -1.0419
  861MPD2    H212644   4.042   0.332  10.964  0.8572 -1.9507 -2.4464
  861MPD2    H312645   4.023   0.424  10.734 -0.5251  0.0385  0.6773
  861MPD2     N12646   4.389   0.677  10.774 -0.8792  0.3506 -0.4153
  861MPD2    H512647   4.359   0.708  10.682  0.8196 -0.7235 -1.3252
  861MPD2    N112648   4.236   0.419  11.144 -0.4457 -0.4957 -0.0554
  861MPD2    H712649   4.326   0.444  11.185  0.2530 -1.5299 -0.9745
  862MPD2     C12650   4.288   1.118  10.257  0.0596 -0.2591 -0.3193
  862MPD2    C112651   4.314   1.009  10.325 -0.2366 -0.6410 -0.6108
  862MPD2    C212652   4.251   0.889  10.283 -0.5379 -0.8690 -0.7083
  862MPD2    C312653   4.190   0.877  10.159 -0.1382 -0.9141 -0.2675
  862MPD2    C412654   4.166   0.991  10.086 -0.8848  0.1097 -0.2862
  862MPD2    C512655   4.210   1.109  10.141  0.3935  0.0573  0.5325
  862MPD2     H12656   4.271   0.802  10.345  0.3720  1.3414  2.0831
  862MPD2    H112657   4.122   0.985   9.987 -0.8556  0.3885 -0.3154
  862MPD2    H212658   4.329   1.214  10.289  3.4641 -2.2634  1.2949
  862MPD2    H312659   4.201   1.197  10.077  0.4630 -0.6769 -0.4972
  862MPD2     N12660   4.133   0.756  10.121  0.1370 -0.2326 -0.7516
  862MPD2    H512661   4.064   0.761  10.046  0.0445  3.5118 -0.3865
  862MPD2    N112662   4.377   1.002  10.448  0.0255  0.0913 -0.4950
  862MPD2    H712663   4.355   0.927  10.512  0.9391  0.3243  0.0921
  863MPD2     C12664   2.514   3.254  17.019 -0.6234  0.3356  0.3100
  863MPD2    C112665   2.518   3.395  17.045  0.0704 -0.3880  0.2441
  863MPD2    C212666   2.596   3.438  17.154 -0.1740  0.1526 -0.4801
  863MPD2    C312667   2.689   3.354  17.216  0.8446 -0.1939  0.7411
  863MPD2    C412668   2.688   3.223  17.185  0.8956 -0.4898 -0.2192
  863MPD2    C512669   2.603   3.176  17.087 -0.4960  0.3901 -0.3859
  863MPD2     H12670   2.592   3.541  17.186  0.2663 -0.4357  1.4634
  863MPD2    H112671   2.759   3.157  17.234  0.0855 -1.2559 -0.0643
  863MPD2    H212672   2.455   3.213  16.938  0.7018  1.7444 -1.3641
  863MPD2    H312673   2.621   3.072  17.062  0.7761  0.9630 -1.8652
  863MPD2     N12674   2.778   3.392  17.326  0.2293 -0.2509  0.3220
  863MPD2    H512675   2.827   3.311  17.364 -1.0376 -0.9453  0.4788
  863MPD2    N112676   2.439   3.478  16.962 -0.1131  0.6718 -0.7376
  863MPD2    H712677   2.388   3.432  16.888  0.3519 -0.4037 -0.3857
  864MPD2     C12678   2.665   0.419  17.238  0.0029 -0.9095  0.2812
  864MPD2    C112679   2.805   0.411  17.246 -0.8950  0.2705 -0.1841
  864MPD2    C212680   2.882   0.525  17.233 -0.8061  0.2490  0.3246
  864MPD2    C312681   2.827   0.645  17.196  0.1905 -0.7989  0.6707
  864MPD2    C412682   2.691   0.655  17.195  0.1775 -0.2732  0.0480
  864MPD2    C512683   2.613   0.544  17.216  0.1180 -0.2900 -0.1865
  864MPD2     H12684   2.990   0.510  17.238 -0.4620  2.0225 -2.1574
  864MPD2    H112685   2.636   0.747  17.178  1.1103 -0.4007 -3.7285
  864MPD2    H212686   2.595   0.340  17.259 -0.7288 -0.7759 -1.6176
  864MPD2    H312687   2.506   0.561  17.227  0.3579  1.7690 -1.0043
  864MPD2     N12688   2.899   0.757  17.154  0.2471  0.8243  0.5915
  864MPD2    H512689   2.852   0.840  17.121  1.0556  1.1466  0.2617
  864MPD2    N112690   2.868   0.291  17.275 -0.0966 -0.2155 -0.2440
  864MPD2    H712691   2.963   0.297  17.310  0.6232 -0.8390 -2.1258
  865MPD2     C12692   2.717   0.230  16.779  0.6704 -0.7756 -0.1865
  865MPD2    C112693   2.826   0.265  16.707 -0.2065  0.4436  0.0414
  865MPD2    C212694   2.884   0.389  16.724  0.4879  0.4156  0.3018
  865MPD2    C312695   2.840   0.476  16.820  0.6450 -0.0871  0.0675
  865MPD2    C412696   2.732   0.440  16.903 -0.0648  0.0003 -0.2556
  865MPD2    C512697   2.671   0.313  16.876 -0.0818  0.2538 -0.4145
  865MPD2     H12698   2.958   0.428  16.655  2.5690 -1.5536  1.4281
  865MPD2    H112699   2.689   0.505  16.978  0.7757 -1.2048  1.2708
  865MPD2    H212700   2.658   0.142  16.754  0.8264 -0.1298 -2.8235
  865MPD2    H312701   2.572   0.286  16.913 -0.1698  0.1132 -0.7514
  865MPD2     N12702   2.919   0.593  16.846 -0.4478  0.8425  0.7845
  865MPD2    H512703   2.900   0.635  16.936  0.6953  3.9238 -0.3878
  865MPD2    N112704   2.882   0.168  16.620 -0.4136 -0.4428 -0.1637
  865MPD2    H712705   2.835   0.078  16.625 -2.7522  0.7007 -1.8765
  866MPD2     C12706   0.770   0.503  11.392 -0.3923 -0.0870 -0.0741
  866MPD2    C112707   0.791   0.607  11.308  0.3208  0.4256  0.8858
  866MPD2    C212708   0.681   0.680  11.268 -0.2805  0.0306  0.6125
  866MPD2    C312709   0.559   0.652  11.323  0.3046 -0.4589  0.3147
  866MPD2    C412710   0.542   0.563  11.426 -0.4619  0.3682 -0.2412
  866MPD2    C512711   0.650   0.489  11.457  1.1718  0.1744  0.0067
  866MPD2     H12712   0.685   0.756  11.190 -0.2631 -0.6640 -0.0629
  866MPD2    H112713   0.454   0.546  11.487 -0.2887 -1.4252 -0.4934
  866MPD2    H212714   0.855   0.445  11.427  0.1370  1.7958  1.7486
  866MPD2    H312715   0.645   0.417  11.538 -0.2864 -0.7484 -0.9198
  866MPD2     N12716   0.441   0.730  11.290 -0.0627 -0.1743  0.5741
  866MPD2    H512717   0.364   0.706  11.352 -1.6112 -1.2710 -1.7809
  866MPD2    N112718   0.920   0.602  11.248  0.1781  0.5403 -0.3324
  866MPD2    H712719   0.992   0.543  11.287 -0.0972  1.5708  1.7069
  867MPD2     C12720   2.109   0.270  17.198 -0.0277  0.0080  0.3023
  867MPD2    C112721   2.177   0.172  17.279 -0.5424 -0.1765  0.3936
  867MPD2    C212722   2.277   0.219  17.359  0.0876  0.5761 -0.6007
  867MPD2    C312723   2.303   0.357  17.361 -0.0609  0.1245 -0.3150
  867MPD2    C412724   2.240   0.447  17.275 -0.0521  1.2883 -0.9720
  867MPD2    C512725   2.149   0.401  17.188  0.4773  0.0620 -0.5099
  867MPD2     H12726   2.320   0.147  17.427 -4.1537 -2.2892 -0.9295
  867MPD2    H112727   2.273   0.550  17.268  0.4141  1.1460 -0.8541
  867MPD2    H212728   2.022   0.240  17.141 -0.9763  0.6085  1.4109
  867MPD2    H312729   2.100   0.481  17.135 -1.5148 -0.1455  1.0401
  867MPD2     N12730   2.401   0.409  17.441 -0.4115  0.1142  0.1609
  867MPD2    H512731   2.404   0.510  17.440  0.2441  0.1037  1.2236
  867MPD2    N112732   2.144   0.036  17.266  0.2930 -0.7631 -0.4791
  867MPD2    H712733   2.067   0.021  17.201  0.6310 -2.1786 -0.5455
  868MPD2     C12734   4.356   4.024  13.205 -0.5460 -0.0499 -0.2072
  868MPD2    C112735   4.379   3.976  13.331 -0.4018 -0.3669 -0.0189
  868MPD2    C212736   4.279   3.969  13.426  0.3982 -0.0476 -0.0721
  868MPD2    C312737   4.154   4.020  13.393  0.1067 -0.1305  0.1905
  868MPD2    C412738   4.128   4.070  13.269 -0.1665 -0.0618 -0.5115
  868MPD2    C512739   4.228   4.063  13.176 -0.3516  0.0332 -0.3148
  868MPD2     H12740   4.291   3.930  13.527  0.8741 -0.2268 -0.1984
  868MPD2    H112741   4.036   4.117  13.237  0.4896  2.1150  0.7421
  868MPD2    H212742   4.433   4.031  13.129  0.9559  0.9311  1.4060
  868MPD2    H312743   4.218   4.114  13.081  0.9714  0.3061 -0.3101
  868MPD2     N12744   4.048   4.015  13.493  0.0445  0.4007 -0.0323
  868MPD2    H512745   4.074   3.989  13.588 -3.3787  2.0949  1.3542
  868MPD2    N112746   4.513   3.938  13.359 -0.5302 -0.5552  0.1269
  868MPD2    H712747   4.571   3.935  13.276 -0.7543  0.4674 -0.0582
  869MPD2     C12748   0.992   2.493   2.190 -0.0717 -0.7048 -0.4802
  869MPD2    C112749   0.910   2.434   2.098 -0.4045 -0.4966 -0.1262
  869MPD2    C212750   0.920   2.472   1.963 -0.4899  0.4266 -0.2174
  869MPD2    C312751   1.020   2.566   1.930  0.6686  0.7207  0.1150
  869MPD2    C412752   1.093   2.623   2.024 -0.7817  0.5974 -0.4025
  869MPD2    C512753   1.084   2.589   2.157  0.4844 -0.7018  0.0323
  869MPD2     H12754   0.867   2.413   1.888  1.8494 -1.3915 -0.4412
  869MPD2    H112755   1.180   2.684   2.004  1.4334 -1.8440  1.7845
  869MPD2    H212756   0.995   2.465   2.294  1.1647  0.0412 -0.3162
  869MPD2    H312757   1.152   2.647   2.219  2.3990 -1.2879 -1.5247
  869MPD2     N12758   1.050   2.605   1.804 -0.1325 -0.3065  0.2071
  869MPD2    H512759   1.129   2.668   1.799  2.0959 -3.0372  0.9139
  869MPD2    N112760   0.831   2.329   2.144 -0.4348  0.0086  0.2996
  869MPD2    H712761   0.833   2.304   2.242  0.8755 -1.3653 -0.0693
  870MPD2     C12762   4.306   1.050   1.202  0.6401  0.5092 -0.4522
  870MPD2    C112763   4.390   1.127   1.284  0.4463  0.2957 -0.0331
  870MPD2    C212764   4.433   1.245   1.229 -0.0057  0.7127  0.8783
  870MPD2    C312765   4.398   1.283   1.100 -0.5649 -0.5689 -0.4323
  870MPD2    C412766   4.318   1.206   1.019  0.9472  0.1839  0.8111
  870MPD2    C512767   4.265   1.089   1.073 -0.0639  0.1143 -0.2282
  870MPD2     H12768   4.475   1.317   1.299  1.1280 -0.9897  1.9615
  870MPD2    H112769   4.296   1.231   0.916  0.7626 -0.2869  0.7343
  870MPD2    H212770   4.254   0.960   1.233 -0.6922  1.7112  0.7914
  870MPD2    H312771   4.191   1.039   1.012  0.1230 -0.8402  0.3320
  870MPD2     N12772   4.451   1.410   1.053 -0.1922 -0.6107  0.4131
  870MPD2    H512773   4.515   1.463   1.112 -1.7063  1.0626  0.5499
  870MPD2    N112774   4.400   1.088   1.422 -0.1485 -0.4238 -0.0996
  870MPD2    H712775   4.358   0.997   1.437 -1.6547  0.1594 -0.7872
  871MPD2     C12776   1.367   0.562  16.829  0.3472  0.3316 -0.1905
  871MPD2    C112777   1.314   0.493  16.936  0.1388 -0.5003  0.8643
  871MPD2    C212778   1.247   0.374  16.912  0.6901  0.4671  0.1313
  871MPD2    C312779   1.247   0.317  16.783  0.6285  0.5449 -0.5490
  871MPD2    C412780   1.300   0.389  16.678  0.8023  0.5207 -0.7641
  871MPD2    C512781   1.350   0.513  16.703 -0.5528  0.1973  0.3881
  871MPD2     H12782   1.205   0.318  16.995  0.7475 -0.7033 -0.6396
  871MPD2    H112783   1.295   0.350  16.577 -0.8551  1.5392 -1.0802
  871MPD2    H212784   1.403   0.664  16.837 -1.9589  0.9839  1.6912
  871MPD2    H312785   1.373   0.570  16.614 -1.9440  2.5595  1.5687
  871MPD2     N12786   1.166   0.197  16.771  0.5544  0.0183 -0.1753
  871MPD2    H512787   1.116   0.173  16.855  1.3819  1.3639  0.7125
  871MPD2    N112788   1.323   0.555  17.066  0.5662 -0.0323 -0.5083
  871MPD2    H712789   1.363   0.648  17.068  1.7295 -0.5652  1.2495
  872MPD2     C12790   2.019   2.677  14.571  0.0810  0.2688 -0.3233
  872MPD2    C112791   1.932   2.755  14.493  0.5403 -0.1204  0.7113
  872MPD2    C212792   1.801   2.771  14.522 -0.1562 -0.5134  0.2649
  872MPD2    C312793   1.752   2.704  14.638 -0.4617  0.4036  0.4522
  872MPD2    C412794   1.838   2.623  14.709  0.5086 -0.5264  0.1802
  872MPD2    C512795   1.973   2.621  14.685  0.0953  0.3108 -0.2355
  872MPD2     H12796   1.730   2.829  14.464  0.7535  0.2722 -0.0517
  872MPD2    H112797   1.800   2.567  14.794  2.1812 -0.1700  1.1484
  872MPD2    H212798   2.125   2.671  14.548  0.4634 -1.1171  1.8218
  872MPD2    H312799   2.038   2.565  14.752  1.8285  1.7764 -0.6858
  872MPD2     N12800   1.616   2.722  14.683 -0.1438  0.1955 -0.4742
  872MPD2    H512801   1.581   2.659  14.754  2.4163  0.5832  1.1194
  872MPD2    N112802   1.988   2.820  14.372 -0.0003 -0.0525  0.4367
  872MPD2    H712803   1.926   2.877  14.316  0.6756 -0.5454 -0.8028
  873MPD2     C12804   4.243   2.747   0.777  0.5107 -0.0578 -0.0022
  873MPD2    C112805   4.315   2.716   0.889  0.1351  0.7989 -0.3225
  873MPD2    C212806   4.421   2.630   0.874  0.1201 -0.1116  0.4451
  873MPD2    C312807   4.453   2.565   0.755 -0.4443 -0.8604 -0.6469
  873MPD2    C412808   4.374   2.589   0.650 -0.9956  0.1506  0.1423
  873MPD2    C512809   4.276   2.683   0.659 -0.2043  0.3402 -0.2316
  873MPD2     H12810   4.477   2.603   0.963 -0.3253  2.1891  1.4005
  873MPD2    H112811   4.400   2.555   0.551 -0.6700  2.4866 -0.5558
  873MPD2    H212812   4.163   2.821   0.778  0.4698 -0.1016 -0.1129
  873MPD2    H312813   4.230   2.702   0.563 -2.1369  0.5115  0.7472
  873MPD2     N12814   4.559   2.472   0.743 -0.2007 -0.4971  0.3292
  873MPD2    H512815   4.573   2.426   0.653  1.2738  0.3279  0.1412
  873MPD2    N112816   4.281   2.781   1.008 -0.2676 -0.0313  0.4472
  873MPD2    H712817   4.199   2.841   1.005  0.1432  0.4790 -0.4732
  874MPD2     C12818   3.305   3.154  15.956  0.0654  0.3806  0.7538
  874MPD2    C112819   3.299   3.084  16.074  0.4290  1.0033 -0.0671
  874MPD2    C212820   3.355   3.139  16.187  0.3444 -0.1833  0.4437
  874MPD2    C312821   3.410   3.265  16.183  0.4169  0.5861 -0.3621
  874MPD2    C412822   3.406   3.340  16.064  0.1300  0.1564  0.0219
  874MPD2    C512823   3.360   3.281  15.953 -0.3291 -0.4842  0.1170
  874MPD2     H12824   3.356   3.088  16.283 -0.9206 -0.5300  0.2636
  874MPD2    H112825   3.434   3.444  16.057 -0.5608  0.2694 -1.1059
  874MPD2    H212826   3.266   3.110  15.865 -0.8021 -0.5248  1.5637
  874MPD2    H312827   3.371   3.331  15.857  0.0860  1.2453  1.0773
  874MPD2     N12828   3.459   3.317  16.307 -0.2578  0.0547 -0.3801
  874MPD2    H512829   3.421   3.274  16.391 -2.4867  3.3224  0.2995
  874MPD2    N112830   3.231   2.963  16.071  0.2006  0.0810 -0.3317
  874MPD2    H712831   3.187   2.936  15.983 -1.2752 -0.7839  0.6650
  875MPD2     C12832   4.506   1.046  14.952  0.3654 -0.4320 -0.1691
  875MPD2    C112833   4.401   1.136  14.942  0.3172 -0.3045 -0.7217
  875MPD2    C212834   4.362   1.202  15.059 -0.1094  0.0417  0.4973
  875MPD2    C312835   4.424   1.178  15.179  0.2609 -0.0897  0.2296
  875MPD2    C412836   4.529   1.090  15.189 -0.5588  0.1148  0.5537
  875MPD2    C512837   4.566   1.029  15.072  0.4552 -1.0868 -0.2622
  875MPD2     H12838   4.277   1.269  15.057  0.8507  1.3459  2.9576
  875MPD2    H112839   4.586   1.077  15.281  0.6774 -3.6491 -0.7533
  875MPD2    H212840   4.549   0.999  14.864  1.4538 -1.8448  1.1314
  875MPD2    H312841   4.642   0.952  15.079  1.5908  0.1112  0.5512
  875MPD2     N12842   4.377   1.228  15.305  0.8337  0.0892  0.4644
  875MPD2    H512843   4.438   1.218  15.385  0.5586 -2.1602  0.4013
  875MPD2    N112844   4.346   1.180  14.824 -0.0000 -0.4105  0.4097
  875MPD2    H712845   4.283   1.260  14.821  0.6978  0.1528  0.7605
  876MPD2     C12846   3.086   2.557  15.822  0.4623 -0.8339 -0.5310
  876MPD2    C112847   3.207   2.530  15.879  0.5273 -0.1672 -0.0314
  876MPD2    C212848   3.228   2.417  15.961  0.3794 -0.7846  0.2435
  876MPD2    C312849   3.114   2.343  15.983  0.0055 -0.2190 -0.4552
  876MPD2    C412850   2.990   2.372  15.931 -0.9219  0.5619  0.3754
  876MPD2    C512851   2.979   2.480  15.857  0.5358  0.2359 -0.0462
  876MPD2     H12852   3.327   2.392  15.998  0.4108 -2.2043 -0.7986
  876MPD2    H112853   2.899   2.317  15.950 -0.3445  0.0732  1.7247
  876MPD2    H212854   3.069   2.648  15.765 -0.2634 -1.4149 -1.2374
  876MPD2    H312855   2.877   2.507  15.833 -0.0460 -3.0353 -1.3120
  876MPD2     N12856   3.142   2.225  16.051 -0.2749  0.2013 -0.0841
  876MPD2    H512857   3.235   2.195  16.078 -0.1087  1.3839  0.6780
  876MPD2    N112858   3.316   2.615  15.845 -0.2404  0.1880 -0.4367
  876MPD2    H712859   3.296   2.683  15.773 -0.6819 -0.5474 -1.0114
  877MPD2     C12860   3.275   3.018  15.325 -0.3260 -0.5316  0.3080
  877MPD2    C112861   3.410   3.005  15.348  0.3652  0.5982  0.3316
  877MPD2    C212862   3.492   3.032  15.242  0.0915  0.6362  0.3402
  877MPD2    C312863   3.454   3.051  15.110 -0.1681 -0.0895  0.1461
  877MPD2    C412864   3.315   3.048  15.089 -0.5864 -0.1043 -0.3914
  877MPD2    C512865   3.230   3.036  15.195  0.3635 -0.2430 -0.5632
  877MPD2     H12866   3.599   3.023  15.253  0.4055  2.0048 -1.5972
  877MPD2    H112867   3.267   3.042  14.992 -0.7084  1.0790 -0.4025
  877MPD2    H212868   3.199   2.999  15.399  1.5742 -1.3890  2.0410
  877MPD2    H312869   3.122   3.044  15.184  0.4618  1.3484 -0.3399
  877MPD2     N12870   3.546   3.073  14.998  0.1971  0.3839 -0.0588
  877MPD2    H512871   3.508   3.071  14.904 -0.4112 -3.3764  0.2809
  877MPD2    N112872   3.462   2.970  15.475 -0.2603 -0.5776 -0.1480
  877MPD2    H712873   3.564   2.975  15.483 -0.2431  0.5790 -1.1142
  878MPD2     C12874   3.322   1.969  13.137 -0.4496 -0.1609  0.6602
  878MPD2    C112875   3.426   2.051  13.109  0.3681  0.2588  0.2751
  878MPD2    C212876   3.531   2.049  13.194  0.8143  0.4905  0.1489
  878MPD2    C312877   3.538   1.971  13.306 -0.1012 -0.1231 -0.7699
  878MPD2    C412878   3.432   1.883  13.323 -0.9139 -0.5665  0.4269
  878MPD2    C512879   3.327   1.878  13.244 -0.0162  0.0850  0.0029
  878MPD2     H12880   3.624   2.105  13.184  0.0455  1.4961 -1.4930
  878MPD2    H112881   3.448   1.802  13.393 -1.9043 -1.5825 -0.5272
  878MPD2    H212882   3.228   1.965  13.084  0.2179  0.9087 -0.6115
  878MPD2    H312883   3.249   1.805  13.265  0.8441 -0.9293 -0.3276
  878MPD2     N12884   3.653   1.981  13.388  0.3979 -0.3313  0.9891
  878MPD2    H512885   3.723   2.046  13.355  0.4452 -0.9717 -0.1539
  878MPD2    N112886   3.425   2.132  12.999  0.5356 -0.4195 -0.0140
  878MPD2    H712887   3.334   2.141  12.953  0.4349 -0.8677  0.1030
  879MPD2     C12888   3.614   3.984  17.334  0.4527 -0.1765  0.2582
  879MPD2    C112889   3.629   3.870  17.407 -0.0249 -0.4088  0.4633
  879MPD2    C212890   3.527   3.771  17.379  0.5920  1.0285  0.3751
  879MPD2    C312891   3.435   3.784  17.278  0.3614  0.8176 -0.2221
  879MPD2    C412892   3.430   3.899  17.206 -0.1750  0.5141  0.3423
  879MPD2    C512893   3.518   3.997  17.237  0.6457 -0.9933  0.4686
  879MPD2     H12894   3.524   3.688  17.448 -0.3999  1.0803  0.3922
  879MPD2    H112895   3.363   3.901  17.121 -0.5901 -0.1090  0.6606
  879MPD2    H212896   3.678   4.070  17.356  1.6878 -0.7224 -1.2275
  879MPD2    H312897   3.515   4.085  17.174  0.6923 -1.4628 -0.1901
  879MPD2     N12898   3.338   3.683  17.247 -0.0353 -0.3431  0.3113
  879MPD2    H512899   3.290   3.696  17.158 -0.1903  0.7964  0.5582
  879MPD2    N112900   3.718   3.867  17.518  0.2207 -0.2805  0.0100
  879MPD2    H712901   3.777   3.949  17.526  0.0612 -0.1580 -0.0705
  880MPD2     C12902   0.249   0.478   0.740 -0.9890  0.9208 -0.2266
  880MPD2    C112903   0.381   0.514   0.769 -0.4726 -0.1425  0.6644
  880MPD2    C212904   0.455   0.424   0.847 -0.2202  0.5517  0.0019
  880MPD2    C312905   0.409   0.304   0.887  0.1536 -0.2310  1.0407
  880MPD2    C412906   0.276   0.275   0.861  0.1687 -0.2058  0.4432
  880MPD2    C512907   0.198   0.360   0.789  0.0981  0.0816  0.3899
  880MPD2     H12908   0.559   0.453   0.858  0.2685 -0.5986 -1.4853
  880MPD2    H112909   0.229   0.184   0.896 -1.6589  0.9014  0.8516
  880MPD2    H212910   0.179   0.544   0.689 -0.9012  1.2455  0.0769
  880MPD2    H312911   0.098   0.335   0.755 -0.7198  2.6041  0.9617
  880MPD2     N12912   0.491   0.217   0.961  0.6041 -0.1934 -0.6102
  880MPD2    H512913   0.578   0.243   1.007 -0.1288  1.3801 -0.1090
  880MPD2    N112914   0.434   0.645   0.742 -0.4348 -0.1690 -0.5984
  880MPD2    H712915   0.508   0.690   0.795 -1.4494  0.1037  0.5661
  881MPD2     C12916   0.113   1.373   0.095 -0.8894 -0.1235  0.3387
  881MPD2    C112917   0.196   1.275   0.043 -0.3746 -0.3595  0.3980
  881MPD2    C212918   0.250   1.183   0.128 -0.6044 -0.4507 -0.1823
  881MPD2    C312919   0.242   1.211   0.268  0.0617  0.8350 -0.0271
  881MPD2    C412920   0.164   1.314   0.309 -0.0464  0.3425 -0.6019
  881MPD2    C512921   0.096   1.394   0.226  0.0604 -0.1082 -0.8581
  881MPD2     H12922   0.318   1.110   0.086  2.0285  0.4923  2.4172
  881MPD2    H112923   0.158   1.336   0.415  0.0902  1.5129 -0.8385
  881MPD2    H212924   0.064   1.448   0.034 -0.9808  1.1565  2.0022
  881MPD2    H312925   0.044   1.481   0.262  1.2262  0.1272  0.2764
  881MPD2     N12926   0.324   1.154   0.370  0.2992  0.0417 -0.3432
  881MPD2    H512927   0.296   1.158   0.467  2.0457 -1.4741  0.2381
  881MPD2    N112928   0.196   1.250  17.598  0.0744 -0.2114 -0.2051
  881MPD2    H712929   0.146   1.319  17.543  1.1021 -0.2469 -1.1775
  882MPD2     C12930   3.563   2.801  14.235  0.1550 -0.2797  0.0623
  882MPD2    C112931   3.523   2.873  14.346  0.6286  0.1653 -0.3923
  882MPD2    C212932   3.386   2.894  14.371 -0.6501 -0.6209  0.1571
  882MPD2    C312933   3.299   2.822  14.292 -0.7031  0.1232 -0.1300
  882MPD2    C412934   3.341   2.746  14.184 -0.5085 -0.5294 -0.1727
  882MPD2    C512935   3.476   2.732  14.153 -0.6763 -0.3172 -0.3676
  882MPD2     H12936   3.348   2.951  14.455 -1.9524 -1.2036 -0.0412
  882MPD2    H112937   3.268   2.704  14.116 -0.3190  1.4491 -1.5969
  882MPD2    H212938   3.670   2.796  14.215  0.0451 -0.1865 -0.5431
  882MPD2    H312939   3.508   2.676  14.066  1.5034 -0.5575  0.5845
  882MPD2     N12940   3.161   2.835  14.309  0.1129  0.1705  0.1886
  882MPD2    H512941   3.103   2.789  14.240 -0.0655 -1.0619  1.1633
  882MPD2    N112942   3.619   2.932  14.430  0.0131 -0.2060  0.3400
  882MPD2    H712943   3.715   2.926  14.398 -1.3520 -0.9663 -3.6169
  883MPD2     C12944   1.128   3.494  16.740  0.3688 -0.3500  0.3088
  883MPD2    C112945   1.120   3.407  16.638 -0.3333  0.9025 -0.8134
  883MPD2    C212946   1.158   3.452  16.516  0.8598 -0.3232 -0.0865
  883MPD2    C312947   1.221   3.574  16.495  0.0936 -0.7500  0.4485
  883MPD2    C412948   1.228   3.665  16.598  0.0554 -0.4931 -0.0877
  883MPD2    C512949   1.167   3.624  16.717 -0.1680 -0.5684  0.3138
  883MPD2     H12950   1.132   3.393  16.429  3.3915 -2.4796  0.6149
  883MPD2    H112951   1.266   3.766  16.593  0.9261 -0.7379  1.8883
  883MPD2    H212952   1.090   3.474  16.839 -2.0643  2.4934 -0.0361
  883MPD2    H312953   1.167   3.691  16.803 -1.3762 -1.2843  0.8829
  883MPD2     N12954   1.280   3.607  16.369  0.2264  0.4384  0.2805
  883MPD2    H512955   1.287   3.526  16.309  0.7556  0.1491  0.7313
  883MPD2    N112956   1.067   3.278  16.645 -0.1155 -0.1928  0.1325
  883MPD2    H712957   1.070   3.219  16.562 -0.7305  1.8133 -1.3250
  884MPD2     C12958   2.581   3.459  15.312  0.6259 -0.2365  0.2444
  884MPD2    C112959   2.566   3.586  15.263 -0.0129  0.5931 -0.2290
  884MPD2    C212960   2.441   3.648  15.266 -0.4130 -0.7350  0.4096
  884MPD2    C312961   2.329   3.580  15.312  0.5314  0.1587  0.4014
  884MPD2    C412962   2.349   3.460  15.370  0.2004 -0.6405  0.1083
  884MPD2    C512963   2.467   3.397  15.357 -0.1140  0.1223  0.5336
  884MPD2     H12964   2.431   3.740  15.210  1.3860  1.0061  2.9111
  884MPD2    H112965   2.268   3.402  15.413  0.8719 -2.2657 -0.8435
  884MPD2    H212966   2.675   3.406  15.311 -1.1014 -3.2510 -2.9584
  884MPD2    H312967   2.473   3.294  15.390 -3.0080 -0.3612 -0.4325
  884MPD2     N12968   2.205   3.641  15.293  0.1888  0.5733  0.0102
  884MPD2    H512969   2.204   3.742  15.278  1.4431  0.5876 -0.0286
  884MPD2    N112970   2.673   3.651  15.193  0.3851 -0.0640  0.1098
  884MPD2    H712971   2.651   3.743  15.157 -2.4032 -1.1414 -0.9421
  885MPD2     C12972   0.768   4.319   0.399 -0.2445 -0.6229  0.4632
  885MPD2    C112973   0.863   4.239   0.341  0.9995 -0.4004  0.3622
  885MPD2    C212974   0.869   4.222   0.204 -0.0676  0.0217 -0.2092
  885MPD2    C312975   0.782   4.286   0.115  0.0916  0.4849  0.5900
  885MPD2    C412976   0.690   4.373   0.176 -0.3260  0.2931  0.0063
  885MPD2    C512977   0.684   4.388   0.315 -0.6075 -0.1380  0.1910
  885MPD2     H12978   0.938   4.157   0.151  1.6579  1.6059  0.1041
  885MPD2    H112979   0.607   4.421   0.126 -0.5409  1.2254  1.2441
  885MPD2    H212980   0.768   4.327   0.507  1.1431  1.8382  0.2799
  885MPD2    H312981   0.611   4.456   0.358 -2.6698 -2.6543  0.6332
  885MPD2     N12982   0.778   4.257  17.668  1.4541 -0.9424 -0.3285
  885MPD2    H512983   0.837   4.184  17.629  0.5316 -2.4195  0.9853
  885MPD2    N112984   0.957   4.171   0.429  0.4952  0.5885  0.6444
  885MPD2    H712985   0.954   4.203   0.525 -0.6163  2.6724 -0.0903
  886MPD2     C12986   1.690   2.315  15.183 -0.0205 -0.6048  0.4627
  886MPD2    C112987   1.824   2.322  15.151 -0.2132  0.4192 -0.1099
  886MPD2    C212988   1.875   2.444  15.107 -0.3454  0.0541 -0.2485
  886MPD2    C312989   1.793   2.556  15.097 -0.2280  0.0402 -0.3243
  886MPD2    C412990   1.663   2.549  15.140  0.3193 -0.4896 -0.0996
  886MPD2    C512991   1.624   2.430  15.189  0.2867 -0.7224  0.2177
  886MPD2     H12992   1.980   2.454  15.081 -0.3532  0.1150 -0.2558
  886MPD2    H112993   1.597   2.634  15.151 -0.4472 -1.0793 -0.1042
  886MPD2    H212994   1.637   2.229  15.222 -1.3394 -0.1255 -0.2576
  886MPD2    H312995   1.532   2.436  15.245  0.5570  0.0977  0.5862
  886MPD2     N12996   1.841   2.678  15.051 -0.2520  0.1817 -0.4738
  886MPD2    H512997   1.776   2.756  15.039 -1.2873 -0.7592 -0.9951
  886MPD2    N112998   1.915   2.214  15.185  0.1394  0.5282  0.1597
  886MPD2    H712999   2.010   2.243  15.164  0.0057  1.1118  0.3445
  887MPD2     C13000   2.530   2.238  15.304  0.0069 -0.5290  0.1688
  887MPD2    C113001   2.416   2.282  15.364  0.0733 -0.6276 -0.1947
  887MPD2    C213002   2.391   2.414  15.376  0.4512 -0.0209  0.0670
  887MPD2    C313003   2.484   2.511  15.330  0.1350 -0.0090 -0.6085
  887MPD2    C413004   2.607   2.465  15.274  0.3265 -0.3486  0.8313
  887MPD2    C513005   2.628   2.331  15.266 -0.1273 -0.3542 -0.5719
  887MPD2     H13006   2.301   2.429  15.434  0.0158  1.1939 -0.9127
  887MPD2    H113007   2.674   2.531  15.221 -1.4325 -0.7490 -1.8957
  887MPD2    H213008   2.560   2.134  15.313 -0.7544 -0.9772 -2.6934
  887MPD2    H313009   2.721   2.292  15.225  0.0760 -1.4368  0.9169
  887MPD2     N13010   2.452   2.639  15.370 -0.5742  0.6720 -0.6272
  887MPD2    H513011   2.364   2.646  15.421 -0.6588  0.3273 -0.7258
  887MPD2    N113012   2.314   2.197  15.401 -1.2532 -0.4827 -0.0525
  887MPD2    H713013   2.227   2.239  15.432 -0.2663  1.7860 -0.3128
  888MPD2     C13014   4.702   2.219  15.545 -0.3045 -0.9629 -0.0955
  888MPD2    C113015   4.586   2.273  15.497 -0.1555  0.0576  0.4242
  888MPD2    C213016   4.592   2.412  15.479 -0.5040 -0.3252 -0.0429
  888MPD2    C313017   4.709   2.485  15.508 -0.6742 -0.4543 -0.4856
  888MPD2    C413018   0.090   2.430  15.567  0.0623  0.6849 -0.4900
  888MPD2    C513019   0.081   2.295  15.582 -0.2336 -0.4049 -0.7018
  888MPD2     H13020   4.504   2.467  15.447 -0.0865  0.2246 -0.2310
  888MPD2    H113021   0.182   2.470  15.609 -0.5755  0.2598  1.3093
  888MPD2    H213022   4.705   2.116  15.579 -3.4695 -0.7489  0.7805
  888MPD2    H313023   0.164   2.239  15.623 -0.3835 -1.2031 -1.4963
  888MPD2     N13024   4.708   2.622  15.480 -0.4694  0.2401  0.3673
  888MPD2    H513025   4.623   2.670  15.453 -0.4470 -0.7549 -1.4789
  888MPD2    N113026   4.477   2.184  15.499  0.4592  0.3697 -0.0617
  888MPD2    H713027   4.500   2.091  15.533 -1.9614  0.3380  1.5199
  889MPD2     C13028   4.157   2.142  12.672 -0.1185 -0.1602 -0.3415
  889MPD2    C113029   4.053   2.121  12.770  0.3021 -0.1129 -0.1270
  889MPD2    C213030   4.048   2.205  12.875  0.3869  0.1019 -0.2459
  889MPD2    C313031   4.114   2.324  12.877 -0.1829 -0.6435  0.6661
  889MPD2    C413032   4.198   2.359  12.769  0.5675  0.2676  0.2710
  889MPD2    C513033   4.225   2.261  12.677  0.1318  0.4984 -0.4256
  889MPD2     H13034   3.969   2.194  12.949  1.9827  1.3590  1.6591
  889MPD2    H113035   4.240   2.458  12.750 -0.2182  0.9690  2.1422
  889MPD2    H213036   4.179   2.071  12.593 -0.1920  0.7158 -1.1484
  889MPD2    H313037   4.286   2.289  12.592  0.9571 -1.1970 -0.3983
  889MPD2     N13038   4.096   2.419  12.977  0.3427  0.3084 -0.0188
  889MPD2    H513039   4.049   2.388  13.061  0.8745  3.6551  1.4813
  889MPD2    N113040   3.984   1.999  12.777 -0.3627  0.4109 -0.2988
  889MPD2    H713041   3.941   1.986  12.869  0.4564 -0.3238 -0.0219
  890MPD2     C13042   3.045   3.880  14.744 -0.0179 -0.9804  0.3865
  890MPD2    C113043   3.176   3.901  14.783 -0.3139  0.5828  0.0803
  890MPD2    C213044   3.242   3.797  14.844 -0.4902  0.2333 -0.0028
  890MPD2    C313045   3.186   3.682  14.864 -0.0700 -0.3070 -0.0399
  890MPD2    C413046   3.048   3.667  14.830  0.4611 -0.5833 -0.1505
  890MPD2    C513047   2.980   3.763  14.768  0.0190 -0.3867  0.0153
  890MPD2     H13048   3.343   3.808  14.881 -0.5139 -1.7900  0.7025
  890MPD2    H113049   2.988   3.579  14.849  1.1802 -0.9785  0.3063
  890MPD2    H213050   2.992   3.958  14.690  1.1505 -0.7762 -0.4643
  890MPD2    H313051   2.875   3.754  14.743  0.0375  0.1396 -0.2750
  890MPD2     N13052   3.266   3.590  14.931  0.3781 -0.2286  0.2020
  890MPD2    H513053   3.357   3.626  14.959  0.0604  1.2201 -0.6530
  890MPD2    N113054   3.235   4.028  14.750  0.2000  0.1102  0.8558
  890MPD2    H713055   3.179   4.101  14.708 -1.3536 -1.4225  0.2825
  891MPD2     C13056   1.459   1.677  16.809  0.2501 -0.0508  0.0995
  891MPD2    C113057   1.399   1.779  16.882 -0.2589 -0.1379  0.3318
  891MPD2    C213058   1.473   1.843  16.976  0.0688  0.0355  0.2194
  891MPD2    C313059   1.604   1.814  17.005 -0.1075 -0.2992 -0.0315
  891MPD2    C413060   1.660   1.716  16.923  0.4933  0.3408 -0.0721
  891MPD2    C513061   1.587   1.649  16.827 -0.0586 -0.1733  0.1738
  891MPD2     H13062   1.432   1.921  17.039  0.5870  0.1733  0.3846
  891MPD2    H113063   1.765   1.690  16.936  0.2389 -0.0455  1.2047
  891MPD2    H213064   1.399   1.632  16.731  1.7737 -1.7183 -0.1240
  891MPD2    H313065   1.622   1.572  16.760 -0.3213 -0.8457  0.8143
  891MPD2     N13066   1.676   1.908  17.082 -0.1995  0.2345 -0.1933
  891MPD2    H513067   1.630   1.993  17.111 -0.7042 -0.6940  1.7126
  891MPD2    N113068   1.266   1.807  16.849  0.3229 -0.6962  0.5711
  891MPD2    H713069   1.221   1.756  16.774  1.6000 -1.2768  0.1948
  892MPD2     C13070   2.544   3.591  14.542  0.1681  0.2739  0.3652
  892MPD2    C113071   2.480   3.479  14.591  0.0515 -0.1241 -0.2936
  892MPD2    C213072   2.546   3.357  14.583  0.8139 -0.1928  0.3898
  892MPD2    C313073   2.666   3.343  14.513 -0.1179 -0.2809 -0.2041
  892MPD2    C413074   2.727   3.460  14.471  0.4321 -0.0120  0.8191
  892MPD2    C513075   2.665   3.578  14.483  0.3393 -0.4526 -0.9097
  892MPD2     H13076   2.503   3.266  14.623  0.9717 -0.4102  0.0634
  892MPD2    H113077   2.815   3.464  14.408 -0.4709  0.2145 -0.4280
  892MPD2    H213078   2.492   3.685  14.532 -0.6359 -0.1431  0.5670
  892MPD2    H313079   2.714   3.663  14.437 -0.5480 -0.6261 -2.1642
  892MPD2     N13080   2.725   3.223  14.472  0.5989 -0.9581 -0.3743
  892MPD2    H513081   2.813   3.235  14.423  0.9081 -0.5403  0.2928
  892MPD2    N113082   2.349   3.495  14.646  0.2939  0.3518 -0.1130
  892MPD2    H713083   2.303   3.584  14.627  1.9548  0.9493 -1.3373
  893MPD2     C13084   4.119   1.483   1.280 -0.6092 -0.0649 -0.5211
  893MPD2    C113085   4.174   1.518   1.403  0.1591 -0.1253  0.5549
  893MPD2    C213086   4.159   1.424   1.502  0.0211 -0.5510  0.6118
  893MPD2    C313087   4.079   1.312   1.491 -0.2111  0.4683 -0.5731
  893MPD2    C413088   4.034   1.276   1.363 -0.2662 -0.1236  0.3045
  893MPD2    C513089   4.053   1.365   1.262  0.1811  0.9442  0.1554
  893MPD2     H13090   4.210   1.440   1.597 -0.1247 -0.6266  0.7031
  893MPD2    H113091   3.979   1.187   1.335  2.3533 -1.9878  1.0370
  893MPD2    H213092   4.150   1.537   1.191 -0.6878  0.3026 -0.3223
  893MPD2    H313093   4.020   1.350   1.160 -0.5581  1.9592  0.2433
  893MPD2     N13094   4.047   1.217   1.591  0.1552  0.8678  0.2754
  893MPD2    H513095   3.982   1.143   1.569  0.9432  0.9722 -2.4262
  893MPD2    N113096   4.252   1.634   1.411 -0.2583  0.0130 -0.1485
  893MPD2    H713097   4.270   1.672   1.319  0.5066  2.7377  1.1194
  894MPD2     C13098   2.741   3.674   1.223  0.3760 -0.4479  0.5801
  894MPD2    C113099   2.705   3.801   1.190 -0.1583 -0.3872 -0.1618
  894MPD2    C213100   2.670   3.892   1.282  0.0433 -0.2826 -0.7292
  894MPD2    C313101   2.677   3.860   1.418  0.5330  0.3028 -0.3865
  894MPD2    C413102   2.702   3.730   1.452 -0.1633  0.1467 -0.6677
  894MPD2    C513103   2.747   3.638   1.358 -0.0917  0.0478  0.3586
  894MPD2     H13104   2.664   3.995   1.250  2.5126  0.3671  0.9071
  894MPD2    H113105   2.699   3.687   1.552  1.3607  2.6963  0.4692
  894MPD2    H213106   2.778   3.590   1.165  0.4357 -1.0555  1.4972
  894MPD2    H313107   2.771   3.534   1.374 -1.6056 -0.3893 -0.2623
  894MPD2     N13108   2.654   3.962   1.514 -0.0090  0.4443 -0.4254
  894MPD2    H513109   2.657   4.059   1.485  0.6483  0.5714  0.0649
  894MPD2    N113110   2.724   3.830   1.052  0.4206  0.8422 -0.2901
  894MPD2    H713111   2.776   3.763   0.997 -0.3550  0.1848 -0.2367
  895MPD2     C13112   1.719   2.654  14.103 -0.5532 -0.2924  0.3848
  895MPD2    C113113   1.717   2.665  13.961 -0.1202  0.4995  0.8092
  895MPD2    C213114   1.805   2.601  13.878 -0.5061  0.2556  0.3151
  895MPD2    C313115   1.887   2.516  13.928 -0.2763  0.4448  0.1341
  895MPD2    C413116   1.895   2.499  14.059  0.1354 -0.0930 -0.1497
  895MPD2    C513117   1.816   2.569  14.156 -0.5170 -0.2018  0.0653
  895MPD2     H13118   1.791   2.600  13.770 -1.6454  1.7587  0.4445
  895MPD2    H113119   1.955   2.419  14.102  0.6187  0.8337  0.8955
  895MPD2    H213120   1.651   2.701  14.173  1.7818  0.2314  2.3303
  895MPD2    H313121   1.827   2.548  14.262 -3.2312 -0.6303  0.2788
  895MPD2     N13122   1.945   2.436  13.826 -0.7457 -0.5428  0.1681
  895MPD2    H513123   1.934   2.463  13.729  2.6637  0.1856 -0.0395
  895MPD2    N113124   1.615   2.735  13.889 -0.7444 -0.7280  0.5788
  895MPD2    H713125   1.616   2.731  13.788  0.6893 -0.3535  0.5874
  896MPD2     C13126   3.054   0.850   1.212  0.2880 -0.2219 -0.2350
  896MPD2    C113127   3.120   0.752   1.281  0.0794  0.2333  0.0823
  896MPD2    C213128   3.050   0.675   1.373  0.2133  0.2400  0.2821
  896MPD2    C313129   2.918   0.696   1.400  0.1843  0.2183 -0.2154
  896MPD2    C413130   2.856   0.800   1.318  0.2672 -0.5124 -0.8803
  896MPD2    C513131   2.922   0.879   1.232 -0.1669  0.6816 -0.2403
  896MPD2     H13132   3.094   0.591   1.426  0.4007 -1.8107 -3.0572
  896MPD2    H113133   2.751   0.825   1.329  0.6073  0.9974 -1.0788
  896MPD2    H213134   3.101   0.912   1.137  1.1026 -1.7854 -1.0185
  896MPD2    H313135   2.874   0.955   1.171  0.5194  0.5039 -1.0141
  896MPD2     N13136   2.852   0.606   1.486 -0.3841  0.1737  0.0771
  896MPD2    H513137   2.903   0.523   1.513 -0.9628 -0.4169 -0.6775
  896MPD2    N113138   3.256   0.739   1.243  0.0849  0.6564 -0.3096
  896MPD2    H713139   3.305   0.807   1.185  0.3301 -0.1859 -1.0939
  897MPD2     C13140   0.739   1.589  10.365  0.0451 -0.2154  0.3505
  897MPD2    C113141   0.719   1.697  10.450  0.2315  0.5673 -0.0357
  897MPD2    C213142   0.670   1.669  10.579 -0.3683  0.0693 -0.3752
  897MPD2    C313143   0.655   1.535  10.619 -0.1937 -0.8610  0.2209
  897MPD2    C413144   0.682   1.426  10.531 -0.5249 -0.0636 -0.1504
  897MPD2    C513145   0.724   1.460  10.404  0.8201  0.0126 -0.0774
  897MPD2     H13146   0.631   1.746  10.644 -2.7657 -0.6395 -0.9705
  897MPD2    H113147   0.661   1.322  10.555 -1.0723  0.1672  0.3865
  897MPD2    H213148   0.763   1.610  10.261  0.2208  1.2699  0.6911
  897MPD2    H313149   0.748   1.389  10.326  0.4594 -1.4526  1.1344
  897MPD2     N13150   0.584   1.519  10.743 -0.5702 -0.2606 -0.4781
  897MPD2    H513151   0.553   1.602  10.792 -1.4334 -1.1042  0.4278
  897MPD2    N113152   0.736   1.826  10.393 -0.3994  0.2650  0.0978
  897MPD2    H713153   0.728   1.837  10.292  1.1896  1.1537  0.0783
  898MPD2     C13154   2.553   2.599  17.366  0.8853  0.2353 -1.1464
  898MPD2    C113155   2.532   2.694  17.465 -0.0956 -0.2512  0.6472
  898MPD2    C213156   2.470   2.811  17.428 -0.1586  0.1274  0.6809
  898MPD2    C313157   2.422   2.825  17.299  0.2479  0.5713 -0.2913
  898MPD2    C413158   2.448   2.738  17.204  0.0491  0.5030 -0.2388
  898MPD2    C513159   2.509   2.623  17.236  0.5784 -0.4393  0.3284
  898MPD2     H13160   2.447   2.883  17.506 -2.1550  0.9572 -0.6927
  898MPD2    H113161   2.420   2.755  17.100 -1.8121  0.1355  0.2091
  898MPD2    H213162   2.604   2.504  17.373  2.4668  1.2743  1.5149
  898MPD2    H313163   2.537   2.556  17.156 -2.0339  0.2151 -1.1270
  898MPD2     N13164   2.348   2.944  17.272  0.2756 -0.1104 -0.7434
  898MPD2    H513165   2.353   3.009  17.350 -0.8657 -1.2901  0.3054
  898MPD2    N113166   2.582   2.683  17.599  0.6492  0.0126  0.0759
  898MPD2    H713167   2.559   2.760  17.661 -0.2050  0.7338 -1.1387
  899MPD2     C13168   2.953   2.976  17.664  0.1513  0.0822 -0.5521
  899MPD2    C113169   2.990   3.086   0.050 -0.0659 -0.4234  0.1547
  899MPD2    C213170   2.997   3.068   0.180  0.2188 -0.3518 -1.4337
  899MPD2    C313171   2.976   2.950   0.242 -0.1908 -0.2380  0.2968
  899MPD2    C413172   2.929   2.850   0.169 -0.1188  0.4115 -0.0353
  899MPD2    C513173   2.914   2.866   0.031 -0.9498 -0.0914  0.3660
  899MPD2     H13174   3.010   3.149   0.251 -2.5897 -1.0962 -0.0605
  899MPD2    H113175   2.908   2.762   0.228  1.6978  0.6003  0.9101
  899MPD2    H213176   2.941   2.974  17.556 -3.4412 -1.3087 -0.1168
  899MPD2    H313177   2.870   2.782  17.671 -0.8775  1.0248 -1.4258
  899MPD2     N13178   3.019   2.923   0.376 -0.2817 -0.4031 -0.3970
  899MPD2    H513179   2.988   2.839   0.423 -0.5555  0.3898  0.8463
  899MPD2    N113180   3.009   3.212  17.686  0.1633  0.0615  0.2666
  899MPD2    H713181   3.000   3.212  17.585  0.4951  0.0091  0.2388
  900MPD2     C13182   3.079   0.364  12.740 -0.2434 -0.2293 -0.1221
  900MPD2    C113183   2.998   0.250  12.738  0.4941  0.1241  0.1328
  900MPD2    C213184   2.866   0.269  12.695 -0.6771 -0.9229  0.1965
  900MPD2    C313185   2.817   0.388  12.660 -0.4803  0.2200  0.5857
  900MPD2    C413186   2.894   0.505  12.669 -0.1889 -0.3525 -0.3125
  900MPD2    C513187   3.027   0.485  12.709  0.2163 -0.1048 -0.2993
  900MPD2     H13188   2.796   0.186  12.682 -0.1889 -1.5270  1.4478
  900MPD2    H113189   2.872   0.607  12.640 -1.2809 -1.0844 -2.0364
  900MPD2    H213190   3.187   0.351  12.742 -0.4559 -1.6589  0.9810
  900MPD2    H313191   3.095   0.569  12.701  2.1136 -1.6628 -0.5975
  900MPD2     N13192   2.687   0.391  12.621 -0.2269 -0.0026  0.5576
  900MPD2    H513193   2.633   0.306  12.624  1.6437 -1.1083  2.9981
  900MPD2    N113194   3.048   0.126  12.784  0.0518  0.0063 -0.3112
  900MPD2    H713195   3.142   0.129  12.821 -0.3706 -2.1482  0.9048
  901MPD2     C13196   2.994   3.872  13.266  0.4753  0.8626 -0.0479
  901MPD2    C113197   3.032   3.851  13.135  0.0313 -0.2138 -0.6491
  901MPD2    C213198   3.066   3.958  13.062  1.3883 -0.0936  0.3100
  901MPD2    C313199   3.042   4.080  13.108 -0.3067 -0.0745 -0.7053
  901MPD2    C413200   2.988   4.097  13.232  0.7326 -0.3108  0.8810
  901MPD2    C513201   2.975   3.994  13.320  0.2663 -0.7884 -0.3412
  901MPD2     H13202   3.104   3.959  12.960  4.1308 -0.0183  1.3408
  901MPD2    H113203   2.976   4.194  13.280 -0.4845  0.3990 -0.8207
  901MPD2    H213204   2.985   3.787  13.333  1.4853  0.6475 -0.1899
  901MPD2    H313205   2.954   4.013  13.424 -1.5384 -0.0393 -0.8349
  901MPD2     N13206   3.071   4.193  13.021  0.2726  0.2182  0.5478
  901MPD2    H513207   3.126   4.177  12.937 -2.1641 -0.1401 -0.9778
  901MPD2    N113208   3.033   3.718  13.093 -0.1982  0.3077  0.5413
  901MPD2    H713209   3.023   3.651  13.169  0.4485 -0.4822 -0.0650
  902MPD2     C13210   2.212   2.631  12.761 -0.4627 -0.1656  0.8948
  902MPD2    C113211   2.098   2.650  12.687 -0.2034 -0.2985 -0.0332
  902MPD2    C213212   2.067   2.566  12.583  0.1863  0.8091  0.1581
  902MPD2    C313213   2.162   2.470  12.548 -0.6395 -0.8532 -0.9484
  902MPD2    C413214   2.271   2.452  12.626  0.1926  0.0997  0.1469
  902MPD2    C513215   2.303   2.534  12.730 -0.0302  0.4678 -0.1135
  902MPD2     H13216   1.975   2.585  12.529  1.2404  0.7021 -1.6649
  902MPD2    H113217   2.347   2.376  12.610 -0.4774 -0.1430 -1.8781
  902MPD2    H213218   2.221   2.686  12.855  0.7604  0.7814  0.2290
  902MPD2    H313219   2.389   2.508  12.789 -0.4926  0.3869  0.5266
  902MPD2     N13220   2.153   2.393  12.430 -0.6387  0.9923 -0.3048
  902MPD2    H513221   2.235   2.341  12.402 -1.6053 -0.0226 -1.2646
  902MPD2    N113222   2.013   2.752  12.731  0.8028  0.2987 -0.1685
  902MPD2    H713223   2.049   2.813  12.803  2.4390 -0.1712 -0.5882
  903MPD2     C13224   1.710   2.184  11.649  0.4196 -0.2777  0.3138
  903MPD2    C113225   1.689   2.204  11.786 -0.1939 -0.3111  0.7143
  903MPD2    C213226   1.564   2.250  11.821 -0.2411  0.6197 -0.1193
  903MPD2    C313227   1.474   2.284  11.725 -0.4708  0.1678  0.3517
  903MPD2    C413228   1.501   2.268  11.591  0.6558  0.0192  0.5328
  903MPD2    C513229   1.621   2.221  11.549 -0.6058 -0.0891  0.0757
  903MPD2     H13230   1.542   2.254  11.927  0.4034  2.6113 -0.0703
  903MPD2    H113231   1.427   2.288  11.514  1.5816  1.3756  0.0113
  903MPD2    H213232   1.801   2.135  11.614 -0.6263 -1.9723 -0.0552
  903MPD2    H313233   1.649   2.210  11.445  0.2670  1.8344  0.1101
  903MPD2     N13234   1.349   2.329  11.773 -0.6874  0.5748  0.7119
  903MPD2    H513235   1.345   2.318  11.873  0.2007  0.9959  0.7993
  903MPD2    N113236   1.793   2.175  11.871 -0.1135  0.3926 -0.1251
  903MPD2    H713237   1.880   2.180  11.820 -0.5157  1.7785 -0.6851
  904MPD2     C13238   1.350   1.645  13.902  0.7598  0.4328  0.1135
  904MPD2    C113239   1.408   1.769  13.938  0.3504 -0.2267  0.0187
  904MPD2    C213240   1.541   1.758  13.984 -0.0813 -0.0816  0.1843
  904MPD2    C313241   1.607   1.642  14.010 -0.7522 -0.0892 -0.0383
  904MPD2    C413242   1.544   1.519  13.980  0.3899 -0.4346 -0.3453
  904MPD2    C513243   1.419   1.526  13.932 -0.4672 -0.0896 -0.0113
  904MPD2     H13244   1.588   1.855  13.997  2.5805 -1.1724 -1.4072
  904MPD2    H113245   1.588   1.421  13.996 -1.3263 -1.3046 -0.9145
  904MPD2    H213246   1.256   1.634  13.849  1.5165  0.1447 -1.1752
  904MPD2    H313247   1.366   1.434  13.911 -2.3576  1.0786 -0.4344
  904MPD2     N13248   1.741   1.644  14.056  0.0881 -0.4331 -0.4831
  904MPD2    H513249   1.779   1.736  14.078  3.0748 -1.6261 -0.5826
  904MPD2    N113250   1.352   1.896  13.918  0.0637 -0.0301 -0.1957
  904MPD2    H713251   1.404   1.971  13.962  0.9970 -1.3274  0.9041
  905MPD2     C13252   1.414   2.069  13.256  0.0792  0.1606 -1.0147
  905MPD2    C113253   1.450   2.141  13.364  0.0313 -0.5384  0.3906
  905MPD2    C213254   1.582   2.173  13.390  0.1995 -0.0021 -0.6115
  905MPD2    C313255   1.682   2.100  13.332  0.1421  0.6792  0.2266
  905MPD2    C413256   1.650   2.003  13.238 -0.6347  0.0669 -0.5614
  905MPD2    C513257   1.517   2.007  13.191 -0.9176 -0.6422  0.5560
  905MPD2     H13258   1.604   2.242  13.471  0.0547 -0.6518 -0.0186
  905MPD2    H113259   1.727   1.946  13.189  0.4486  1.9796 -1.0882
  905MPD2    H213260   1.308   2.057  13.235 -0.5277 -1.3121  2.8559
  905MPD2    H313261   1.498   1.951  13.101 -3.1182  2.4078 -0.8579
  905MPD2     N13262   1.813   2.112  13.371  0.5435  0.2627 -0.2141
  905MPD2    H513263   1.873   2.036  13.341  0.3597 -0.5188  1.4117
  905MPD2    N113264   1.338   2.186  13.437 -0.3570 -0.7052  0.6035
  905MPD2    H713265   1.249   2.142  13.417  0.5654 -1.9972 -0.7156
  906MPD2     C13266   3.948   1.977  11.166  0.5382  0.2563  0.6716
  906MPD2    C113267   3.926   1.871  11.074 -0.8443  0.7281  0.4773
  906MPD2    C213268   3.905   1.744  11.126  0.0214 -0.4855 -0.2882
  906MPD2    C313269   3.906   1.722  11.261  0.0707  0.8174  0.5195
  906MPD2    C413270   3.922   1.829  11.346 -0.1856  0.3751 -0.5139
  906MPD2    C513271   3.942   1.957  11.298 -0.5744  0.4932  0.3665
  906MPD2     H13272   3.870   1.668  11.057 -1.6938 -0.6518  0.7662
  906MPD2    H113273   3.909   1.816  11.453 -2.4054  1.0342 -0.7089
  906MPD2    H213274   3.957   2.082  11.138  2.8498 -0.5542 -1.5501
  906MPD2    H313275   3.947   2.039  11.370  0.2412 -0.7489  1.7175
  906MPD2     N13276   3.900   1.593  11.326  0.1258 -0.0194 -0.0575
  906MPD2    H513277   3.905   1.598  11.427 -0.2271  2.6870 -0.1607
  906MPD2    N113278   3.948   1.884  10.934 -0.7784  0.1911 -0.0181
  906MPD2    H713279   3.933   1.811  10.866 -0.1779  1.0952 -1.1260
  907MPD2     C13280   1.846   0.775  15.395 -0.2741  0.2590  0.5638
  907MPD2    C113281   1.969   0.724  15.411 -0.0813 -0.1900  0.2610
  907MPD2    C213282   2.037   0.740  15.529 -0.4508  0.0546  0.5709
  907MPD2    C313283   2.000   0.826  15.632 -0.1423 -0.4235 -0.7128
  907MPD2    C413284   1.885   0.892  15.605  0.5959 -0.1862 -0.5361
  907MPD2    C513285   1.803   0.855  15.497 -0.5590 -0.4707 -0.4964
  907MPD2     H13286   2.134   0.690  15.535 -0.5331  0.0123  1.6010
  907MPD2    H113287   1.849   0.968  15.673  2.1892  1.1280 -1.1348
  907MPD2    H213288   1.788   0.768  15.304  3.0341  3.9632 -1.8272
  907MPD2    H313289   1.705   0.903  15.494  0.4617  1.5906 -1.1797
  907MPD2     N13290   2.077   0.847  15.744 -0.8919  1.0734 -0.5502
  907MPD2    H513291   2.147   0.775  15.758 -1.5636  0.5171 -0.1075
  907MPD2    N113292   2.037   0.656  15.314  0.0457  0.4503  0.2791
  907MPD2    H713293   2.132   0.630  15.339  0.0385  1.9102  1.8175
  908MPD2     C13294   0.217   1.844   9.820  0.4601 -0.4016 -0.1166
  908MPD2    C113295   0.344   1.779   9.826  0.9528 -0.0908 -0.1461
  908MPD2    C213296   0.445   1.840   9.895 -0.2697  0.5581  0.2923
  908MPD2    C313297   0.421   1.966   9.944  0.4747 -0.8233  0.3910
  908MPD2    C413298   0.296   2.030   9.936  0.1485 -0.5296 -0.6091
  908MPD2    C513299   0.198   1.969   9.866  0.1969  0.1665 -0.2047
  908MPD2     H13300   0.537   1.785   9.913  1.0808  2.2097 -1.5745
  908MPD2    H113301   0.269   2.130   9.967  1.5247 -0.1028 -0.7813
  908MPD2    H213302   0.132   1.797   9.773 -1.3516  0.8143  1.9747
  908MPD2    H313303   0.106   2.024   9.853 -0.5632 -1.2858 -1.0098
  908MPD2     N13304   0.523   2.030  10.020  0.1041  0.0035  0.5757
  908MPD2    H513305   0.606   1.974  10.037  0.1135 -0.1746 -0.0470
  908MPD2    N113306   0.367   1.650   9.776 -0.0257 -0.0791  0.5114
  908MPD2    H713307   0.463   1.618   9.780  0.9686  3.0220  1.5343
  909MPD2     C13308   0.906   4.374  11.754 -0.1441 -0.0792 -0.3475
  909MPD2    C113309   0.935   4.501  11.721  0.8978  0.4243 -0.3730
  909MPD2    C213310   0.874   4.608  11.782 -0.9916  0.4132 -0.1679
  909MPD2    C313311   0.766   4.584  11.864  1.0763  0.3783  0.9723
  909MPD2    C413312   0.720   4.456  11.885 -0.0048  0.1429 -0.0974
  909MPD2    C513313   0.797   4.350  11.837 -0.3662  0.3827 -0.8920
  909MPD2     H13314   0.916   4.706  11.761  0.4983  0.0589  1.1512
  909MPD2    H113315   0.641   4.421  11.951  0.6183 -2.0300 -0.4969
  909MPD2    H213316   0.964   4.288  11.723  0.4133  0.1467  0.0720
  909MPD2    H313317   0.760   4.252  11.864 -0.2751  0.9172  1.1155
  909MPD2     N13318   0.688   4.690  11.916 -0.0846  0.2838 -0.1370
  909MPD2    H513319   0.724   0.062  11.906 -1.6383  0.9341  0.5762
  909MPD2    N113320   1.033   4.525  11.619  0.4011  0.1927 -0.2133
  909MPD2    H713321   1.041   4.624  11.595  1.1199 -0.2245 -1.6263
  910MPD2     C13322   1.524   1.251  15.842  0.1702  0.0765 -0.0684
  910MPD2    C113323   1.658   1.251  15.821  0.1504  0.6893  0.5074
  910MPD2    C213324   1.704   1.222  15.694 -0.4206  0.3937  0.4674
  910MPD2    C313325   1.615   1.205  15.584  0.6201  0.3564 -0.1091
  910MPD2    C413326   1.481   1.204  15.612  0.7942 -0.0834  0.0667
  910MPD2    C513327   1.436   1.230  15.739 -0.2926 -0.7907 -1.3591
  910MPD2     H13328   1.812   1.210  15.686 -0.3343  1.4749  0.0164
  910MPD2    H113329   1.416   1.213  15.525 -0.7235  0.1453  1.2408
  910MPD2    H213330   1.487   1.269  15.942  1.0651  0.0578  0.2660
  910MPD2    H313331   1.331   1.242  15.762 -0.2478 -3.2406  0.0950
  910MPD2     N13332   1.659   1.213  15.446  0.1255  0.3198 -0.6897
  910MPD2    H513333   1.586   1.204  15.377 -0.8290  0.3593  0.3248
  910MPD2    N113334   1.758   1.264  15.925  0.1595  0.1007  0.0288
  910MPD2    H713335   1.852   1.234  15.905  0.4592  1.6858 -0.9469
  911MPD2     C13336   4.373   2.135  16.197 -0.1975 -0.2833  0.5398
  911MPD2    C113337   4.447   2.226  16.265 -0.3160 -0.0949 -0.2055
  911MPD2    C213338   4.405   2.358  16.275 -0.5879  0.4295 -0.3061
  911MPD2    C313339   4.287   2.394  16.225 -0.0923 -0.7252  0.1567
  911MPD2    C413340   4.214   2.301  16.156  0.1350  0.4361  0.1217
  911MPD2    C513341   4.263   2.178  16.132 -0.3461 -0.3199  0.8797
  911MPD2     H13342   4.480   2.428  16.309  1.3626 -1.8954  0.1431
  911MPD2    H113343   4.116   2.328  16.117 -1.0768 -1.8358  1.6135
  911MPD2    H213344   4.415   2.037  16.178 -0.9873 -0.2285 -1.4993
  911MPD2    H313345   4.198   2.109  16.081 -0.7428  0.1412  0.7539
  911MPD2     N13346   4.237   2.527  16.225  0.2003 -0.8264 -0.1419
  911MPD2    H513347   4.148   2.534  16.178  0.2394  0.3881 -0.0478
  911MPD2    N113348   4.569   2.172  16.317 -0.1060 -0.3674  0.1139
  911MPD2    H713349   4.582   2.073  16.300 -0.9216 -0.4779  0.1196
  912MPD2     C13350   3.847   2.378  15.956 -0.1218  0.2014  0.1467
  912MPD2    C113351   3.866   2.457  16.067  0.1646  0.4744 -0.7158
  912MPD2    C213352   3.861   2.390  16.188 -0.7526  0.3042  0.1619
  912MPD2    C313353   3.864   2.251  16.189  0.4103 -0.2496 -0.2302
  912MPD2    C413354   3.846   2.172  16.077  0.0005  0.1449 -0.0559
  912MPD2    C513355   3.837   2.241  15.961  0.9930 -0.1856 -0.5228
  912MPD2     H13356   3.897   2.448  16.273  0.7006 -0.4443  0.0687
  912MPD2    H113357   3.842   2.064  16.076  1.0211  0.0898  2.1790
  912MPD2    H213358   3.857   2.422  15.857 -0.2441 -0.0865  0.0071
  912MPD2    H313359   3.834   2.179  15.871 -0.4791 -0.7322 -0.1037
  912MPD2     N13360   3.879   2.201  16.316 -0.3995  0.0800  0.1637
  912MPD2    H513361   3.899   2.271  16.387 -1.3531  2.0501 -1.5189
  912MPD2    N113362   3.887   2.594  16.051 -0.2715 -0.7169  0.2436
  912MPD2    H713363   3.887   2.631  15.956 -0.9767  1.2499  1.0122
  913MPD2     C13364   4.174   3.390  11.103 -0.1785  0.0412 -0.0922
  913MPD2    C113365   4.231   3.483  11.020  0.1143 -0.1345 -0.6380
  913MPD2    C213366   4.169   3.518  10.900 -0.1997  0.0334 -0.1217
  913MPD2    C313367   4.063   3.443  10.850  0.6056  0.8847  0.1654
  913MPD2    C413368   4.018   3.340  10.931 -0.0705  0.0386 -0.5015
  913MPD2    C513369   4.071   3.319  11.051 -0.2613 -1.0992  0.0938
  913MPD2     H13370   4.203   3.606  10.847  2.0975  0.0411  1.3461
  913MPD2    H113371   3.942   3.274  10.890  1.6674 -1.3362 -1.5016
  913MPD2    H213372   4.228   3.349  11.188 -0.3859 -0.7534 -0.3448
  913MPD2    H313373   4.035   3.237  11.111 -0.2717 -1.2977 -0.1874
  913MPD2     N13374   3.998   3.474  10.722 -0.0810  0.5831 -0.1098
  913MPD2    H513375   3.908   3.429  10.707 -0.1051 -0.0037  1.8109
  913MPD2    N113376   4.351   3.549  11.069  0.1305 -0.4623  0.2461
  913MPD2    H713377   4.374   3.530  11.166  0.3274  0.0669  0.3061
  914MPD2     C13378   2.642   3.308  12.261 -0.2462 -0.2047 -0.6525
  914MPD2    C113379   2.660   3.438  12.314 -0.8157  0.4011  0.4306
  914MPD2    C213380   2.725   3.458  12.432  0.2050 -0.0981 -0.0933
  914MPD2    C313381   2.770   3.353  12.508 -0.3591  0.1453 -0.2117
  914MPD2    C413382   2.755   3.224  12.453 -0.0081 -0.6043  0.1452
  914MPD2    C513383   2.696   3.201  12.331 -0.7844 -0.1438 -0.1101
  914MPD2     H13384   2.750   3.557  12.468 -1.0248 -0.3803  1.5580
  914MPD2    H113385   2.787   3.135  12.507  2.1828 -0.0734 -0.3135
  914MPD2    H213386   2.591   3.292  12.167  0.0784  0.0688 -0.8739
  914MPD2    H313387   2.691   3.099  12.296 -0.1035  0.0365 -0.7388
  914MPD2     N13388   2.843   3.390  12.628  0.0544 -0.3554 -0.0582
  914MPD2    H513389   2.865   3.489  12.631  0.0906 -0.3465 -0.7217
  914MPD2    N113390   2.622   3.544  12.226 -0.4761 -0.3826 -0.0342
  914MPD2    H713391   2.590   3.508  12.136 -1.4037  1.3567 -0.3997
  915MPD2     C13392   0.978   3.454  15.832  0.2453  0.5003  0.0103
  915MPD2    C113393   0.846   3.499  15.814  0.2033  0.0139  0.2890
  915MPD2    C213394   0.792   3.589  15.915 -0.1516  0.4408  0.4052
  915MPD2    C313395   0.860   3.630  16.024  0.1433  0.5919  0.4577
  915MPD2    C413396   0.991   3.586  16.039 -0.0076  0.0720 -1.2527
  915MPD2    C513397   1.049   3.498  15.944  0.1539  0.4103 -0.4700
  915MPD2     H13398   0.688   3.619  15.907 -0.0608  0.5840 -0.2062
  915MPD2    H113399   1.046   3.621  16.125  0.4766  0.4072 -1.6963
  915MPD2    H213400   1.028   3.389  15.761 -2.5784 -0.3130 -1.2220
  915MPD2    H313401   1.155   3.473  15.952 -0.0238 -0.6949 -1.5793
  915MPD2     N13402   0.786   3.699  16.123 -0.5450  0.1420  0.2507
  915MPD2    H513403   0.686   3.704  16.104 -0.5450  0.5047  0.3583
  915MPD2    N113404   0.780   3.458  15.694  0.2075 -0.2959 -0.8369
  915MPD2    H713405   0.834   3.402  15.629 -2.6937 -2.2975 -1.5190
  916MPD2     C13406   3.659   1.945  15.770 -0.6268  0.4439  0.2307
  916MPD2    C113407   3.584   1.860  15.856 -0.1623 -0.1799  0.1978
  916MPD2    C213408   3.583   1.725  15.825 -0.1578  0.5815 -0.5046
  916MPD2    C313409   3.663   1.679  15.717 -0.1429 -0.7477  0.8128
  916MPD2    C413410   3.741   1.767  15.641  0.0847 -1.2705  0.2731
  916MPD2    C513411   3.741   1.897  15.673 -0.5656  1.4945 -0.6986
  916MPD2     H13412   3.546   1.651  15.895  0.4533  0.8085  0.0636
  916MPD2    H113413   3.796   1.736  15.553 -0.9156  0.0604 -0.8255
  916MPD2    H213414   3.651   2.052  15.785  1.2647  0.9157 -2.0102
  916MPD2    H313415   3.805   1.964  15.616  0.1495  0.4075 -1.1707
  916MPD2     N13416   3.648   1.541  15.673 -0.1662  0.9179  0.1743
  916MPD2    H513417   3.570   1.488  15.712 -0.5449  0.6216 -1.0066
  916MPD2    N113418   3.499   1.913  15.951 -0.3055  0.1659  0.7206
  916MPD2    H713419   3.488   2.012  15.967 -0.4959  0.3352 -0.4460
  917MPD2     C13420   4.685   4.341  11.606 -0.3466  0.2840  0.1670
  917MPD2    C113421   4.554   4.346  11.576  0.0080 -0.0734 -0.7857
  917MPD2    C213422   4.501   4.425  11.469 -0.3361  0.0675 -0.1544
  917MPD2    C313423   4.601   4.494  11.395 -0.1915 -0.2076  0.1955
  917MPD2    C413424   0.011   4.481  11.417 -0.2829  0.3340 -0.4997
  917MPD2    C513425   0.048   4.416  11.534  0.3981  0.3538 -0.5849
  917MPD2     H13426   4.396   4.429  11.443  0.2110  0.2658 -2.3475
  917MPD2    H113427   0.077   4.552  11.368 -2.7215  0.9016 -2.9974
  917MPD2    H213428   4.719   4.276  11.685 -1.9239 -1.7939 -0.8455
  917MPD2    H313429   0.150   4.422  11.571  0.7170 -2.2218 -1.0566
  917MPD2     N13430   4.578   4.593  11.293  0.3294  0.0055  0.7143
  917MPD2    H513431   4.655   4.628  11.238 -1.1580 -0.7851 -1.8903
  917MPD2    N113432   4.471   4.271  11.665 -1.0863 -0.4115  0.0164
  917MPD2    H713433   4.524   4.231  11.742 -0.7928 -1.4661 -0.7362
  918MPD2     C13434   4.647   4.255  12.496  0.4067 -0.3655  0.4530
  918MPD2    C113435   4.713   4.199  12.388  0.8427 -0.2469  0.2846
  918MPD2    C213436   4.652   4.183  12.270  0.4625 -0.3487 -0.5611
  918MPD2    C313437   4.516   4.221  12.259  0.8658  0.2458  0.0738
  918MPD2    C413438   4.458   4.296  12.353  0.0726  0.9012 -1.0339
  918MPD2    C513439   4.528   4.312  12.470  0.7675 -0.2347 -0.0589
  918MPD2     H13440   4.710   4.135  12.191 -0.7622 -2.6118 -0.1044
  918MPD2    H113441   4.359   4.335  12.334 -0.0376  1.4119  0.5753
  918MPD2    H213442   4.695   4.278  12.591 -0.4494  0.7519  0.6187
  918MPD2    H313443   4.486   4.376  12.547 -1.7332 -1.1835 -0.6419
  918MPD2     N13444   4.444   4.214  12.129 -0.4827  0.1402  0.1851
  918MPD2    H513445   4.494   4.201  12.042  1.4593  1.3176  1.0951
  918MPD2    N113446   0.123   4.145  12.392 -0.2616 -0.1381 -0.3497
  918MPD2    H713447   0.161   4.100  12.309  0.1370 -0.4595  0.0089
  919MPD2     C13448   0.186   3.459  11.803  0.4023  0.4208  0.0161
  919MPD2    C113449   0.183   3.324  11.752 -0.1247  0.1635 -0.4359
  919MPD2    C213450   0.170   3.313  11.611 -0.0603  0.2645 -0.0121
  919MPD2    C313451   0.112   3.418  11.539 -0.1799  0.3986 -0.3272
  919MPD2    C413452   0.101   3.538  11.600  1.0613 -0.7290  0.4688
  919MPD2    C513453   0.148   3.564  11.725  0.0777 -0.1469  0.4062
  919MPD2     H13454   0.181   3.213  11.570  3.6396  0.4369  0.5746
  919MPD2    H113455   0.056   3.623  11.549  0.3157  0.2980  2.8128
  919MPD2    H213456   0.207   3.477  11.907  1.4603  2.0052 -0.4701
  919MPD2    H313457   0.130   3.663  11.766 -0.2020  0.5694 -1.4499
  919MPD2     N13458   0.073   3.406  11.405 -0.4319  0.0486  0.3884
  919MPD2    H513459   0.017   3.484  11.371 -2.9909 -1.7404  0.5239
  919MPD2    N113460   0.200   3.212  11.837 -0.5832  0.0016 -0.1262
  919MPD2    H713461   0.216   3.127  11.785  0.4888  0.6138 -0.7912
  920MPD2     C13462   4.066   2.985  10.874  0.9960 -0.1071  0.7083
  920MPD2    C113463   4.123   3.057  10.775 -0.5917  0.3089  0.2951
  920MPD2    C213464   4.239   3.113  10.801 -0.6371 -0.4195 -0.7548
  920MPD2    C313465   4.297   3.101  10.927  0.3512 -0.0182  0.0117
  920MPD2    C413466   4.245   3.014  11.020  0.1932  0.7437  0.0144
  920MPD2    C513467   4.129   2.952  10.989  0.8354  0.1769 -0.2672
  920MPD2     H13468   4.284   3.188  10.738 -1.2076 -0.1910 -0.8873
  920MPD2    H113469   4.277   3.001  11.123 -1.1790  0.3629  0.3991
  920MPD2    H213470   3.973   2.935  10.850  1.8583 -1.2982 -0.1350
  920MPD2    H313471   4.074   2.894  11.062  1.2803 -0.1671 -0.2054
  920MPD2     N13472   4.408   3.178  10.950 -0.1178  0.5268 -0.2566
  920MPD2    H513473   4.425   3.235  10.867  0.2566  0.7576 -0.0180
  920MPD2    N113474   4.067   3.088  10.644  0.1653  0.1194  0.6127
  920MPD2    H713475   4.115   3.152  10.583  0.6404 -2.9363 -2.2296
  921MPD2     C13476   0.710   2.509  16.655 -0.2602 -0.5452  0.0037
  921MPD2    C113477   0.709   2.382  16.703 -0.2407  0.8657 -0.6174
  921MPD2    C213478   0.589   2.316  16.692 -0.1623 -0.5710  0.1550
  921MPD2    C313479   0.476   2.372  16.639  0.3887 -0.2099  1.0542
  921MPD2    C413480   0.477   2.502  16.607  0.1603  0.6908 -0.2026
  921MPD2    C513481   0.599   2.572  16.602  1.1701  0.0223 -1.1472
  921MPD2     H13482   0.587   2.213  16.726  0.8236 -0.4663  0.5306
  921MPD2    H113483   0.388   2.542  16.558  0.3530  1.0891 -0.2326
  921MPD2    H213484   0.799   2.571  16.660  1.5069 -3.1348  0.7006
  921MPD2    H313485   0.607   2.678  16.581 -1.4415 -0.2724 -3.6229
  921MPD2     N13486   0.364   2.292  16.619 -0.2225 -0.7212 -0.1152
  921MPD2    H513487   0.288   2.335  16.567 -0.8057 -0.5259  0.8945
  921MPD2    N113488   0.829   2.317  16.758  0.6024  0.2555  0.1544
  921MPD2    H713489   0.917   2.356  16.725  0.6788 -1.5355 -1.7822
  922MPD2     C13490   1.559   0.420  17.622 -0.2573  0.1368  0.6222
  922MPD2    C113491   1.580   0.380   0.055 -0.4298 -1.4546  0.2563
  922MPD2    C213492   1.516   0.272   0.109 -0.3865  0.8373 -0.2946
  922MPD2    C313493   1.436   0.195   0.028  0.4830 -0.3532  0.0958
  922MPD2    C413494   1.415   0.236  17.595  0.2296  0.2349 -0.0540
  922MPD2    C513495   1.473   0.347  17.541  0.2578 -0.3989  0.3334
  922MPD2     H13496   1.534   0.231   0.208  0.9013 -0.7673 -1.1939
  922MPD2    H113497   1.340   0.190  17.531  1.6180 -0.3155 -1.3163
  922MPD2    H213498   1.602   0.510  17.580 -1.9179  0.0626 -1.2696
  922MPD2    H313499   1.473   0.368  17.435 -1.1926  0.7920  0.5692
  922MPD2     N13500   1.383   0.076   0.086  0.2682  0.0111 -0.6170
  922MPD2    H513501   1.394   0.061   0.186  1.9568  2.4641 -0.4369
  922MPD2    N113502   1.672   0.449   0.139  0.4640 -0.3481 -0.2435
  922MPD2    H713503   1.687   0.403   0.229 -3.7197 -1.5529 -0.1607
  923MPD2     C13504   3.501   1.669   9.353 -0.2410  0.2035 -0.2451
  923MPD2    C113505   3.488   1.809   9.354 -0.1767  0.6402 -0.3463
  923MPD2    C213506   3.577   1.889   9.424 -0.3690 -0.5277  0.7051
  923MPD2    C313507   3.672   1.824   9.506 -0.0142  0.6156 -0.4870
  923MPD2    C413508   3.681   1.685   9.508  0.1009  0.3182  0.5135
  923MPD2    C513509   3.590   1.605   9.438  0.7973 -0.1551 -0.0335
  923MPD2     H13510   3.574   1.997   9.417 -0.9593 -0.6353 -0.7021
  923MPD2    H113511   3.759   1.640   9.568 -0.0956 -1.5154 -0.6011
  923MPD2    H213512   3.439   1.607   9.289 -0.0660  0.5191 -0.7225
  923MPD2    H313513   3.598   1.497   9.443  0.6312 -0.2320 -1.4054
  923MPD2     N13514   3.780   1.895   9.573 -0.2372 -0.3816  0.1963
  923MPD2    H513515   3.854   1.845   9.621  0.8526  1.2419  0.2045
  923MPD2    N113516   3.373   1.863   9.289  0.4137 -0.0960  0.3817
  923MPD2    H713517   3.307   1.803   9.240  0.5733  0.5467 -0.6187
  924MPD2     C13518   2.133   0.383  16.546  0.3462  0.5137  0.3095
  924MPD2    C113519   2.225   0.487  16.557 -0.3096 -0.4114  0.7265
  924MPD2    C213520   2.251   0.566  16.449  0.8320  0.4293  0.2224
  924MPD2    C313521   2.193   0.539  16.326  0.2133 -0.0674 -0.2211
  924MPD2    C413522   2.114   0.427  16.315 -0.3753 -0.4924 -0.1070
  924MPD2    C513523   2.080   0.351  16.425 -0.6471 -0.1276  0.9334
  924MPD2     H13524   2.321   0.649  16.459  0.0080  1.3509 -1.5181
  924MPD2    H113525   2.076   0.403  16.216  1.8109  0.5034 -1.1853
  924MPD2    H213526   2.109   0.314  16.626  2.5809  1.4267  1.7554
  924MPD2    H313527   2.018   0.261  16.420 -0.5896 -0.1626  0.8527
  924MPD2     N13528   2.206   0.615  16.208 -0.0336  0.8909  0.5147
  924MPD2    H513529   2.142   0.605  16.129 -0.0980  0.8860  0.5675
  924MPD2    N113530   2.264   0.522  16.688 -0.3462 -0.3514  0.6161
  924MPD2    H713531   2.229   0.459  16.760  1.5798  0.4409  2.2721
  925MPD2     C13532   1.235   2.895  15.311 -0.4687  0.7265  0.9603
  925MPD2    C113533   1.196   2.772  15.267  1.1557  0.3465  0.0416
  925MPD2    C213534   1.108   2.695  15.343  0.4035  0.6620 -0.6815
  925MPD2    C313535   1.084   2.724  15.475  0.6956 -0.0321  0.0442
  925MPD2    C413536   1.140   2.843  15.522 -0.2403 -0.1368 -0.0234
  925MPD2    C513537   1.208   2.926  15.439 -0.8735  0.0700 -0.7523
  925MPD2     H13538   1.048   2.617  15.298 -1.9043  1.5237  0.9109
  925MPD2    H113539   1.117   2.876  15.623 -0.9038 -2.8454  0.7200
  925MPD2    H213540   1.293   2.968  15.256 -1.7746  1.5633  0.6846
  925MPD2    H313541   1.252   3.015  15.483 -1.9662 -0.4677  1.4443
  925MPD2     N13542   1.018   2.646  15.570  0.2021  0.3746  0.0311
  925MPD2    H513543   1.002   2.683  15.663  0.0152 -1.0524  0.5691
  925MPD2    N113544   1.216   2.748  15.130 -0.0876  0.7821 -0.1447
  925MPD2    H713545   1.150   2.686  15.084 -0.7215  0.2604  1.4790
  926MPD2     C13546   0.354   1.457  13.514 -0.3235  0.1514 -1.0783
  926MPD2    C113547   0.221   1.470  13.493  0.6312  0.2962 -0.2211
  926MPD2    C213548   0.169   1.464  13.365  0.6878  0.3062  0.2402
  926MPD2    C313549   0.249   1.439  13.251  0.3700  0.0923  0.3915
  926MPD2    C413550   0.382   1.433  13.270 -0.4745  0.3777 -0.3254
  926MPD2    C513551   0.435   1.446  13.399 -0.0729  0.4748 -0.3541
  926MPD2     H13552   0.067   1.493  13.342  0.6309 -0.0768  0.0076
  926MPD2    H113553   0.449   1.424  13.186  1.5654  1.9480  1.1025
  926MPD2    H213554   0.393   1.462  13.615 -1.4982  3.7002 -0.7799
  926MPD2    H313555   0.542   1.436  13.411  0.1780  1.3222 -1.9479
  926MPD2     N13556   0.201   1.444  13.116  0.2377 -0.1266  0.6224
  926MPD2    H513557   0.268   1.426  13.042 -1.0563 -0.0774 -0.5441
  926MPD2    N113558   0.132   1.498  13.600 -0.0693 -0.1775  0.1515
  926MPD2    H713559   0.042   1.537  13.572 -0.4882 -0.9290  0.4548
  927MPD2     C13560   4.524   3.730   0.357  0.3927  0.1073  0.1385
  927MPD2    C113561   4.622   3.827   0.357 -0.0577 -0.1380  0.1483
  927MPD2    C213562   4.702   3.851   0.243  0.2353  0.3821  0.0695
  927MPD2    C313563   4.684   3.782   0.127  0.2081 -0.1497 -0.0690
  927MPD2    C413564   4.587   3.682   0.124  0.1412  0.0645 -0.1182
  927MPD2    C513565   4.503   3.662   0.237 -0.8566  0.8646 -0.3601
  927MPD2     H13566   0.057   3.925   0.252 -0.2982  0.8986  0.4209
  927MPD2    H113567   4.559   3.613   0.045  0.2559 -0.1832  0.0572
  927MPD2    H213568   4.462   3.711   0.444  0.3814  2.1808  0.5881
  927MPD2    H313569   4.424   3.588   0.240 -0.2224  0.3245  2.7184
  927MPD2     N13570   0.021   3.826   0.013 -0.3667 -0.2406  0.1575
  927MPD2    H513571   0.085   3.904   0.023 -1.8590  1.0322 -0.2895
  927MPD2    N113572   4.633   3.899   0.479 -0.1146 -0.1426  0.1380
  927MPD2    H713573   4.565   3.883   0.553 -0.3313  1.3095  0.2526
  928MPD2     C13574   3.430   1.633   1.023 -0.0817  0.5612  0.1468
  928MPD2    C113575   3.540   1.716   1.019  0.5782  0.6136  0.2915
  928MPD2    C213576   3.550   1.805   0.912  0.6241  0.3651  0.2057
  928MPD2    C313577   3.451   1.822   0.816 -0.8006  0.2028 -0.7973
  928MPD2    C413578   3.340   1.748   0.837  0.5331 -0.6507 -0.8797
  928MPD2    C513579   3.327   1.653   0.929 -0.0545  0.7885 -0.1134
  928MPD2     H13580   3.644   1.854   0.891  3.2924 -4.8521 -0.0333
  928MPD2    H113581   3.263   1.752   0.761  1.0708  0.3620 -1.3801
  928MPD2    H213582   3.416   1.560   1.102  0.7376  1.2529  0.9313
  928MPD2    H313583   3.239   1.589   0.929 -0.6365  1.5977  0.6339
  928MPD2     N13584   3.446   1.909   0.707  0.0009  0.5728 -1.4398
  928MPD2    H513585   3.362   1.907   0.650 -0.1239  2.6637 -1.3177
  928MPD2    N113586   3.638   1.693   1.124 -0.0478 -0.2383 -0.2557
  928MPD2    H713587   3.605   1.645   1.207 -0.4645 -1.1975 -0.9672
  929MPD2     C13588   3.353   2.023  10.387 -0.2737 -0.9392 -0.4407
  929MPD2    C113589   3.324   1.892  10.389  0.4766  0.1239  0.1940
  929MPD2    C213590   3.267   1.837  10.276  0.2933 -0.5410 -0.2056
  929MPD2    C313591   3.250   1.913  10.155  0.3078  0.8064 -0.4114
  929MPD2    C413592   3.283   2.042  10.161 -0.4397  0.2252 -0.5936
  929MPD2    C513593   3.338   2.103  10.274 -0.4715 -0.3740  0.3071
  929MPD2     H13594   3.240   1.732  10.277  1.3521 -0.8637 -3.8474
  929MPD2    H113595   3.284   2.107  10.073 -0.2505  0.7666 -0.1937
  929MPD2    H213596   3.378   2.075  10.479  0.3166 -1.5717 -0.2485
  929MPD2    H313597   3.364   2.208  10.277 -0.6353 -0.2518 -2.2362
  929MPD2     N13598   3.180   1.861  10.044 -0.1027 -0.0350 -0.2715
  929MPD2    H513599   3.153   1.929   9.974 -0.5237  2.4370  2.2913
  929MPD2    N113600   3.362   1.806  10.498 -0.6921 -0.1427 -0.4227
  929MPD2    H713601   3.421   1.848  10.568  0.8745 -0.7768 -1.3537
  930MPD2     C13602   4.564   4.231  14.352 -0.3418 -0.4954 -0.0549
  930MPD2    C113603   4.531   4.346  14.273 -0.0347  0.3032 -0.0727
  930MPD2    C213604   4.471   4.327  14.151 -0.2593 -0.2958  0.3936
  930MPD2    C313605   4.447   4.200  14.097 -0.1645  0.7315 -0.5193
  930MPD2    C413606   4.490   4.092  14.167 -0.5377  0.1255  0.0232
  930MPD2    C513607   4.544   4.105  14.299  0.1580 -0.1365  0.0101
  930MPD2     H13608   4.452   4.415  14.091 -1.4067 -1.6708 -1.2858
  930MPD2    H113609   4.470   3.992  14.130 -0.2953  0.6351 -1.4998
  930MPD2    H213610   4.599   4.240  14.454  1.3024  0.0224 -0.6586
  930MPD2    H313611   4.568   4.022  14.364  2.2588 -0.0370 -0.6445
  930MPD2     N13612   4.372   4.187  13.976  0.6575  0.5453  0.0400
  930MPD2    H513613   4.380   4.100  13.925 -1.2830 -0.2339  1.0899
  930MPD2    N113614   4.580   4.478  14.296  0.1528  0.2483 -0.2289
  930MPD2    H713615   4.557   4.548  14.226 -1.9828 -0.0340  0.1920
  931MPD2     C13616   0.510   4.083   0.998 -0.6965  0.4766 -0.0288
  931MPD2    C113617   0.386   4.036   1.035  0.7708  0.2455  0.1094
  931MPD2    C213618   0.364   3.953   1.140 -0.2743  0.3077  0.4436
  931MPD2    C313619   0.482   3.919   1.213  0.2064 -0.1863  0.6700
  931MPD2    C413620   0.600   3.986   1.193 -0.2413  0.0286  0.3594
  931MPD2    C513621   0.614   4.057   1.078 -0.4526 -0.1931  0.0789
  931MPD2     H13622   0.276   3.890   1.143  0.3084 -0.5220  0.0654
  931MPD2    H113623   0.683   3.961   1.259 -0.7951 -0.8128  0.7347
  931MPD2    H213624   0.520   4.145   0.910 -2.1880  0.2871 -0.3344
  931MPD2    H313625   0.708   4.098   1.045  0.3750 -2.2200 -0.0942
  931MPD2     N13626   0.481   3.830   1.323 -1.0867  0.2608  0.0156
  931MPD2    H513627   0.566   3.797   1.368 -2.4481 -0.2002  2.2059
  931MPD2    N113628   0.283   4.054   0.946 -0.1280  0.2361  0.1513
  931MPD2    H713629   0.304   4.092   0.854 -0.1882 -0.2493 -0.0615
  932MPD2     C13630   1.598   2.273  10.979  0.7122 -0.0400 -0.3580
  932MPD2    C113631   1.693   2.344  10.906  0.2049 -0.2260  0.4071
  932MPD2    C213632   1.823   2.295  10.897 -0.2978  0.5271  1.0519
  932MPD2    C313633   1.847   2.177  10.974  0.5544  0.4115  0.6815
  932MPD2    C413634   1.744   2.108  11.034 -0.4963  0.0884 -0.1648
  932MPD2    C513635   1.618   2.154  11.036 -0.1668  0.0450 -0.9774
  932MPD2     H13636   1.904   2.350  10.851 -0.9850  1.1932  0.6491
  932MPD2    H113637   1.760   2.012  11.080  0.9820 -0.5426 -1.9717
  932MPD2    H213638   1.506   2.327  11.001 -1.5304 -4.1552  0.4127
  932MPD2    H313639   1.541   2.106  11.095  0.9930 -0.5190  0.0715
  932MPD2     N13640   1.977   2.127  10.998  0.2057  0.3077 -0.1803
  932MPD2    H513641   1.993   2.075  11.083 -1.8423 -0.2889 -0.1482
  932MPD2    N113642   1.678   2.479  10.872  0.3977  0.3362 -0.6313
  932MPD2    H713643   1.756   2.521  10.824  1.0669 -0.9020 -0.6148
  933MPD2     C13644   3.768   1.348   1.865 -0.4356  0.7103 -0.2107
  933MPD2    C113645   3.722   1.357   1.732  0.6219 -0.5450 -0.1226
  933MPD2    C213646   3.601   1.289   1.706  0.1191  0.3536 -0.1798
  933MPD2    C313647   3.548   1.197   1.800  0.5495 -0.4133  0.2637
  933MPD2    C413648   3.598   1.189   1.927 -0.3049  1.4413 -0.4294
  933MPD2    C513649   3.703   1.272   1.959 -0.0644 -0.1802 -0.6254
  933MPD2     H13650   3.547   1.297   1.613 -1.3819 -0.2362  0.6421
  933MPD2    H113651   3.551   1.122   1.999  1.4588 -0.2222 -0.8283
  933MPD2    H213652   3.850   1.409   1.902  0.5958 -0.6826 -0.2069
  933MPD2    H313653   3.746   1.269   2.058 -1.3106  1.1924 -0.0465
  933MPD2     N13654   3.426   1.139   1.761  0.6663  0.5070 -0.1694
  933MPD2    H513655   3.404   1.161   1.664 -1.4441  2.8160  0.8352
  933MPD2    N113656   3.783   1.453   1.651 -0.4798  1.1227  0.0948
  933MPD2    H713657   3.863   1.495   1.698 -0.7241  1.4884  0.1762
  934MPD2     C13658   3.822   3.974   2.781  0.3086 -0.3517  0.6784
  934MPD2    C113659   3.897   3.953   2.671 -0.1714  0.2587  0.6618
  934MPD2    C213660   3.838   3.912   2.555  0.9684 -0.5479  1.1593
  934MPD2    C313661   3.699   3.899   2.550  0.2491 -0.6733 -0.3700
  934MPD2    C413662   3.622   3.913   2.662  0.7846 -0.0227  0.3762
  934MPD2    C513663   3.685   3.957   2.779 -0.1775  0.6942 -0.0092
  934MPD2     H13664   3.901   3.917   2.467 -3.3365  0.7151 -1.8853
  934MPD2    H113665   3.515   3.894   2.669  1.1395 -1.4076  1.9786
  934MPD2    H213666   3.865   4.000   2.877  1.2489  0.3331  0.0716
  934MPD2    H313667   3.615   3.968   2.861  0.6261 -2.1441  1.0719
  934MPD2     N13668   3.631   3.859   2.429 -0.2043  0.0474  0.7448
  934MPD2    H513669   3.530   3.859   2.433 -0.4368  0.3012 -4.1655
  934MPD2    N113670   4.035   3.964   2.665  0.0802  0.5449  0.0288
  934MPD2    H713671   4.078   3.924   2.581 -0.8903 -1.9962  0.7232
  935MPD2     C13672   3.989   3.217   1.781 -0.3531  0.0809 -0.0098
  935MPD2    C113673   3.895   3.280   1.705 -0.6786  0.3208  0.3561
  935MPD2    C213674   3.804   3.366   1.769 -0.3470 -0.4565  0.2508
  935MPD2    C313675   3.812   3.383   1.906 -0.4505 -0.0924 -0.2475
  935MPD2    C413676   3.911   3.321   1.976  1.4474 -0.6985  0.0238
  935MPD2    C513677   3.992   3.238   1.915  0.0325 -0.5212  0.4691
  935MPD2     H13678   3.741   3.429   1.707  1.5055 -0.0228 -1.2101
  935MPD2    H113679   3.920   3.337   2.083  1.6437 -1.8078  0.1732
  935MPD2    H213680   4.068   3.150   1.750 -0.4746  0.7205 -1.6877
  935MPD2    H313681   4.068   3.192   1.978  1.5616 -1.2650 -1.9381
  935MPD2     N13682   3.720   3.456   1.987  0.3995 -0.0156 -0.4080
  935MPD2    H513683   3.736   3.459   2.087  0.0181 -1.7111 -0.2987
  935MPD2    N113684   3.890   3.274   1.568  0.0987  0.3356 -0.0335
  935MPD2    H713685   3.814   3.322   1.521  0.9573 -0.2543 -2.0114
  936MPD2     C13686   1.953   2.027  12.980 -0.2429  0.1126  0.0381
  936MPD2    C113687   1.989   1.894  12.944 -0.2196 -0.2683  0.2487
  936MPD2    C213688   2.026   1.868  12.819 -0.2509  0.8910 -0.0670
  936MPD2    C313689   2.042   1.960  12.724 -0.4602 -0.0689 -0.1899
  936MPD2    C413690   2.005   2.086  12.756 -0.3680 -0.1368 -0.3589
  936MPD2    C513691   1.958   2.116  12.877  0.0354  1.2437  0.5327
  936MPD2     H13692   2.046   1.764  12.794 -5.3260 -0.0050 -0.3085
  936MPD2    H113693   2.010   2.169  12.686 -3.7650  2.3021  2.3137
  936MPD2    H213694   1.902   2.054  13.071  0.0162 -4.4727  1.5734
  936MPD2    H313695   1.928   2.215  12.908 -2.0275  0.8592 -0.2461
  936MPD2     N13696   2.091   1.918  12.598  0.9142 -0.2890  0.9202
  936MPD2    H513697   2.117   1.820  12.587  1.3282 -0.0379 -0.3345
  936MPD2    N113698   1.987   1.793  13.036 -0.0156 -0.1401  0.0415
  936MPD2    H713699   1.992   1.699  12.998  1.5646  1.1541 -2.9959
  937MPD2     C13700   0.343   2.532  11.741  0.4159  0.0249 -0.7276
  937MPD2    C113701   0.424   2.643  11.770  0.1924 -0.3332  0.0979
  937MPD2    C213702   0.535   2.674  11.695  0.7048  0.4939 -0.7125
  937MPD2    C313703   0.572   2.580  11.594 -0.3889 -0.0996  0.1094
  937MPD2    C413704   0.485   2.473  11.564 -0.0508 -0.2423 -0.1591
  937MPD2    C513705   0.373   2.447  11.638 -0.3624  0.1312  0.0755
  937MPD2     H13706   0.585   2.768  11.715 -0.5819  0.3310  3.2091
  937MPD2    H113707   0.504   2.413  11.476 -0.0238  0.0205 -0.3335
  937MPD2    H213708   0.260   2.497  11.802  1.9363  0.6819  1.7007
  937MPD2    H313709   0.295   2.373  11.627  1.1316 -1.7203  1.8409
  937MPD2     N13710   0.694   2.603  11.525 -0.7286  0.3131 -0.0489
  937MPD2    H513711   0.758   2.675  11.556  1.6874 -0.5256 -3.0942
  937MPD2    N113712   0.377   2.744  11.861 -0.4937  0.0460 -0.3633
  937MPD2    H713713   0.413   2.839  11.852 -0.5349 -0.1117 -2.0663
  938MPD2     C13714   3.197   3.578   1.320 -0.3346 -0.0328 -0.1875
  938MPD2    C113715   3.113   3.656   1.401  0.1555 -0.4445  0.0474
  938MPD2    C213716   3.041   3.595   1.499 -0.3549  0.1756 -0.3510
  938MPD2    C313717   3.049   3.454   1.515 -0.6052  0.4392 -0.1220
  938MPD2    C413718   3.129   3.377   1.433 -0.4853  0.5699  0.5487
  938MPD2    C513719   3.203   3.439   1.340 -0.2213 -0.2009  0.3914
  938MPD2     H13720   2.972   3.656   1.556  0.5526  0.3282  0.5762
  938MPD2    H113721   3.146   3.271   1.445 -2.1711  0.4909  2.2317
  938MPD2    H213722   3.266   3.628   1.252  0.0456 -1.2219 -0.6683
  938MPD2    H313723   3.271   3.379   1.281 -0.6048  0.0025 -0.2573
  938MPD2     N13724   2.978   3.380   1.612 -0.3393 -0.0342 -0.4872
  938MPD2    H513725   2.992   3.279   1.612 -2.1635 -0.2737 -0.2755
  938MPD2    N113726   3.102   3.794   1.374 -0.4400 -0.1578  0.1078
  938MPD2    H713727   3.159   3.832   1.299 -1.0423  0.7946  0.1376
  939MPD2     C13728   3.567   0.128   1.279 -0.0698  0.0320  0.3028
  939MPD2    C113729   3.525   0.215   1.181 -0.1186 -0.1770  0.0320
  939MPD2    C213730   3.594   0.220   1.056 -0.2522  0.3173 -0.2254
  939MPD2    C313731   3.689   0.126   1.023  0.3369  0.1209 -0.2131
  939MPD2    C413732   3.726   0.034   1.126 -0.2686  0.1819 -0.5097
  939MPD2    C513733   3.668   0.038   1.252 -0.0982  0.7090 -0.7942
  939MPD2     H13734   3.551   0.271   0.970  1.5695 -2.5498 -2.8700
  939MPD2    H113735   3.795   4.675   1.107  0.1598 -0.1707  2.6718
  939MPD2    H213736   3.519   0.128   1.376  0.8748 -3.0011  0.7734
  939MPD2    H313737   3.709   4.694   1.326 -2.9700  0.8115  0.8868
  939MPD2     N13738   3.738   0.117   0.888  0.0104 -0.9037 -0.5201
  939MPD2    H513739   3.707   0.189   0.824 -1.2774 -2.0786 -1.2192
  939MPD2    N113740   3.401   0.283   1.201 -0.1682  0.3768  0.0146
  939MPD2    H713741   3.352   0.270   1.289 -1.0269 -2.0592 -0.8344
  940MPD2     C13742   3.095   1.112  12.969 -0.5510  0.2338 -0.0839
  940MPD2    C113743   3.222   1.093  12.897 -0.4374  0.1646 -0.3930
  940MPD2    C213744   3.230   1.019  12.775 -0.0279 -0.6750 -0.0412
  940MPD2    C313745   3.115   0.966  12.732 -0.4400  0.2174 -0.1758
  940MPD2    C413746   2.992   0.979  12.798  0.6343 -0.3391 -0.0522
  940MPD2    C513747   2.987   1.049  12.917 -0.3450 -0.2763  0.3624
  940MPD2     H13748   3.326   1.009  12.725  0.1116 -2.0523  0.5161
  940MPD2    H113749   2.900   0.928  12.775 -0.0001  0.2280  1.2462
  940MPD2    H213750   3.090   1.167  13.063  0.9244 -0.8072  0.6158
  940MPD2    H313751   2.896   1.061  12.976 -0.8740 -0.3103 -0.4516
  940MPD2     N13752   3.107   0.899  12.608  0.2100 -0.2174  0.1656
  940MPD2    H513753   3.012   0.883  12.576 -0.7075  1.6242  1.9750
  940MPD2    N113754   3.344   1.145  12.948 -0.0738  0.4689  0.0773
  940MPD2    H713755   3.428   1.137  12.891 -0.5836 -1.9172 -0.3060
  941MPD2     C13756   2.475   0.621   9.822 -0.1287  0.1081 -0.2309
  941MPD2    C113757   2.561   0.523   9.769 -0.3297  0.2499  0.2900
  941MPD2    C213758   2.518   0.386   9.759 -0.1452 -0.3137 -0.0388
  941MPD2    C313759   2.387   0.361   9.789 -0.6616  0.1011  0.3831
  941MPD2    C413760   2.310   0.457   9.858 -0.1057 -0.0636 -0.2808
  941MPD2    C513761   2.354   0.585   9.867 -0.0334  0.0851  0.3765
  941MPD2     H13762   2.586   0.320   9.706  0.3990 -0.2282  0.5572
  941MPD2    H113763   2.206   0.437   9.881  0.1305 -1.6110 -0.5447
  941MPD2    H213764   2.500   0.726   9.818  1.0639 -0.2188 -1.2273
  941MPD2    H313765   2.288   0.661   9.907 -1.3625 -0.8532 -0.0389
  941MPD2     N13766   2.322   0.239   9.760 -0.0778  0.7250 -0.7441
  941MPD2    H513767   2.229   0.226   9.799 -1.0526 -0.1512 -3.3791
  941MPD2    N113768   2.690   0.551   9.716  0.4447  0.5251 -0.8826
  941MPD2    H713769   2.738   0.474   9.671  0.3757 -0.1743  0.2492
  942MPD2     C13770   2.165   1.084   8.604 -0.2894 -0.5159 -0.6369
  942MPD2    C113771   2.266   0.994   8.628 -0.1143  0.4150  0.8279
  942MPD2    C213772   2.393   1.047   8.641 -0.1642 -0.6595 -0.2472
  942MPD2    C313773   2.420   1.186   8.658  0.0972 -0.3783  0.2956
  942MPD2    C413774   2.312   1.272   8.640  0.7638  0.5091 -0.0605
  942MPD2    C513775   2.182   1.221   8.597 -0.2097  1.0373  0.4865
  942MPD2     H13776   2.478   0.981   8.658 -2.4751 -2.4793  3.9880
  942MPD2    H113777   2.313   1.380   8.635  1.7879  0.5055  0.0272
  942MPD2    H213778   2.068   1.041   8.579  0.8178 -1.0028 -4.0675
  942MPD2    H313779   2.104   1.291   8.572 -0.9565 -0.3956 -1.2154
  942MPD2     N13780   2.544   1.247   8.680 -0.3067  0.1608  0.2649
  942MPD2    H513781   2.536   1.348   8.682  0.4017  0.2029  1.2377
  942MPD2    N113782   2.255   0.853   8.627  0.6210  0.1448 -0.1779
  942MPD2    H713783   2.340   0.801   8.641  0.3140  0.2106  1.8168
  943MPD2     C13784   4.705   4.361   9.441 -0.3693 -0.0951 -0.1344
  943MPD2    C113785   4.650   4.291   9.546  0.4072 -0.9278  0.8874
  943MPD2    C213786   0.010   4.258   9.652 -0.8932  0.0119  0.0723
  943MPD2    C313787   0.147   4.287   9.651  0.4862 -0.3544  0.1804
  943MPD2    C413788   0.195   4.359   9.547  0.1190  0.0923 -0.5446
  943MPD2    C513789   0.109   4.402   9.447 -0.4489  0.5119  0.2871
  943MPD2     H13790   4.691   4.215   9.742 -1.2207  1.3493  0.5666
  943MPD2    H113791   0.294   4.404   9.542  0.1268  0.1298 -0.0276
  943MPD2    H213792   4.646   4.395   9.356  0.7965  2.4134  0.0336
  943MPD2    H313793   0.149   4.459   9.363 -1.9463 -0.4191 -1.0694
  943MPD2     N13794   0.233   4.243   9.759  0.2707  0.3163  0.4061
  943MPD2    H513795   0.334   4.254   9.761  0.4693 -1.2548 -1.2886
  943MPD2    N113796   4.516   4.257   9.562  0.5789 -1.1401 -0.9213
  943MPD2    H713797   4.491   4.197   9.640  0.9782 -0.3541 -0.1773
  944MPD2     C13798   0.646   3.339  10.851 -0.4615 -0.7981  0.1465
  944MPD2    C113799   0.742   3.275  10.933  0.6649 -0.3996 -0.0442
  944MPD2    C213800   0.717   3.268  11.070  0.5730 -0.1188  0.0304
  944MPD2    C313801   0.609   3.337  11.120 -0.1796 -0.4404 -0.0140
  944MPD2    C413802   0.520   3.388  11.040 -0.6779 -0.4882  0.3454
  944MPD2    C513803   0.534   3.381  10.907 -0.4385 -0.4166  0.3720
  944MPD2     H13804   0.789   3.215  11.131  1.2522 -0.6397 -1.2266
  944MPD2    H113805   0.432   3.439  11.079 -0.5100 -0.2308  0.3904
  944MPD2    H213806   0.646   3.348  10.743 -0.8523  2.0229  0.3909
  944MPD2    H313807   0.453   3.413  10.843 -0.5063 -0.6037  0.3648
  944MPD2     N13808   0.590   3.333  11.260  0.6998 -0.2547 -0.4295
  944MPD2    H513809   0.658   3.297  11.326  0.5213 -0.2807 -0.2589
  944MPD2    N113810   0.858   3.213  10.877 -0.2895  0.5307  0.0541
  944MPD2    H713811   0.919   3.168  10.944 -0.7520 -0.7773 -0.3955
    1TCq1    O113812   3.933   4.596  14.239  0.4219  0.2086  0.2669
    1TCq1    C113813   3.843   4.603  14.333 -0.0568 -0.0172 -0.0368
    1TCq1    O213814   3.740   4.663  14.313 -0.0884 -0.9180 -0.0728
    1TCq1    C213815   3.919   4.598  14.451 -0.1582  0.1347  0.5398
    1TCq1    C313816   4.018   4.505  14.463 -0.0432  0.1071 -0.0594
    1TCq1    C413817   4.108   4.517  14.564 -0.2098 -0.1975  0.0754
    1TCq1    C513818   4.092   4.623  14.660 -0.1336  0.4393 -0.4350
    1TCq1    C613819   3.983   4.705  14.656  0.5965  0.0626 -0.2162
    1TCq1    C713820   3.897   4.696  14.543 -0.0859 -0.0184  0.2245
    1TCq1    C813821   3.951   0.067  14.768  0.7338  0.6899  0.1377
    1TCq1    O413822   4.035   0.078  14.858  0.1242 -0.2367 -0.3768
    1TCq1    C913823   4.221   4.432  14.574 -0.3977 -0.4728  0.0768
    1TCq1    O513824   4.201   4.311  14.547 -0.1361  0.1356 -0.5025
    1TCq1    O613825   4.322   4.480  14.632 -0.2360  0.6099 -0.5525
    1TCq1    H113826   4.022   4.567  14.268 -0.1127 -0.7477  0.9340
    1TCq1    H213827   4.022   4.423  14.392  0.2236 -0.8601  1.0551
    1TCq1    H313828   4.165   4.635  14.739  1.5623 -1.2192 -1.7390
    1TCq1    H413829   3.810   0.037  14.531  0.0108  0.2850  1.1122
    2MPD2     C13830   3.656   0.443  14.992  0.5099  0.0721 -0.2913
    2MPD2    C113831   3.623   0.432  14.858  0.1697  0.5056 -0.3121
    2MPD2    C213832   3.683   0.337  14.769 -0.3351  0.0353 -0.3606
    2MPD2    C313833   3.777   0.241  14.820 -0.2507 -0.1317  0.5949
    2MPD2    C413834   3.824   0.270  14.947  0.2151  0.8123  0.2753
    2MPD2    C513835   3.759   0.359  15.032  0.0004  0.1113  0.1893
    2MPD2     H13836   3.666   0.331  14.663  0.5621 -3.6241 -0.3140
    2MPD2    H113837   3.906   0.221  14.998  0.9045  0.9000 -0.7501
    2MPD2    H213838   3.617   0.504  15.073 -1.2821  0.1826 -1.2497
    2MPD2    H313839   3.791   0.366  15.135 -0.8216 -0.0269  0.4529
    2MPD2     N13840   3.847   0.153  14.733  0.3167  0.0888 -0.0461
    2MPD2    H513841   3.814   0.152  14.637  0.4932 -0.0505 -0.1057
    2MPD2    N113842   3.531   0.522  14.810  0.2922  0.0104  0.6209
    2MPD2    H713843   3.486   0.587  14.873 -1.6444 -2.0322  1.3365
    3TMC2    C113844   3.388   0.641  14.671  0.1349 -0.4910  0.5163
    3TMC2    C213845   3.272   0.612  14.608  0.1131 -0.0044 -0.7005
    3TMC2    C313846   3.220   0.721  14.556 -0.5173  0.1837 -0.4371
    3TMC2    C413847   3.442   0.770  14.696  0.0911 -0.0119 -0.1167
    3TMC2    C513848   3.372   0.872  14.642 -0.5169  0.5443 -1.1919
    3TMC2    C613849   3.262   0.848  14.571  0.8349  0.1256 -0.0575
    3TMC2     C13850   3.469   0.523  14.689  0.3160 -0.7657  0.1011
    3TMC2     O13851   3.469   0.440  14.602  0.2805 -0.0238  0.6583
    3TMC2     H13852   3.225   0.515  14.595 -0.1564  0.2580 -1.6938
    3TMC2    H113853   3.529   0.778  14.760  1.4945 -0.0840 -2.0025
    3TMC2    H213854   3.194   0.924  14.533 -0.5392 -1.6069 -1.0316
    3TMC2    C713855   3.449   0.991  14.642  0.0447 -0.7675  0.1556
    3TMC2    C813856   3.085   0.701  14.501  0.5261 -0.5165 -0.5388
    3TMC2    O113857   3.535   1.003  14.725  1.0831 -0.1479  0.2604
    3TMC2    O213858   3.007   0.611  14.524 -0.3913 -0.2686  0.1374
    3TMC2    O513859   3.068   0.781  14.393 -0.1990  0.1001  0.0962
    3TMC2    H513860   3.148   0.834  14.370 -0.0155 -0.2333 -0.0357
    4MPD2     C13861   2.696   1.603  13.592  0.1260  0.7896 -0.0276
    4MPD2    C113862   2.826   1.569  13.564 -0.0274 -0.1860 -0.5135
    4MPD2    C213863   2.918   1.589  13.665  0.0049 -0.0864  0.4872
    4MPD2    C313864   2.882   1.648  13.783  0.5423 -1.1121 -0.5733
    4MPD2    C413865   2.750   1.685  13.811 -0.7485 -0.1295  0.1871
    4MPD2    C513866   2.656   1.668  13.706  0.8166  0.1269 -0.4873
    4MPD2     H13867   3.019   1.550  13.657 -0.6078 -1.8084  1.2790
    4MPD2    H113868   2.715   1.729  13.903 -2.4017 -1.5432  0.2337
    4MPD2    H213869   2.616   1.576  13.525 -0.1384  1.7455 -0.0945
    4MPD2    H313870   2.551   1.675  13.733  0.1627 -0.4442 -2.8314
    4MPD2     N13871   2.975   1.655  13.887  0.2323  0.2452 -0.1026
    4MPD2    H513872   3.060   1.602  13.871  0.3893  0.0600  1.3447
    4MPD2    N113873   2.866   1.513  13.436 -0.4677  0.1337  0.3672
    4MPD2    H713874   2.789   1.483  13.376 -0.7345  1.3221  0.1218
    5TCq2    C113875   2.968   1.759  13.973  0.6153 -0.4591 -0.2488
    5TCq2    O213876   2.902   1.862  13.974  0.1923  0.7358 -0.4257
    5TCq2    C213877   3.073   1.747  14.068  0.8656  0.1218  0.0618
    5TCq2    C313878   3.131   1.863  14.114 -0.0975 -0.1147  0.3816
    5TCq2    C413879   3.249   1.852  14.181 -0.8598  0.9924 -0.0745
    5TCq2    C513880   3.295   1.727  14.220  0.0685 -0.9389 -0.1989
    5TCq2    C613881   3.229   1.616  14.183  0.2281  0.1900  0.2680
    5TCq2    C713882   3.123   1.617  14.097  0.1049 -0.8391 -0.2424
    5TCq2    C813883   3.265   1.487  14.246 -0.6782  0.1055  0.6099
    5TCq2    O413884   3.175   1.413  14.286 -0.1146  0.7271 -0.2620
    5TCq2    C913885   3.317   1.976  14.222  0.3875  0.8456 -0.4999
    5TCq2    O513886   3.434   1.962  14.272 -0.3428  0.1279  0.4694
    5TCq2    O613887   3.255   2.080  14.199  0.0433 -0.5953  0.0204
    5TCq2    H213888   3.101   1.964  14.087 -1.4494 -1.3406 -2.6700
    5TCq2    H313889   3.373   1.727  14.296 -0.6379  0.5654  0.5210
    5TCq2    H413890   3.066   1.526  14.082  1.6759 -1.4785 -2.1815
    6MPD1     C13891   2.552   2.860  12.381  0.4433 -0.0139 -0.4121
    6MPD1    C113892   2.447   2.769  12.390 -0.0678 -0.0775 -0.3959
    6MPD1    C213893   2.485   2.641  12.412  0.0949  0.2462 -0.2813
    6MPD1    C313894   2.616   2.589  12.396  0.1397  0.6481  0.4606
    6MPD1    C413895   2.711   2.682  12.367 -0.2523 -0.4748 -0.5943
    6MPD1    C513896   2.674   2.814  12.362  0.5262  0.2912 -0.0057
    6MPD1     H13897   2.404   2.575  12.441  1.0167 -0.9487 -0.4420
    6MPD1    H113898   2.814   2.650  12.357 -0.5868 -0.6667 -3.4000
    6MPD1    H213899   2.539   2.967  12.366 -0.1918  0.0949  0.9974
    6MPD1    H313900   2.748   2.892  12.347  0.3435  0.2878 -0.9075
    6MPD1     N13901   2.652   2.449  12.404 -0.2960  0.6514  0.0352
    6MPD1    H513902   2.752   2.435  12.412 -0.4012  0.2022  0.5670
    6MPD1    N113903   2.319   2.817  12.408  0.1318 -0.2137  0.4134
    6MPD1    H613904   2.247   2.755  12.371 -1.0282  0.2977  1.7881
    6MPD1    H713905   2.321   2.899  12.347 -3.3507 -0.6505 -0.2969
    7MPD2     C13906   2.412   1.821  12.944  0.4462  0.2078 -0.3043
    7MPD2    C113907   2.510   1.785  12.851 -0.1293 -0.1296  0.1890
    7MPD2    C213908   2.598   1.685  12.875 -0.3005  0.1329 -0.0873
    7MPD2    C313909   2.593   1.614  12.994  0.2043  0.8529 -0.0746
    7MPD2    C413910   2.499   1.649  13.088 -0.1126 -0.4029 -0.2267
    7MPD2    C513911   2.416   1.751  13.061  0.3126 -0.3671  0.4534
    7MPD2     H13912   2.677   1.668  12.802  1.6332  2.2361  1.5254
    7MPD2    H113913   2.504   1.602  13.186  1.0792 -2.6851 -1.4089
    7MPD2    H213914   2.340   1.900  12.927  1.3747  1.4038  1.3416
    7MPD2    H313915   2.363   1.789  13.148  2.5143  1.5937  0.9473
    7MPD2     N13916   2.689   1.510  13.029  0.3394  0.4051  0.3437
    7MPD2    H513917   2.671   1.461  13.116  1.6707 -0.6703  0.0116
    7MPD2    N113918   2.538   1.862  12.735 -0.6116 -0.3330  0.0828
    7MPD2    H713919   2.630   1.844  12.696 -1.1550 -1.7522 -0.5360
    8TMC3    C113920   2.896   1.402  13.047 -0.3384 -0.0873 -0.6046
    8TMC3    C213921   2.893   1.427  13.180  0.1712 -0.5537  0.6354
    8TMC3    C313922   3.005   1.483  13.246 -0.1639 -0.8840  0.4302
    8TMC3    C413923   3.019   1.411  12.983  1.1049 -0.2675 -1.4207
    8TMC3    C513924   3.121   1.463  13.051 -0.3398  0.0638  0.0105
    8TMC3    C613925   3.127   1.495  13.182 -0.0543 -0.0067  0.1053
    8TMC3     C13926   2.807   1.476  12.964 -0.5790 -0.5630 -0.5434
    8TMC3     O13927   2.848   1.508  12.850  0.0408 -0.2347 -0.3527
    8TMC3     H13928   2.797   1.414  13.227  0.6944  1.1710  2.1614
    8TMC3    H113929   3.031   1.382  12.880  0.4117 -1.2117 -1.2377
    8TMC3    H213930   3.215   1.546  13.220  0.5580 -2.0521  1.3994
    8TMC3    C713931   3.201   1.546  12.958  1.0128  0.1006 -0.5467
    8TMC3    C813932   2.994   1.515  13.386  0.9987  0.6262  0.0015
    8TMC3    O113933   3.310   1.583  13.004 -0.2379  0.0142 -0.6028
    8TMC3    O213934   3.096   1.554  13.441  0.2663 -0.7385  0.1852
    9TMC3    C113935   2.606   2.219  12.450  0.4323  0.5335  0.2142
    9TMC3    C213936   2.740   2.190  12.441 -0.6102 -0.4188  0.2519
    9TMC3    C313937   2.785   2.098  12.532  0.3715  0.0927  0.0020
    9TMC3    C413938   2.521   2.145  12.526  0.8486 -0.4281  0.3215
    9TMC3    C513939   2.570   2.058  12.617 -0.7440 -0.0027  0.1238
    9TMC3    C613940   2.702   2.029  12.619  1.1312  0.8616 -0.9383
    9TMC3     C13941   2.555   2.347  12.403 -0.0471  0.4799 -0.3468
    9TMC3     O13942   2.437   2.349  12.374  0.1908  0.0742  0.1280
    9TMC3     H13943   2.808   2.247  12.379 -0.6075 -0.9003 -0.1896
    9TMC3    H113944   2.419   2.180  12.539  0.8508 -0.4189  0.3144
    9TMC3    H213945   2.744   1.987  12.710  0.0877  0.4090 -0.6644
    9TMC3    C713946   2.475   1.985  12.701  0.6043  0.5581 -0.8863
    9TMC3    C813947   2.921   2.051  12.524 -0.5672  0.1229  0.4774
    9TMC3    O113948   2.388   2.054  12.757  0.5453  0.4770 -0.2406
    9TMC3    O213949   3.006   2.136  12.497 -0.5755 -0.0437 -0.2026
   10MPD2     C13950   3.273   1.756  12.754 -0.2989  0.1999 -0.3490
   10MPD2    C113951   3.148   1.701  12.773 -0.4437 -0.1640  0.0650
   10MPD2    C213952   3.041   1.754  12.703 -1.1252  0.9811  0.0764
   10MPD2    C313953   3.053   1.865  12.629 -0.3852 -0.1059  0.5513
   10MPD2    C413954   3.175   1.919  12.614  0.2680 -0.4813 -0.9169
   10MPD2    C513955   3.288   1.868  12.678  0.3738  0.1820 -0.6518
   10MPD2     H13956   2.942   1.712  12.721 -0.5695 -0.7024 -0.8868
   10MPD2    H113957   3.188   2.008  12.554 -0.7435 -0.9546 -1.8420
   10MPD2    H213958   3.362   1.721  12.805 -0.8949 -2.4712 -1.1905
   10MPD2    H313959   3.384   1.912  12.653 -0.3647  3.0220  1.5117
   10MPD2     N13960   2.937   1.927  12.580 -0.3541 -0.8478  0.0322
   10MPD2    H513961   2.850   1.875  12.589  0.3062 -1.7711  1.1154
   10MPD2    N113962   3.125   1.588  12.852 -0.5713 -0.7945 -0.5468
   10MPD2    H713963   3.033   1.545  12.848 -0.3805 -1.0634 -2.0273
   11MPD2     C13964   3.611   1.224  14.545  0.6694  0.3015 -0.2706
   11MPD2    C113965   3.486   1.192  14.500 -0.0523 -0.2578  0.1614
   11MPD2    C213966   3.413   1.273  14.415 -0.6444 -0.0259  0.5358
   11MPD2    C313967   3.462   1.391  14.365  0.0906 -0.4720 -0.2330
   11MPD2    C413968   3.595   1.415  14.398 -0.4164  0.3950  0.4693
   11MPD2    C513969   3.669   1.336  14.488 -0.5414 -0.3104  0.1625
   11MPD2     H13970   3.316   1.239  14.380  0.2537 -0.0942 -1.8468
   11MPD2    H113971   3.638   1.512  14.375 -0.1580  0.1846  0.0810
   11MPD2    H213972   3.667   1.163  14.614  0.4349  0.5532  0.1414
   11MPD2    H313973   3.770   1.359  14.521 -1.3016  2.1863  0.7519
   11MPD2     N13974   3.400   1.482  14.277  0.1349 -0.6073  0.3443
   11MPD2    H513975   3.459   1.553  14.235 -1.5094  0.9639  0.6970
   11MPD2    N113976   3.408   1.080  14.547 -0.1895  0.4693  0.0358
   11MPD2    H713977   3.324   1.056  14.495  0.3878  0.3043 -0.8117
    1MPD1     C13978   1.106   2.693  17.579 -0.6154  0.4405  0.3735
    1MPD1    C113979   1.234   2.740  17.590 -0.3427 -0.2741 -0.4845
    1MPD1    C213980   1.286   2.797  17.474 -0.5147 -0.1128  0.9057
    1MPD1    C313981   1.215   2.822  17.357  0.4991  0.0409 -0.2561
    1MPD1    C413982   1.095   2.760  17.350  0.2415 -0.1900  0.6656
    1MPD1    C513983   1.029   2.710  17.464  0.4268 -0.3201  0.2934
    1MPD1     H13984   1.392   2.823  17.470 -0.0657 -1.8996  1.3462
    1MPD1    H113985   1.030   2.776  17.265 -0.2285 -1.4457  0.7911
    1MPD1    H213986   1.049   2.644  17.658 -2.0792 -2.7913 -2.6509
    1MPD1    H313987   0.925   2.682  17.458  0.2995  0.1510  0.2909
    1MPD1     N13988   1.267   2.903  17.256  0.6225  0.1300 -0.4048
    1MPD1    H513989   1.219   2.890  17.167  0.4723 -1.7332 -0.0446
    1MPD1    N113990   1.319   2.708   0.008 -0.0302 -0.6103 -0.4638
    1MPD1    H613991   1.391   2.780   0.007 -0.6433 -0.0138 -3.0335
    1MPD1    H713992   1.260   2.712   0.091 -1.6724 -0.8519 -1.6254
    2MPD1     C13993   1.690   3.838  17.150 -0.1723  0.3663 -0.3954
    2MPD1    C113994   1.761   3.733  17.196 -0.4610 -0.3038 -0.1502
    2MPD1    C213995   1.719   3.604  17.165 -0.1618  0.3472  0.0036
    2MPD1    C313996   1.609   3.572  17.083  0.2299 -0.4178  0.3853
    2MPD1    C413997   1.539   3.680  17.035  0.1846 -0.1999  0.6973
    2MPD1    C513998   1.577   3.805  17.074 -0.1931  0.2341  0.7396
    2MPD1     H13999   1.771   3.523  17.214 -0.2682  1.1841  1.4924
    2MPD1    H114000   1.453   3.663  16.971  0.0566  2.0882  0.2836
    2MPD1    H214001   1.694   3.939  17.190 -0.3160 -0.2634  1.2214
    2MPD1    H314002   1.516   3.885  17.034  0.4818  1.0953  1.4429
    2MPD1     N14003   1.579   3.439  17.070 -0.6791 -0.3191 -0.3852
    2MPD1    H514004   1.641   3.374  17.117  0.6355  1.9089  0.9852
    2MPD1    N114005   1.853   3.763  17.300  0.1371 -0.0966  0.3790
    2MPD1    H614006   1.929   3.695  17.306  0.1004 -0.1851 -0.1586
    2MPD1    H714007   1.901   3.850  17.281 -1.4258  0.4972 -0.8384
    3TMC3    C114008   1.442   3.243  17.015 -0.2707 -0.9848 -0.0116
    3TMC3    C214009   1.410   3.195  16.891 -1.1307 -0.1666  0.0197
    3TMC3    C314010   1.369   3.067  16.888 -0.4565 -0.6362  0.4218
    3TMC3    C414011   1.438   3.181  17.132  0.3696  0.2888 -0.5154
    3TMC3    C514012   1.396   3.053  17.128 -0.5688 -0.2796  0.5555
    3TMC3    C614013   1.356   2.992  17.011 -0.2932 -0.2840 -0.7198
    3TMC3     C14014   1.472   3.389  16.997  0.8390 -0.5387 -0.4572
    3TMC3     O14015   1.390   3.461  16.935  0.3059 -0.2565 -0.4990
    3TMC3     H14016   1.415   3.242  16.793  2.3131 -1.1287 -0.2421
    3TMC3    H114017   1.456   3.238  17.222  2.2366 -1.7369  0.3773
    3TMC3    H214018   1.313   2.893  17.009 -1.9157  0.4296 -1.1004
    3TMC3    C714019   1.375   2.985  17.256  0.4800  0.1017 -0.2278
    3TMC3    C814020   1.330   2.999  16.767 -0.0145 -0.3435 -0.5422
    3TMC3    O114021   1.420   3.043  17.355 -0.1717 -0.3527  0.2309
    3TMC3    O214022   1.300   3.075  16.676  0.2855  0.1148  0.3975
    4MPD1     C14023   1.320   2.602  16.455 -0.0895 -0.2623  0.5636
    4MPD1    C114024   1.416   2.573  16.555 -0.1496 -0.2180 -0.3074
    4MPD1    C214025   1.427   2.667  16.656  0.5080  0.0791 -0.3260
    4MPD1    C314026   1.353   2.784  16.657  0.8912 -0.1235  0.0358
    4MPD1    C414027   1.271   2.813  16.555 -0.0914  0.2460  0.4898
    4MPD1    C514028   1.250   2.723  16.461  0.4959  0.4250 -0.8802
    4MPD1     H14029   1.490   2.629  16.736  3.0370  0.2688 -2.2315
    4MPD1    H114030   1.202   2.896  16.550 -0.7471 -0.4967 -2.5870
    4MPD1    H214031   1.314   2.537  16.368  2.9956  1.5706 -1.0396
    4MPD1    H314032   1.188   2.741  16.374  0.4806  0.9123 -0.7671
    4MPD1     N14033   1.362   2.866  16.774 -0.7747 -0.4115 -0.1354
    4MPD1    H514034   1.411   2.843  16.860 -1.9999 -0.4336  0.5542
    4MPD1    N114035   1.479   2.445  16.551 -0.2483 -0.0885 -0.1349
    4MPD1    H614036   1.518   2.440  16.457 -0.1992  0.1124 -0.1259
    4MPD1    H714037   1.551   2.436  16.623 -0.1603  0.1671 -0.1920
    1TCq1    O114038   2.845   2.403  11.096  0.2033  0.4655  0.3758
    1TCq1    C114039   2.850   2.457  11.221 -0.0786 -0.3907 -0.2204
    1TCq1    O214040   2.936   2.531  11.263 -0.1835  0.1240 -0.2508
    1TCq1    C214041   2.727   2.413  11.292  0.3367  0.4628 -0.4983
    1TCq1    C314042   2.605   2.425  11.223 -0.2131  0.7831 -0.1409
    1TCq1    C414043   2.493   2.470  11.287 -0.5367  0.1410  0.1959
    1TCq1    C514044   2.492   2.444  11.417 -0.0688  0.3399 -0.6020
    1TCq1    C614045   2.605   2.426  11.486 -0.6346  0.0631  0.4297
    1TCq1    C714046   2.724   2.432  11.427 -0.6124  0.1423 -0.0143
    1TCq1    C814047   2.606   2.403  11.631  0.2855 -0.1242 -0.2344
    1TCq1    O414048   2.713   2.389  11.685  0.0185  0.9813  0.2273
    1TCq1    C914049   2.370   2.465  11.216  1.1809 -0.9936  0.7090
    1TCq1    O514050   2.371   2.484  11.091  0.2225  0.3894  0.3869
    1TCq1    O614051   2.265   2.482  11.287 -0.4971 -0.1816  0.4846
    1TCq1    H114052   2.781   2.330  11.086 -0.9201  1.7495 -1.8465
    1TCq1    H214053   2.604   2.434  11.115  2.9733  0.8486 -0.1590
    1TCq1    H314054   2.397   2.427  11.466 -1.9960  0.8665 -4.1782
    1TCq1    H414055   2.817   2.415  11.480 -1.2124  0.1497  1.0503
    2MPD1     C14056   2.385   2.530  12.074  0.2405  0.1726  0.6653
    2MPD1    C114057   2.283   2.530  11.975 -0.3352 -0.9871  0.6991
    2MPD1    C214058   2.317   2.493  11.845  0.0965 -0.1362 -0.1697
    2MPD1    C314059   2.445   2.447  11.815  0.0427 -0.4336  0.0355
    2MPD1    C414060   2.539   2.442  11.921 -0.6873 -0.0322 -0.2069
    2MPD1    C514061   2.505   2.481  12.044  0.1522  0.2344 -0.0375
    2MPD1     H14062   2.241   2.496  11.767 -1.5723 -3.2528  1.3147
    2MPD1    H114063   2.641   2.410  11.905 -0.1637  0.8669  1.3202
    2MPD1    H214064   2.368   2.569  12.174 -1.5077  1.7443 -0.2346
    2MPD1    H314065   2.584   2.474  12.118  1.5625 -0.0290 -1.5593
    2MPD1     N14066   2.480   2.422  11.682 -0.2597 -0.2933 -0.0670
    2MPD1    H514067   2.410   2.423  11.608 -1.1302  3.7698  0.8279
    2MPD1    N114068   2.165   2.596  12.008 -0.2261 -0.0385  0.2821
    2MPD1    H614069   2.157   2.613  12.108  0.5865 -1.4811  0.5809
    2MPD1    H714070   2.077   2.570  11.966 -0.6741 -0.0260  1.2188
    1TCq1    O114071   0.476   2.396   1.849 -0.2332 -0.1234  0.0702
    1TCq1    C114072   0.504   2.509   1.929 -0.2657  0.1304 -0.2881
    1TCq1    O214073   0.455   2.542   2.038  0.5138 -0.9123 -0.6279
    1TCq1    C214074   0.570   2.607   1.853 -0.0745 -0.1255 -0.0262
    1TCq1    C314075   0.615   2.712   1.922  0.1919  0.1061  0.6347
    1TCq1    C414076   0.679   2.808   1.853 -0.8686  0.2164  0.1759
    1TCq1    C514077   0.695   2.797   1.715  0.2356 -0.6765  0.8752
    1TCq1    C614078   0.620   2.702   1.648 -0.3625  0.6632 -0.4169
    1TCq1    C714079   0.557   2.603   1.718 -0.3015  0.3915 -0.5379
    1TCq1    C814080   0.625   2.672   1.502 -0.0650  0.4680 -0.8170
    1TCq1    O414081   0.558   2.577   1.460 -0.6679  0.2382 -0.0736
    1TCq1    C914082   0.778   2.877   1.927  0.2628  0.1379 -0.3301
    1TCq1    O514083   0.859   2.949   1.860  0.2272 -0.1423  0.0810
    1TCq1    O614084   0.743   2.903   2.044 -0.3618  0.0084  0.3124
    1TCq1    H114085   0.551   2.381   1.788  0.4965  1.5466  0.5562
    1TCq1    H214086   0.631   2.703   2.029 -1.8988  1.9267  1.1044
    1TCq1    H314087   0.754   2.871   1.661 -1.0158 -2.6385 -3.1894
    1TCq1    H414088   0.506   2.526   1.661  1.9071 -1.2870 -0.2316
    2MPD1     C14089   0.688   2.861   1.032  0.3518  0.1674 -0.0640
    2MPD1    C114090   0.712   2.962   1.124 -0.0366  0.3178  0.3050
    2MPD1    C214091   0.724   2.933   1.260  0.0719  0.4766 -0.3608
    2MPD1    C314092   0.693   2.802   1.301 -0.3569  0.2826  0.6356
    2MPD1    C414093   0.676   2.705   1.211  0.5577 -0.8117  0.3394
    2MPD1    C514094   0.679   2.731   1.075  0.3680 -0.3614  1.0835
    2MPD1     H14095   0.750   3.014   1.327  0.5838 -0.4691  0.5873
    2MPD1    H114096   0.644   2.605   1.238 -2.4491  0.3649  1.1422
    2MPD1    H214097   0.676   2.884   0.927 -2.0177  2.8169  0.7950
    2MPD1    H314098   0.660   2.650   1.005  1.0868 -1.3652  2.0503
    2MPD1     N14099   0.698   2.774   1.439 -0.3992 -0.1787  0.5532
    2MPD1    H514100   0.720   2.847   1.505  1.7091 -2.4249  2.3176
    2MPD1    N114101   0.708   3.092   1.075  0.3285 -0.4369 -0.0571
    2MPD1    H614102   0.740   3.078   0.980 -0.6378 -2.9471 -0.0173
    2MPD1    H714103   0.781   3.147   1.119  0.3527  0.0166 -0.6686
    1MPD1     C14104   3.557   2.542  12.226  0.0134 -0.1760 -0.1713
    1MPD1    C114105   3.555   2.648  12.145 -0.0121  0.3945  0.5267
    1MPD1    C214106   3.673   2.728  12.133 -0.1023  0.1224 -0.2967
    1MPD1    C314107   3.790   2.692  12.199  0.0116 -0.2242  0.4126
    1MPD1    C414108   3.786   2.589  12.287  0.4814 -0.3577 -0.5529
    1MPD1    C514109   3.673   2.514  12.291 -0.8201  0.0354 -0.1807
    1MPD1     H14110   3.671   2.814  12.067 -0.1295 -0.5182 -1.1195
    1MPD1    H114111   3.867   2.564  12.355 -0.0959 -1.6036 -0.3290
    1MPD1    H214112   3.472   2.476  12.240 -1.7717  2.3420  0.9199
    1MPD1    H314113   3.682   2.425  12.352 -1.7680 -1.6832 -2.5239
    1MPD1     N14114   3.908   2.765  12.166 -0.5474  0.1912  0.1938
    1MPD1    H514115   3.904   2.853  12.115  0.2394 -0.1228 -0.4001
    1MPD1    N114116   3.443   2.665  12.057 -0.1364  0.1931  0.2061
    1MPD1    H614117   3.363   2.630  12.108  0.5544 -0.9704  0.4911
    1MPD1    H714118   3.438   2.766  12.041 -0.9882 -0.1006 -1.2715
    2MPD1     C14119   3.643   2.750  11.766  0.6221  0.1235 -0.0614
    2MPD1    C114120   3.580   2.735  11.652  0.2559 -0.5116 -0.1821
    2MPD1    C214121   3.602   2.622  11.570  0.4477 -0.3633 -0.2802
    2MPD1    C314122   3.717   2.546  11.594  0.4394  0.7783 -0.4663
    2MPD1    C414123   3.790   2.564  11.708 -0.8717 -0.3561 -0.3654
    2MPD1    C514124   3.755   2.667  11.792  0.4563  0.3595 -0.1687
    2MPD1     H14125   3.533   2.606  11.488  0.8743  1.3624 -0.9664
    2MPD1    H114126   3.874   2.503  11.738 -2.4876 -2.0272  0.7073
    2MPD1    H214127   3.607   2.819  11.841  0.9522 -1.7291  1.8018
    2MPD1    H314128   3.817   2.680  11.880 -1.5985 -0.1626  1.3615
    2MPD1     N14129   3.760   2.444  11.506  0.7615  0.1687  0.2734
    2MPD1    H514130   3.833   2.385  11.542  1.5657  1.1011  0.1806
    2MPD1    N114131   3.454   2.805  11.639 -0.4638  0.6528 -0.7861
    2MPD1    H614132   3.452   2.905  11.659 -1.2781  0.5616 -0.3836
    2MPD1    H714133   3.419   2.798  11.544 -2.2135 -0.1959 -0.0861
    3MPD1     C14134   3.700   2.079  10.486 -0.7568  0.2411  0.6202
    3MPD1    C114135   3.777   2.197  10.485 -0.2192  0.4929  0.4311
    3MPD1    C214136   3.808   2.252  10.604 -0.5416  0.4948 -0.3449
    3MPD1    C314137   3.753   2.203  10.716  0.0651  0.2322  0.4263
    3MPD1    C414138   3.682   2.082  10.717  0.1834 -0.7070  0.1992
    3MPD1    C514139   3.642   2.034  10.600  0.0823  0.5770  0.2800
    3MPD1     H14140   3.870   2.340  10.602  1.4181 -0.9129 -1.5553
    3MPD1    H114141   3.668   2.024  10.808 -0.7583  1.1957  1.2846
    3MPD1    H214142   3.687   2.018  10.397  0.9399 -0.1018  0.6097
    3MPD1    H314143   3.595   1.936  10.597 -0.7088  0.9619 -0.0656
    3MPD1     N14144   3.791   2.258  10.835  0.3380  0.4381  0.0400
    3MPD1    H514145   3.855   2.337  10.836  1.6781 -0.6344 -0.8930
    3MPD1    N114146   3.855   2.226  10.369 -0.8028  0.2523  0.4435
    3MPD1    H614147   3.813   2.202  10.280  2.5025  0.9916 -1.2686
    3MPD1    H714148   3.870   2.326  10.356 -0.0844  0.2039  0.8991
    4MPD2     C14149   4.129   3.162  11.680 -0.4430 -0.6353 -0.3312
    4MPD2    C114150   4.246   3.118  11.745  0.6995  0.2365  0.0054
    4MPD2    C214151   4.357   3.087  11.665  0.0813  0.0623 -0.4607
    4MPD2    C314152   4.358   3.103  11.528  1.1275  0.0064  0.2696
    4MPD2    C414153   4.239   3.137  11.458 -0.3353 -1.1218  0.2840
    4MPD2    C514154   4.129   3.166  11.542 -0.2409  0.0866 -0.1883
    4MPD2     H14155   4.443   3.047  11.718  1.8549  1.4577 -2.2768
    4MPD2    H114156   4.227   3.145  11.351 -0.4305  0.5548  0.4228
    4MPD2    H214157   4.037   3.190  11.730  0.3032  0.7192  0.2796
    4MPD2    H314158   4.034   3.196  11.501 -0.0511 -0.4958 -1.0425
    4MPD2     N14159   4.472   3.083  11.449  0.1405 -0.3937 -0.4858
    4MPD2    H514160   4.459   3.081  11.348 -1.6674  0.2753 -0.2649
    4MPD2    N114161   4.262   3.098  11.883  0.7086  0.2308  0.5797
    4MPD2    H714162   4.353   3.062  11.909 -0.1205 -2.2658  0.0053
    5TMC3    C114163   4.210   3.033  12.095  0.6800  0.4037  0.1032
    5TMC3    C214164   4.111   2.954  12.147  0.1739 -0.0833 -0.1487
    5TMC3    C314165   4.137   2.824  12.176  0.0386  0.7467  0.0002
    5TMC3    C414166   4.338   2.992  12.098 -0.1426  0.1991 -0.2230
    5TMC3    C514167   4.363   2.855  12.121 -0.7008  0.3393 -0.2235
    5TMC3    C614168   4.262   2.772  12.154  0.6478  0.0357 -0.0505
    5TMC3     C14169   4.163   3.101  11.978  0.6527  0.0106  0.0743
    5TMC3     O14170   4.045   3.130  11.972 -0.9334 -0.6407 -0.0145
    5TMC3     H14171   4.010   2.991  12.146  0.0798 -0.3092  0.5581
    5TMC3    H114172   4.423   3.056  12.075  1.6813 -1.8862  0.6956
    5TMC3    H214173   4.282   2.673  12.192  1.1357  0.1805  0.0636
    5TMC3    C714174   4.472   2.799  12.041  0.3991  0.0395 -0.4154
    5TMC3    C814175   4.036   2.725  12.188  0.4357 -0.2784 -0.0968
    5TMC3    O114176   4.568   2.874  12.011 -0.1427 -0.6986  0.1772
    5TMC3    O214177   4.063   2.608  12.208  0.6262  0.6042  0.2525
    6TMC3    C114178   3.796   2.344  11.293 -0.7345  0.1803 -0.7823
    6TMC3    C214179   3.735   2.303  11.183 -0.6634  0.2768 -0.6011
    6TMC3    C314180   3.799   2.303  11.064 -0.0526  0.3137  0.3084
    6TMC3    C414181   3.923   2.390  11.284 -0.1523 -0.3206  0.1108
    6TMC3    C514182   3.982   2.386  11.157 -0.0357 -0.5708 -0.0328
    6TMC3    C614183   3.931   2.341  11.041  0.6440  0.7581  0.3813
    6TMC3     C14184   3.714   2.426  11.378  0.2749  0.1781 -0.1608
    6TMC3     O14185   3.635   2.490  11.313 -0.0366 -0.2148 -0.4989
    6TMC3     H14186   3.631   2.275  11.196 -1.6248  3.8320 -0.6552
    6TMC3    H114187   3.980   2.426  11.369 -0.5196 -3.6002  1.7636
    6TMC3    H214188   3.991   2.319  10.954 -1.2416  0.4300 -0.8203
    6TMC3    C714189   4.112   2.455  11.152  0.1417 -0.5744  0.5319
    6TMC3    C814190   3.730   2.237  10.958 -0.3126 -0.1721 -0.3234
    6TMC3    O114191   4.167   2.481  11.255  0.1166 -0.1945  0.1267
    6TMC3    O214192   3.639   2.162  10.983 -0.0824  0.1459  0.2096
    7MPD2     C14193   4.618   2.466  11.681 -0.1408  0.6471 -0.3367
    7MPD2    C114194   4.667   2.596  11.705 -0.2214  0.0544 -0.1602
    7MPD2    C214195   4.613   2.664  11.814 -0.3870 -0.4486  0.9999
    7MPD2    C314196   4.520   2.602  11.896  0.0158 -0.2261  0.1611
    7MPD2    C414197   4.483   2.469  11.870  0.3429 -0.0256 -0.2332
    7MPD2    C514198   4.528   2.405  11.764 -0.6541  0.7445  0.3214
    7MPD2     H14199   4.638   2.770  11.817  1.4498 -0.7658 -3.0054
    7MPD2    H114200   4.398   2.426  11.922  0.2428 -0.4217 -0.7193
    7MPD2    H214201   4.641   2.422  11.585 -1.3317  0.0498 -0.3406
    7MPD2    H314202   4.481   2.315  11.726  0.3849  0.1120  0.5295
    7MPD2     N14203   4.447   2.671  11.997 -1.0335 -0.0928 -0.9130
    7MPD2    H514204   4.362   2.623  12.022 -0.1790 -0.4668  1.3124
    7MPD2    N114205   0.023   2.654  11.602  0.2941 -0.3634  0.2111
    7MPD2    H714206   0.023   2.596  11.518 -1.4137  1.1274 -0.8023
    8TMC3    C114207   0.097   2.826  11.477  0.4620 -1.1981 -0.1391
    8TMC3    C214208   0.047   2.743  11.378 -0.0683  0.1480  0.0044
    8TMC3    C314209   4.682   2.811  11.299 -0.1946 -0.4869 -0.6361
    8TMC3    C414210   0.071   2.960  11.482  0.3026 -0.0889  0.6435
    8TMC3    C514211   4.696   3.019  11.407 -0.1639 -0.5167  0.3329
    8TMC3    C614212   4.641   2.940  11.309 -0.2061 -0.4711  0.2400
    8TMC3     C14213   0.083   2.778  11.611 -0.0512 -0.3207  0.3077
    8TMC3     O14214   0.091   2.845  11.715 -0.3004 -0.3213 -0.6368
    8TMC3     H14215   0.078   2.640  11.366 -1.0960 -0.1812  0.1281
    8TMC3    H114216   0.115   3.024  11.557  1.1092 -0.0153  0.1073
    8TMC3    H214217   4.559   2.969  11.246  0.1292  0.2051  0.1162
    8TMC3    C714218   4.602   3.079  11.492  0.2343  0.5771  0.2101
    8TMC3    C814219   4.571   2.732  11.241 -0.2652  0.5013  0.4959
    8TMC3    O114220   4.638   3.118  11.602 -0.4481 -0.1678 -0.2360
    8TMC3    O214221   4.542   2.627  11.299  0.2966 -0.5513  0.0985
    9MPD2     C14222   4.440   2.764  10.901 -0.0996 -0.1118  0.2476
    9MPD2    C114223   4.439   2.722  11.033  0.5062 -0.6520 -0.1080
    9MPD2    C214224   4.348   2.631  11.079  1.3114 -0.1673  0.1037
    9MPD2    C314225   4.251   2.583  10.990  0.7384 -0.1696  0.4605
    9MPD2    C414226   4.246   2.631  10.865  0.2450  0.1767 -0.1096
    9MPD2    C514227   4.347   2.709  10.816  0.1103 -0.4602 -0.2038
    9MPD2     H14228   4.348   2.584  11.177 -1.7811  0.7715  0.5768
    9MPD2    H114229   4.174   2.593  10.794  1.3005 -1.0429 -0.5377
    9MPD2    H214230   4.508   2.841  10.866 -1.5481  0.5038 -1.2243
    9MPD2    H314231   4.341   2.748  10.716  3.2708  0.3197 -0.0823
    9MPD2     N14232   4.137   2.511  11.028  0.4542  0.3092  0.1947
    9MPD2    H514233   4.060   2.502  10.963 -1.3513  0.0025  2.3824
    9MPD2    N114234   4.531   2.785  11.118 -0.3690 -0.3492  0.2437
    9MPD2    H714235   4.598   2.846  11.072 -0.9591  0.3977  0.3905
    1MPD1     C14236   3.136   1.251  16.894  0.3087  0.2896  0.6834
    1MPD1    C114237   3.123   1.316  16.774 -0.0425  0.6763 -0.6753
    1MPD1    C214238   3.036   1.261  16.683  0.5030 -1.0193  0.4698
    1MPD1    C314239   2.946   1.151  16.714 -0.1909  0.1708 -0.0134
    1MPD1    C414240   2.954   1.100  16.839  0.0338  0.4017  0.3293
    1MPD1    C514241   3.039   1.159  16.928  0.3281 -0.3604 -0.1650
    1MPD1     H14242   3.034   1.300  16.581  0.3648  0.4426  1.0316
    1MPD1    H114243   2.893   1.015  16.867 -1.0982  1.2808  0.5640
    1MPD1    H214244   3.215   1.281  16.962  1.1537 -3.3139  1.2913
    1MPD1    H314245   3.031   1.118  17.028  1.1695 -0.0606  0.0232
    1MPD1     N14246   2.867   1.089  16.608  0.1588  0.2823 -0.4299
    1MPD1    H514247   2.888   1.131  16.518 -0.9839 -2.4198 -1.9653
    1MPD1    N114248   3.219   1.413  16.723 -0.1933  0.5042 -0.1088
    1MPD1    H614249   3.254   1.477  16.794  2.0714 -1.5703  0.6369
    1MPD1    H714250   3.186   1.464  16.641  1.7320  1.1474 -0.4844
    2MPD1     C14251   2.573   0.125  16.448 -0.3128 -0.8510  0.3334
    2MPD1    C114252   2.509   0.214  16.533  0.2031 -0.4550 -0.3055
    2MPD1    C214253   2.541   0.351  16.524 -0.1121 -0.1398 -0.1842
    2MPD1    C314254   2.642   0.393  16.434 -0.3166  0.3569 -0.3427
    2MPD1    C414255   2.714   0.301  16.354 -0.3281  0.6024 -0.0964
    2MPD1    C514256   2.673   0.167  16.363  0.0686  0.7866 -0.4496
    2MPD1     H14257   2.487   0.422  16.585 -2.5159 -0.8405 -1.5213
    2MPD1    H114258   2.789   0.340  16.286  0.2079  0.3311  0.3358
    2MPD1    H214259   2.545   0.021  16.453  0.6923 -1.0440  1.8228
    2MPD1    H314260   2.723   0.110  16.286  0.4509 -0.9812  1.1329
    2MPD1     N14261   2.662   0.533  16.434 -0.5800 -0.2022  0.5215
    2MPD1    H514262   2.604   0.597  16.488  2.2519  2.2265  0.6847
    2MPD1    N114263   2.397   0.176  16.603 -0.2945  0.2707  0.1654
    2MPD1    H614264   2.382   0.083  16.641 -2.4982 -0.3910 -2.2831
    2MPD1    H714265   2.374   0.246  16.672 -1.9157 -0.5948  0.5138
    3TCq2    C114266   2.744   0.602  16.350 -0.0662 -0.5935 -0.4895
    3TCq2    O214267   2.798   0.554  16.247 -0.4817  0.2425 -0.8303
    3TCq2    C214268   2.732   0.746  16.373 -0.5333 -0.5639 -0.4091
    3TCq2    C314269   2.744   0.825  16.259 -0.1056 -0.7249  0.0658
    3TCq2    C414270   2.746   0.963  16.273  0.6503  0.2479 -0.0883
    3TCq2    C514271   2.740   1.026  16.392 -0.8023 -0.1560 -0.1438
    3TCq2    C614272   2.730   0.938  16.501 -0.0486  0.0006  0.2242
    3TCq2    C714273   2.723   0.800  16.496 -0.6128 -0.3534  0.6585
    3TCq2    C814274   2.779   0.986  16.628  0.0060  0.2659  0.1125
    3TCq2    O414275   2.744   0.923  16.725 -0.2379 -0.5346 -0.4673
    3TCq2    C914276   2.754   1.042  16.155 -0.7742  0.4714  0.0749
    3TCq2    O514277   2.773   1.166  16.169  0.7224  0.2507 -0.2332
    3TCq2    O614278   2.733   0.984  16.044  0.6273 -0.1107  0.1913
    3TCq2    H214279   2.746   0.779  16.160  2.1856  0.8029 -0.5966
    3TCq2    H314280   2.731   1.134  16.385 -1.5960 -0.2999 -1.3065
    3TCq2    H414281   2.700   0.742  16.585 -0.9259  1.4831  1.7634
    1TCq1    O114282   1.357   4.189  12.942 -0.2413 -0.0845 -0.4034
    1TCq1    C114283   1.297   4.265  12.850  0.0908  0.2168 -0.4860
    1TCq1    O214284   1.178   4.265  12.821  0.3720 -0.6100 -0.1283
    1TCq1    C214285   1.397   4.361  12.796  0.4081 -0.0129  0.0578
    1TCq1    C314286   1.346   4.478  12.753 -0.1700  0.5097  0.7716
    1TCq1    C414287   1.431   4.572  12.707 -0.3932  0.8409 -0.0247
    1TCq1    C514288   1.568   4.558  12.715  0.1745 -0.1294 -0.0995
    1TCq1    C614289   1.609   4.447  12.773  0.5461  0.1418  0.3209
    1TCq1    C714290   1.530   4.344  12.811  0.4645 -0.2789  0.2145
    1TCq1    C814291   1.743   4.429  12.814  0.3550 -0.1270 -0.0094
    1TCq1    O414292   1.779   4.314  12.813 -0.4015  0.2245 -0.3252
    1TCq1    C914293   1.381   4.705  12.676 -0.1836  0.6000 -0.3196
    1TCq1    O514294   1.473   0.069  12.645  0.3285  0.1507 -0.1513
    1TCq1    O614295   1.255   0.005  12.698  0.1820  0.2083 -0.7185
    1TCq1    H114296   1.440   4.231  12.970  0.6336 -1.4432 -0.9289
    1TCq1    H214297   1.240   4.503  12.761 -0.1002  0.4277  1.8745
    1TCq1    H314298   1.629   4.640  12.678 -1.8096 -0.0598 -3.1981
    1TCq1    H414299   1.574   4.253  12.850  2.7745 -0.4044 -2.7158
    2MPD2     C14300   2.015   4.447  12.951  1.5968  0.4701 -0.4000
    2MPD2    C114301   1.929   4.554  12.930  0.1448  0.3375 -0.4641
    2MPD2    C214302   1.966   4.674  12.995 -0.0157 -0.1903 -0.2150
    2MPD2    C314303   2.085   4.689  13.065 -0.5545  0.2566 -0.2050
    2MPD2    C414304   2.170   4.584  13.070 -0.1223  0.0838  0.3274
    2MPD2    C514305   2.135   4.463  13.024 -0.0329 -0.2607 -0.1452
    2MPD2     H14306   1.904   0.040  12.991  0.8806  0.4776  0.7918
    2MPD2    H114307   2.261   4.584  13.128  0.2110  1.0675 -0.1928
    2MPD2    H214308   1.987   4.349  12.916 -1.1646  0.7921  0.9304
    2MPD2    H314309   2.194   4.377  13.054 -1.3771 -1.4015 -0.7357
    2MPD2     N14310   2.119   0.094  13.115  0.2623 -0.0223 -0.0883
    2MPD2    H514311   2.047   0.164  13.101 -2.5548 -2.9134 -0.0223
    2MPD2    N114312   1.808   4.543  12.860 -0.2529 -0.0940  0.2179
    2MPD2    H714313   1.752   4.628  12.855 -0.6170 -0.4585 -2.0107
    3TCq1    O114314   2.397   0.535  13.538  0.0880 -0.6007  0.0430
    3TCq1    C114315   2.443   0.497  13.420 -0.0470  0.1602  0.3742
    3TCq1    O214316   2.554   0.450  13.413 -0.2231 -0.4429  0.4705
    3TCq1    C214317   2.329   0.438  13.355  0.9573 -0.6786  0.2063
    3TCq1    C314318   2.225   0.528  13.335  0.1120 -0.3517  0.7021
    3TCq1    C414319   2.129   0.479  13.250  0.2137 -0.3771 -0.5285
    3TCq1    C514320   2.131   0.352  13.199 -0.2511 -0.1322 -0.3717
    3TCq1    C614321   2.242   0.272  13.225 -0.7866  0.7005  0.0405
    3TCq1    C714322   2.348   0.308  13.300 -0.3676 -0.6320 -0.2982
    3TCq1    C814323   2.241   0.136  13.168  0.0996  0.0001 -0.7861
    3TCq1    O414324   2.349   0.077  13.187 -0.7676 -0.1924 -0.2448
    3TCq1    C914325   2.013   0.553  13.224 -0.6793 -0.0610  0.3663
    3TCq1    O514326   2.009   0.671  13.275  0.2840 -0.0773  0.4272
    3TCq1    O614327   1.917   0.496  13.158  0.3735 -0.3748 -0.1482
    3TCq1    H114328   2.300   0.551  13.536  0.1913  0.0647  0.3439
    3TCq1    H214329   2.216   0.621  13.389  0.3602  2.0240 -3.3465
    3TCq1    H314330   2.053   0.310  13.136  0.6064 -2.4228  0.1289
    3TCq1    H414331   2.439   0.255  13.324 -0.5435 -0.6181  0.4074
    1MPD2     C14332   1.500   1.001  14.751  0.0217  0.4912 -0.3300
    1MPD2    C114333   1.369   0.973  14.775  0.0565  0.1647  0.1809
    1MPD2    C214334   1.291   0.931  14.663 -0.0901  0.1689  0.4824
    1MPD2    C314335   1.349   0.918  14.537 -0.1717 -0.4501 -0.0675
    1MPD2    C414336   1.489   0.946  14.524 -0.6370  0.1696 -0.4777
    1MPD2    C514337   1.558   0.981  14.632 -0.8538  0.7964  0.1241
    1MPD2     H14338   1.189   0.900  14.678 -0.2170  0.9930  1.3416
    1MPD2    H114339   1.539   0.927  14.430 -1.9444 -2.4666 -0.6409
    1MPD2    H214340   1.559   1.018  14.840  2.1403 -1.3612 -1.4142
    1MPD2    H314341   1.665   0.991  14.639 -0.6876 -0.2013 -0.8521
    1MPD2     N14342   1.262   0.884  14.424 -0.3716  0.5029  0.3372
    1MPD2    H514343   1.295   0.865  14.331  1.4695  1.5845  0.7740
    1MPD2    N114344   1.311   0.981  14.906  0.1391 -0.4014  0.1452
    1MPD2    H714345   1.375   1.020  14.975  0.6420  0.5362 -0.8509
    2TMC3    C114346   1.136   0.953  15.073  0.3787 -0.5143  0.0734
    2TMC3    C214347   1.043   0.859  15.110  0.2178 -0.2138  0.5171
    2TMC3    C314348   0.923   0.900  15.167  0.4563 -0.2576 -0.2906
    2TMC3    C414349   1.107   1.088  15.087 -0.0058  0.3489 -0.6590
    2TMC3    C514350   0.998   1.119  15.167  1.0016  0.7548 -0.1745
    2TMC3    C614351   0.905   1.027  15.202 -0.6368  0.5936 -0.0822
    2TMC3     C14352   1.188   0.926  14.943  1.0884  0.0061 -0.2642
    2TMC3     O14353   1.116   0.854  14.871 -0.4108  0.0894  0.1888
    2TMC3     H14354   1.065   0.760  15.072 -1.1906 -0.6283  0.8036
    2TMC3    H114355   1.173   1.167  15.054 -0.5371  0.9074 -0.3886
    2TMC3    H214356   0.818   1.053  15.260 -2.9359 -2.0738 -2.3091
    2TMC3    C714357   0.950   1.256  15.199 -0.1337  0.5344  0.3601
    2TMC3    C814358   0.809   0.849  15.106 -0.1877  0.2073 -0.1012
    2TMC3    O114359   0.843   1.274  15.254  0.4221  0.1437 -0.1748
    2TMC3    O214360   0.696   0.863  15.145 -0.4074 -0.5387 -0.1816
    3TCq1    O114361   1.547   2.224  14.815 -0.0779  0.0874  0.1585
    3TCq1    C114362   1.476   2.201  14.707 -0.2782  0.5655  0.2046
    3TCq1    O214363   1.406   2.288  14.659 -0.6663  0.1304 -0.5820
    3TCq1    C214364   1.432   2.061  14.713 -0.1016  0.5955 -0.7931
    3TCq1    C314365   1.522   1.961  14.687  0.0128  0.3013 -0.0261
    3TCq1    C414366   1.484   1.834  14.709 -1.1210  0.3804 -0.6814
    3TCq1    C514367   1.371   1.804  14.779 -0.4504  0.2799  0.0720
    3TCq1    C614368   1.300   1.910  14.824  1.0243 -0.3028  0.0423
    3TCq1    C714369   1.326   2.044  14.790 -0.7564 -0.4460 -0.6893
    3TCq1    C814370   1.190   1.874  14.908 -0.0188  0.2628 -0.1116
    3TCq1    O414371   1.099   1.954  14.911 -0.1787  0.1519  0.4313
    3TCq1    C914372   1.571   1.719  14.680 -0.0020  0.2185  0.6474
    3TCq1    O514373   1.537   1.601  14.718  0.1412  1.0467  0.5008
    3TCq1    O614374   1.686   1.743  14.636  0.4259  0.3625 -0.0572
    3TCq1    H114375   1.576   2.134  14.838 -2.1677 -0.1042  2.0408
    3TCq1    H214376   1.609   1.978  14.624 -0.1927 -1.5378 -0.8031
    3TCq1    H314377   1.333   1.704  14.790 -1.2133  0.5127 -0.3777
    3TCq1    H414378   1.255   2.124  14.805  2.1246  1.7762  1.2552
    4MPD2     C14379   0.973   1.739  15.065 -0.6452 -0.4056  0.8076
    4MPD2    C114380   1.100   1.686  15.039 -0.2464  0.2942  0.4475
    4MPD2    C214381   1.121   1.554  15.075  0.1432  0.1940  0.6736
    4MPD2    C314382   1.026   1.483  15.153  0.3800  0.2124 -0.3592
    4MPD2    C414383   0.915   1.548  15.187  0.1844  0.1106 -0.1053
    4MPD2    C514384   0.890   1.674  15.149  0.5431 -0.3476 -0.6330
    4MPD2     H14385   1.208   1.500  15.040 -2.0521 -1.8448 -1.6077
    4MPD2    H114386   0.837   1.500  15.245 -2.1343  0.6419 -2.7927
    4MPD2    H214387   0.947   1.831  15.014 -0.8762 -0.1226  1.4305
    4MPD2    H314388   0.792   1.716  15.167  1.3556 -0.4260  3.8546
    4MPD2     N14389   1.053   1.346  15.173 -0.6524 -0.1392  0.8614
    4MPD2    H514390   1.147   1.308  15.176 -0.4988  0.3589  2.3271
    4MPD2    N114391   1.199   1.754  14.972  0.3113  0.3333  0.5984
    4MPD2    H714392   1.284   1.698  14.962  1.9932  2.8955  0.7494
    5TMC2    C114393   0.846   0.688  14.293 -0.5672  0.1727  0.9521
    5TMC2    C214394   0.917   0.576  14.244 -1.0947  0.1904 -1.1115
    5TMC2    C314395   1.049   0.582  14.208 -0.4268 -0.7470  0.1349
    5TMC2    C414396   0.925   0.796  14.325  0.0524 -0.3830  0.8924
    5TMC2    C514397   1.066   0.798  14.305  0.8105 -0.2714 -0.0336
    5TMC2    C614398   1.126   0.689  14.253  0.1789 -0.0083  0.3502
    5TMC2     C14399   0.749   0.662  14.396  0.0822 -0.1638 -0.2915
    5TMC2     O14400   0.664   0.574  14.380 -0.1504  0.3788  0.2445
    5TMC2     H14401   0.867   0.492  14.199 -1.4914 -1.2721  2.0245
    5TMC2    H114402   0.873   0.885  14.359 -2.0055 -2.0159  2.1086
    5TMC2    H214403   1.234   0.686  14.239  0.4512  0.8433  2.2166
    5TMC2    C714404   1.126   0.856  14.427 -0.1134 -0.3798 -0.1058
    5TMC2    C814405   1.086   0.532  14.078  0.8733 -0.1876  0.3739
    5TMC2    O114406   1.042   0.873  14.511  0.5804  0.3672 -0.2426
    5TMC2    O214407   1.008   0.505  13.988  0.3317  0.0202 -0.2334
    5TMC2    O514408   1.215   0.489  14.083 -0.6142  0.5996  0.2017
    5TMC2    H514409   1.242   0.473  14.176 -0.8683  1.6176  0.4506
    6MPD2     C14410   0.633   0.722  14.894  0.3314  0.5358 -0.3062
    6MPD2    C114411   0.761   0.769  14.872  0.3253 -0.0554 -0.1168
    6MPD2    C214412   0.813   0.771  14.746  0.6764 -0.4523 -0.0418
    6MPD2    C314413   0.739   0.711  14.646  0.0349  0.3277  0.7202
    6MPD2    C414414   0.616   0.647  14.672  0.3772 -0.3174  0.2724
    6MPD2    C514415   0.562   0.651  14.798 -0.3773 -0.4759  0.5338
    6MPD2     H14416   0.909   0.819  14.727  2.0973 -3.1369  0.4202
    6MPD2    H114417   0.558   0.598  14.594 -0.0604  1.7302 -0.6880
    6MPD2    H214418   0.588   0.727  14.993 -1.5229 -0.5374 -1.0753
    6MPD2    H314419   0.471   0.595  14.819  0.4335 -0.7429  3.3304
    6MPD2     N14420   0.798   0.712  14.515  0.0311  0.2389 -0.3997
    6MPD2    H514421   0.890   0.755  14.509  0.8761 -1.6783 -0.9121
    6MPD2    N114422   0.845   0.808  14.977  0.5011 -0.5561  0.2769
    6MPD2    H714423   0.937   0.832  14.941  0.1634 -0.5306 -0.5960
  945NH3     N114424   2.027   2.553   7.605  0.0074 -0.0183 -0.9598
  945NH3     H214425   1.956   2.495   7.648  0.4567 -0.4000 -0.7251
  945NH3     H314426   2.024   2.643   7.652 -0.0736 -1.1412  1.1918
  945NH3     H414427   2.111   2.525   7.654  0.4022  1.6645 -0.7026
  946SOD     NA14428   4.088   3.996  15.164 -0.4503  0.0604  0.1911
  947SOD     NA14429   1.180   3.933  15.349 -0.3095 -0.1711 -0.2652
  948SOD     NA14430   3.746   1.548  16.307 -0.0316 -0.2584 -0.1478
  949SOD     NA14431   2.755   1.373  16.161  0.5684  0.0314  0.1100
  950SOD     NA14432   2.943   4.594   1.164 -0.5926  0.4879  0.3215
  951SOD     NA14433   0.181   3.777  15.895 -0.1492 -0.0249  0.3908
  952SOD     NA14434   1.639   4.585   9.562 -0.4576  0.2755 -0.1424
  953SOD     NA14435   4.374   0.557   2.031 -0.2556  0.1188  0.2749
  954SOD     NA14436   4.018   0.942  12.920 -0.0442  0.4407  0.2329
  955SOD     NA14437   1.532   3.412  10.901 -0.0039 -0.1392 -0.0393
  956SOD     NA14438   2.923   1.633  10.395  0.1879  0.2873  0.1030
  957SOD     NA14439   1.325   3.413  11.124 -0.4516 -0.2466  0.3739
  958SOD     NA14440   1.681   0.154   9.715 -0.4350  0.1545  0.5326
  959SOD     NA14441   3.212   3.793   1.782  0.0480  0.3582 -0.1021
  960SOD     NA14442   4.189   1.230  12.443 -0.6830 -0.1990  0.0387
  961SOD     NA14443   2.515   3.251   6.057 -0.3152  0.0610  0.0548
  962SOD     NA14444   0.578   0.385   9.933  0.0378  0.2492  0.0050
  963SOD     NA14445   2.724   1.169  15.898 -0.2050  0.0179 -0.6514
  964SOD     NA14446   3.607   0.449   0.377  0.2858  0.3229  0.5490
  965SOD     NA14447   0.617   2.756   0.165  0.7064  0.6231  0.2809
  966SOD     NA14448   2.065   1.643  14.566  0.2429 -0.2861 -0.3816
  967SOD     NA14449   2.341   0.274  11.874  0.1777 -0.3188 -0.1188
  968SOD     NA14450   0.020   1.518   2.077  0.7285  0.0199 -0.0156
  969SOD     NA14451   2.943   2.767  11.305  0.4491 -0.3306 -0.1174
  970SOD     NA14452   1.887   1.031  11.600 -0.0149  0.1546 -0.0052
  971SOD     NA14453   1.996   0.830  12.740  0.3729 -0.2922  0.1305
  972SOD     NA14454   0.940   2.095  14.294  0.4191  0.1457 -0.5193
  973SOD     NA14455   1.715   1.833   5.425 -0.0709  0.1414  0.3141
  974SOD     NA14456   0.373   4.639  13.873 -0.0037  0.3176  0.2812
  975SOD     NA14457   3.536   2.800  17.437  0.1011 -0.4558 -0.1166
  976SOD     NA14458   2.178   2.288   5.872  0.1354  0.1729  0.0260
  977SOD     NA14459   0.222   4.480  12.617  0.4877  0.2203  0.2138
  978SOD     NA14460   0.791   3.867   3.437  0.3199  0.1645  0.0408
  979SOD     NA14461   0.883   1.020  11.011 -0.0698 -0.5490 -0.5972
  980SOD     NA14462   4.532   4.490  14.680  0.7649  0.0884  0.3798
  981SOD     NA14463   3.130   4.140  17.305  0.6070  0.5167 -0.2145
  982SOD     NA14464   0.753   0.559   8.555  0.6122  0.4196 -0.0664
  983SOD     NA14465   4.569   0.389   1.280 -0.5131 -0.7580 -0.0139
  984SOD     NA14466   3.825   4.581   9.042  0.2147 -0.1267 -0.1051
  985SOD     NA14467   1.610   0.197  12.525 -0.1976  0.4673 -0.0951
  986SOD     NA14468   1.057   3.374   8.450  0.1559 -0.3093  0.1884
  987SOD     NA14469   4.276   0.162  10.523 -0.6706 -0.2551  0.0592
  988SOD     NA14470   1.961   2.663   9.111  0.3154 -0.3834  0.2334
  989SOD     NA14471   3.347   2.721   4.458 -0.2509 -0.2329  0.0018
  990SOD     NA14472   0.501   3.270   4.353  0.0602 -0.2904 -0.0560
  991SOD     NA14473   3.806   0.956  15.113  0.2318 -0.1174 -0.2534
  992SOD     NA14474   2.285   0.959  13.554 -0.0148  0.4610 -0.1159
  993SOD     NA14475   1.802   4.111   4.226  0.1909  0.3017  0.1897
  994SOD     NA14476   3.218   0.072  13.665  0.3439  0.4955 -0.2583
  995SOD     NA14477   2.443   0.441  11.257 -0.1733  0.0562 -0.1517
  996SOD     NA14478   3.832   2.511   8.664  0.1702 -0.0883  0.0065
  997SOD     NA14479   2.913   0.440  13.615 -0.5918  0.4478  0.3535
  998SOD     NA14480   3.215   0.160   1.605  0.0514 -0.0243 -0.1165
  999SOD     NA14481   4.034   2.416  12.070 -0.3520  0.2772  0.3086
 1000SOD     NA14482   0.365   3.088   2.318  0.3436  0.3045  0.1667
 1001SOD     NA14483   3.421   3.183   8.791 -0.1447  0.4162 -0.2917
 1002SOD     NA14484   2.767   1.018  14.925  0.1195  0.1793 -0.4125
 1003SOD     NA14485   3.634   4.404  13.313  0.1907 -0.2207  0.3297
 1004SOD     NA14486   1.780   1.382  10.036  0.1703  0.5288 -0.2770
 1005SOD     NA14487   3.161   2.003  13.611  0.6691  0.0659  0.5190
 1006SOD     NA14488   3.751   2.345  13.160  0.2612  0.1139 -0.3410
 1007SOD     NA14489   0.886   3.135   1.751  0.4843  0.5137  0.0712
 1008SOD     NA14490   1.507   1.395  14.733  0.5229  0.2641 -0.3543
 1009SOD     NA14491   3.227   2.772  14.866  0.4188  0.4827 -0.2614
 1010SOD     NA14492   2.031   4.439  11.225 -0.2955 -0.1107 -0.6062
 1011SOD     NA14493   1.721   2.984   2.315  0.3258  0.5351 -0.4313
 1012SOL     OW14494   0.932   2.765   0.813 -0.1381 -0.2608 -0.8052
 1012SOL    HW114495   0.984   2.731   0.886 -0.8270  0.5474  0.0623
 1012SOL    HW214496   0.852   2.715   0.795 -0.6183  0.3595 -0.3653
 1013SOL     OW14497   4.447   1.986  11.995 -0.0120  0.4907  0.4077
 1013SOL    HW114498   4.543   1.988  11.993  0.0013  1.0572  2.2570
 1013SOL    HW214499   4.429   2.038  12.073 -1.1646  0.3470  0.2298
 1014SOL     OW14500   1.077   4.703   4.643  0.3695 -0.0366  0.0536
 1014SOL    HW114501   1.092   0.055   4.702 -2.1947  0.8543 -0.4027
 1014SOL    HW214502   0.986   4.710   4.615  0.2780 -0.9420  0.1511
 1015SOL     OW14503   1.758   1.911   7.302  0.0154  0.4469 -0.0966
 1015SOL    HW114504   1.710   1.853   7.362  0.9822  0.0212  0.2628
 1015SOL    HW214505   1.843   1.920   7.344 -1.1136  1.4386  1.9780
 1016SOL     OW14506   0.715   3.019   2.957 -0.0536  0.2285  0.4687
 1016SOL    HW114507   0.765   3.042   2.879 -1.1934  0.0014 -0.3355
 1016SOL    HW214508   0.684   3.106   2.980  0.1494  0.3476  0.2871
 1017SOL     OW14509   1.708   0.497   7.783 -0.4204  0.2931  0.0410
 1017SOL    HW114510   1.682   0.535   7.866 -3.1426 -0.8308 -0.3171
 1017SOL    HW214511   1.746   0.419   7.824 -1.1332  0.3263  0.7590
 1018SOL     OW14512   2.478   2.780   9.180  0.2024  0.1313  0.6332
 1018SOL    HW114513   2.460   2.713   9.246  0.6419  0.2593  0.8856
 1018SOL    HW214514   2.486   2.740   9.094  0.0649 -2.2720  1.7438
 1019SOL     OW14515   3.060   2.816  11.089  0.3345  0.0566  0.6205
 1019SOL    HW114516   3.027   2.864  11.013 -1.8013 -1.7864  0.3965
 1019SOL    HW214517   3.083   2.731  11.052 -1.3225  0.0781 -0.4702
 1020SOL     OW14518   0.374   1.838   9.473 -0.2138  1.1897 -0.3229
 1020SOL    HW114519   0.372   1.890   9.393 -0.4275 -0.2219 -1.2322
 1020SOL    HW214520   0.421   1.894   9.535  0.0805  1.8732 -1.1761
 1021SOL     OW14521   2.642   3.448   5.187 -0.0537  0.1273 -0.2476
 1021SOL    HW114522   2.575   3.510   5.216 -0.3758 -0.0883 -0.5243
 1021SOL    HW214523   2.680   3.435   5.274  1.8204 -1.4386 -1.2868
 1022SOL     OW14524   4.187   0.873  16.364  1.1520  0.2599  0.6320
 1022SOL    HW114525   4.258   0.937  16.369  3.1236 -1.8268 -0.4732
 1022SOL    HW214526   4.224   0.807  16.305  0.4482  1.4815 -1.1827
 1023SOL     OW14527   3.313   3.404   8.246 -0.0339  0.4457 -0.2122
 1023SOL    HW114528   3.301   3.439   8.334  0.6802 -3.0110  1.2353
 1023SOL    HW214529   3.223   3.410   8.213 -0.1907  0.1554  0.1641
 1024SOL     OW14530   3.112   2.998  16.528  0.1799 -0.1965  0.3911
 1024SOL    HW114531   3.155   2.940  16.465 -0.3110 -1.1716  0.9564
 1024SOL    HW214532   3.089   2.926  16.587 -2.2453  0.7080  0.5321
 1025SOL     OW14533   4.022   0.183   4.395  0.1795 -0.2803  0.2922
 1025SOL    HW114534   4.082   0.185   4.321 -1.6063 -0.5556 -1.1730
 1025SOL    HW214535   3.944   0.146   4.353 -0.6797  0.1037  1.5393
 1026SOL     OW14536   1.678   4.634   5.829  0.0932  0.0647 -0.5446
 1026SOL    HW114537   1.605   4.657   5.772  0.3914 -1.7860 -1.6834
 1026SOL    HW214538   1.654   4.542   5.843  0.9706  0.4118  3.1586
 1027SOL     OW14539   4.351   1.150   3.679  0.2375  0.2561  0.5874
 1027SOL    HW114540   4.353   1.245   3.665 -1.2493  0.3266  0.8242
 1027SOL    HW214541   4.410   1.124   3.608  0.6641  0.7737  0.7500
 1028SOL     OW14542   0.715   2.992   0.532 -0.1844  0.2278 -0.0085
 1028SOL    HW114543   0.688   3.035   0.614 -0.4215  1.9257 -0.9763
 1028SOL    HW214544   0.736   2.902   0.556 -1.2572 -0.6559 -2.3674
 1029SOL     OW14545   2.235   4.142   8.546  0.2939  0.2617  0.1509
 1029SOL    HW114546   2.187   4.200   8.486  0.0060  0.1622  0.2892
 1029SOL    HW214547   2.157   4.100   8.582  0.5719 -1.2196 -0.9777
 1030SOL     OW14548   1.318   0.121  13.948 -0.4034 -0.3872  0.0745
 1030SOL    HW114549   1.398   0.106  13.999 -0.4579  0.7897  0.5006
 1030SOL    HW214550   1.304   0.029  13.925 -0.8912 -0.1194 -0.6786
 1031SOL     OW14551   1.499   3.681   5.976 -0.1577  0.0756  0.3438
 1031SOL    HW114552   1.476   3.603   5.925  0.5729  0.2303 -0.2323
 1031SOL    HW214553   1.474   3.750   5.915  1.5420 -0.8667 -1.4235
 1032SOL     OW14554   1.822   1.017   0.220  0.0791  0.1654 -0.7600
 1032SOL    HW114555   1.755   1.077   0.253 -1.2699 -0.5280 -2.2216
 1032SOL    HW214556   1.795   1.003   0.129 -1.4595 -0.4458 -0.2139
 1033SOL     OW14557   2.473   4.483   6.094 -0.1137  0.3789 -0.4941
 1033SOL    HW114558   2.565   4.459   6.095  0.4397  2.5421  0.1905
 1033SOL    HW214559   2.426   4.407   6.127 -1.4797  1.5752  0.3188
 1034SOL     OW14560   1.373   1.475   6.255  0.2856 -0.2899  0.2552
 1034SOL    HW114561   1.416   1.504   6.335  2.1287 -0.5137 -0.6548
 1034SOL    HW214562   1.402   1.544   6.196  1.9965 -0.5563  0.8091
 1035SOL     OW14563   1.859   3.020   8.450  0.0999 -0.3594  0.3619
 1035SOL    HW114564   1.921   3.011   8.377 -1.4482  1.2310 -1.1756
 1035SOL    HW214565   1.910   3.057   8.522 -1.2228 -0.3242  1.2697
 1036SOL     OW14566   1.890   1.839   6.050 -0.1999 -1.0520 -0.2399
 1036SOL    HW114567   1.907   1.783   5.975 -2.6293 -0.2952 -1.3583
 1036SOL    HW214568   1.910   1.788   6.129  1.7425 -1.4033 -0.9738
 1037SOL     OW14569   0.320   0.399   7.605 -0.0389  0.1182  0.2682
 1037SOL    HW114570   0.233   0.368   7.581 -0.6168  0.9197  1.3558
 1037SOL    HW214571   0.321   0.469   7.540  1.4099  0.4189  0.6065
 1038SOL     OW14572   4.652   2.748   4.182  0.0615  0.2236  0.2222
 1038SOL    HW114573   4.608   2.757   4.266 -1.1663 -0.0116 -0.4067
 1038SOL    HW214574   0.012   2.790   4.204  0.2574 -0.8842  1.5445
 1039SOL     OW14575   3.811   1.294   2.790  0.4070  0.3804 -0.5581
 1039SOL    HW114576   3.903   1.277   2.767  0.5850 -0.2788  0.6506
 1039SOL    HW214577   3.809   1.381   2.751  0.1437  0.5215 -0.2262
 1040SOL     OW14578   0.121   2.341   5.183 -0.3227  0.4936  0.8512
 1040SOL    HW114579   0.032   2.326   5.153 -0.5601 -0.3710  1.9628
 1040SOL    HW214580   0.168   2.398   5.123 -2.7512  1.2878 -0.2695
 1041SOL     OW14581   4.534   0.010   5.869  0.0803  0.0526 -0.3217
 1041SOL    HW114582   4.539   4.638   5.868 -1.3535 -0.0330  0.5902
 1041SOL    HW214583   4.449   0.019   5.826  0.5485 -2.6057 -1.8116
 1042SOL     OW14584   3.784   3.433   3.462  0.6144 -0.2317  0.5184
 1042SOL    HW114585   3.791   3.465   3.372  1.1400  0.9377  0.9734
 1042SOL    HW214586   3.787   3.339   3.449  0.4672  0.0574 -1.6737
 1043SOL     OW14587   2.839   4.632   4.432  0.4409  0.2087  1.0507
 1043SOL    HW114588   2.875   4.669   4.512  0.5958 -0.5616  1.3363
 1043SOL    HW214589   2.838   4.711   4.378  0.6921  0.9103  2.0843
 1044SOL     OW14590   1.111   1.946   1.466  0.1723  0.5587  0.1990
 1044SOL    HW114591   1.115   1.916   1.557  2.4151 -0.4476 -0.2304
 1044SOL    HW214592   1.112   2.036   1.496 -2.0308  1.2799 -1.8945
 1045SOL     OW14593   1.351   3.428   0.219 -0.2895  0.4596  0.5741
 1045SOL    HW114594   1.446   3.417   0.217 -0.4579 -1.1538  1.2023
 1045SOL    HW214595   1.309   3.364   0.276  0.1903 -0.8648 -0.5566
 1046SOL     OW14596   4.412   2.297   3.227  0.5458 -0.9819 -0.1653
 1046SOL    HW114597   4.451   2.320   3.142  0.0544  0.4924  0.0173
 1046SOL    HW214598   4.320   2.290   3.200 -0.2980 -0.5421  2.5848
 1047SOL     OW14599   3.458   2.181  16.065 -0.4420 -0.3180  0.1408
 1047SOL    HW114600   3.434   2.260  16.113 -1.7734  0.1792 -1.3531
 1047SOL    HW214601   3.553   2.191  16.076 -0.7050  0.1776  1.8508
 1048SOL     OW14602   3.206   0.431   8.151 -0.2232  0.1283 -0.0452
 1048SOL    HW114603   3.252   0.427   8.235  2.1749  1.2129 -1.2874
 1048SOL    HW214604   3.160   0.515   8.158 -0.6150 -0.1252  0.3768
 1049SOL     OW14605   0.192   0.517   6.181  0.3357  0.4825 -0.0275
 1049SOL    HW114606   0.110   0.479   6.148  0.5830  0.8950 -1.1221
 1049SOL    HW214607   0.254   0.503   6.109 -1.4623 -1.1486 -1.2930
 1050SOL     OW14608   3.421   3.779   6.377 -0.8533 -0.6091  0.1237
 1050SOL    HW114609   3.354   3.809   6.438 -0.8231 -0.4480  0.0783
 1050SOL    HW214610   3.502   3.821   6.407 -0.8372 -1.4103  1.1909
 1051SOL     OW14611   3.180   2.962   3.202 -0.1881 -0.1404  0.2329
 1051SOL    HW114612   3.085   2.949   3.194 -0.5179 -0.1364  4.0196
 1051SOL    HW214613   3.184   3.056   3.183 -0.2957 -0.6194 -2.0532
 1052SOL     OW14614   4.426   4.697   5.149  0.4976 -0.7394 -0.5239
 1052SOL    HW114615   4.430   0.040   5.081  2.2824 -0.1129  0.1659
 1052SOL    HW214616   4.381   0.022   5.219 -0.9378 -1.7037 -0.7821
 1053SOL     OW14617   0.415   2.752   7.565  0.4294  0.7761  0.4931
 1053SOL    HW114618   0.335   2.785   7.605 -0.7736  0.7910 -1.9231
 1053SOL    HW214619   0.421   2.664   7.602 -0.5922 -0.0106 -1.1913
 1054SOL     OW14620   1.004   4.136   8.121  0.6521  0.5403 -0.1847
 1054SOL    HW114621   0.968   4.053   8.089 -0.0819  0.5399  0.6357
 1054SOL    HW214622   1.037   4.166   8.036  0.3330 -0.1760 -0.5649
 1055SOL     OW14623   3.172   1.669   4.629  0.4916 -0.6452  0.5301
 1055SOL    HW114624   3.260   1.633   4.640  0.0608 -1.6663  0.6533
 1055SOL    HW214625   3.129   1.676   4.714 -1.0682  2.2147 -0.5185
 1056SOL     OW14626   2.598   3.398  15.800 -0.1448 -0.0803  0.2366
 1056SOL    HW114627   2.620   3.306  15.786  1.1940  0.5774 -1.9494
 1056SOL    HW214628   2.504   3.391  15.782  0.4871 -3.5579 -1.6319
 1057SOL     OW14629   3.234   1.946  11.271  0.6065 -0.2176  0.0794
 1057SOL    HW114630   3.221   2.019  11.211 -3.2415 -0.5212  0.5310
 1057SOL    HW214631   3.277   1.991  11.343 -0.1033  0.8946 -0.1818
 1058SOL     OW14632   2.240   2.780   6.900 -0.0804  0.2886 -0.0401
 1058SOL    HW114633   2.287   2.738   6.971 -1.5286 -0.0965  0.6909
 1058SOL    HW214634   2.177   2.838   6.944  0.8312  2.1255 -1.1539
 1059SOL     OW14635   1.478   4.529   1.624  0.2431 -0.1797 -0.2906
 1059SOL    HW114636   1.529   4.509   1.702  0.9831 -1.3949 -1.0857
 1059SOL    HW214637   1.410   4.463   1.626 -0.4426  0.4902 -1.4270
 1060SOL     OW14638   2.466   4.171   2.578  0.5468 -0.3673  0.0358
 1060SOL    HW114639   2.403   4.130   2.638  0.1129 -2.1797 -1.6418
 1060SOL    HW214640   2.477   4.095   2.520 -0.1306 -1.6926  1.6467
 1061SOL     OW14641   4.470   1.974  14.692 -0.1322  0.3209 -0.3711
 1061SOL    HW114642   4.398   2.017  14.739 -0.7725 -1.8727  0.6725
 1061SOL    HW214643   4.463   1.891  14.740  1.3868  0.3240 -0.1572
 1062SOL     OW14644   2.597   0.541  15.784  0.5648  0.3879  0.4987
 1062SOL    HW114645   2.631   0.615  15.834 -0.0561  1.3442 -0.5189
 1062SOL    HW214646   2.621   0.478  15.853 -1.8113 -0.4362  0.5766
 1063SOL     OW14647   3.725   2.094  12.154 -0.3505  0.3958  0.0307
 1063SOL    HW114648   3.634   2.086  12.123 -1.2670  0.7261  2.5855
 1063SOL    HW214649   3.724   2.026  12.222 -2.4052 -0.0770 -0.4657
 1064SOL     OW14650   1.458   1.065   3.189  0.1000 -0.9824 -0.4179
 1064SOL    HW114651   1.420   1.074   3.101  1.4767 -0.2672 -0.9352
 1064SOL    HW214652   1.518   0.994   3.167  0.6953 -0.4466 -0.5489
 1065SOL     OW14653   4.644   0.356   4.786 -0.9488  0.5659 -0.3484
 1065SOL    HW114654   4.663   0.410   4.710 -0.4050 -0.9435 -1.2850
 1065SOL    HW214655   4.715   0.379   4.847 -0.2254  0.6867 -1.2444
 1066SOL     OW14656   1.518   1.513  11.283 -0.0315 -0.1555  0.1562
 1066SOL    HW114657   1.470   1.441  11.326  0.4075 -0.1008  0.7335
 1066SOL    HW214658   1.443   1.538  11.228  1.3279  2.0374 -0.6836
 1067SOL     OW14659   0.154   1.749  16.790  0.3267  0.4265 -0.0784
 1067SOL    HW114660   0.118   1.683  16.849 -1.4724  0.0203 -1.6671
 1067SOL    HW214661   0.166   1.821  16.853 -1.5501 -0.9437  1.8239
 1068SOL     OW14662   3.237   3.979  16.092  0.2061  0.1495 -0.0543
 1068SOL    HW114663   3.154   4.001  16.049 -0.1667  2.7316  1.9589
 1068SOL    HW214664   3.309   4.037  16.067 -0.5478  0.9603 -0.3367
 1069SOL     OW14665   2.856   3.194  16.898 -0.2096 -0.2810  0.2063
 1069SOL    HW114666   2.806   3.259  16.849  0.0107 -0.6158 -0.4706
 1069SOL    HW214667   2.926   3.255  16.925 -1.1777  1.0865 -0.3878
 1070SOL     OW14668   1.654   4.454   9.007  0.3887 -0.0316  0.4096
 1070SOL    HW114669   1.682   4.544   9.022 -1.4129  0.2649  2.0039
 1070SOL    HW214670   1.563   4.452   9.036  0.2436 -0.1537 -0.0574
 1071SOL     OW14671   4.039   1.324   4.462  0.2377 -0.0996 -0.6608
 1071SOL    HW114672   4.113   1.351   4.407 -1.3652  2.1026 -1.7088
 1071SOL    HW214673   4.085   1.274   4.530  0.2209  0.2298 -0.4029
 1072SOL     OW14674   4.701   0.062   6.549 -0.3317  0.2963 -0.4103
 1072SOL    HW114675   0.035   0.103   6.483 -0.9326  0.3621 -0.8869
 1072SOL    HW214676   4.680   0.142   6.596  2.5159  0.0273  1.3231
 1073SOL     OW14677   3.933   2.262   7.582  0.4749  0.3035 -0.2786
 1073SOL    HW114678   4.020   2.299   7.568  0.9644 -1.4487 -1.9231
 1073SOL    HW214679   3.898   2.334   7.635 -0.3759  0.4797 -1.0825
 1074SOL     OW14680   2.070   3.186   4.611 -0.5462  0.1617 -0.3539
 1074SOL    HW114681   2.039   3.200   4.522 -2.1542 -0.3116  0.1316
 1074SOL    HW214682   2.164   3.205   4.618 -0.4359 -0.1257 -1.1210
 1075SOL     OW14683   3.660   2.370   8.718  0.3073  0.0121  0.1304
 1075SOL    HW114684   3.619   2.364   8.804  2.1568 -0.0324  1.0107
 1075SOL    HW214685   3.722   2.298   8.732  1.2774  0.7366 -0.4780
 1076SOL     OW14686   2.691   2.309  14.896  0.2241  0.1432 -0.2487
 1076SOL    HW114687   2.746   2.387  14.905  1.0488 -0.1078 -3.0800
 1076SOL    HW214688   2.632   2.352  14.834 -0.8109  2.4898  2.4013
 1077SOL     OW14689   2.450   2.837  12.057 -0.3218  0.0613 -0.4151
 1077SOL    HW114690   2.356   2.852  12.050 -0.5733 -1.7112 -0.8613
 1077SOL    HW214691   2.445   2.745  12.083 -0.6402 -0.4502 -2.2979
 1078SOL     OW14692   0.754   1.928  10.880 -0.3073  0.1141  0.0290
 1078SOL    HW114693   0.731   1.955  10.791 -0.9939  0.7283  0.3909
 1078SOL    HW214694   0.810   1.995  10.918 -1.2593 -0.7584  2.9078
 1079SOL     OW14695   4.268   2.929   3.395  0.1714  0.4150  0.4348
 1079SOL    HW114696   4.297   2.992   3.328  0.2906 -1.2723 -1.1146
 1079SOL    HW214697   4.174   2.942   3.402  0.2091  1.0093 -0.1517
 1080SOL     OW14698   0.840   3.375  11.444 -0.9174  0.0238  0.6937
 1080SOL    HW114699   0.851   3.437  11.372  0.8240  0.6598  1.5013
 1080SOL    HW214700   0.825   3.431  11.520 -0.7452 -0.8855  1.3971
 1081SOL     OW14701   3.551   2.949   6.668  0.8049  0.0232 -0.4945
 1081SOL    HW114702   3.626   3.000   6.699  1.5583 -1.1672 -0.3415
 1081SOL    HW214703   3.533   2.978   6.579  0.5154 -0.0244 -0.4505
 1082SOL     OW14704   0.713   4.348   5.555 -0.4332 -0.5500  0.8606
 1082SOL    HW114705   0.642   4.405   5.527 -0.1696 -0.4695  0.3535
 1082SOL    HW214706   0.762   4.404   5.615  2.4394 -2.1296 -0.0049
 1083SOL     OW14707   0.986   3.820  13.042 -0.3092 -0.0793 -0.5907
 1083SOL    HW114708   1.039   3.899  13.041  1.0697 -0.9808  0.9885
 1083SOL    HW214709   0.923   3.855  13.104  0.3464  2.6822 -1.4847
 1084SOL     OW14710   2.979   0.996   4.576  0.2387 -0.4361  0.1347
 1084SOL    HW114711   3.041   0.983   4.504  1.3533  0.1576  0.9907
 1084SOL    HW214712   2.945   0.907   4.572 -2.1453  0.5039 -0.1091
 1085SOL     OW14713   1.128   2.805   4.865 -0.0817  0.0447 -0.2745
 1085SOL    HW114714   1.152   2.743   4.934 -2.4292  0.0201  0.5391
 1085SOL    HW214715   1.176   2.885   4.884 -2.1898  0.5091  3.1663
 1086SOL     OW14716   1.898   2.042   2.990  0.2095 -0.1551 -0.5224
 1086SOL    HW114717   1.827   2.073   3.046  0.8613  0.6606 -0.1311
 1086SOL    HW214718   1.975   2.030   3.046 -0.3248  1.0549  0.4606
 1087SOL     OW14719   2.191   0.442  15.572  0.0783  0.0578  0.2453
 1087SOL    HW114720   2.248   0.368  15.549  1.7031  0.6047  2.4969
 1087SOL    HW214721   2.106   0.399  15.567  1.2224 -2.3966  1.5689
 1088SOL     OW14722   2.893   4.036   9.743  0.1865 -0.1911 -0.0289
 1088SOL    HW114723   2.987   4.018   9.740  0.6310  1.8425  1.5191
 1088SOL    HW214724   2.878   4.009   9.834  0.8357 -2.9626 -0.7750
 1089SOL     OW14725   0.035   3.824   3.784  0.1540  0.3623  0.6777
 1089SOL    HW114726   0.053   3.814   3.690  0.6858 -0.6619  0.8905
 1089SOL    HW214727   4.719   3.912   3.784 -1.9491 -0.5614 -0.5823
 1090SOL     OW14728   0.858   4.604   6.355  0.0585 -0.5474  0.0665
 1090SOL    HW114729   0.848   4.509   6.355  1.1944 -0.6617  0.0450
 1090SOL    HW214730   0.874   4.624   6.447 -1.3969  0.4559  0.1013
 1091SOL     OW14731   1.011   3.591   0.988  0.6289 -0.4846 -0.1092
 1091SOL    HW114732   1.046   3.587   0.899 -1.9804 -0.5918 -1.1238
 1091SOL    HW214733   1.005   3.501   1.019 -0.1862 -0.6461 -0.7341
 1092SOL     OW14734   2.837   0.734   2.209 -0.6025  0.1450  0.0999
 1092SOL    HW114735   2.853   0.800   2.141  0.4901  0.2387  0.4522
 1092SOL    HW214736   2.762   0.765   2.259 -0.8665 -0.0904 -0.1520
 1093SOL     OW14737   4.485   0.199   1.638  0.1674  0.4235  0.3044
 1093SOL    HW114738   4.390   0.192   1.644  0.0082  1.3860 -0.9505
 1093SOL    HW214739   4.521   0.110   1.632  0.0115  0.3132  1.0450
 1094SOL     OW14740   2.021   2.704   4.536 -0.2603 -0.1390  0.2227
 1094SOL    HW114741   2.041   2.780   4.589  0.7881  0.1313 -0.5692
 1094SOL    HW214742   2.022   2.738   4.447 -0.8207 -0.9260 -0.0914
 1095SOL     OW14743   2.455   3.046   3.142 -0.3587  0.0446 -0.3480
 1095SOL    HW114744   2.464   3.087   3.228  0.2807  2.6478 -1.6848
 1095SOL    HW214745   2.395   3.101   3.092  1.3767  2.2138 -0.0056
 1096SOL     OW14746   1.459   1.439   5.714 -0.1321 -0.1709 -0.2565
 1096SOL    HW114747   1.401   1.453   5.788  1.1205  2.6001  0.2151
 1096SOL    HW214748   1.540   1.462   5.761 -0.5042  1.1694 -0.2784
 1097SOL     OW14749   2.000   0.773   7.110  0.4129 -0.1478 -0.7606
 1097SOL    HW114750   1.960   0.859   7.102 -0.1598 -0.3964 -0.5247
 1097SOL    HW214751   2.009   0.765   7.205  2.1511  3.1803 -0.6595
 1098SOL     OW14752   2.990   2.301   2.305 -0.9502 -0.1711  0.1053
 1098SOL    HW114753   2.936   2.380   2.312 -0.8753 -0.1350  0.2923
 1098SOL    HW214754   2.939   2.232   2.348 -1.3511  0.0340 -0.0435
 1099SOL     OW14755   2.988   1.334   5.538 -0.0702  0.4571 -0.3829
 1099SOL    HW114756   2.944   1.250   5.555  1.2881 -0.1862  0.0019
 1099SOL    HW214757   2.973   1.342   5.444  0.2243 -0.6776 -0.5261
 1100SOL     OW14758   0.547   3.235   4.778 -0.1204 -0.0381 -0.6178
 1100SOL    HW114759   0.577   3.156   4.821  2.6199  0.9746 -0.6905
 1100SOL    HW214760   0.528   3.297   4.848 -0.5476 -1.5902  0.6292
 1101SOL     OW14761   1.755   2.631   6.078 -0.5113  0.0879  0.0016
 1101SOL    HW114762   1.748   2.535   6.076 -0.4331  0.1363 -1.7929
 1101SOL    HW214763   1.746   2.647   5.985 -0.0532  1.0162  0.1218
 1102SOL     OW14764   3.045   3.957   7.942 -0.2331  0.0439  0.2738
 1102SOL    HW114765   3.050   3.944   8.036  1.3294  1.5105  0.4049
 1102SOL    HW214766   3.119   4.018   7.934  0.4125 -0.8810 -0.8884
 1103SOL     OW14767   1.768   2.188   2.724  0.1574  0.5301 -0.3999
 1103SOL    HW114768   1.703   2.129   2.764  0.7058 -1.1162 -1.9473
 1103SOL    HW214769   1.839   2.125   2.733  0.3640  0.7913 -0.2014
 1104SOL     OW14770   4.388   1.760  12.588  0.2352 -0.2302  0.3863
 1104SOL    HW114771   4.356   1.674  12.559  0.0048 -0.5979  1.7435
 1104SOL    HW214772   4.482   1.740  12.588  0.3259  0.2283  1.7455
 1105SOL     OW14773   4.068   4.390   2.088  0.1564  0.5098  0.2706
 1105SOL    HW114774   4.140   4.364   2.031 -1.0927 -0.1980 -0.9541
 1105SOL    HW214775   3.996   4.332   2.062 -0.3341  0.7996  0.9808
 1106SOL     OW14776   3.356   2.545   6.023 -0.8317 -0.3597 -0.3302
 1106SOL    HW114777   3.418   2.565   6.093 -1.0998  2.6478 -0.9554
 1106SOL    HW214778   3.273   2.523   6.067 -0.3030  1.5389  1.5924
 1107SOL     OW14779   2.208   1.135   0.877 -0.0660 -0.3085  0.0270
 1107SOL    HW114780   2.239   1.152   0.966  0.1370  2.3461 -0.5456
 1107SOL    HW214781   2.124   1.179   0.885 -0.5285 -0.7143 -2.5592
 1108SOL     OW14782   0.042   3.760   4.575 -0.6795 -0.6682 -0.4800
 1108SOL    HW114783   0.111   3.707   4.534 -0.8117 -1.5102  0.3871
 1108SOL    HW214784   4.693   3.717   4.530 -0.4628 -0.5367 -0.9455
 1109SOL     OW14785   0.982   2.127  10.881  0.1888  0.0554 -0.3086
 1109SOL    HW114786   1.051   2.129  10.948 -0.2012 -0.1784  0.1039
 1109SOL    HW214787   1.030   2.101  10.803  2.5292  0.7644  0.8740
 1110SOL     OW14788   3.944   3.209   8.348 -0.0530 -0.3271  0.3201
 1110SOL    HW114789   3.884   3.141   8.377 -1.4476  0.9603  0.4271
 1110SOL    HW214790   3.990   3.164   8.277  0.1432 -1.7547  1.3523
 1111SOL     OW14791   3.240   2.912  17.632  0.0416  0.1627 -0.5635
 1111SOL    HW114792   3.305   2.957  17.687  0.1194 -2.5685  1.6003
 1111SOL    HW214793   3.161   2.952  17.667  0.1216  0.9674 -1.3033
 1112SOL     OW14794   1.246   3.712  10.533  0.0945  0.2338  0.6079
 1112SOL    HW114795   1.223   3.665  10.452 -1.3666  1.3344  0.3808
 1112SOL    HW214796   1.244   3.656  10.611 -0.7229  0.5101  0.7870
 1113SOL     OW14797   2.560   2.476   5.629  0.3401  0.1583  0.5013
 1113SOL    HW114798   2.544   2.570   5.620  1.0536  0.2874  0.6217
 1113SOL    HW214799   2.535   2.445   5.542  0.0444  2.4424 -0.2138
 1114SOL     OW14800   0.975   1.790  12.140 -0.1903 -0.0223  0.1910
 1114SOL    HW114801   1.066   1.819  12.144 -0.3727  0.2814  1.8415
 1114SOL    HW214802   0.975   1.736  12.061 -0.6568  0.7771 -0.3576
 1115SOL     OW14803   0.048   0.297   8.699  0.2357  0.2823  0.5452
 1115SOL    HW114804   0.014   0.213   8.727  0.0137  0.1730 -0.0541
 1115SOL    HW214805   0.040   0.355   8.774  0.3605  1.0606 -0.0352
 1116SOL     OW14806   2.951   1.522  11.316 -0.2133 -0.2257 -0.0036
 1116SOL    HW114807   2.996   1.471  11.249 -1.3736 -1.5522  0.2207
 1116SOL    HW214808   2.996   1.605  11.308 -1.4801  0.2365 -2.2908
 1117SOL     OW14809   4.373   3.811   7.444  0.1635  0.3182 -0.2366
 1117SOL    HW114810   4.334   3.774   7.365 -1.5929  4.6659 -1.4532
 1117SOL    HW214811   4.292   3.855   7.469  0.3757  1.1555 -1.0199
 1118SOL     OW14812   4.233   1.487  12.547  0.1058 -0.6080  0.2536
 1118SOL    HW114813   4.172   1.558  12.529 -0.3695 -0.7803  1.1989
 1118SOL    HW214814   4.182   1.422  12.595 -1.7517 -0.3657 -1.3763
 1119SOL     OW14815   2.963   0.054   6.826 -0.1462 -0.2329 -0.3851
 1119SOL    HW114816   2.904   0.026   6.755 -1.1519  0.4246  0.1841
 1119SOL    HW214817   2.938   0.146   6.837 -1.5328 -0.8269  1.5559
 1120SOL     OW14818   4.241   4.265   6.740  0.1135 -0.6866 -0.4515
 1120SOL    HW114819   4.316   4.262   6.679 -0.1142 -0.7763 -0.7300
 1120SOL    HW214820   4.275   4.318   6.811 -2.0040 -0.9726  0.7613
 1121SOL     OW14821   2.445   1.331  15.093 -0.7670 -0.7966  0.2680
 1121SOL    HW114822   2.418   1.376  15.013 -0.0240 -0.2632  0.3146
 1121SOL    HW214823   2.509   1.263  15.070  0.3937  1.0818 -2.1305
 1122SOL     OW14824   4.200   1.646   6.484  0.0137 -0.2419  0.4014
 1122SOL    HW114825   4.175   1.631   6.575 -2.2409  2.8651  0.3025
 1122SOL    HW214826   4.282   1.692   6.499  0.5045 -1.3505  1.0952
 1123SOL     OW14827   2.751   2.834   5.425 -0.4678  0.1234  0.1081
 1123SOL    HW114828   2.742   2.841   5.330  1.2833  2.6990  0.1325
 1123SOL    HW214829   2.820   2.768   5.423  0.7155  1.3820 -0.7159
 1124SOL     OW14830   4.388   0.654   2.467 -1.0259  0.3471  0.3537
 1124SOL    HW114831   4.330   0.677   2.540 -2.5998  0.9125 -1.0720
 1124SOL    HW214832   4.370   0.728   2.410 -1.3310  0.3706  0.4756
 1125SOL     OW14833   2.423   0.922  15.198  0.0544  0.1421  0.2030
 1125SOL    HW114834   2.353   0.931  15.133 -0.6058 -0.6334  0.8045
 1125SOL    HW214835   2.372   0.943  15.277  0.3078  0.6269  0.2327
 1126SOL     OW14836   0.570   3.930   9.402  0.2582 -0.2127 -0.1291
 1126SOL    HW114837   0.663   3.928   9.379  1.0315  2.5389  2.7339
 1126SOL    HW214838   0.545   4.022   9.406  0.3010 -0.1093 -2.7424
 1127SOL     OW14839   3.600   1.545   6.402 -0.1597  0.3236  0.6886
 1127SOL    HW114840   3.545   1.607   6.353 -1.7505 -2.0786 -0.5733
 1127SOL    HW214841   3.657   1.609   6.444  3.3058 -1.6574 -0.9382
 1128SOL     OW14842   1.870   1.470   8.691  0.1250 -0.1993 -0.3017
 1128SOL    HW114843   1.807   1.488   8.761  0.6785  1.5447 -0.2511
 1128SOL    HW214844   1.914   1.397   8.734  1.5398  0.2682 -0.9674
 1129SOL     OW14845   1.830   2.068  14.012 -0.0311 -0.1790 -0.2213
 1129SOL    HW114846   1.905   2.121  13.986 -2.2308  1.9067 -2.2586
 1129SOL    HW214847   1.795   2.058  13.924  0.7825 -0.7797 -0.4631
 1130SOL     OW14848   0.148   2.345   7.134  0.7161 -0.2278 -0.1319
 1130SOL    HW114849   0.054   2.349   7.151  0.8613  0.6033  0.4755
 1130SOL    HW214850   0.153   2.250   7.146  0.1784 -0.5843 -2.7627
 1131SOL     OW14851   2.878   1.714   3.239  0.1459 -0.2227  0.0030
 1131SOL    HW114852   2.848   1.623   3.236  0.4222 -0.3446  0.8595
 1131SOL    HW214853   2.857   1.741   3.150 -1.7609 -1.0719  0.1918
 1132SOL     OW14854   0.103   2.391  11.388 -0.8526  0.1710  0.0921
 1132SOL    HW114855   0.181   2.438  11.357  0.5594 -3.0937 -1.2341
 1132SOL    HW214856   0.145   2.308  11.410 -0.0780 -0.3159 -3.2917
 1133SOL     OW14857   3.483   2.389   8.075 -0.0063  0.0957  0.4663
 1133SOL    HW114858   3.572   2.356   8.070  0.0437  0.4591 -0.9303
 1133SOL    HW214859   3.440   2.307   8.102 -1.2973  0.0009 -1.8355
 1134SOL     OW14860   1.336   2.867  12.795 -0.0701  0.5238 -0.6870
 1134SOL    HW114861   1.370   2.917  12.721 -0.4022 -0.7143 -1.6762
 1134SOL    HW214862   1.414   2.839  12.842 -1.5361 -1.3152  0.6698
 1135SOL     OW14863   2.323   2.425   5.750 -0.2418 -0.6961  0.2590
 1135SOL    HW114864   2.408   2.443   5.710  0.1914  0.7802  1.8783
 1135SOL    HW214865   2.280   2.497   5.704 -1.4204  0.7445  3.6020
 1136SOL     OW14866   0.078   0.661   3.717 -0.0290 -0.0736  0.5640
 1136SOL    HW114867   0.079   0.755   3.696 -0.0494 -0.7101 -2.2133
 1136SOL    HW214868   0.171   0.662   3.741  0.1338 -1.5522 -0.0420
 1137SOL     OW14869   3.759   3.199   7.684 -0.1776 -0.0173  0.0807
 1137SOL    HW114870   3.801   3.196   7.599  0.6040 -1.6840  0.5327
 1137SOL    HW214871   3.769   3.293   7.701 -1.1667  0.1431 -0.1984
 1138SOL     OW14872   2.574   2.763   5.214  0.0388  0.0699  0.2126
 1138SOL    HW114873   2.541   2.763   5.124  1.0869  0.7202 -0.1829
 1138SOL    HW214874   2.496   2.745   5.265 -0.3286  3.5034  0.8488
 1139SOL     OW14875   2.134   0.013  16.811  0.5555  0.0948 -1.3283
 1139SOL    HW114876   2.161   4.648  16.833  1.5092  1.2472  2.0310
 1139SOL    HW214877   2.106   0.011  16.719  0.9540  2.0141 -1.4935
 1140SOL     OW14878   3.868   3.365   6.627  0.2734  0.6403  0.1376
 1140SOL    HW114879   3.924   3.427   6.673  0.0154  0.4890  0.6636
 1140SOL    HW214880   3.802   3.372   6.696  0.5604  2.5535  0.1967
 1141SOL     OW14881   2.419   2.230   0.675 -0.3249 -0.1303  0.1446
 1141SOL    HW114882   2.410   2.232   0.580  0.4652 -2.2438  0.0279
 1141SOL    HW214883   2.328   2.206   0.694  0.5439 -3.0071  0.5219
 1142SOL     OW14884   3.217   2.258  12.376  0.3399  0.1341  0.5818
 1142SOL    HW114885   3.219   2.207  12.296  0.9657  2.6066 -0.9934
 1142SOL    HW214886   3.151   2.215  12.431  1.6690 -1.1109  1.1780
 1143SOL     OW14887   3.090   2.387   3.510  0.4079  0.7393 -0.1322
 1143SOL    HW114888   3.007   2.420   3.473  0.4490  0.0510 -0.8341
 1143SOL    HW214889   3.071   2.295   3.526  0.9599  0.7347  0.4839
 1144SOL     OW14890   3.979   3.306   4.790  0.2874 -0.0532 -0.5058
 1144SOL    HW114891   4.046   3.360   4.748  0.0062 -0.8409 -1.9496
 1144SOL    HW214892   4.017   3.291   4.877  0.2171  1.1722 -0.2624
 1145SOL     OW14893   1.671   0.064  12.899  0.0441 -0.2261 -0.0899
 1145SOL    HW114894   1.634   0.135  12.952 -0.1636  1.1030 -2.0184
 1145SOL    HW214895   1.618   0.076  12.820 -0.1470  2.5608  0.4525
 1146SOL     OW14896   2.948   1.162   3.820 -0.0316 -0.0679  0.1495
 1146SOL    HW114897   2.971   1.252   3.797  1.5250  0.3164  3.1276
 1146SOL    HW214898   3.034   1.123   3.835 -0.0127 -0.1807 -0.2617
 1147SOL     OW14899   3.809   1.140   3.025  0.6410  0.4579  0.3385
 1147SOL    HW114900   3.802   1.214   2.965 -4.3236 -0.4811 -0.2022
 1147SOL    HW214901   3.716   1.123   3.040  0.4081 -0.1946 -1.9058
 1148SOL     OW14902   1.042   3.332   9.081 -0.7981  0.2619 -0.5400
 1148SOL    HW114903   0.963   3.302   9.125  0.9235  0.7122  2.8123
 1148SOL    HW214904   1.106   3.324   9.152  1.2084  0.4353 -2.3033
 1149SOL     OW14905   0.050   0.919   5.036 -0.5633  0.0286  0.0600
 1149SOL    HW114906   0.105   0.994   5.012  2.0059 -2.1329 -0.6791
 1149SOL    HW214907   0.036   0.888   4.947 -4.0268  3.8567 -0.7205
 1150SOL     OW14908   2.330   4.253   3.237  0.3129 -0.3011 -0.4987
 1150SOL    HW114909   2.260   4.190   3.225 -0.3818  0.7686 -1.9186
 1150SOL    HW214910   2.378   4.200   3.302  1.0987  2.9946  1.6306
 1151SOL     OW14911   1.668   0.783   2.081  0.5671 -0.3791 -0.0675
 1151SOL    HW114912   1.730   0.732   2.133  0.2051  0.4710  1.1830
 1151SOL    HW214913   1.667   0.873   2.115  1.3398  0.2044 -1.5709
 1152SOL     OW14914   1.755   2.479   0.934  0.0164 -0.4558 -0.0965
 1152SOL    HW114915   1.674   2.457   0.980 -0.9298  0.9893 -1.0636
 1152SOL    HW214916   1.741   2.418   0.862  0.2511  0.2031 -0.7050
 1153SOL     OW14917   2.280   3.014   5.281  0.4478 -0.3980  0.5848
 1153SOL    HW114918   2.310   3.096   5.320 -3.4112  0.3156  2.0564
 1153SOL    HW214919   2.234   2.975   5.356  0.2644 -2.3006 -0.5046
 1154SOL     OW14920   3.389   2.618  17.493 -0.3915 -0.2581  0.4178
 1154SOL    HW114921   3.423   2.528  17.488  1.3812  0.4928 -1.1895
 1154SOL    HW214922   3.322   2.625  17.560 -0.0892  1.7992  0.5029
 1155SOL     OW14923   4.236   4.260   8.423 -0.1078 -0.1636  0.3350
 1155SOL    HW114924   4.230   4.239   8.517 -0.3908 -0.5766  0.2277
 1155SOL    HW214925   4.142   4.265   8.405 -0.6113 -2.4682  2.2812
 1156SOL     OW14926   0.508   0.234   2.044  0.0674  0.8126 -0.6527
 1156SOL    HW114927   0.544   0.299   1.985  1.7435 -0.8639 -1.4759
 1156SOL    HW214928   0.567   0.158   2.046 -1.7223 -0.5790  0.0006
 1157SOL     OW14929   2.981   4.463  12.202  0.2098  0.1030  0.4271
 1157SOL    HW114930   2.928   4.529  12.246  0.3694 -0.0430  0.8368
 1157SOL    HW214931   3.008   4.414  12.279  0.2024 -0.0338  0.3447
 1158SOL     OW14932   4.465   2.061   9.965 -0.0817 -0.3102 -0.2084
 1158SOL    HW114933   4.468   2.052  10.060  0.4343  0.8708 -0.1126
 1158SOL    HW214934   4.527   1.989   9.952  0.1544  0.1102 -1.3847
 1159SOL     OW14935   2.745   1.615  15.334 -0.0284 -0.6006 -0.3117
 1159SOL    HW114936   2.829   1.634  15.293  0.5806 -1.4625  0.5310
 1159SOL    HW214937   2.714   1.702  15.360  0.0222 -0.7374  0.2062
 1160SOL     OW14938   0.793   1.994   9.494  0.1490 -0.1736  0.0342
 1160SOL    HW114939   0.888   1.984   9.486  0.3652 -0.1824  2.5766
 1160SOL    HW214940   0.766   1.912   9.535 -1.7304  0.8481  0.8228
 1161SOL     OW14941   2.024   1.299  16.658  0.0336  0.8036  0.1683
 1161SOL    HW114942   2.052   1.389  16.644  2.0767 -0.2172 -2.4055
 1161SOL    HW214943   2.065   1.293  16.744 -0.8708 -2.9253  0.3353
 1162SOL     OW14944   2.942   0.381   7.484 -0.2131  0.5031 -0.1655
 1162SOL    HW114945   3.016   0.333   7.447 -0.1966 -0.6366  1.3670
 1162SOL    HW214946   2.873   0.317   7.467  2.0757 -1.5578 -1.7270
 1163SOL     OW14947   0.946   2.753   5.212 -0.1332 -0.1329 -0.1780
 1163SOL    HW114948   0.873   2.772   5.153 -0.4312 -1.0254 -0.0947
 1163SOL    HW214949   1.003   2.710   5.148 -0.4053 -0.3439 -0.2756
 1164SOL     OW14950   2.033   4.222  10.143  0.3289 -0.1328 -0.5104
 1164SOL    HW114951   2.014   4.174  10.062 -0.1445 -1.4477  0.3832
 1164SOL    HW214952   2.020   4.314  10.120 -0.6616 -0.6915 -2.1739
 1165SOL     OW14953   0.279   1.433   8.010 -0.4983  0.1814 -0.2422
 1165SOL    HW114954   0.241   1.357   7.965  0.3526 -0.3838 -0.0087
 1165SOL    HW214955   0.316   1.387   8.085 -0.1852 -1.6007 -1.4672
 1166SOL     OW14956   4.055   3.707   3.403  0.2029 -0.1451  0.0288
 1166SOL    HW114957   4.138   3.754   3.398  0.3267 -0.0894  2.9045
 1166SOL    HW214958   4.064   3.656   3.322 -1.7876 -0.5376  0.0605
 1167SOL     OW14959   0.449   1.141   8.565  0.1104 -0.2928 -0.2005
 1167SOL    HW114960   0.506   1.203   8.611 -0.1379 -0.2997  0.1196
 1167SOL    HW214961   0.508   1.065   8.565 -0.8590 -1.0442 -0.0472
 1168SOL     OW14962   0.620   1.752   2.613 -0.0860 -0.1909  0.1409
 1168SOL    HW114963   0.650   1.842   2.628 -1.5240  0.7298 -2.5365
 1168SOL    HW214964   0.534   1.773   2.577 -0.4768 -1.0198  0.5898
 1169SOL     OW14965   3.659   0.223   2.641  0.1295 -0.0822 -0.6834
 1169SOL    HW114966   3.625   0.299   2.688 -2.2917 -0.2501 -2.1596
 1169SOL    HW214967   3.631   0.147   2.691  0.1317  0.0234 -0.5234
 1170SOL     OW14968   2.101   3.363  15.948 -0.2016 -0.0478 -0.3827
 1170SOL    HW114969   2.078   3.279  15.989  1.3160 -1.5112 -2.4793
 1170SOL    HW214970   2.033   3.370  15.881 -0.5149  0.1289 -0.0458
 1171SOL     OW14971   4.302   0.038   5.434 -0.1369  0.2044 -0.9278
 1171SOL    HW114972   4.243   0.099   5.479  0.1117 -0.7574  0.7040
 1171SOL    HW214973   4.379   0.088   5.461  0.4270 -0.7426 -0.8242
 1172SOL     OW14974   4.150   0.902   8.639  0.3764  0.3295 -0.1273
 1172SOL    HW114975   4.115   0.842   8.705 -1.0243  1.6963  0.3831
 1172SOL    HW214976   4.187   0.977   8.685 -1.4491  0.6069  0.8664
 1173SOL     OW14977   1.107   2.556   2.544  0.0578  0.5879 -0.3310
 1173SOL    HW114978   1.097   2.466   2.512 -0.4788  0.1866  0.9681
 1173SOL    HW214979   1.016   2.581   2.563 -0.0620  0.9317 -1.3910
 1174SOL     OW14980   0.938   0.705   3.035  0.1086  0.4777 -0.4800
 1174SOL    HW114981   0.947   0.788   2.989  0.7673  0.8427  0.2990
 1174SOL    HW214982   1.014   0.706   3.093 -0.2511 -3.8539  0.0450
 1175SOL     OW14983   4.601   4.193   8.715  0.1665  0.1268 -0.4457
 1175SOL    HW114984   4.581   4.230   8.629 -0.9346  1.0804  0.2260
 1175SOL    HW214985   4.671   4.255   8.737  0.6034 -1.4546  2.6259
 1176SOL     OW14986   1.066   1.061   9.422 -0.1802 -0.2839  0.3249
 1176SOL    HW114987   1.124   1.122   9.468  0.2894 -0.1111 -0.4979
 1176SOL    HW214988   1.104   1.050   9.334 -2.1422 -0.5370 -0.4778
 1177SOL     OW14989   0.024   4.690   4.808 -0.2419 -0.1877  0.2643
 1177SOL    HW114990   0.048   4.720   4.896  0.7547  2.9531 -1.0617
 1177SOL    HW214991   4.656   4.717   4.795 -0.8607 -1.5719  1.6418
 1178SOL     OW14992   3.188   2.844   7.960  0.3041 -0.1033 -0.0124
 1178SOL    HW114993   3.226   2.864   8.045 -0.9397 -0.5656  0.6637
 1178SOL    HW214994   3.265   2.804   7.920 -0.1352  0.5402 -1.5120
 1179SOL     OW14995   1.379   3.123  16.416  0.2887  0.7189 -0.0318
 1179SOL    HW114996   1.406   3.033  16.398 -0.4685  0.3916  0.4908
 1179SOL    HW214997   1.358   3.116  16.509  1.5106  3.4260  0.4560
 1180SOL     OW14998   2.154   1.335   7.878  0.1147 -0.5371 -0.0928
 1180SOL    HW114999   2.166   1.429   7.884  2.1681 -1.0031  3.1712
 1180SOL    HW215000   2.059   1.332   7.873  0.0429 -1.1434  1.4504
 1181SOL     OW15001   2.924   0.778   3.637 -0.0291 -0.0251 -0.6062
 1181SOL    HW115002   2.960   0.859   3.600  1.5372 -0.6267 -0.3761
 1181SOL    HW215003   2.965   0.770   3.723 -0.7759  1.4031 -0.1151
 1182SOL     OW15004   2.051   1.661   4.940  0.0021 -0.2268 -0.6515
 1182SOL    HW115005   1.956   1.653   4.950  0.0530 -0.6973 -0.5292
 1182SOL    HW215006   2.054   1.736   4.881  2.7736  0.5240  0.4357
 1183SOL     OW15007   3.746   1.858  11.889  0.0118  0.0775  0.0798
 1183SOL    HW115008   3.758   1.771  11.928 -1.4069 -0.7345 -1.2933
 1183SOL    HW215009   3.724   1.915  11.962 -1.1149  1.2983 -1.2349
 1184SOL     OW15010   3.331   2.966  17.080  0.0288 -0.1732  0.3262
 1184SOL    HW115011   3.408   2.974  17.137 -1.9718  0.4861  2.9756
 1184SOL    HW215012   3.380   2.963  16.998 -1.8705 -0.1606 -0.8127
 1185SOL     OW15013   2.034   1.410  14.793 -0.3396  0.4372  0.2543
 1185SOL    HW115014   2.053   1.395  14.701 -0.8732 -2.1863  0.5649
 1185SOL    HW215015   1.974   1.482  14.772 -1.0956 -1.5254 -4.3068
 1186SOL     OW15016   2.353   4.310  11.542  0.1812  0.2904  0.2113
 1186SOL    HW115017   2.307   4.277  11.465 -1.1139  0.3856  0.9588
 1186SOL    HW215018   2.391   4.392  11.512  0.3601  0.5486  1.1286
 1187SOL     OW15019   1.552   3.796   1.164 -0.4742 -0.3043 -0.3645
 1187SOL    HW115020   1.634   3.823   1.124 -0.5839  1.1873  0.4217
 1187SOL    HW215021   1.510   3.882   1.174  0.1082 -0.0364 -0.2348
 1188SOL     OW15022   1.411   1.590   2.970 -0.0316 -0.7003 -0.7492
 1188SOL    HW115023   1.416   1.682   2.944 -1.0250 -0.6863 -0.9024
 1188SOL    HW215024   1.381   1.605   3.060 -1.6539 -2.4419 -1.0113
 1189SOL     OW15025   2.941   2.669   0.470 -0.0507 -0.2502  0.5748
 1189SOL    HW115026   2.922   2.633   0.557 -1.9163  1.5374  0.8945
 1189SOL    HW215027   2.986   2.597   0.427 -2.5441 -1.2196 -0.4200
 1190SOL     OW15028   4.595   3.381  17.568 -0.3315  0.6424  0.3075
 1190SOL    HW115029   4.622   3.346  17.483 -0.0149  1.7146 -0.0390
 1190SOL    HW215030   4.643   3.464  17.567 -1.1371  1.1121  0.6830
 1191SOL     OW15031   2.676   1.476  10.725  0.2707  0.2727 -0.7429
 1191SOL    HW115032   2.585   1.497  10.704 -0.8367 -0.7590  2.9395
 1191SOL    HW215033   2.657   1.484  10.819  0.8178  2.4524 -0.8153
 1192SOL     OW15034   0.224   3.227   3.962 -0.6175 -0.0631 -0.6423
 1192SOL    HW115035   0.232   3.170   3.886  2.1271 -1.6672  0.8679
 1192SOL    HW215036   0.167   3.167   4.010 -0.4739  0.1820 -0.1577
 1193SOL     OW15037   2.074   3.193   3.211  0.0453  1.2628  0.4686
 1193SOL    HW115038   2.160   3.206   3.169 -0.6233  0.7602 -1.0501
 1193SOL    HW215039   2.085   3.136   3.287  1.2142 -0.3998 -0.9448
 1194SOL     OW15040   0.719   3.654   1.142  0.4791 -0.0029  0.2150
 1194SOL    HW115041   0.775   3.665   1.066  0.2218  0.0545  0.0343
 1194SOL    HW215042   0.632   3.646   1.102  0.8094 -0.9402 -0.3059
 1195SOL     OW15043   1.275   4.577   9.699 -0.0702  0.3394 -0.1110
 1195SOL    HW115044   1.248   4.572   9.791  1.5526 -0.7593  0.3059
 1195SOL    HW215045   1.252   4.493   9.661 -0.3347 -0.2426  1.3290
 1196SOL     OW15046   1.568   0.071   6.983 -0.5526 -0.2234 -0.7901
 1196SOL    HW115047   1.569   0.124   7.063  0.1439  0.7994 -1.4652
 1196SOL    HW215048   1.498   0.012   7.009 -1.3540  0.5068 -1.2925
 1197SOL     OW15049   0.813   4.124  12.130  0.2635 -0.6673  0.2119
 1197SOL    HW115050   0.733   4.177  12.124  0.4565 -0.4925 -0.7258
 1197SOL    HW215051   0.867   4.127  12.052  1.6523  0.7837  1.2355
 1198SOL     OW15052   4.516   4.643   4.424  0.2279 -0.0350 -0.1478
 1198SOL    HW115053   4.526   0.008   4.459  0.2687 -0.1184  0.0459
 1198SOL    HW215054   4.584   4.601   4.476 -0.4992 -1.5054 -0.3875
 1199SOL     OW15055   4.233   2.022   8.657  0.3936 -0.3258  0.1867
 1199SOL    HW115056   4.276   1.950   8.610 -1.0365 -0.9301 -0.1903
 1199SOL    HW215057   4.302   2.049   8.718  1.5236 -0.6347 -0.9406
 1200SOL     OW15058   3.134   3.297   4.448 -0.8784 -0.4138  0.3230
 1200SOL    HW115059   3.133   3.279   4.354 -2.4338 -0.2205  0.2947
 1200SOL    HW215060   3.225   3.275   4.469 -1.4611 -1.9213  1.2623
 1201SOL     OW15061   0.556   1.274   5.334 -0.2517  0.0623  0.4484
 1201SOL    HW115062   0.484   1.291   5.272 -0.2725 -0.7224  0.2548
 1201SOL    HW215063   0.627   1.304   5.277  0.3087  0.7019  1.4944
 1202SOL     OW15064   4.675   4.231   1.607  1.1327  0.3188 -0.6040
 1202SOL    HW115065   0.044   4.222   1.584  1.2787  0.2278  0.0159
 1202SOL    HW215066   4.640   4.168   1.544 -0.3196  2.9973 -2.4723
 1203SOL     OW15067   0.816   1.173  10.854 -0.4174  0.0340 -0.2676
 1203SOL    HW115068   0.724   1.195  10.836 -0.3118 -0.0438 -0.8835
 1203SOL    HW215069   0.839   1.154  10.763  0.0556  1.0047 -0.3509
 1204SOL     OW15070   2.062   0.219   9.954 -0.0151 -0.4173  0.3690
 1204SOL    HW115071   2.020   0.133   9.960 -0.2892 -0.2746  0.4956
 1204SOL    HW215072   1.984   0.272   9.938  1.0601  1.4192  1.3638
 1205SOL     OW15073   4.092   3.070  17.064 -1.0333  0.1386  0.2442
 1205SOL    HW115074   4.087   3.011  17.139 -1.3551  0.7795  0.7255
 1205SOL    HW215075   4.182   3.052  17.035 -1.2447 -0.2480 -0.1604
 1206SOL     OW15076   0.484   2.364   0.693 -0.3538  0.5522 -0.2842
 1206SOL    HW115077   0.505   2.270   0.693 -0.9736  0.4117  0.0176
 1206SOL    HW215078   0.478   2.369   0.788  1.4611 -1.4504 -0.0437
 1207SOL     OW15079   3.677   2.544   2.766 -0.5229 -0.0413 -0.4684
 1207SOL    HW115080   3.627   2.463   2.778  0.1559 -0.4032 -0.0675
 1207SOL    HW215081   3.744   2.511   2.827  1.3730  0.4133 -2.3411
 1208SOL     OW15082   3.802   4.468   5.691  0.0364 -0.4153 -0.3011
 1208SOL    HW115083   3.784   4.405   5.761 -0.6476 -1.4638 -1.4268
 1208SOL    HW215084   3.821   4.550   5.737 -1.2055 -0.3184  0.0436
 1209SOL     OW15085   3.335   4.000  13.962  0.0033  0.1392 -0.3413
 1209SOL    HW115086   3.326   3.969  14.052 -0.8295  0.5308 -0.2938
 1209SOL    HW215087   3.415   3.954  13.935  0.2195  1.3159 -1.7644
 1210SOL     OW15088   2.014   0.237   6.796 -0.2137  0.2035 -0.0307
 1210SOL    HW115089   2.107   0.252   6.814  0.1136 -1.0009 -0.6645
 1210SOL    HW215090   1.986   0.253   6.886 -0.7337 -0.4094 -0.0823
 1211SOL     OW15091   1.524   3.772  10.678 -0.4601 -0.1455 -0.0396
 1211SOL    HW115092   1.577   3.698  10.707 -1.4617 -1.4886 -1.6230
 1211SOL    HW215093   1.441   3.731  10.703  0.3286 -0.6215  1.8008
 1212SOL     OW15094   0.971   1.409   7.245 -0.9372 -0.2256 -0.4465
 1212SOL    HW115095   0.959   1.464   7.323  0.5150 -0.4601 -0.0513
 1212SOL    HW215096   0.880   1.421   7.219 -1.0135  0.3776  0.1004
 1213SOL     OW15097   1.954   2.689   5.289 -0.3737 -0.5618 -0.1663
 1213SOL    HW115098   2.007   2.769   5.293  0.4623 -1.2717  2.6054
 1213SOL    HW215099   1.951   2.670   5.195  0.8406 -1.5059 -0.0261
 1214SOL     OW15100   0.946   3.238   1.955  0.3171 -0.2375  0.0643
 1214SOL    HW115101   1.028   3.215   1.999  0.9166  0.9421 -0.4357
 1214SOL    HW215102   0.971   3.326   1.928 -1.1712  1.1034  3.0477
 1215SOL     OW15103   4.238   0.703   1.103 -0.4923  0.3306 -0.1733
 1215SOL    HW115104   4.180   0.747   1.042  1.9898 -1.6449 -3.9624
 1215SOL    HW215105   4.325   0.732   1.077  0.5040 -0.3534  2.3911
 1216SOL     OW15106   3.051   1.493   3.064 -0.3292  0.4682  0.0410
 1216SOL    HW115107   3.131   1.465   3.021 -0.3344 -2.4546  1.9536
 1216SOL    HW215108   3.083   1.558   3.128 -0.5139  1.1979 -0.6044
 1217SOL     OW15109   4.555   2.837  10.557  0.4149  0.1485  0.0191
 1217SOL    HW115110   4.487   2.904  10.546  0.4092  0.2553  0.6993
 1217SOL    HW215111   4.617   2.866  10.489  2.3632  0.8234  2.0992
 1218SOL     OW15112   0.438   1.408   2.339 -0.2203 -0.5056  0.0379
 1218SOL    HW115113   0.404   1.472   2.277  1.5433  1.2006  0.8531
 1218SOL    HW215114   0.370   1.413   2.407  0.2559  0.2335  0.4538
 1219SOL     OW15115   2.429   2.715   2.226  0.6627  0.2484 -0.9837
 1219SOL    HW115116   2.475   2.647   2.177  3.6293  1.1889  0.4478
 1219SOL    HW215117   2.434   2.683   2.316 -2.1349 -2.1187 -1.6525
 1220SOL     OW15118   0.384   2.998  11.387  0.2587 -0.0564  0.3524
 1220SOL    HW115119   0.337   3.078  11.364  1.4056  0.5533  0.1449
 1220SOL    HW215120   0.390   2.998  11.483 -0.1085  0.3602  0.3752
 1221SOL     OW15121   2.776   0.817  14.850 -0.3188  0.3717 -0.2893
 1221SOL    HW115122   2.768   0.797  14.757 -0.0819 -0.7625 -0.0656
 1221SOL    HW215123   2.821   0.736  14.876  1.0362  0.9059 -1.0144
 1222SOL     OW15124   3.900   2.429  12.547  0.1942  0.0077 -0.4203
 1222SOL    HW115125   3.810   2.412  12.575  0.3188  0.6998  0.3869
 1222SOL    HW215126   3.916   2.337  12.529  0.3299 -0.4853  2.2823
 1223SOL     OW15127   2.126   4.369   6.869 -0.3914  0.9573  0.4670
 1223SOL    HW115128   2.155   4.369   6.960 -0.6227 -0.8874  0.5500
 1223SOL    HW215129   2.057   4.303   6.865  0.1300  0.4236  0.1512
 1224SOL     OW15130   2.064   0.669  12.252 -0.4116  0.1023 -0.3152
 1224SOL    HW115131   2.092   0.759  12.270  1.0876 -0.0789 -1.6647
 1224SOL    HW215132   2.013   0.682  12.172 -4.2240  3.5647  2.7213
 1225SOL     OW15133   0.880   0.521   9.383 -0.0562  0.7119 -0.5431
 1225SOL    HW115134   0.884   0.427   9.363  3.9173  1.1579 -1.6879
 1225SOL    HW215135   0.923   0.565   9.310  0.3082 -1.0882 -1.4219
 1226SOL     OW15136   1.597   2.183   3.548  0.1190  0.1551  0.1009
 1226SOL    HW115137   1.537   2.249   3.514 -0.0262 -0.0472 -0.0354
 1226SOL    HW215138   1.679   2.205   3.503 -0.0884 -0.6439 -0.6778
 1227SOL     OW15139   2.977   1.551  17.523 -0.1227  0.1642 -0.2317
 1227SOL    HW115140   2.957   1.591  17.607  0.6447 -2.0233  0.9802
 1227SOL    HW215141   2.902   1.585  17.474  0.4175 -1.6186 -2.3127
 1228SOL     OW15142   1.202   4.398   7.417 -0.5338  0.1661 -0.0444
 1228SOL    HW115143   1.258   4.334   7.373 -1.8056 -2.6355  2.3356
 1228SOL    HW215144   1.234   4.480   7.382  0.3751 -0.4994 -0.7530
 1229SOL     OW15145   1.352   0.809   5.474 -0.0666  0.6016  0.5737
 1229SOL    HW115146   1.354   0.786   5.567  2.1078 -3.2031 -0.4248
 1229SOL    HW215147   1.259   0.796   5.453  0.5210 -1.4251 -0.7238
 1230SOL     OW15148   0.706   3.612  12.040 -0.1326  0.3607  0.2997
 1230SOL    HW115149   0.634   3.589  11.981 -0.8936 -0.0268  1.3718
 1230SOL    HW215150   0.663   3.677  12.095 -0.4193  0.7897 -0.4333
 1231SOL     OW15151   0.983   3.025   9.795  0.5854 -0.0287  0.3060
 1231SOL    HW115152   0.927   3.097   9.824 -0.1570 -0.6393  0.3788
 1231SOL    HW215153   1.046   3.074   9.742  1.7066 -2.1599 -0.3596
 1232SOL     OW15154   1.332   0.178  13.389 -0.3039 -0.0789 -0.0555
 1232SOL    HW115155   1.271   0.211  13.323  0.2093  1.6471  0.3282
 1232SOL    HW215156   1.276   0.124  13.444 -0.2574 -0.4541 -0.3752
 1233SOL     OW15157   0.253   2.550   7.301  0.4780  0.7146  0.0878
 1233SOL    HW115158   0.220   2.535   7.390 -2.4114  0.2866 -1.0349
 1233SOL    HW215159   0.191   2.500   7.248 -0.3105  1.4213  0.3409
 1234SOL     OW15160   3.548   0.449  12.516  0.1032 -0.2785  0.6067
 1234SOL    HW115161   3.525   0.418  12.428 -1.1181 -2.1977  1.5821
 1234SOL    HW215162   3.580   0.368  12.556 -1.3723 -1.7423 -1.1781
 1235SOL     OW15163   0.117   3.734   5.106  0.6678 -0.2299  1.1218
 1235SOL    HW115164   0.078   3.809   5.063  0.2993 -1.4594 -0.6776
 1235SOL    HW215165   0.079   3.652   5.075 -1.6639  0.9343  0.9858
 1236SOL     OW15166   3.271   4.715   5.851  0.0776  0.0559 -0.1107
 1236SOL    HW115167   3.348   4.693   5.799  0.2183 -1.8496  0.9074
 1236SOL    HW215168   3.315   0.015   5.932 -2.4396 -0.1120  1.3052
 1237SOL     OW15169   2.323   3.386  15.770  0.2410  0.1867 -0.8176
 1237SOL    HW115170   2.253   3.387  15.836  0.1077 -0.5642 -0.9510
 1237SOL    HW215171   2.281   3.337  15.700 -4.0572  3.1238 -0.2843
 1238SOL     OW15172   2.009   3.418   2.420  0.2189  0.5133 -0.2270
 1238SOL    HW115173   2.053   3.481   2.363 -1.7625 -1.1714 -3.6016
 1238SOL    HW215174   1.999   3.472   2.499 -3.2974  1.1415 -1.1511
 1239SOL     OW15175   3.503   4.625   4.592 -0.0237  0.4792  0.0366
 1239SOL    HW115176   3.574   4.610   4.529 -2.2613 -2.8835 -1.6658
 1239SOL    HW215177   3.553   4.632   4.673 -1.0940 -2.1406  0.8883
 1240SOL     OW15178   1.613   4.175  10.107 -0.0188 -0.3128  0.2264
 1240SOL    HW115179   1.658   4.256  10.133 -1.2714  0.5220 -0.1994
 1240SOL    HW215180   1.670   4.152  10.033 -1.5828 -1.1507 -0.7276
 1241SOL     OW15181   4.182   2.089   2.656 -0.4473 -0.0107  0.4699
 1241SOL    HW115182   4.204   2.109   2.747  0.6154  0.1262  0.1845
 1241SOL    HW215183   4.118   2.153   2.625 -0.8012 -1.3999 -1.6030
 1242SOL     OW15184   4.401   1.781  11.487  0.0348 -0.4027  0.6285
 1242SOL    HW115185   4.367   1.842  11.422  0.6065 -0.1088  0.6065
 1242SOL    HW215186   4.339   1.708  11.475 -1.6343  1.3048 -1.2398
 1243SOL     OW15187   1.430   2.105   0.072  0.1814  0.1637 -0.2336
 1243SOL    HW115188   1.351   2.080   0.025  0.8108 -1.7433 -0.2459
 1243SOL    HW215189   1.425   2.201   0.076 -0.1902  0.1586 -0.6211
 1244SOL     OW15190   1.846   3.135   5.413 -0.2502 -0.2845 -0.2002
 1244SOL    HW115191   1.841   3.231   5.413 -0.2075 -0.2865  0.5689
 1244SOL    HW215192   1.763   3.103   5.448  0.0509  0.0461  0.8244
 1245SOL     OW15193   0.851   3.494   3.871  0.3214  0.2829  0.1855
 1245SOL    HW115194   0.943   3.483   3.897  0.3170 -2.2287 -0.8547
 1245SOL    HW215195   0.854   3.513   3.777 -3.2521 -1.3586 -0.2387
 1246SOL     OW15196   2.523   3.053  10.227  0.3818  0.3951  0.2196
 1246SOL    HW115197   2.466   3.103  10.169  1.1518  0.6831 -0.3024
 1246SOL    HW215198   2.458   3.001  10.274  0.1454  0.8159  0.3546
 1247SOL     OW15199   0.886   3.027   0.842 -0.2437 -0.4710  0.1577
 1247SOL    HW115200   0.904   2.935   0.822 -1.2098 -0.9959  1.7265
 1247SOL    HW215201   0.931   3.028   0.926 -1.7907 -1.0525  0.9760
 1248SOL     OW15202   3.657   0.408   0.791 -0.9082 -0.1871 -0.3294
 1248SOL    HW115203   3.586   0.472   0.802  0.3255  0.8372  1.7457
 1248SOL    HW215204   3.684   0.433   0.702  0.1600  0.0851  0.0700
 1249SOL     OW15205   0.422   0.173   3.636 -0.6875  0.1539  0.3853
 1249SOL    HW115206   0.380   0.151   3.553 -1.8331  0.6211  0.8413
 1249SOL    HW215207   0.357   0.238   3.663  0.5925  1.7746 -0.4497
 1250SOL     OW15208   1.572   1.630   8.810 -0.1595 -0.0272  0.0099
 1250SOL    HW115209   1.540   1.571   8.742 -0.7628  0.4260 -0.0992
 1250SOL    HW215210   1.552   1.719   8.783 -1.5535 -1.0232 -2.2322
 1251SOL     OW15211   3.227   4.545   3.386  0.3105 -0.1006  0.0005
 1251SOL    HW115212   3.136   4.562   3.409 -0.0055  0.6485 -1.7610
 1251SOL    HW215213   3.270   4.615   3.435  2.1859 -2.0411  1.0896
 1252SOL     OW15214   2.937   1.208  15.015  0.2557  0.4852  0.6344
 1252SOL    HW115215   2.955   1.205  15.109 -1.4637 -0.6756  0.9204
 1252SOL    HW215216   2.911   1.298  14.994 -4.3954 -0.6816  1.4612
 1253SOL     OW15217   0.480   4.706   2.309  0.0856 -0.4480 -0.5159
 1253SOL    HW115218   0.537   0.007   2.237  1.4623  1.4305  1.1985
 1253SOL    HW215219   0.534   4.676   2.382 -0.6692 -0.8587 -0.1188
 1254SOL     OW15220   4.247   2.396  12.135 -0.0350  0.1568  0.1575
 1254SOL    HW115221   4.226   2.397  12.228 -2.0452  0.2958 -0.2949
 1254SOL    HW215222   4.317   2.331  12.135  0.4765  0.6897  2.6882
 1255SOL     OW15223   4.707   0.394   7.745  0.0818  0.5490 -0.0508
 1255SOL    HW115224   4.652   0.323   7.779  1.2479 -1.4177 -2.2574
 1255SOL    HW215225   0.041   0.353   7.680 -1.0256 -0.4000 -0.4348
 1256SOL     OW15226   2.309   1.859   9.169 -0.6447  0.5646 -0.8153
 1256SOL    HW115227   2.319   1.763   9.165 -0.5115  0.6136 -1.7733
 1256SOL    HW215228   2.237   1.869   9.230 -1.2247 -0.0785 -1.3889
 1257SOL     OW15229   4.121   1.062   7.123 -0.2475  0.1328 -0.1286
 1257SOL    HW115230   4.052   1.014   7.169  0.9508 -1.6912 -0.2453
 1257SOL    HW215231   4.124   1.131   7.188 -0.3424 -0.2426  0.2771
 1258SOL     OW15232   0.765   1.278  14.356 -0.0138 -0.0748 -0.1236
 1258SOL    HW115233   0.824   1.352  14.369 -0.3883  0.1991 -0.0122
 1258SOL    HW215234   0.780   1.232  14.438  1.9152 -2.6970 -1.9359
 1259SOL     OW15235   1.119   2.632   3.904 -0.4474 -0.1746  0.0050
 1259SOL    HW115236   1.120   2.607   3.812  1.6690  0.1164 -0.0383
 1259SOL    HW215237   1.210   2.661   3.914 -0.9506  1.3241  0.2316
 1260SOL     OW15238   1.405   3.307   5.150 -0.3707 -0.4459 -0.6061
 1260SOL    HW115239   1.326   3.274   5.108 -0.7484  0.1864 -0.3904
 1260SOL    HW215240   1.480   3.292   5.092  0.0304  0.3390 -0.2907
 1261SOL     OW15241   0.231   1.686   7.155 -0.1807  0.6711  0.3765
 1261SOL    HW115242   0.326   1.685   7.140 -0.4665 -1.1700 -1.3425
 1261SOL    HW215243   0.233   1.771   7.199 -0.3213  1.5861 -1.3728
 1262SOL     OW15244   3.410   3.080  11.676 -0.2914  0.2837  0.1147
 1262SOL    HW115245   3.451   3.156  11.636 -0.2262 -0.5636 -1.4582
 1262SOL    HW215246   3.319   3.109  11.669 -0.4092 -0.1127 -0.0328
 1263SOL     OW15247   0.536   4.540  11.008 -0.1451 -0.3419  0.0393
 1263SOL    HW115248   0.553   4.467  11.068 -2.0321 -0.4749  0.4173
 1263SOL    HW215249   0.608   4.524  10.948  0.2959  1.7477  0.0103
 1264SOL     OW15250   1.270   3.304   0.461 -0.2635  0.5014 -0.4670
 1264SOL    HW115251   1.284   3.215   0.493 -1.5287  0.1807 -0.8055
 1264SOL    HW215252   1.339   3.351   0.508  0.1988 -0.9322  0.3046
 1265SOL     OW15253   2.599   2.795   0.622 -0.5615  0.1780  0.3204
 1265SOL    HW115254   2.509   2.783   0.594 -0.4776 -0.2995  0.2565
 1265SOL    HW215255   2.570   2.857   0.690 -0.1984 -0.5561  1.1465
 1266SOL     OW15256   1.941   2.917   5.756 -0.2038 -0.1931 -0.1772
 1266SOL    HW115257   1.964   2.845   5.814  0.7865 -1.4093 -2.1065
 1266SOL    HW215258   1.908   2.980   5.820 -1.1514 -2.2698  1.3738
 1267SOL     OW15259   3.532   1.292  10.023 -0.3968  0.3461 -0.2994
 1267SOL    HW115260   3.440   1.268  10.011  0.1423 -2.3299  0.7880
 1267SOL    HW215261   3.556   1.332   9.940 -0.5637 -2.3005 -1.6434
 1268SOL     OW15262   0.677   3.721  10.150 -0.1877 -0.2372 -0.5020
 1268SOL    HW115263   0.758   3.698  10.195  0.9091  1.0095 -1.8362
 1268SOL    HW215264   0.632   3.759  10.225 -0.3007 -1.4695  0.0389
 1269SOL     OW15265   4.321   4.177   7.392  0.3657  0.0240  0.1339
 1269SOL    HW115266   4.245   4.229   7.420  0.8393  1.0234 -0.4290
 1269SOL    HW215267   4.287   4.157   7.305  0.8976  0.8169 -0.2529
 1270SOL     OW15268   3.628   4.114   6.902 -0.4904 -0.7342  0.0306
 1270SOL    HW115269   3.536   4.137   6.903 -0.5872 -1.0694 -1.0233
 1270SOL    HW215270   3.638   4.077   6.814 -1.6385 -0.4434 -0.2140
 1271SOL     OW15271   2.995   1.833   6.432  0.0390 -0.0621  0.4096
 1271SOL    HW115272   3.053   1.775   6.381  0.1295  0.5119 -0.1386
 1271SOL    HW215273   2.983   1.783   6.513 -1.2202  0.1390  0.3347
 1272SOL     OW15274   3.609   0.933   4.816 -0.2650  0.1698  0.1356
 1272SOL    HW115275   3.665   0.871   4.770  1.2853  2.9149 -1.6229
 1272SOL    HW215276   3.612   0.883   4.898  1.6161  0.4808  0.2536
 1273SOL     OW15277   0.868   3.902   8.937  0.1173  0.4242 -0.1803
 1273SOL    HW115278   0.814   3.837   8.891  1.5870 -0.6517 -0.3823
 1273SOL    HW215279   0.869   3.859   9.023  2.9248 -0.9671 -0.9269
 1274SOL     OW15280   3.833   0.943   2.474 -0.3044 -0.1325  0.2805
 1274SOL    HW115281   3.924   0.916   2.462  0.5234  2.4772  0.7495
 1274SOL    HW215282   3.820   0.958   2.568  2.8558  0.2863  0.6280
 1275SOL     OW15283   4.171   1.873   8.964 -0.0197  0.0969  0.1126
 1275SOL    HW115284   4.259   1.845   8.990  0.6474  1.1170 -1.0565
 1275SOL    HW215285   4.118   1.798   8.993 -2.1064  1.6924  0.4181
 1276SOL     OW15286   2.968   4.158  13.769  0.6507  0.2872 -0.0293
 1276SOL    HW115287   2.896   4.117  13.817  0.4853  1.3468  0.6273
 1276SOL    HW215288   2.969   4.235  13.826 -0.1230  1.0676 -1.0900
 1277SOL     OW15289   1.901   2.683   8.452 -0.1802 -0.1731  0.1320
 1277SOL    HW115290   1.891   2.606   8.396  1.4640  0.6199 -1.2561
 1277SOL    HW215291   1.950   2.742   8.395 -0.1704 -0.3526 -0.0489
 1278SOL     OW15292   1.707   0.296   0.434 -0.1315  0.1020 -0.2697
 1278SOL    HW115293   1.758   0.216   0.447  0.7737  1.0427  2.0695
 1278SOL    HW215294   1.629   0.250   0.467  0.7724  0.2307  2.0629
 1279SOL     OW15295   1.847   1.177   5.905 -0.2432 -0.1585 -0.2746
 1279SOL    HW115296   1.928   1.138   5.938 -0.6077  0.5321  1.4231
 1279SOL    HW215297   1.854   1.140   5.817  0.6464 -0.4098 -0.1016
 1280SOL     OW15298   2.083   2.044  16.010 -0.3573 -0.3636  0.2047
 1280SOL    HW115299   2.079   1.957  16.049  1.3330  1.1837  3.7811
 1280SOL    HW215300   2.143   2.094  16.066  0.4727 -0.7091 -0.3785
 1281SOL     OW15301   3.969   2.116   3.992 -0.0447 -0.3838  0.2010
 1281SOL    HW115302   3.879   2.098   3.966 -1.0154  0.2982  3.0483
 1281SOL    HW215303   4.014   2.038   3.960 -0.2140 -0.3630 -0.0858
 1282SOL     OW15304   2.077   0.588   1.464  0.0247 -0.9137 -0.0230
 1282SOL    HW115305   2.008   0.604   1.399 -0.5569  0.7547  0.9967
 1282SOL    HW215306   2.056   0.498   1.489 -2.2447 -0.0512  1.1646
 1283SOL     OW15307   3.856   0.088   6.800  0.2118 -0.3713 -0.0972
 1283SOL    HW115308   3.857   0.134   6.883  2.4263 -0.0526 -0.3167
 1283SOL    HW215309   3.924   0.025   6.822  1.3897  1.0495  0.3232
 1284SOL     OW15310   1.226   2.999   7.556  0.0900 -0.3565  0.2265
 1284SOL    HW115311   1.249   2.953   7.637  1.7799  2.9631  1.6078
 1284SOL    HW215312   1.153   3.055   7.580  0.9357  0.1437  1.6241
 1285SOL     OW15313   3.892   0.934   8.513  0.0991 -0.1895  0.0575
 1285SOL    HW115314   3.981   0.899   8.525  0.0597 -0.2759  0.1020
 1285SOL    HW215315   3.906   1.028   8.525 -1.1770 -0.1786  1.3342
 1286SOL     OW15316   4.152   3.298   3.222  0.8424  0.0336 -0.1164
 1286SOL    HW115317   4.106   3.242   3.159 -2.7340  2.4975  0.3115
 1286SOL    HW215318   4.237   3.255   3.219  1.5801  1.4122  1.4098
 1287SOL     OW15319   3.871   2.505  10.275 -0.3785 -0.2701 -0.4169
 1287SOL    HW115320   3.829   2.541  10.197 -1.1657 -1.2902 -0.4651
 1287SOL    HW215321   3.871   2.588  10.322  1.5583 -1.2753  1.3286
 1288SOL     OW15322   4.269   4.069   8.105 -0.4672 -0.0589 -0.8720
 1288SOL    HW115323   4.324   4.133   8.059  1.3544 -1.2993 -0.4073
 1288SOL    HW215324   4.333   3.999   8.112  0.5820  1.1401  1.3545
 1289SOL     OW15325   3.578   3.714  16.102 -0.1902 -0.0772 -1.1320
 1289SOL    HW115326   3.584   3.761  16.185 -0.6804  0.3093 -1.3087
 1289SOL    HW215327   3.591   3.624  16.132  1.9492  1.1438  1.5228
 1290SOL     OW15328   2.061   1.151  11.714  0.1371 -0.1286 -0.7039
 1290SOL    HW115329   2.115   1.157  11.635  1.4644  0.2472  0.2453
 1290SOL    HW215330   2.032   1.241  11.726  1.9655  0.2012  1.1846
 1291SOL     OW15331   4.422   1.413   1.737 -0.2012  0.0251 -0.3222
 1291SOL    HW115332   4.376   1.483   1.693  1.6959  2.2273  1.1885
 1291SOL    HW215333   4.349   1.352   1.751 -2.3168  2.1708 -2.0764
 1292SOL     OW15334   1.284   0.650  14.823 -0.1725  0.0236 -0.3492
 1292SOL    HW115335   1.229   0.621  14.896 -0.9655 -1.4363 -1.5118
 1292SOL    HW215336   1.240   0.731  14.800  0.5916  0.5978  0.2386
 1293SOL     OW15337   0.535   1.621  14.460  0.4005 -0.1287 -0.0758
 1293SOL    HW115338   0.466   1.576  14.509 -1.6367  1.0025 -1.9185
 1293SOL    HW215339   0.569   1.663  14.539 -0.9218  1.1962 -0.2147
 1294SOL     OW15340   2.632   0.835  12.860  0.3383 -0.4959  0.4132
 1294SOL    HW115341   2.537   0.838  12.858  0.3242 -1.8863 -0.9277
 1294SOL    HW215342   2.669   0.799  12.779 -0.2558 -1.3650  0.5268
 1295SOL     OW15343   2.192   1.416   3.407 -0.0439 -0.6889  0.0941
 1295SOL    HW115344   2.118   1.359   3.389  0.4390 -0.9808 -0.9482
 1295SOL    HW215345   2.264   1.395   3.348  0.8144  3.0461 -0.2095
 1296SOL     OW15346   1.252   0.748   4.510 -0.4132  0.6868  0.3772
 1296SOL    HW115347   1.213   0.821   4.558  0.3844  0.0060  2.0927
 1296SOL    HW215348   1.319   0.727   4.576  1.4605  1.2678 -1.3438
 1297SOL     OW15349   0.637   4.602   3.427 -0.0833 -0.2182  0.6362
 1297SOL    HW115350   0.673   4.686   3.400 -0.4667 -0.7111 -1.4261
 1297SOL    HW215351   0.700   4.560   3.484 -2.0573  0.8533  3.6132
 1298SOL     OW15352   0.080   3.062   3.598 -0.3450  0.8262  0.5764
 1298SOL    HW115353   0.097   3.133   3.536  1.1507 -1.5553 -1.7423
 1298SOL    HW215354   4.709   3.072   3.587 -0.7698 -2.4457  1.2483
 1299SOL     OW15355   1.844   0.637   6.504  0.0678 -0.4760 -0.2780
 1299SOL    HW115356   1.753   0.608   6.503 -0.6179  1.7060 -1.5364
 1299SOL    HW215357   1.880   0.554   6.535  2.8642  0.6461 -0.4718
 1300SOL     OW15358   2.299   1.249   2.829  0.0897 -0.1524 -0.1138
 1300SOL    HW115359   2.288   1.156   2.850  0.3521 -0.4188 -1.1377
 1300SOL    HW215360   2.391   1.256   2.804  0.0361 -0.8012 -0.4852
 1301SOL     OW15361   1.159   1.765  14.524  0.0846  0.1749  0.8450
 1301SOL    HW115362   1.092   1.698  14.537 -0.9484  1.1006  0.3066
 1301SOL    HW215363   1.237   1.710  14.518  0.3397  0.4260  1.7031
 1302SOL     OW15364   1.099   3.771  10.890 -0.5428 -0.0634 -0.3557
 1302SOL    HW115365   1.184   3.755  10.850  0.7436  0.0174  2.3290
 1302SOL    HW215366   1.045   3.704  10.850 -2.0613  0.7884  0.2570
 1303SOL     OW15367   0.316   0.157   3.090 -0.0435  0.0025 -0.3464
 1303SOL    HW115368   0.307   0.247   3.122 -0.0045 -0.0784 -0.1092
 1303SOL    HW215369   0.407   0.129   3.099  0.1127 -0.3282 -3.1314
 1304SOL     OW15370   1.009   2.914   2.262 -0.0267 -1.1191  0.3659
 1304SOL    HW115371   0.928   2.947   2.223  0.7257  1.3944  0.9359
 1304SOL    HW215372   1.046   2.897   2.176 -3.3142  1.1004 -1.5015
 1305SOL     OW15373   4.084   1.952   4.321 -0.6713  0.2448 -0.2516
 1305SOL    HW115374   4.153   2.010   4.354 -0.3410 -0.1508 -0.2468
 1305SOL    HW215375   4.143   1.880   4.298  2.2808  2.5060  0.2548
 1306SOL     OW15376   4.563   2.202   4.468  0.0200 -0.5018 -0.0502
 1306SOL    HW115377   4.652   2.230   4.446  0.5421 -0.7831  1.6590
 1306SOL    HW215378   4.518   2.277   4.430 -0.5191  0.9438  3.4597
 1307SOL     OW15379   2.404   4.362   8.300  0.5669  0.3614  0.7051
 1307SOL    HW115380   2.418   4.430   8.366 -3.9263  0.2697  1.7631
 1307SOL    HW215381   2.312   4.338   8.311  0.2283  0.9138 -0.9631
 1308SOL     OW15382   3.950   0.226   9.175  0.4630  0.0830  0.3208
 1308SOL    HW115383   3.874   0.260   9.220  1.1103 -1.6105  2.6856
 1308SOL    HW215384   3.970   0.303   9.122 -2.9490 -0.7047 -2.1132
 1309SOL     OW15385   1.999   1.764   7.853  0.0024 -0.2230 -0.2779
 1309SOL    HW115386   1.967   1.820   7.923  1.8021  2.6547 -1.7541
 1309SOL    HW215387   2.044   1.695   7.902 -1.3121 -0.2518  0.8726
 1310SOL     OW15388   3.364   4.712   3.007 -0.2790  0.4366  0.0586
 1310SOL    HW115389   3.278   0.001   3.047 -2.1685  0.2868 -3.9320
 1310SOL    HW215390   3.349   4.630   2.960  0.2432 -0.0260  0.7045
 1311SOL     OW15391   2.469   1.215   3.239 -0.2735 -0.4769  0.4961
 1311SOL    HW115392   2.547   1.226   3.184  0.1221  0.7678  1.3122
 1311SOL    HW215393   2.402   1.221   3.171  0.7590  1.6692 -0.3238
 1312SOL     OW15394   2.859   0.504   8.371  0.5224  0.2848  0.3974
 1312SOL    HW115395   2.901   0.469   8.450  0.7619  0.7576  0.4849
 1312SOL    HW215396   2.934   0.553   8.336 -0.2878  1.1203 -0.1459
 1313SOL     OW15397   3.460   3.503   7.163  0.9371  0.1934 -0.5998
 1313SOL    HW115398   3.396   3.540   7.102  0.1880  0.3365  0.2643
 1313SOL    HW215399   3.529   3.568   7.174 -0.9730  1.9666  0.7463
 1314SOL     OW15400   3.845   4.439   5.437 -0.0262 -0.2029  0.6259
 1314SOL    HW115401   3.818   4.530   5.423 -1.7597 -0.7045  0.7105
 1314SOL    HW215402   3.831   4.443   5.532 -0.0212  0.9335  0.5729
 1315SOL     OW15403   4.496   0.648   9.193  0.0167  0.1838 -0.4451
 1315SOL    HW115404   4.532   0.735   9.175  0.9981 -0.1747 -0.2429
 1315SOL    HW215405   4.577   0.598   9.190 -0.8540 -1.1800 -0.8507
 1316SOL     OW15406   3.856   0.667   9.108 -0.6297  0.5857  0.3651
 1316SOL    HW115407   3.831   0.721   9.182 -1.0335 -3.0270  2.8699
 1316SOL    HW215408   3.809   0.706   9.034 -0.8860  0.5335  0.5002
 1317SOL     OW15409   0.827   2.842   8.042  0.2484 -0.0816 -0.3377
 1317SOL    HW115410   0.737   2.872   8.029  1.1951  3.5047  1.3710
 1317SOL    HW215411   0.810   2.775   8.109  2.4111  1.4384  1.7425
 1318SOL     OW15412   0.517   2.312  12.587  0.3249 -0.1666  0.0098
 1318SOL    HW115413   0.495   2.228  12.547 -1.9822  1.2325 -1.6663
 1318SOL    HW215414   0.574   2.348  12.519 -0.8076  1.9717  0.1812
 1319SOL     OW15415   0.458   1.881   1.926  0.3349  0.0759 -0.3458
 1319SOL    HW115416   0.423   1.814   1.866 -0.1044 -0.0972  0.0996
 1319SOL    HW215417   0.546   1.845   1.938  0.5441 -0.1203 -2.5153
 1320SOL     OW15418   0.936   0.040   7.433 -0.5799  0.6944 -0.0709
 1320SOL    HW115419   1.014   0.053   7.486 -0.0108 -0.1071 -0.7143
 1320SOL    HW215420   0.924   0.130   7.401  1.6799  1.2095  0.5135
 1321SOL     OW15421   3.568   2.173   2.064 -0.1945 -0.1408 -0.4055
 1321SOL    HW115422   3.616   2.156   1.983  0.4555 -0.5259  0.0575
 1321SOL    HW215423   3.631   2.221   2.118 -1.7261  1.0839  0.2885
 1322SOL     OW15424   3.095   2.359  12.032  0.4140 -0.5613 -0.2807
 1322SOL    HW115425   3.027   2.366  11.964 -0.6213 -1.0577  0.6959
 1322SOL    HW215426   3.124   2.275  11.996  0.9489 -0.8204  0.7561
 1323SOL     OW15427   0.688   2.922  10.266 -0.1095  0.0228  0.0550
 1323SOL    HW115428   0.751   2.988  10.238  2.4458 -1.5923  2.0167
 1323SOL    HW215429   0.672   2.877  10.183  1.3798  0.2365 -0.3525
 1324SOL     OW15430   4.197   3.443  13.483 -0.8508  0.1049 -0.3899
 1324SOL    HW115431   4.236   3.394  13.555 -0.9733  0.7796  0.1337
 1324SOL    HW215432   4.271   3.500  13.465 -1.2271  0.6227 -0.2904
 1325SOL     OW15433   0.958   0.531   2.727 -0.0979 -0.2152 -0.0899
 1325SOL    HW115434   0.919   0.504   2.810  0.2316 -0.4164 -0.0043
 1325SOL    HW215435   0.884   0.556   2.670 -0.6335  0.3040  0.8291
 1326SOL     OW15436   2.333   3.528  14.989 -0.0907 -0.2644  0.5107
 1326SOL    HW115437   2.371   3.556  15.073  0.6031 -1.7682  0.7100
 1326SOL    HW215438   2.406   3.489  14.941 -1.9457 -0.8370 -1.8376
 1327SOL     OW15439   0.290   0.092   6.613 -0.5031 -0.3180  0.6222
 1327SOL    HW115440   0.260   0.100   6.523  0.7634 -0.4586  0.1857
 1327SOL    HW215441   0.323   0.177   6.643 -2.8335  1.0556 -0.7209
 1328SOL     OW15442   1.836   0.594   8.378 -0.9450 -0.6791 -0.2550
 1328SOL    HW115443   1.752   0.566   8.413  1.1737 -3.5956  2.5139
 1328SOL    HW215444   1.811   0.686   8.378  1.0936 -0.1288  0.0737
 1329SOL     OW15445   1.214   0.264  12.641  0.2624  0.0941  0.0908
 1329SOL    HW115446   1.166   0.289  12.720  0.8923 -2.0859  1.1611
 1329SOL    HW215447   1.237   0.172  12.652  1.5557  0.5214  1.0705
 1330SOL     OW15448   1.062   3.915   4.977  0.0951  0.4354  0.0474
 1330SOL    HW115449   0.980   3.870   4.957  0.5993  0.7553 -2.7413
 1330SOL    HW215450   1.028   3.981   5.037  1.5777 -1.0380  2.5163
 1331SOL     OW15451   0.687   1.839   3.847 -0.2772 -0.2818  0.5293
 1331SOL    HW115452   0.759   1.897   3.874  0.3996 -0.7232 -0.3242
 1331SOL    HW215453   0.714   1.747   3.845  0.9869  0.0924  0.2060
 1332SOL     OW15454   0.753   1.765   5.055  0.0013 -0.7068 -0.1500
 1332SOL    HW115455   0.667   1.734   5.082  0.9393 -0.2653  3.3796
 1332SOL    HW215456   0.754   1.752   4.960  2.2030 -1.1824 -0.0567
 1333SOL     OW15457   4.129   2.865   8.926  0.2596 -0.0158  0.5067
 1333SOL    HW115458   4.182   2.918   8.986  1.5608 -0.4260 -0.2688
 1333SOL    HW215459   4.101   2.789   8.976 -0.7934 -0.0821 -0.1879
 1334SOL     OW15460   1.576   2.062   7.818  0.0517  0.5376 -0.3839
 1334SOL    HW115461   1.666   2.070   7.784  0.2872 -2.4210 -0.4658
 1334SOL    HW215462   1.559   1.972   7.792 -1.2019  0.0115  2.2921
 1335SOL     OW15463   1.814   2.229  12.504  0.5583 -0.4698 -0.3042
 1335SOL    HW115464   1.884   2.168  12.481  0.4727 -1.1894  1.3537
 1335SOL    HW215465   1.838   2.309  12.457 -0.4331  1.7481  2.9864
 1336SOL     OW15466   0.420   1.647   6.677  0.0768  0.1980  0.1833
 1336SOL    HW115467   0.416   1.683   6.588  1.1421  3.2299  1.3804
 1336SOL    HW215468   0.327   1.648   6.702 -0.3315 -0.4204 -1.2522
 1337SOL     OW15469   1.055   3.421   5.641  0.0779 -0.8648 -0.2713
 1337SOL    HW115470   1.005   3.482   5.586  0.4154  1.6995  2.2849
 1337SOL    HW215471   0.985   3.356   5.651 -2.6923  2.6264  2.8482
 1338SOL     OW15472   4.253   0.918   3.795 -0.0011 -0.4381 -0.4646
 1338SOL    HW115473   4.318   0.860   3.755 -1.5617 -1.3003 -1.7422
 1338SOL    HW215474   4.272   1.004   3.759 -1.8427  0.5395  0.9122
 1339SOL     OW15475   0.884   2.675   4.875  0.0813 -0.1313  0.2547
 1339SOL    HW115476   0.962   2.731   4.879  0.9370 -1.3809  1.6530
 1339SOL    HW215477   0.932   2.592   4.867 -0.5492 -0.5494  0.8086
 1340SOL     OW15478   1.726   0.043  12.402  0.4410  0.4612  0.5323
 1340SOL    HW115479   1.808   0.007  12.437 -0.8593 -3.0296  0.0207
 1340SOL    HW215480   1.752   0.068  12.314 -0.3415  0.5453  0.3318
 1341SOL     OW15481   4.077   0.175  10.035  0.1013  0.2306 -0.1063
 1341SOL    HW115482   3.989   0.156  10.066  0.6543  1.0793  2.0179
 1341SOL    HW215483   4.066   0.203   9.944 -0.3226  0.6975  0.0887
 1342SOL     OW15484   0.597   1.019   8.190 -1.1385  0.2766 -0.1667
 1342SOL    HW115485   0.591   1.057   8.102  0.7441 -0.7605 -0.7558
 1342SOL    HW215486   0.556   0.937   8.165 -2.8868  0.9438  0.5121
 1343SOL     OW15487   0.540   3.834   3.937  0.5030  0.4765  0.4784
 1343SOL    HW115488   0.543   3.919   3.981  1.8331  0.3464  0.6371
 1343SOL    HW215489   0.493   3.859   3.857  0.1843 -1.6739 -0.0035
 1344SOL     OW15490   1.466   3.224   1.822  0.1078 -0.0374 -0.6786
 1344SOL    HW115491   1.471   3.194   1.731  0.8346 -1.6549 -0.0859
 1344SOL    HW215492   1.450   3.146   1.874 -0.6794 -0.1387 -1.0733
 1345SOL     OW15493   0.105   1.364  15.028  0.6048  0.2590  0.2273
 1345SOL    HW115494   0.028   1.411  14.995  0.6157 -0.3004 -0.6017
 1345SOL    HW215495   0.081   1.352  15.120 -0.7782 -1.3724 -0.3410
 1346SOL     OW15496   0.672   3.845   8.177 -0.0941 -0.4495 -0.0051
 1346SOL    HW115497   0.586   3.823   8.214 -0.7584 -0.7848 -1.7847
 1346SOL    HW215498   0.699   3.762   8.139 -1.8988 -0.5753 -0.9989
 1347SOL     OW15499   0.331   2.038   8.544 -0.0139  0.4281 -0.0319
 1347SOL    HW115500   0.260   2.088   8.583  0.3046  0.6905  0.2147
 1347SOL    HW215501   0.376   1.994   8.617  1.3741 -0.9558 -1.6915
 1348SOL     OW15502   3.554   2.738  10.277  0.2445  0.8713 -0.1096
 1348SOL    HW115503   3.509   2.702  10.200  1.9097 -0.1735 -0.6017
 1348SOL    HW215504   3.520   2.827  10.281 -2.1420 -0.1443  2.7921
 1349SOL     OW15505   4.682   2.694   7.156 -0.2124  0.1311  0.2753
 1349SOL    HW115506   4.629   2.720   7.081  1.0102  0.4596 -0.4817
 1349SOL    HW215507   4.673   2.599   7.162  2.0695 -0.1109  0.1518
 1350SOL     OW15508   0.504   2.157   4.870  0.1107 -0.0696  0.3336
 1350SOL    HW115509   0.476   2.238   4.912  0.1436  1.9940 -3.5420
 1350SOL    HW215510   0.597   2.151   4.894  0.4368 -0.3024 -0.9566
 1351SOL     OW15511   2.409   4.076   6.358 -0.1151  0.2726  0.6066
 1351SOL    HW115512   2.328   4.076   6.307 -0.1240 -1.5191  0.5945
 1351SOL    HW215513   2.422   4.170   6.360 -0.9181  0.4039 -0.0400
 1352SOL     OW15514   2.960   3.757   1.806  0.3849 -0.2631 -0.1887
 1352SOL    HW115515   2.945   3.808   1.727 -0.0364 -0.8006 -0.4547
 1352SOL    HW215516   2.930   3.670   1.780 -0.2929  0.7441 -2.7891
 1353SOL     OW15517   0.510   0.989  16.718 -0.2272 -0.0793 -0.2913
 1353SOL    HW115518   0.516   1.074  16.762  1.7748 -1.6432  2.4065
 1353SOL    HW215519   0.421   1.008  16.687  0.2608 -1.5780 -2.6089
 1354SOL     OW15520   4.495   1.406   6.142 -0.4041  0.4092 -0.8095
 1354SOL    HW115521   4.552   1.338   6.107 -0.4550 -0.1344  0.1756
 1354SOL    HW215522   4.440   1.345   6.190  0.1019  1.4924  1.1578
 1355SOL     OW15523   0.294   0.737  10.519  0.1547 -0.5599 -0.1548
 1355SOL    HW115524   0.362   0.803  10.529 -0.6474  0.1829  0.4733
 1355SOL    HW215525   0.343   0.659  10.546 -2.3812 -2.1107 -0.0075
 1356SOL     OW15526   3.414   3.597   4.850 -0.3018 -0.7845 -0.1660
 1356SOL    HW115527   3.509   3.586   4.857 -0.1524  0.1086 -0.7814
 1356SOL    HW215528   3.396   3.688   4.875 -2.0960 -0.8075 -1.4352
 1357SOL     OW15529   0.529   3.416  13.004  0.1509  0.0555 -0.2559
 1357SOL    HW115530   0.481   3.479  13.057  0.9054  0.5377 -0.1501
 1357SOL    HW215531   0.472   3.339  13.007  0.4389 -0.2148 -1.8259
 1358SOL     OW15532   1.986   3.004   6.865 -0.2898 -0.3207 -0.4550
 1358SOL    HW115533   2.006   2.998   6.958  1.2630  1.2455 -0.6867
 1358SOL    HW215534   2.002   3.097   6.850  1.8636 -0.8965 -1.7891
 1359SOL     OW15535   1.345   0.409  13.869  0.4408  0.3404 -0.6004
 1359SOL    HW115536   1.326   0.316  13.874 -0.3139  0.4335 -1.6343
 1359SOL    HW215537   1.305   0.441  13.951  0.7317 -1.1994  0.1416
 1360SOL     OW15538   4.411   3.066   6.982 -0.2390 -0.7139  0.1410
 1360SOL    HW115539   4.473   3.040   7.050  1.3212  0.0756 -0.9692
 1360SOL    HW215540   4.474   3.093   6.914 -1.2697  1.7546  0.1786
 1361SOL     OW15541   3.986   0.066  11.712  0.4088  0.4101 -0.2463
 1361SOL    HW115542   3.907   0.051  11.764  1.0583 -2.7427 -0.1207
 1361SOL    HW215543   4.058   0.075  11.775  1.1376  0.7073 -1.1161
 1362SOL     OW15544   1.402   3.602   8.553 -0.8660 -1.1296  0.3978
 1362SOL    HW115545   1.388   3.666   8.483 -0.7671 -1.0074  0.4892
 1362SOL    HW215546   1.494   3.615   8.578 -1.3464  2.0469  0.5879
 1363SOL     OW15547   3.220   1.570   2.527 -0.2135 -0.3092 -0.0011
 1363SOL    HW115548   3.310   1.603   2.532 -0.2623  0.2741 -2.7512
 1363SOL    HW215549   3.242   1.498   2.467  2.6266  0.8437 -0.3462
 1364SOL     OW15550   1.832   0.838   6.054  0.2391  0.4999  0.2540
 1364SOL    HW115551   1.785   0.904   6.104  2.2309  1.4693  0.8412
 1364SOL    HW215552   1.848   0.766   6.116 -0.8914  1.0379  1.1526
 1365SOL     OW15553   1.040   1.968   8.164 -0.1000  0.5635 -0.8287
 1365SOL    HW115554   0.975   2.007   8.222 -2.0497 -1.0843 -1.9389
 1365SOL    HW215555   1.067   2.038   8.103 -0.9073  0.2519 -1.5346
 1366SOL     OW15556   0.707   1.451   2.049 -0.1326  0.3842 -0.0826
 1366SOL    HW115557   0.729   1.414   2.135  1.5242 -0.3275 -0.8195
 1366SOL    HW215558   0.748   1.537   2.057  0.3342  0.1362  0.2405
 1367SOL     OW15559   0.859   1.960   5.184 -0.5790 -0.2374  0.3690
 1367SOL    HW115560   0.817   2.036   5.144  2.1305  0.2688 -1.5072
 1367SOL    HW215561   0.820   1.888   5.134 -2.2068  1.8004 -1.3018
 1368SOL     OW15562   2.168   4.116   7.927 -0.3508 -0.3573 -0.0227
 1368SOL    HW115563   2.262   4.133   7.939 -0.1469 -1.5144  0.0542
 1368SOL    HW215564   2.127   4.197   7.957 -1.8397 -0.5861 -1.4218
 1369SOL     OW15565   2.330   1.161   7.321 -0.0037  0.0970 -0.0696
 1369SOL    HW115566   2.327   1.068   7.344  0.2022  0.4196  1.2695
 1369SOL    HW215567   2.364   1.163   7.232 -0.2329 -0.1153 -0.1645
 1370SOL     OW15568   2.540   0.349   0.177  0.2216 -0.7727  0.0693
 1370SOL    HW115569   2.476   0.307   0.118 -0.4691  0.1153  0.1826
 1370SOL    HW215570   2.474   0.375   0.241  0.4797  0.2268 -0.0735
 1371SOL     OW15571   0.046   4.061  17.057 -0.1202  0.3043 -0.5772
 1371SOL    HW115572   0.080   4.048  16.969  2.4129  1.7982  0.1679
 1371SOL    HW215573   0.112   4.124  17.086  0.6388 -0.3364 -0.9202
 1372SOL     OW15574   0.795   0.070   0.401  0.3463  0.6711  0.0354
 1372SOL    HW115575   0.871   0.123   0.424  1.4946 -0.1885 -1.7789
 1372SOL    HW215576   0.751   0.063   0.486 -0.7170 -1.0025 -0.6407
 1373SOL     OW15577   0.887   0.426   3.383  0.1682 -0.0223 -0.1137
 1373SOL    HW115578   0.946   0.483   3.333 -1.9382  0.7047 -1.7385
 1373SOL    HW215579   0.890   0.468   3.469 -0.6038 -2.2586  1.0065
 1374SOL     OW15580   4.119   4.307   8.737  0.6511  0.2636 -0.4866
 1374SOL    HW115581   4.118   4.219   8.701  1.1938  0.2920 -0.5745
 1374SOL    HW215582   4.125   4.295   8.832 -1.3220  1.7504 -0.1747
 1375SOL     OW15583   2.611   0.777   5.528  0.4873 -0.5490  0.9574
 1375SOL    HW115584   2.685   0.753   5.583  0.2652 -2.6300  0.3520
 1375SOL    HW215585   2.600   0.702   5.469  3.9888 -1.0760  0.9760
 1376SOL     OW15586   2.007   0.236   2.329 -0.2362  0.3173  0.1874
 1376SOL    HW115587   1.993   0.245   2.423 -3.5779  0.6149 -0.3250
 1376SOL    HW215588   1.921   0.258   2.292  0.5562 -0.4082 -2.0904
 1377SOL     OW15589   1.864   4.053  16.354  0.2572  0.2453 -0.1027
 1377SOL    HW115590   1.858   4.108  16.275  1.1342 -1.6943 -1.5110
 1377SOL    HW215591   1.939   4.094  16.399  0.5505  1.2511 -1.5006
 1378SOL     OW15592   3.210   1.767   2.082 -0.2179  0.5830 -0.5758
 1378SOL    HW115593   3.300   1.752   2.111 -0.2801  0.7672 -0.2921
 1378SOL    HW215594   3.217   1.821   2.003  1.6702 -0.6191 -1.2246
 1379SOL     OW15595   2.982   3.352  14.668  0.1125 -0.1745  0.2305
 1379SOL    HW115596   2.976   3.441  14.703 -0.6699  0.5408 -1.7465
 1379SOL    HW215597   3.032   3.374  14.590  1.5119 -0.0306  1.1588
 1380SOL     OW15598   2.452   4.550  11.711 -0.0116 -0.3292  0.1321
 1380SOL    HW115599   2.460   4.526  11.619  2.1291 -0.5068  0.3543
 1380SOL    HW215600   2.510   4.490  11.758  1.0527 -0.1475 -0.9560
 1381SOL     OW15601   3.673   4.361   7.028  0.5670 -0.3767 -0.5242
 1381SOL    HW115602   3.703   4.272   7.007  2.2616 -0.1277  0.7668
 1381SOL    HW215603   3.581   4.337   7.040  0.9147 -0.2462  2.5215
 1382SOL     OW15604   0.740   4.190   9.215  0.5361 -0.1988  0.1944
 1382SOL    HW115605   0.825   4.233   9.231  0.8220 -0.7188  0.0655
 1382SOL    HW215606   0.773   4.103   9.238  1.3495 -0.3265 -1.4455
 1383SOL     OW15607   2.482   1.465  15.330  0.0467  0.5826 -0.3540
 1383SOL    HW115608   2.464   1.437  15.240 -0.9911 -1.1758  0.3925
 1383SOL    HW215609   2.559   1.520  15.323  1.2409 -1.0824 -0.3108
 1384SOL     OW15610   4.699   1.257  15.770 -0.2022 -0.2900 -0.1238
 1384SOL    HW115611   4.670   1.341  15.808  0.9993  0.2082 -0.3048
 1384SOL    HW215612   0.071   1.267  15.775 -0.3746  0.7307  1.0557
 1385SOL     OW15613   3.680   0.935   7.415  0.5574 -0.2530 -0.3249
 1385SOL    HW115614   3.675   1.029   7.433  1.8056  0.2777 -2.7023
 1385SOL    HW215615   3.594   0.902   7.441  1.2688 -0.1119  2.2165
 1386SOL     OW15616   4.534   0.414   3.353  0.1948 -0.2191 -0.7945
 1386SOL    HW115617   4.538   0.364   3.271 -1.7858 -0.0364 -1.0198
 1386SOL    HW215618   4.624   0.425   3.384  0.6421  0.2439 -2.2899
 1387SOL     OW15619   3.637   1.692   6.758  0.6919  0.0569  0.0398
 1387SOL    HW115620   3.698   1.667   6.688  0.4903  0.6649 -0.3517
 1387SOL    HW215621   3.698   1.728   6.823  1.4231 -1.7561  0.3465
 1388SOL     OW15622   1.864   3.635  10.692  0.2652  0.4005 -0.3230
 1388SOL    HW115623   1.947   3.588  10.706 -0.0415 -0.1181 -0.2222
 1388SOL    HW215624   1.872   3.662  10.601  1.7531  0.9740 -0.0208
 1389SOL     OW15625   1.515   0.753   9.532  0.0500 -0.1599 -0.4122
 1389SOL    HW115626   1.491   0.834   9.577 -2.0662 -0.8343 -0.3062
 1389SOL    HW215627   1.567   0.709   9.599  1.3316  1.5897 -0.2659
 1390SOL     OW15628   0.051   0.035   5.720 -0.3056 -0.2221  0.2006
 1390SOL    HW115629   0.050   0.130   5.708  0.6468 -0.0284  1.7108
 1390SOL    HW215630   4.686   0.005   5.740 -1.0184  1.5862 -0.2635
 1391SOL     OW15631   3.878   3.824  13.853  0.0066  0.0747 -0.4169
 1391SOL    HW115632   3.917   3.862  13.932 -0.9439 -0.1144  0.1404
 1391SOL    HW215633   3.829   3.755  13.898  1.3248  1.1160  2.6503
 1392SOL     OW15634   1.582   3.525   4.354 -0.2647  0.4878 -0.4016
 1392SOL    HW115635   1.518   3.502   4.421 -0.1828  0.9968 -0.1472
 1392SOL    HW215636   1.662   3.534   4.406 -0.3918  0.9701 -0.2902
 1393SOL     OW15637   1.247   2.386   7.287  0.3349 -0.1511  0.1522
 1393SOL    HW115638   1.192   2.396   7.209  0.6162 -0.4272 -0.0825
 1393SOL    HW215639   1.273   2.294   7.289  1.6392  0.2176  0.0738
 1394SOL     OW15640   4.312   1.293   0.210 -0.3648 -0.3528  0.0685
 1394SOL    HW115641   4.228   1.257   0.238 -0.9699  0.3459 -0.8559
 1394SOL    HW215642   4.358   1.211   0.192 -0.6758 -0.0913 -1.8497
 1395SOL     OW15643   2.250   3.802   5.458  0.0645 -0.2013 -0.6131
 1395SOL    HW115644   2.256   3.816   5.364  0.3669 -1.8205 -0.8474
 1395SOL    HW215645   2.158   3.782   5.475  0.1261  0.3063  0.3463
 1396SOL     OW15646   1.940   2.037  11.410  0.0493  0.0426  0.2962
 1396SOL    HW115647   1.930   2.129  11.386  1.0577  0.5374  1.7697
 1396SOL    HW215648   2.033   2.026  11.430  0.0938  0.9215  0.5761
 1397SOL     OW15649   3.611   2.964   7.744  0.0607  0.1881  0.5720
 1397SOL    HW115650   3.533   3.017   7.759  0.2681  0.4309  0.7990
 1397SOL    HW215651   3.661   3.041   7.719 -1.1912 -0.0510 -2.7007
 1398SOL     OW15652   2.902   1.303   0.240  0.4434 -0.0964 -0.5725
 1398SOL    HW115653   2.851   1.264   0.311  1.7924  1.5061  1.2630
 1398SOL    HW215654   2.890   1.239   0.170 -0.6038 -0.6783  0.1318
 1399SOL     OW15655   2.184   3.225  15.588  0.7180 -0.1587  0.4179
 1399SOL    HW115656   2.094   3.255  15.574  0.5658 -1.3311 -1.0591
 1399SOL    HW215657   2.202   3.178  15.507  2.0438  0.2819  0.4576
 1400SOL     OW15658   1.885   1.342   6.739 -0.4038 -0.1659 -0.5524
 1400SOL    HW115659   1.930   1.372   6.660  2.7145  1.0770  1.7236
 1400SOL    HW215660   1.960   1.350   6.798  0.7113  1.3931 -2.1876
 1401SOL     OW15661   4.475   2.182   4.819  0.1019 -0.2232 -0.1484
 1401SOL    HW115662   4.395   2.221   4.784 -0.5642 -1.4100  0.0862
 1401SOL    HW215663   4.529   2.169   4.741  1.8178  2.2501  0.6108
 1402SOL     OW15664   3.032   3.976   6.567 -0.5530  0.2793 -0.4738
 1402SOL    HW115665   3.034   3.950   6.474 -3.4519  1.0156 -0.7346
 1402SOL    HW215666   2.961   3.923   6.603 -0.4739  1.3677  1.2854
 1403SOL     OW15667   3.398   1.773   8.732  0.5650  0.4726  0.0177
 1403SOL    HW115668   3.307   1.767   8.761 -0.2018  0.3085 -2.4358
 1403SOL    HW215669   3.425   1.684   8.711 -1.1091 -0.0730  0.2210
 1404SOL     OW15670   1.222   1.915   8.634  0.2946 -0.1971  0.0075
 1404SOL    HW115671   1.182   1.885   8.552 -3.1789 -1.6986  2.2843
 1404SOL    HW215672   1.197   2.007   8.635  2.6091  0.4509 -0.3296
 1405SOL     OW15673   4.100   2.143   7.962 -0.2393 -0.7294 -0.1613
 1405SOL    HW115674   4.111   2.048   7.970 -0.9777 -0.8019 -0.0089
 1405SOL    HW215675   4.088   2.159   8.056 -0.3254  1.5458 -0.5614
 1406SOL     OW15676   4.234   4.090   7.169  0.5102  0.0585  0.1256
 1406SOL    HW115677   4.286   4.097   7.090 -0.4648  0.2520 -0.5016
 1406SOL    HW215678   4.175   4.023   7.134 -0.8469  1.1019  0.3986
 1407SOL     OW15679   2.305   0.560  12.225 -0.0752 -0.0207 -0.1145
 1407SOL    HW115680   2.214   0.587  12.237 -0.0661  0.5466 -1.4048
 1407SOL    HW215681   2.312   0.601  12.139  0.6373 -2.1008 -1.0524
 1408SOL     OW15682   1.750   3.495  12.323  0.1465  0.0429 -0.5380
 1408SOL    HW115683   1.787   3.582  12.313 -0.8145  0.6002  0.7697
 1408SOL    HW215684   1.701   3.473  12.245  1.5673 -2.6310 -0.6822
 1409SOL     OW15685   1.523   4.574   1.376 -0.5007 -0.2492 -0.3935
 1409SOL    HW115686   1.505   4.576   1.470 -2.0378 -1.7866 -0.6529
 1409SOL    HW215687   1.547   4.663   1.350 -2.5606  0.2030 -0.7386
 1410SOL     OW15688   4.579   2.793   8.634 -0.5032  0.4468 -0.5946
 1410SOL    HW115689   4.490   2.785   8.668 -0.5532  2.0531 -0.3589
 1410SOL    HW215690   4.627   2.741   8.700  2.3679  3.8448 -0.0031
 1411SOL     OW15691   3.514   1.461   7.302 -0.6301 -0.2174 -0.5993
 1411SOL    HW115692   3.603   1.457   7.337 -0.7531  3.1238  0.1779
 1411SOL    HW215693   3.458   1.503   7.368  0.5166 -2.6095  1.8969
 1412SOL     OW15694   2.332   4.361   8.696  0.0389  0.0070  0.0822
 1412SOL    HW115695   2.303   4.275   8.666 -2.3993  0.9473 -0.2767
 1412SOL    HW215696   2.265   4.402   8.750  1.8355  0.6395  1.8420
 1413SOL     OW15697   2.772   4.057  13.966 -0.1774 -0.0422  0.2118
 1413SOL    HW115698   2.803   4.002  14.038  0.3303 -2.2562 -1.6938
 1413SOL    HW215699   2.682   4.025  13.955 -1.1161  2.5973  0.0777
 1414SOL     OW15700   1.517   3.925   5.374  0.0007 -0.0116  0.2116
 1414SOL    HW115701   1.465   3.945   5.452  0.2852  1.5309  0.0152
 1414SOL    HW215702   1.452   3.919   5.304 -1.5432  3.5534  1.3465
 1415SOL     OW15703   0.499   0.913  11.951  0.1424 -0.3450  0.1925
 1415SOL    HW115704   0.588   0.948  11.949  0.3264 -0.6941  3.1861
 1415SOL    HW215705   0.451   0.993  11.929  1.5748  0.7109  0.9067
 1416SOL     OW15706   1.346   2.873   6.298 -0.2459 -0.7270 -0.7034
 1416SOL    HW115707   1.288   2.889   6.224  1.1987 -0.2616 -1.7367
 1416SOL    HW215708   1.377   2.786   6.274 -0.9171 -1.1910  0.1064
 1417SOL     OW15709   3.192   4.522  12.042  0.2387 -0.0072  0.4040
 1417SOL    HW115710   3.236   4.439  12.062  0.0173 -1.3904 -4.6166
 1417SOL    HW215711   3.111   4.505  12.090  0.2472 -2.7892 -0.5455
 1418SOL     OW15712   3.105   2.268   3.176  0.3607 -0.2325  0.4255
 1418SOL    HW115713   3.145   2.326   3.111 -0.9636  1.7162  1.3512
 1418SOL    HW215714   3.183   2.256   3.230 -0.2085  1.2841  1.5933
 1419SOL     OW15715   0.082   0.079   2.142  0.1694  0.4864 -0.0271
 1419SOL    HW115716   4.719   0.098   2.178  0.6275  0.5149  1.0517
 1419SOL    HW215717   0.145   0.105   2.210  2.4691 -1.1939 -1.5274
 1420SOL     OW15718   0.046   0.362   1.101 -1.0059  0.1943  0.1264
 1420SOL    HW115719   0.009   0.413   1.028 -0.2212 -0.9260 -1.0431
 1420SOL    HW215720   0.024   0.275   1.067  2.6325 -1.8737  3.1200
 1421SOL     OW15721   3.195   1.996   3.918 -0.1379 -0.1336  0.5130
 1421SOL    HW115722   3.217   1.907   3.892 -1.5683 -0.5337  0.6658
 1421SOL    HW215723   3.101   1.984   3.907  0.0366 -1.7024  0.7418
 1422SOL     OW15724   1.677   1.924   9.081  0.4756 -0.3104  0.1115
 1422SOL    HW115725   1.683   1.993   9.015 -0.3149 -0.3438  0.0093
 1422SOL    HW215726   1.584   1.903   9.076  0.4376  0.2586 -1.6781
 1423SOL     OW15727   2.143   2.869   5.100  0.4254 -0.4665  0.5500
 1423SOL    HW115728   2.056   2.907   5.114 -0.0121 -1.2174 -0.1323
 1423SOL    HW215729   2.188   2.925   5.163 -2.1174 -1.1624  2.9707
 1424SOL     OW15730   1.598   0.777   8.543 -0.0874  0.3625 -0.8975
 1424SOL    HW115731   1.616   0.691   8.505 -0.2058  0.3942 -1.0241
 1424SOL    HW215732   1.682   0.818   8.524  0.2124 -0.5871 -1.6366
 1425SOL     OW15733   0.700   3.511   8.095  0.5787 -0.0729  0.0921
 1425SOL    HW115734   0.665   3.422   8.091  0.9007 -0.2868  1.9947
 1425SOL    HW215735   0.792   3.490   8.081 -0.0155 -3.8177  1.7071
 1426SOL     OW15736   3.225   0.604  10.766 -0.7752  0.7618  0.4788
 1426SOL    HW115737   3.137   0.642  10.757 -0.9386  0.6224  1.4732
 1426SOL    HW215738   3.274   0.683  10.746 -1.5262  0.8305 -1.1216
 1427SOL     OW15739   1.173   1.669   8.193 -0.2119 -0.5570 -0.2263
 1427SOL    HW115740   1.080   1.678   8.172  0.1078  0.8210 -1.0057
 1427SOL    HW215741   1.210   1.693   8.108  1.3601 -1.5632  0.1762
 1428SOL     OW15742   3.587   3.733   5.962  0.4431 -0.6207  0.6537
 1428SOL    HW115743   3.609   3.674   6.034  0.2332  0.9115  1.9446
 1428SOL    HW215744   3.529   3.797   6.001  0.2349 -0.4836  0.1254
 1429SOL     OW15745   4.021   2.121   3.575 -0.1087  0.3044  0.1983
 1429SOL    HW115746   3.996   2.034   3.543 -1.7306  1.3622 -1.3355
 1429SOL    HW215747   3.938   2.162   3.597 -1.4431 -2.0524 -0.3714
 1430SOL     OW15748   0.118   1.189   3.349  0.4032  0.1641  0.3805
 1430SOL    HW115749   0.171   1.129   3.401 -1.0268 -0.3445  1.2729
 1430SOL    HW215750   0.138   1.159   3.260 -1.7357 -2.2181  0.6900
 1431SOL     OW15751   0.343   2.867  15.748  0.0317  0.1758 -0.4667
 1431SOL    HW115752   0.359   2.949  15.700 -2.9021 -1.2313 -3.8143
 1431SOL    HW215753   0.290   2.825  15.680  0.8371  1.4065 -1.8568
 1432SOL     OW15754   0.696   0.867   5.213  0.5121 -0.2861  0.0363
 1432SOL    HW115755   0.701   0.948   5.263  3.0836  0.8633 -2.1196
 1432SOL    HW215756   0.718   0.891   5.123 -0.4016 -1.1566 -0.4224
 1433SOL     OW15757   3.945   1.816   8.622 -0.0247  0.3275  0.8096
 1433SOL    HW115758   4.003   1.880   8.663 -0.8899  2.2518 -1.0286
 1433SOL    HW215759   3.959   1.737   8.675  1.5829  1.2911  1.8204
 1434SOL     OW15760   1.041   3.467   0.469  0.0355 -0.0615 -0.4017
 1434SOL    HW115761   1.058   3.518   0.548  1.0613 -0.2437 -0.5084
 1434SOL    HW215762   1.129   3.436   0.449  0.6506 -0.2035  2.5352
 1435SOL     OW15763   2.323   0.447   7.471  0.2351 -0.3240  0.7684
 1435SOL    HW115764   2.240   0.428   7.428 -0.0617  2.0362  0.3015
 1435SOL    HW215765   2.344   0.362   7.508  0.9650  0.2293  1.6204
 1436SOL     OW15766   1.611   1.595  11.856 -0.3646 -0.0769  0.2094
 1436SOL    HW115767   1.629   1.578  11.763  1.4101  0.0886  0.5304
 1436SOL    HW215768   1.655   1.680  11.860 -0.7417  0.1010  0.6342
 1437SOL     OW15769   2.284   1.005  11.220 -0.4675  0.1558  0.1688
 1437SOL    HW115770   2.214   0.973  11.277 -0.0033 -0.9145  0.1513
 1437SOL    HW215771   2.352   0.995  11.286 -1.3353  1.4634  1.2462
 1438SOL     OW15772   2.434   3.292   6.543  0.4492 -0.2406  1.1172
 1438SOL    HW115773   2.342   3.317   6.542  0.6215  0.2433 -2.4994
 1438SOL    HW215774   2.480   3.372   6.566  1.8755 -0.6376 -0.3476
 1439SOL     OW15775   1.713   2.972  11.871  0.6799 -0.2009 -0.1658
 1439SOL    HW115776   1.645   2.908  11.854 -1.3677  1.2109  2.6351
 1439SOL    HW215777   1.662   3.042  11.912 -0.8457 -1.4273  0.0149
 1440SOL     OW15778   2.236   2.985   4.119  0.1376  0.0586  0.4070
 1440SOL    HW115779   2.254   3.077   4.100 -2.2833  0.0590 -1.8349
 1440SOL    HW215780   2.163   2.971   4.059  1.3271  0.2680 -1.0730
 1441SOL     OW15781   3.338   0.180   4.667 -0.4633  0.1722 -0.1039
 1441SOL    HW115782   3.324   0.087   4.688  1.1400  0.3017  1.5932
 1441SOL    HW215783   3.249   0.211   4.651 -0.4912 -0.2775 -0.8319
 1442SOL     OW15784   2.578   1.694   5.297  0.0570  0.1126  0.6442
 1442SOL    HW115785   2.567   1.669   5.388  0.5434  0.3643  0.7753
 1442SOL    HW215786   2.600   1.607   5.265 -1.7253  0.0922 -0.5037
 1443SOL     OW15787   0.885   3.665  10.563 -0.0456 -0.1081  0.1150
 1443SOL    HW115788   0.861   3.756  10.544 -3.1406 -0.5005  2.1782
 1443SOL    HW215789   0.920   3.639  10.478  0.3447 -0.3917  0.3599
 1444SOL     OW15790   4.379   2.440   2.709  0.8363 -0.1424 -0.1296
 1444SOL    HW115791   4.381   2.429   2.614 -1.8968  0.7690 -0.2886
 1444SOL    HW215792   4.293   2.483   2.714  0.1033 -1.3694 -2.3670
 1445SOL     OW15793   4.323   2.807   8.732  0.4117  0.3829  0.4407
 1445SOL    HW115794   4.335   2.901   8.748  2.0872  0.1699  0.4130
 1445SOL    HW215795   4.258   2.778   8.797 -0.3425  1.3920  0.1318
 1446SOL     OW15796   0.007   1.308   8.734  0.0445  0.4999  0.1778
 1446SOL    HW115797   4.637   1.314   8.754 -0.2383 -1.8784 -0.3724
 1446SOL    HW215798   0.045   1.351   8.811 -2.3594 -0.3904  1.8655
 1447SOL     OW15799   0.944   2.625   6.506 -1.0272 -0.2291  0.0256
 1447SOL    HW115800   0.933   2.588   6.419  0.1872 -0.3629 -0.0772
 1447SOL    HW215801   1.002   2.557   6.541 -0.8682 -0.7918 -1.3456
 1448SOL     OW15802   0.335   1.929   3.458 -0.4044 -0.2900  0.6152
 1448SOL    HW115803   0.242   1.953   3.453 -0.4133 -0.5401 -0.2832
 1448SOL    HW215804   0.382   2.007   3.489  0.3793 -0.4281 -0.2346
 1449SOL     OW15805   4.622   3.677   8.214 -0.0241 -0.7233  0.4286
 1449SOL    HW115806   4.664   3.748   8.262 -1.2880  1.5283 -1.7857
 1449SOL    HW215807   4.530   3.705   8.215  0.0691 -0.3501 -1.1410
 1450SOL     OW15808   3.245   3.081  13.438  0.2033  0.3086 -0.4947
 1450SOL    HW115809   3.328   3.116  13.468  0.2123  0.6183 -0.8811
 1450SOL    HW215810   3.257   2.994  13.476 -2.0958 -0.3147 -1.2049
 1451SOL     OW15811   3.013   2.408  13.849 -0.1282 -0.8179 -0.5289
 1451SOL    HW115812   2.928   2.419  13.893  1.7829  1.2354  2.5886
 1451SOL    HW215813   2.986   2.452  13.768 -0.0751  0.6075  0.2252
 1452SOL     OW15814   4.124   1.094  10.728 -0.4525 -0.1372  0.3002
 1452SOL    HW115815   4.164   1.180  10.738  0.6929 -0.5029 -1.1376
 1452SOL    HW215816   4.031   1.113  10.711 -0.0750 -0.3521 -1.9227
 1453SOL     OW15817   2.615   4.340  13.969 -0.6015 -0.2652 -0.7264
 1453SOL    HW115818   2.710   4.335  13.956 -0.6616 -0.5711 -1.0562
 1453SOL    HW215819   2.603   4.263  14.025 -3.7229  1.4071  0.9271
 1454SOL     OW15820   0.076   2.021   3.644 -0.1058  0.1756 -0.6481
 1454SOL    HW115821   0.041   2.014   3.555 -2.3098  1.0678  0.1726
 1454SOL    HW215822   0.005   2.069   3.686 -0.4684  1.1862 -2.3868
 1455SOL     OW15823   1.478   1.985   3.678 -0.3147  0.7543  0.2303
 1455SOL    HW115824   1.530   1.957   3.603  2.4487  1.7709  1.7357
 1455SOL    HW215825   1.501   2.078   3.668  2.2634  0.2788  1.6553
 1456SOL     OW15826   0.879   0.427   7.454  0.3648 -0.2662 -0.6835
 1456SOL    HW115827   0.823   0.504   7.467  2.3990  0.8451  1.4332
 1456SOL    HW215828   0.817   0.372   7.406 -0.1669 -2.9318  3.0331
 1457SOL     OW15829   1.253   4.615   9.974  0.3873 -0.1849  0.1709
 1457SOL    HW115830   1.261   4.565  10.055  2.3827  0.1453  0.1677
 1457SOL    HW215831   1.341   4.652   9.974 -0.1929  1.1464  3.9665
 1458SOL     OW15832   4.642   1.892   5.945  0.3484 -0.6420 -0.5556
 1458SOL    HW115833   4.704   1.829   5.983 -0.1669  0.3680  1.9709
 1458SOL    HW215834   4.701   1.930   5.881  0.6387 -1.3524 -0.7050
 1459SOL     OW15835   1.747   4.714   6.097 -0.0396  0.4239  0.0408
 1459SOL    HW115836   1.802   0.069   6.091 -1.9628  1.9036  1.8060
 1459SOL    HW215837   1.730   4.696   6.004 -1.9897 -1.9348  0.8525
 1460SOL     OW15838   1.003   4.345  10.208  0.4192 -0.9478 -0.2600
 1460SOL    HW115839   1.000   4.320  10.115 -1.8506 -0.8354 -0.2210
 1460SOL    HW215840   1.094   4.328  10.230  0.8259  1.5685 -0.0358
 1461SOL     OW15841   3.229   0.250  14.018  0.0746  0.7872  0.4210
 1461SOL    HW115842   3.162   0.295  14.071 -1.9125 -3.2335  1.3318
 1461SOL    HW215843   3.176   0.241  13.939 -1.3485  0.0065  1.4401
 1462SOL     OW15844   0.687   3.336   4.487 -0.4251 -0.5407 -0.2060
 1462SOL    HW115845   0.716   3.328   4.578 -1.2420 -0.8285  0.0310
 1462SOL    HW215846   0.769   3.337   4.438 -0.8459 -0.3901 -0.9083
 1463SOL     OW15847   0.789   2.892  11.611  0.8070 -0.1027 -0.3682
 1463SOL    HW115848   0.828   2.979  11.599  1.5923 -0.5765 -1.2273
 1463SOL    HW215849   0.825   2.861  11.695  0.2119 -1.4281 -0.6107
 1464SOL     OW15850   1.811   3.749   5.911  0.0178 -0.9905 -0.1475
 1464SOL    HW115851   1.852   3.828   5.877  0.8336 -0.7871  1.2859
 1464SOL    HW215852   1.722   3.777   5.889  0.5618  0.8128 -0.0268
 1465SOL     OW15853   1.030   2.587   8.086 -0.3163  0.3851  0.0994
 1465SOL    HW115854   0.956   2.580   8.146 -1.5958  2.8384 -1.1819
 1465SOL    HW215855   1.100   2.595   8.151  1.2448 -1.3443 -1.3693
 1466SOL     OW15856   1.455   0.595   7.378 -0.0020 -1.1270 -0.4845
 1466SOL    HW115857   1.404   0.580   7.299  0.9384 -2.2690 -0.8797
 1466SOL    HW215858   1.523   0.532   7.354 -1.9105 -2.6919 -1.7825
 1467SOL     OW15859   2.657   4.395   2.568  0.1663  0.1592  0.1722
 1467SOL    HW115860   2.651   4.420   2.476 -0.2195  0.5452  0.3060
 1467SOL    HW215861   2.610   4.312   2.566  0.8305 -0.2156 -0.0773
 1468SOL     OW15862   3.731   3.113   7.214  0.1637 -0.2115 -0.0835
 1468SOL    HW115863   3.735   3.183   7.149 -1.6045 -0.2069 -0.1865
 1468SOL    HW215864   3.669   3.149   7.277 -1.5861 -1.1187 -1.2972
 1469SOL     OW15865   0.731   0.859   7.652 -0.2100  0.3458 -0.2968
 1469SOL    HW115866   0.740   0.945   7.692 -0.2678  0.0550  0.3524
 1469SOL    HW215867   0.732   0.888   7.561  2.0739  1.9797  0.2487
 1470SOL     OW15868   2.677   2.458   2.431  0.1858 -0.0637  0.4688
 1470SOL    HW115869   2.737   2.526   2.400 -1.3434 -0.2857 -2.9155
 1470SOL    HW215870   2.608   2.514   2.468  0.4985 -0.2308  1.3199
 1471SOL     OW15871   3.650   1.552   9.088 -0.2881 -0.4039 -0.2916
 1471SOL    HW115872   3.700   1.610   9.145 -0.4390  1.2436 -1.8450
 1471SOL    HW215873   3.678   1.465   9.118  0.9462  0.3442  0.7234
 1472SOL     OW15874   3.807   2.110   8.726  0.2535  0.0664 -0.1172
 1472SOL    HW115875   3.880   2.109   8.788  0.2279  1.7227 -0.0693
 1472SOL    HW215876   3.756   2.031   8.745 -2.4633  1.9809  0.6172
 1473SOL     OW15877   0.606   0.386   3.411  0.3662 -0.4222 -0.3078
 1473SOL    HW115878   0.681   0.381   3.351  0.2486 -3.3270 -0.2138
 1473SOL    HW215879   0.621   0.318   3.477  1.4606 -0.0142 -0.1313
 1474SOL     OW15880   1.208   0.811   9.472 -0.1292 -0.0802  0.4195
 1474SOL    HW115881   1.151   0.888   9.481  0.8337  0.7607 -0.6702
 1474SOL    HW215882   1.203   0.787   9.379 -0.8472  0.3326  0.3482
 1475SOL     OW15883   1.030   3.629   4.818  0.3879  0.0807  0.4807
 1475SOL    HW115884   1.034   3.709   4.765 -2.2717  0.3574  0.6918
 1475SOL    HW215885   0.939   3.617   4.845  0.5593  0.6456  1.3203
 1476SOL     OW15886   1.691   1.298   3.185  0.0282 -0.0283  0.3143
 1476SOL    HW115887   1.767   1.271   3.236  1.4753  1.7277 -0.9019
 1476SOL    HW215888   1.631   1.317   3.258 -1.0139 -1.9420 -0.0319
 1477SOL     OW15889   1.992   3.261   6.268  0.1103  0.2279 -0.4588
 1477SOL    HW115890   2.000   3.169   6.240 -1.5805 -0.5681  1.6899
 1477SOL    HW215891   1.899   3.282   6.279  0.2140 -0.9707  2.7278
 1478SOL     OW15892   3.469   3.118   5.983 -0.0237 -0.0524 -0.1420
 1478SOL    HW115893   3.428   3.192   5.939  2.9332 -0.1917 -3.1286
 1478SOL    HW215894   3.386   3.089   6.023  0.4486 -2.5454 -0.9369
 1479SOL     OW15895   1.984   0.186   6.395  0.0883 -0.0233  0.3256
 1479SOL    HW115896   1.967   0.193   6.301  0.3203 -0.7784  0.2259
 1479SOL    HW215897   2.080   0.186   6.399  0.0123 -1.8063  1.8977
 1480SOL     OW15898   3.230   4.028   5.651  0.1570 -0.0919 -0.0826
 1480SOL    HW115899   3.289   3.955   5.630  0.0138 -0.4652  0.8035
 1480SOL    HW215900   3.189   4.038   5.565 -0.7730 -0.2844  0.3408
 1481SOL     OW15901   4.444   3.466   7.908 -0.6685 -0.0642 -0.1426
 1481SOL    HW115902   4.388   3.510   7.973 -1.1457  0.6900 -1.0549
 1481SOL    HW215903   4.440   3.376   7.942 -1.3492 -0.0440 -0.1627
 1482SOL     OW15904   2.373   0.409   4.872  0.4400  0.1655 -0.2192
 1482SOL    HW115905   2.388   0.318   4.899  1.9445  0.5358  0.1744
 1482SOL    HW215906   2.283   0.412   4.903 -0.2289  0.2720 -2.2099
 1483SOL     OW15907   4.364   3.772   8.297  0.3344  0.1060 -0.2481
 1483SOL    HW115908   4.365   3.854   8.346  2.3076  0.7977 -1.4559
 1483SOL    HW215909   4.274   3.750   8.320 -0.3237  1.1203 -1.8864
 1484SOL     OW15910   3.910   4.295   6.659  0.1021  0.3006  0.6732
 1484SOL    HW115911   3.996   4.291   6.701 -0.0895  0.0831  1.0395
 1484SOL    HW215912   3.856   4.276   6.735  2.0526 -3.3702  1.1329
 1485SOL     OW15913   0.542   2.105   0.713 -0.6823 -0.1812 -0.2528
 1485SOL    HW115914   0.484   2.099   0.789  1.3298 -1.4256  1.1619
 1485SOL    HW215915   0.508   2.026   0.671 -1.1379 -0.0477 -0.1352
 1486SOL     OW15916   2.311   2.958   3.436 -0.1176 -0.4279  0.1172
 1486SOL    HW115917   2.240   2.957   3.501  0.1533  1.1567  0.4472
 1486SOL    HW215918   2.388   2.923   3.480  1.6626  1.5180 -1.4390
 1487SOL     OW15919   3.916   0.149   0.088 -0.6214 -0.3386  0.0236
 1487SOL    HW115920   3.893   0.204   0.162  2.5868  1.9188 -0.6744
 1487SOL    HW215921   3.877   0.189   0.010  0.0051 -0.0756 -0.1546
 1488SOL     OW15922   4.594   3.512   6.322 -0.6620 -0.2320 -0.7053
 1488SOL    HW115923   4.685   3.504   6.294 -0.1670  0.4688  0.7567
 1488SOL    HW215924   4.546   3.473   6.249 -1.4394  0.0595 -0.3551
 1489SOL     OW15925   3.963   2.580   6.766 -0.1751  0.3058  0.4262
 1489SOL    HW115926   3.902   2.629   6.711 -0.5729 -1.2631 -0.5287
 1489SOL    HW215927   4.041   2.608   6.716  0.4826  1.0125  1.8580
 1490SOL     OW15928   1.716   3.209   7.207  0.3927  0.3882 -0.4967
 1490SOL    HW115929   1.642   3.231   7.264 -0.3316 -0.0806 -1.2631
 1490SOL    HW215930   1.679   3.138   7.155  1.8449  1.5728 -3.1500
 1491SOL     OW15931   4.611   3.349  15.240 -0.0561  0.0445  0.0283
 1491SOL    HW115932   4.532   3.364  15.290  0.7120 -0.6545  1.4502
 1491SOL    HW215933   4.616   3.429  15.187 -0.5879  0.1708  0.1673
 1492SOL     OW15934   1.025   4.390  10.592  0.1574 -0.1558 -0.1956
 1492SOL    HW115935   1.094   4.449  10.560  1.5938 -0.8493  1.5707
 1492SOL    HW215936   1.033   4.315  10.533 -0.3713  0.3430 -0.8971
 1493SOL     OW15937   0.334   4.217   2.031  0.5919 -0.4786  1.0446
 1493SOL    HW115938   0.297   4.131   2.048  1.4231 -1.2348 -1.0201
 1493SOL    HW215939   0.365   4.231   2.120 -1.2272  2.9595  1.1385
 1494SOL     OW15940   2.496   1.389   2.714  0.1951  0.1446 -0.0303
 1494SOL    HW115941   2.410   1.404   2.674 -0.6572  0.5142  1.9483
 1494SOL    HW215942   2.534   1.475   2.730 -1.2454  0.1925  3.1554
 1495SOL     OW15943   1.686   0.548  13.280 -0.2609  0.3107  0.0821
 1495SOL    HW115944   1.660   0.457  13.293 -1.2532  1.1357  3.8551
 1495SOL    HW215945   1.765   0.533  13.228 -0.5934  1.7452 -0.8196
 1496SOL     OW15946   1.023   4.208   8.986  0.2736  0.0830  0.0372
 1496SOL    HW115947   0.950   4.207   8.925 -1.3242  1.5529  1.9571
 1496SOL    HW215948   1.003   4.280   9.046 -1.7987  0.7663 -1.4971
 1497SOL     OW15949   1.362   1.349   0.930 -0.0375  0.6849 -0.6886
 1497SOL    HW115950   1.447   1.379   0.961 -0.4476 -0.5329  1.6156
 1497SOL    HW215951   1.333   1.428   0.885 -1.1514 -0.9671 -2.9071
 1498SOL     OW15952   3.600   2.793  10.816 -0.0800  0.0655 -0.0250
 1498SOL    HW115953   3.610   2.704  10.850 -1.1551  0.0080  0.1468
 1498SOL    HW215954   3.517   2.816  10.858 -0.9375 -2.6672 -0.2046
 1499SOL     OW15955   2.827   1.890   5.671  0.0664 -0.3065  0.3814
 1499SOL    HW115956   2.865   1.822   5.615  2.0719 -0.5574  2.0256
 1499SOL    HW215957   2.851   1.861   5.759 -2.4165 -1.5873  0.6254
 1500SOL     OW15958   3.056   1.395   2.200  0.4011 -0.0144  0.9632
 1500SOL    HW115959   3.092   1.320   2.152 -1.7560 -0.1371 -0.4409
 1500SOL    HW215960   3.133   1.411   2.255  0.5069 -0.4549  0.9434
 1501SOL     OW15961   1.230   3.708   4.211 -0.1848  0.1105  0.1928
 1501SOL    HW115962   1.178   3.685   4.288  0.0274 -2.1056 -0.3291
 1501SOL    HW215963   1.209   3.800   4.193 -0.8872  0.2400  1.6733
 1502SOL     OW15964   3.142   1.889   0.569 -0.0827  0.0700 -0.4159
 1502SOL    HW115965   3.087   1.895   0.492 -0.1770  4.2641 -0.0361
 1502SOL    HW215966   3.081   1.931   0.630  0.0950 -1.1791  0.6281
 1503SOL     OW15967   2.475   3.665   5.647 -0.0361  0.5450 -0.4723
 1503SOL    HW115968   2.545   3.605   5.673 -0.2585 -0.6277 -2.5532
 1503SOL    HW215969   2.503   3.755   5.658 -0.1192  0.6495 -1.1445
 1504SOL     OW15970   3.423   4.269  16.286 -0.1144  0.1168  0.2737
 1504SOL    HW115971   3.501   4.267  16.230 -0.1409 -1.7209  0.2889
 1504SOL    HW215972   3.354   4.277  16.221 -0.6021 -0.5233  0.7152
 1505SOL     OW15973   0.376   2.563   4.597 -0.2157 -0.9515  0.1607
 1505SOL    HW115974   0.471   2.553   4.598  0.3020  3.6152  1.1568
 1505SOL    HW215975   0.348   2.491   4.653 -3.8089  1.0231  0.9074
 1506SOL     OW15976   2.594   2.560   1.485 -0.2842 -0.0020  0.0207
 1506SOL    HW115977   2.516   2.609   1.512  0.5588  1.1318  0.3755
 1506SOL    HW215978   2.669   2.591   1.536  0.3244 -2.2360  0.5161
 1507SOL     OW15979   3.875   3.735  14.363  0.3274 -0.3767  0.3358
 1507SOL    HW115980   3.905   3.820  14.329  1.7106  0.1984  3.0583
 1507SOL    HW215981   3.938   3.715  14.432  0.9744 -1.2338 -0.5029
 1508SOL     OW15982   0.958   1.359   5.299 -0.2055  0.6808 -0.1162
 1508SOL    HW115983   0.983   1.413   5.374 -0.7249  0.0350  0.5083
 1508SOL    HW215984   0.909   1.428   5.254 -1.0458 -0.0647 -0.3456
 1509SOL     OW15985   1.261   4.503  10.490 -0.4146  0.2651 -0.3040
 1509SOL    HW115986   1.314   4.457  10.425 -2.4160  0.6111 -2.1976
 1509SOL    HW215987   1.329   4.555  10.535  1.7474 -2.6554 -0.2134
 1510SOL     OW15988   0.770   2.767   2.256  0.2295 -0.3705  0.5151
 1510SOL    HW115989   0.861   2.787   2.279  0.2254  0.4339 -0.1593
 1510SOL    HW215990   0.767   2.825   2.180 -0.8109  0.2507  1.0285
 1511SOL     OW15991   3.311   4.220   5.317 -0.2482  0.0928 -0.4745
 1511SOL    HW115992   3.402   4.231   5.344 -0.3136  1.3123 -0.7462
 1511SOL    HW215993   3.293   4.126   5.312  3.1789 -0.5698  0.1793
 1512SOL     OW15994   3.029   3.769   4.255 -0.4315 -0.1300 -0.3120
 1512SOL    HW115995   3.099   3.805   4.200 -1.6995  1.6625 -0.7736
 1512SOL    HW215996   2.988   3.852   4.279 -0.7026 -0.2729 -0.2813
 1513SOL     OW15997   2.751   2.750   7.517 -0.0200  0.2481 -0.3290
 1513SOL    HW115998   2.715   2.827   7.473 -0.1574 -0.0164 -0.6804
 1513SOL    HW215999   2.687   2.683   7.495 -0.8387  0.9137  0.0339
 1514SOL     OW16000   0.803   4.544  11.311 -0.4471 -0.1964 -0.3854
 1514SOL    HW116001   0.863   4.502  11.249 -0.0017 -1.7007  1.0606
 1514SOL    HW216002   0.800   4.633  11.276 -2.5288 -0.2241 -0.2473
 1515SOL     OW16003   4.295   0.092   1.288 -0.3857  0.6035 -0.1001
 1515SOL    HW116004   4.355   0.165   1.302  0.9900 -0.5860  0.1650
 1515SOL    HW216005   4.210   0.128   1.315 -0.1227  0.8825  0.3546
 1516SOL     OW16006   2.724   1.155  11.199  0.2450  0.6520 -0.2592
 1516SOL    HW116007   2.748   1.113  11.281 -0.9770  0.0920 -0.1949
 1516SOL    HW216008   2.638   1.188  11.223  0.8901  0.3531  2.4024
 1517SOL     OW16009   3.717   1.667   5.550  0.4699 -0.0321 -0.0164
 1517SOL    HW116010   3.632   1.625   5.538 -1.0181  3.1025 -0.5465
 1517SOL    HW216011   3.696   1.749   5.595 -1.4216 -0.5481  0.0664
 1518SOL     OW16012   3.254   2.207  13.978  0.6207  0.4263  0.6269
 1518SOL    HW116013   3.163   2.237  13.972  0.3492 -0.4838  0.1506
 1518SOL    HW216014   3.242   2.159  14.059  0.3871  0.3305  0.5338
 1519SOL     OW16015   4.260   1.721   2.442  0.4065  0.0720 -0.4939
 1519SOL    HW116016   4.257   1.797   2.385  1.6312  1.0305  0.7168
 1519SOL    HW216017   4.299   1.655   2.385 -0.3585  0.2962 -1.2771
 1520SOL     OW16018   0.503   3.702   5.251 -0.7374 -0.2102 -0.3023
 1520SOL    HW116019   0.502   3.724   5.158  1.7522  2.0944  0.2257
 1520SOL    HW216020   0.420   3.733   5.288 -0.6625  0.5200 -0.7555
 1521SOL     OW16021   2.068   3.049   1.251 -0.4175  0.3914  0.2736
 1521SOL    HW116022   2.056   3.110   1.325  0.5916  1.5279 -0.4889
 1521SOL    HW216023   2.125   2.979   1.283  0.1919  0.1316 -1.3731
 1522SOL     OW16024   3.071   0.834   0.655  0.8601  0.0055 -0.2427
 1522SOL    HW116025   3.033   0.764   0.603  0.9776 -0.9720  1.0084
 1522SOL    HW216026   3.073   0.907   0.592  2.3354  0.6448  0.5258
 1523SOL     OW16027   1.967   3.528   5.872  0.1872  0.6738 -0.5959
 1523SOL    HW116028   1.921   3.607   5.900 -2.3492 -0.9060 -0.2466
 1523SOL    HW216029   2.060   3.552   5.872  0.3266  0.1558 -2.6310
 1524SOL     OW16030   0.783   1.816  10.089  0.9227  0.3440  0.6834
 1524SOL    HW116031   0.752   1.735  10.049 -1.4145  2.0520 -0.9413
 1524SOL    HW216032   0.837   1.849  10.017 -0.9326 -1.3533 -1.4691
 1525SOL     OW16033   3.774   1.697  17.379  0.4794  0.2516 -0.1396
 1525SOL    HW116034   3.867   1.694  17.356  0.0152  2.4256 -2.3593
 1525SOL    HW216035   3.766   1.626  17.442  3.6716 -0.5239 -0.5879
 1526SOL     OW16036   2.910   2.295   4.494 -0.5148 -0.2080 -0.4454
 1526SOL    HW116037   2.894   2.389   4.497  0.8776  0.0637 -1.4623
 1526SOL    HW216038   3.004   2.289   4.474 -0.0407 -0.8352  2.0052
 1527SOL     OW16039   2.626   1.441   9.590 -0.2479  0.2040 -0.3967
 1527SOL    HW116040   2.571   1.477   9.660  0.2867  1.7428 -0.7690
 1527SOL    HW216041   2.594   1.495   9.518 -0.0926  0.9534  0.0931
 1528SOL     OW16042   4.469   1.457   7.398 -0.2077 -0.1183 -0.5421
 1528SOL    HW116043   4.503   1.368   7.397 -1.2300 -0.5374  0.6424
 1528SOL    HW216044   4.408   1.443   7.471  0.3134 -1.7294 -0.4267
 1529SOL     OW16045   3.874   0.677  16.586 -0.6667  0.1644  0.2139
 1529SOL    HW116046   3.815   0.714  16.520 -1.5136 -2.7509 -0.6767
 1529SOL    HW216047   3.858   0.733  16.662  0.9806  0.7301  0.1469
 1530SOL     OW16048   4.500   0.291   9.194 -0.7124  0.4415  0.6699
 1530SOL    HW116049   4.467   0.208   9.160 -1.2212  0.3230  1.4421
 1530SOL    HW216050   4.420   0.327   9.231 -1.3786  3.2866 -3.6236
 1531SOL     OW16051   3.391   2.507  16.619  0.2945 -0.2629 -0.4945
 1531SOL    HW116052   3.340   2.498  16.538  1.2989 -2.8166 -0.8609
 1531SOL    HW216053   3.346   2.466  16.692 -1.7913  2.1915 -0.4269
 1532SOL     OW16054   4.262   3.796  14.120 -0.0528  0.6519 -0.0061
 1532SOL    HW116055   4.266   3.763  14.210 -0.6211  0.2074 -0.1420
 1532SOL    HW216056   4.355   3.794  14.101  0.1118  1.4285  0.6952
 1533SOL     OW16057   1.020   1.853   9.541 -0.3382 -0.2985  0.8514
 1533SOL    HW116058   1.036   1.811   9.625  1.2041 -1.2167  0.1081
 1533SOL    HW216059   1.034   1.774   9.489 -1.8889  0.5582 -0.8844
 1534SOL     OW16060   3.663   3.390   5.968 -0.0261 -0.6164  0.3999
 1534SOL    HW116061   3.573   3.390   5.936 -0.0259 -0.5233  0.3998
 1534SOL    HW216062   3.678   3.299   5.994  0.4674 -0.7512 -0.3406
 1535SOL     OW16063   3.561   1.043   3.752  0.6312  0.4496 -0.5716
 1535SOL    HW116064   3.603   0.979   3.810 -0.1697 -0.1115 -0.6193
 1535SOL    HW216065   3.597   1.017   3.668 -2.3801  0.8576 -1.9864
 1536SOL     OW16066   2.798   4.194   4.887  0.1065 -0.9165 -0.4833
 1536SOL    HW116067   2.855   4.267   4.864 -2.5574  1.3296 -0.0268
 1536SOL    HW216068   2.863   4.146   4.938 -0.5715 -2.2841 -0.9059
 1537SOL     OW16069   4.340   2.856   5.420  0.0303  0.1156  0.3322
 1537SOL    HW116070   4.289   2.789   5.374 -0.1810 -0.0608  0.8200
 1537SOL    HW216071   4.374   2.812   5.498 -0.3157 -2.0411 -0.7401
 1538SOL     OW16072   0.571   3.011   8.108  0.3617  0.4514  0.5385
 1538SOL    HW116073   0.486   3.020   8.064  0.2601 -0.8096  0.4491
 1538SOL    HW216074   0.592   3.104   8.117  1.1647  0.2390  0.8569
 1539SOL     OW16075   0.418   0.806   9.559 -0.2811 -0.3028  0.3915
 1539SOL    HW116076   0.342   0.860   9.580  0.0726  0.1052  0.6109
 1539SOL    HW216077   0.381   0.718   9.571  1.4317 -0.7386  2.3405
 1540SOL     OW16078   4.628   3.929  12.035  0.7960  0.1081  0.2439
 1540SOL    HW116079   4.563   3.912  12.103  0.6902  0.7893  0.3081
 1540SOL    HW216080   4.615   3.851  11.981 -1.4947 -0.0300  1.0001
 1541SOL     OW16081   3.662   3.902   4.786 -0.0437 -0.5026  0.4270
 1541SOL    HW116082   3.588   3.962   4.778  0.8490  0.4037 -1.1818
 1541SOL    HW216083   3.645   3.853   4.705 -0.2410 -0.8972  0.7094
 1542SOL     OW16084   3.239   1.844   2.976  0.1491 -0.0399 -0.1462
 1542SOL    HW116085   3.252   1.837   3.070  0.4204 -3.5313 -0.4268
 1542SOL    HW216086   3.239   1.751   2.953 -1.7382  0.1963 -1.1004
 1543SOL     OW16087   2.865   1.092   0.045 -0.3661 -0.4675 -0.0335
 1543SOL    HW116088   2.869   1.072  17.646  0.6134  0.9885 -0.2990
 1543SOL    HW216089   2.827   1.012   0.081  0.6147 -1.6085 -1.5149
 1544SOL     OW16090   0.173   0.963   0.951 -0.1539 -0.0618 -0.2387
 1544SOL    HW116091   0.239   1.024   0.919  0.9209 -2.1183 -1.9582
 1544SOL    HW216092   0.223   0.912   1.015  1.6210  0.5941 -1.1233
 1545SOL     OW16093   1.191   4.324  14.557  0.0091  0.1989  0.3742
 1545SOL    HW116094   1.184   4.236  14.520  0.1640 -0.0588  0.9530
 1545SOL    HW216095   1.130   4.315  14.630 -0.8899 -0.1456 -0.4162
 1546SOL     OW16096   2.359   2.953   8.117  0.2213  0.4401  0.0164
 1546SOL    HW116097   2.326   2.959   8.027 -0.5621  0.4911  0.3142
 1546SOL    HW216098   2.431   3.016   8.114  1.8927 -1.5472 -2.6677
 1547SOL     OW16099   3.938   2.751  11.296 -0.2714  0.1071 -0.1182
 1547SOL    HW116100   3.900   2.777  11.380  0.3184 -3.2331  1.1807
 1547SOL    HW216101   4.025   2.737  11.332  0.1702 -0.0659 -1.2384
 1548SOL     OW16102   0.048   3.935   9.410 -0.1197 -0.1100  0.5929
 1548SOL    HW116103   0.072   3.852   9.452  3.4941  0.8123  0.3250
 1548SOL    HW216104   0.116   3.990   9.448  0.1557 -0.2460  0.2943
 1549SOL     OW16105   0.771   0.746   2.661  0.0464  0.0673 -0.8333
 1549SOL    HW116106   0.677   0.725   2.659  0.2431 -1.2153  1.9141
 1549SOL    HW216107   0.767   0.811   2.731 -0.2188  0.5973 -1.3444
 1550SOL     OW16108   2.321   3.209  13.034  0.2325  0.0030 -0.0931
 1550SOL    HW116109   2.307   3.304  13.028 -0.9170 -0.0562  1.5390
 1550SOL    HW216110   2.346   3.205  13.126 -0.2266  1.5430  0.1014
 1551SOL     OW16111   3.926   0.972   6.791  0.1162  0.5719  0.1321
 1551SOL    HW116112   4.000   0.913   6.802 -0.5643 -0.3017  0.0383
 1551SOL    HW216113   3.966   1.021   6.720 -0.2450  0.5926 -0.0570
 1552SOL     OW16114   0.062   3.739   7.711 -0.4645  0.2766  0.4363
 1552SOL    HW116115   0.008   3.734   7.632 -0.2411 -0.1082  0.3096
 1552SOL    HW216116   0.003   3.765   7.782  0.7733 -0.2834  1.6622
 1553SOL     OW16117   3.667   2.297  12.592  0.1316 -0.2980 -0.0602
 1553SOL    HW116118   3.655   2.203  12.605 -2.0934  0.0557  0.4685
 1553SOL    HW216119   3.575   2.306  12.565  0.2138  1.9773  0.4471
 1554SOL     OW16120   3.682   1.899   7.372  0.8274  0.0631  0.4264
 1554SOL    HW116121   3.681   1.824   7.431  1.2610  0.3432  0.7933
 1554SOL    HW216122   3.589   1.907   7.352  0.7533 -0.7588  0.4489
 1555SOL     OW16123   4.111   2.979   9.659  0.7404 -0.7504  0.1632
 1555SOL    HW116124   4.177   3.042   9.689  1.4270 -1.4227  0.0606
 1555SOL    HW216125   4.161   2.906   9.622 -0.5044 -2.6242  2.2093
 1556SOL     OW16126   3.843   2.622   8.253 -0.1879 -0.3654  0.0832
 1556SOL    HW116127   3.866   2.638   8.161  0.6813  2.5268  0.8067
 1556SOL    HW216128   3.929   2.592   8.282 -0.6695 -1.1394  0.7055
 1557SOL     OW16129   4.182   1.967   7.424  0.2236  0.2985 -0.2001
 1557SOL    HW116130   4.248   1.997   7.361  0.5805  0.6310  0.3360
 1557SOL    HW216131   4.191   1.873   7.404  0.3586  0.2493  0.0939
 1558SOL     OW16132   1.626   0.062   2.001 -0.2712 -0.3044 -0.3746
 1558SOL    HW116133   1.720   0.074   2.014 -0.4692  2.1611 -1.1781
 1558SOL    HW216134   1.595   0.141   2.046  0.3162  0.3605 -1.1226
 1559SOL     OW16135   1.787   3.306   5.964  0.0993 -0.3044 -0.0094
 1559SOL    HW116136   1.840   3.376   5.926  1.0736 -1.4903 -0.8434
 1559SOL    HW216137   1.748   3.279   5.880  0.9794  1.3240 -0.9344
 1560SOL     OW16138   4.265   4.633   4.213  0.0646  0.4241  0.3376
 1560SOL    HW116139   4.344   4.582   4.194 -0.3478 -0.2950  0.5510
 1560SOL    HW216140   4.272   4.634   4.309 -0.5335  0.7458  0.3782
 1561SOL     OW16141   0.264   3.966   4.932  0.0183 -0.4074 -0.3457
 1561SOL    HW116142   0.173   3.985   4.954  0.6477  0.8879  1.1356
 1561SOL    HW216143   0.305   4.048   4.960 -1.3649 -0.0811  0.6963
 1562SOL     OW16144   1.394   0.108   6.748  0.9273  0.0543  0.3874
 1562SOL    HW116145   1.469   0.058   6.782 -0.0474 -2.6526 -1.4301
 1562SOL    HW216146   1.403   0.191   6.794 -1.0342 -0.0310  0.9339
 1563SOL     OW16147   2.237   0.921   0.681  0.1531  0.2735  0.1036
 1563SOL    HW116148   2.233   0.988   0.749 -2.4852 -0.2131  0.4283
 1563SOL    HW216149   2.212   0.971   0.604  1.4068 -1.5628 -1.4928
 1564SOL     OW16150   0.386   4.425  13.489  0.9242  0.0615 -0.3940
 1564SOL    HW116151   0.444   4.389  13.422  1.4625 -0.3038  0.2631
 1564SOL    HW216152   0.322   4.355  13.497  1.3821 -0.5588 -2.1692
 1565SOL     OW16153   0.714   1.332   8.141  0.5392 -0.4443  0.0508
 1565SOL    HW116154   0.743   1.384   8.066  1.7166 -1.8769 -0.4922
 1565SOL    HW216155   0.656   1.268   8.101 -0.7079 -0.5783  2.0626
 1566SOL     OW16156   0.696   4.500   5.229  0.0152 -0.1023  0.1800
 1566SOL    HW116157   0.756   4.440   5.274 -1.3008 -1.7389 -0.2902
 1566SOL    HW216158   0.638   4.519   5.302  0.6131 -0.5605  0.7772
 1567SOL     OW16159   1.784   1.692   6.724 -0.2023 -0.2364  0.2934
 1567SOL    HW116160   1.862   1.696   6.780  0.3899  0.6287 -0.5935
 1567SOL    HW216161   1.827   1.727   6.646  0.1228 -1.3611 -0.0483
 1568SOL     OW16162   0.700   0.444   1.963  0.2967 -0.4626 -0.1931
 1568SOL    HW116163   0.658   0.522   1.930  2.7842  1.1706  0.5178
 1568SOL    HW216164   0.789   0.469   1.937  0.9279 -0.4787  1.9414
 1569SOL     OW16165   1.427   1.895  11.012  0.0375 -0.0740 -0.3025
 1569SOL    HW116166   1.349   1.854  11.050  1.3237 -1.8225  0.4475
 1569SOL    HW216167   1.486   1.886  11.087 -0.6976 -1.0241  0.1528
 1570SOL     OW16168   4.356   3.430   6.129  0.1791  0.5528  0.4656
 1570SOL    HW116169   4.324   3.340   6.121  2.0276 -0.0481 -0.0545
 1570SOL    HW216170   4.303   3.454   6.205 -0.0093 -0.3068  0.6079
 1571SOL     OW16171   3.318   4.575   2.414 -0.6145 -0.1479  0.1444
 1571SOL    HW116172   3.265   4.635   2.361  0.3350  1.5633  1.1560
 1571SOL    HW216173   3.372   4.525   2.352 -0.6135 -0.2178  0.2018
 1572SOL     OW16174   3.104   4.473   5.765 -0.3970  0.1002 -0.5288
 1572SOL    HW116175   3.192   4.501   5.792 -0.7463  1.3922 -0.7497
 1572SOL    HW216176   3.077   4.549   5.713 -1.4994 -0.3591 -0.6131
 1573SOL     OW16177   2.435   2.038   1.833 -0.0380 -0.2692  0.0965
 1573SOL    HW116178   2.408   2.121   1.873  2.2374  0.0354  0.9926
 1573SOL    HW216179   2.355   2.004   1.794 -1.2481  1.0612  1.4378
 1574SOL     OW16180   1.146   3.637   4.465 -0.0733 -0.0324  0.3841
 1574SOL    HW116181   1.080   3.707   4.470 -0.1459 -0.1807  1.5600
 1574SOL    HW216182   1.092   3.564   4.495  2.5541 -1.6861  1.0351
 1575SOL     OW16183   4.480   0.437  17.070  0.4380  0.0730  0.2780
 1575SOL    HW116184   4.496   0.484  16.989 -0.4101  0.4099  0.3097
 1575SOL    HW216185   4.509   0.347  17.052 -2.0233 -0.6498 -0.1161
 1576SOL     OW16186   1.356   0.803   1.716  0.1037 -0.4418 -0.2081
 1576SOL    HW116187   1.434   0.755   1.690  2.3111  2.2426  1.4603
 1576SOL    HW216188   1.289   0.767   1.657  0.7122  0.3243 -1.3394
 1577SOL     OW16189   1.188   1.530   3.567  0.0387  0.1529 -0.2602
 1577SOL    HW116190   1.187   1.558   3.476  1.0927  0.2170 -0.2599
 1577SOL    HW216191   1.161   1.439   3.561  0.6868 -0.0813  0.3133
 1578SOL     OW16192   3.057   4.647   9.238  0.0910  0.4918 -0.0025
 1578SOL    HW116193   2.985   4.697   9.276 -2.2667 -1.5105 -1.8036
 1578SOL    HW216194   3.041   4.664   9.145  1.4600 -2.9321 -0.8383
 1579SOL     OW16195   0.292   4.717  13.310 -0.2284 -0.1734  0.2321
 1579SOL    HW116196   0.321   4.637  13.265  1.2551  1.3543 -1.5535
 1579SOL    HW216197   0.357   0.052  13.270 -0.7496 -0.1874 -0.6360
 1580SOL     OW16198   0.012   1.021  16.480 -0.3779  0.1892  0.2349
 1580SOL    HW116199   4.700   1.064  16.402 -1.1640  3.3259  2.3428
 1580SOL    HW216200   4.661   0.962  16.495  0.1642 -0.8762 -1.2220
 1581SOL     OW16201   1.117   4.402   5.959 -0.6197  0.6819  0.1768
 1581SOL    HW116202   1.110   4.455   6.039 -0.7061  0.9329  0.0034
 1581SOL    HW216203   1.023   4.408   5.943 -0.5577  4.2986  1.1525
 1582SOL     OW16204   4.012   1.050   6.527  0.0453  0.0943 -0.4559
 1582SOL    HW116205   4.004   0.984   6.458 -0.6820 -0.9837  0.6787
 1582SOL    HW216206   4.043   1.122   6.472  0.3596  0.7038  0.5181
 1583SOL     OW16207   3.725   4.391   2.744  0.9858  0.3154 -0.1627
 1583SOL    HW116208   3.727   4.464   2.806 -0.9643 -1.6016  2.1359
 1583SOL    HW216209   3.818   4.370   2.753  0.8867 -0.2797 -0.5932
 1584SOL     OW16210   4.378   4.072   5.308 -0.7219  0.3510  0.0096
 1584SOL    HW116211   4.379   4.157   5.264  2.0799  0.1568 -0.3002
 1584SOL    HW216212   4.396   4.012   5.235  1.9728  0.4253  0.6186
 1585SOL     OW16213   0.298   3.582  14.040  0.0028 -0.1224  0.5852
 1585SOL    HW116214   0.298   3.536  13.956  1.1566  3.3059 -1.2975
 1585SOL    HW216215   0.207   3.587  14.069  0.7631  0.5233  2.9164
 1586SOL     OW16216   3.137   1.856  11.882  0.1376  0.8363  0.1540
 1586SOL    HW116217   3.157   1.788  11.818 -0.9780  2.2219 -1.6742
 1586SOL    HW216218   3.098   1.802  11.950  0.0116 -0.1927 -0.7350
 1587SOL     OW16219   4.723   4.699   7.299  0.8655 -0.3514 -0.3072
 1587SOL    HW116220   0.028   4.634   7.364  0.0746 -0.8169 -0.4272
 1587SOL    HW216221   4.670   0.036   7.351  0.9573 -2.3936  2.2014
 1588SOL     OW16222   0.875   4.250   8.363 -0.5493  0.7219  1.1240
 1588SOL    HW116223   0.871   4.214   8.275 -0.1160  2.3639  0.4408
 1588SOL    HW216224   0.912   4.180   8.418 -2.4126 -1.3560 -0.2360
 1589SOL     OW16225   4.348   2.050   6.707  0.0575 -0.2365 -0.0379
 1589SOL    HW116226   4.284   1.980   6.722 -0.3598 -0.2286 -1.7636
 1589SOL    HW216227   4.295   2.126   6.733 -1.4316 -1.3582  0.2423
 1590SOL     OW16228   4.047   1.870   5.958  0.2528 -0.2659  0.4941
 1590SOL    HW116229   4.096   1.791   5.931 -0.1877 -0.6468  0.8126
 1590SOL    HW216230   3.984   1.836   6.021 -0.9536 -2.0407 -1.6607
 1591SOL     OW16231   1.051   3.336   5.190 -0.3409 -0.4084  0.0147
 1591SOL    HW116232   1.052   3.310   5.098 -1.0327 -1.1803  0.2272
 1591SOL    HW216233   1.065   3.431   5.195  1.7807 -0.6829 -0.7795
 1592SOL     OW16234   2.382   3.792   8.865 -0.2746  0.1643 -0.2100
 1592SOL    HW116235   2.319   3.778   8.936 -0.3015  0.3295 -0.2028
 1592SOL    HW216236   2.461   3.750   8.897 -0.4873  0.5361  0.8065
 1593SOL     OW16237   2.528   4.035   6.055 -0.3559 -0.5637 -0.3646
 1593SOL    HW116238   2.571   4.007   5.974  1.5544 -0.1855  0.5021
 1593SOL    HW216239   2.582   4.106   6.089  0.4773 -0.8152 -1.1625
 1594SOL     OW16240   2.797   0.345   2.237 -0.4485 -0.7791 -0.0180
 1594SOL    HW116241   2.749   0.361   2.155  1.9486  1.6475 -0.9463
 1594SOL    HW216242   2.842   0.266   2.207 -1.4272 -1.8760  1.4133
 1595SOL     OW16243   2.204   2.244   6.365  0.0495 -0.1130 -0.2418
 1595SOL    HW116244   2.212   2.323   6.419 -0.4306 -0.4471  0.3296
 1595SOL    HW216245   2.229   2.178   6.430 -0.2579 -2.4817 -2.5601
 1596SOL     OW16246   2.000   2.147   1.344  0.2791  0.2378 -0.4208
 1596SOL    HW116247   2.047   2.067   1.322 -0.0216 -0.1594  0.3994
 1596SOL    HW216248   2.051   2.183   1.416 -0.1992  0.3718 -0.1460
 1597SOL     OW16249   1.902   1.165  13.930  0.2824  0.3589 -0.0792
 1597SOL    HW116250   1.869   1.251  13.953  0.1125  0.7423 -1.7609
 1597SOL    HW216251   1.832   1.123  13.880 -1.2047 -1.1730  3.2995
 1598SOL     OW16252   2.056   4.262  15.446 -0.3091 -0.1824  0.9108
 1598SOL    HW116253   2.114   4.202  15.400 -3.3482 -1.2323 -1.5228
 1598SOL    HW216254   2.005   4.196  15.493 -0.6113 -0.2751  0.4575
 1599SOL     OW16255   4.184   2.938   1.911 -0.2763  0.1319 -0.7046
 1599SOL    HW116256   4.117   2.896   1.857  0.4242  0.4343 -1.8052
 1599SOL    HW216257   4.249   2.945   1.841 -0.1392  0.3438 -0.5559
 1600SOL     OW16258   0.969   3.075   6.087  0.2827 -0.1689 -0.7386
 1600SOL    HW116259   0.989   3.163   6.116 -0.2022  0.9467 -3.7268
 1600SOL    HW216260   0.929   3.102   6.004 -3.9531  0.1599  1.3936
 1601SOL     OW16261   3.089   0.793  16.425  0.0065  0.1020  0.5653
 1601SOL    HW116262   3.063   0.733  16.355  1.6188 -1.1302  1.0040
 1601SOL    HW216263   3.054   0.744  16.500  2.7250  1.2072  2.5689
 1602SOL     OW16264   3.093   0.670   3.831  0.8878  0.1129 -0.2523
 1602SOL    HW116265   3.103   0.591   3.779  1.0829 -1.0030  1.4907
 1602SOL    HW216266   3.181   0.707   3.826 -0.2551  2.8383 -0.5158
 1603SOL     OW16267   2.231   4.098  10.255 -0.5228  0.8044  0.4687
 1603SOL    HW116268   2.302   4.163  10.259  0.1345  0.1139 -0.0584
 1603SOL    HW216269   2.164   4.141  10.202 -1.5950 -1.1108  0.2787
 1604SOL     OW16270   2.067   4.042   8.231  0.4010 -1.1541 -0.2667
 1604SOL    HW116271   2.021   4.003   8.157  0.9713 -0.9581 -0.7289
 1604SOL    HW216272   2.034   3.991   8.305 -0.6341 -1.5269 -0.9912
 1605SOL     OW16273   4.198   2.645   6.592 -0.0598 -0.3360 -0.0329
 1605SOL    HW116274   4.207   2.741   6.598 -2.5050  0.0359 -2.4078
 1605SOL    HW216275   4.289   2.615   6.593  0.3431  0.8091 -3.0811
 1606SOL     OW16276   0.688   0.165   6.826 -0.2329 -0.0598  0.4598
 1606SOL    HW116277   0.761   0.129   6.877 -0.1270 -2.3710 -1.3018
 1606SOL    HW216278   0.663   0.238   6.882 -1.6640  0.4924 -0.9037
 1607SOL     OW16279   1.059   3.007   5.124  0.1922  0.3996  0.1152
 1607SOL    HW116280   1.115   3.078   5.157 -1.3195  2.7511 -2.2930
 1607SOL    HW216281   1.101   2.941   5.178  2.2530  0.2402 -1.6917
 1608SOL     OW16282   0.543   2.599   6.518 -0.0537 -0.0383  0.1437
 1608SOL    HW116283   0.602   2.647   6.460  1.2149 -0.4449  1.1080
 1608SOL    HW216284   0.572   2.631   6.603  0.2478  0.1921 -0.0463
 1609SOL     OW16285   1.391   3.711  10.022  0.5141 -0.4306 -0.0694
 1609SOL    HW116286   1.448   3.678   9.953  0.4100 -0.0816 -0.3222
 1609SOL    HW216287   1.311   3.726   9.973  1.0008  1.8424 -0.1991
 1610SOL     OW16288   3.010   2.745   3.470 -0.0295  0.1702  0.0444
 1610SOL    HW116289   2.986   2.678   3.405  0.2506 -0.4626  0.5893
 1610SOL    HW216290   3.085   2.702   3.512  0.8813  0.2898 -1.4771
 1611SOL     OW16291   1.618   2.596  15.771 -0.4276  0.1173 -0.2334
 1611SOL    HW116292   1.525   2.574  15.772 -0.3279 -0.1809  1.6520
 1611SOL    HW216293   1.643   2.528  15.834  0.0983  0.2985 -0.2479
 1612SOL     OW16294   2.052   1.829   2.351 -0.5165 -0.4234  0.0530
 1612SOL    HW116295   2.146   1.817   2.337 -0.2617 -0.2465  1.5612
 1612SOL    HW216296   2.042   1.917   2.315 -0.1344  1.1395  3.7289
 1613SOL     OW16297   3.599   3.491   3.876 -0.0649 -0.2977  0.1875
 1613SOL    HW116298   3.544   3.420   3.844 -2.8505  1.3024  1.4092
 1613SOL    HW216299   3.540   3.559   3.909 -0.7025 -2.3052  3.1876
 1614SOL     OW16300   2.959   2.171  15.172 -0.5387  0.3493 -0.2332
 1614SOL    HW116301   2.943   2.259  15.140 -0.7739  1.0405  1.7829
 1614SOL    HW216302   3.001   2.191  15.256  1.6712 -0.8556 -1.0326
 1615SOL     OW16303   1.422   1.580  14.961 -0.2584  0.5496  0.8002
 1615SOL    HW116304   1.484   1.607  14.893  0.3407 -2.1866  0.2746
 1615SOL    HW216305   1.429   1.485  14.963 -0.9713  0.4830 -0.2084
 1616SOL     OW16306   3.287   3.656   3.364 -0.2692 -0.0185  0.5127
 1616SOL    HW116307   3.234   3.659   3.444 -1.5215  0.6458 -0.3233
 1616SOL    HW216308   3.334   3.573   3.366 -0.0668  0.0786 -0.3841
 1617SOL     OW16309   4.666   0.303  10.630  0.0313 -0.0567 -0.0565
 1617SOL    HW116310   4.658   0.296  10.725 -0.0755 -0.1682 -0.0738
 1617SOL    HW216311   0.037   0.291  10.625 -0.0495 -1.1679  1.1119
 1618SOL     OW16312   3.011   0.845   3.219  0.1398 -0.0917  0.4413
 1618SOL    HW116313   2.986   0.835   3.127  1.3625  0.8150  0.0033
 1618SOL    HW216314   2.927   0.845   3.265  0.2623  1.0306  0.6640
 1619SOL     OW16315   3.212   4.629   8.098  0.7550  0.3480 -0.4632
 1619SOL    HW116316   3.254   4.589   8.174  3.1049  0.6107 -1.6299
 1619SOL    HW216317   3.208   4.720   8.129  2.1272  0.1992  0.1500
 1620SOL     OW16318   2.981   1.331   2.491 -0.2177  0.1738  0.8193
 1620SOL    HW116319   2.998   1.316   2.398 -1.8400 -0.4012  0.6167
 1620SOL    HW216320   2.981   1.426   2.502 -0.7894  0.1688  0.8588
 1621SOL     OW16321   1.602   3.118  14.391  0.0526  0.1834  0.2603
 1621SOL    HW116322   1.591   3.111  14.297  1.1829  1.2010  0.0461
 1621SOL    HW216323   1.602   3.025  14.414  2.3104  0.1313  0.0388
 1622SOL     OW16324   1.288   3.673   1.264  0.1092  0.3473  0.1392
 1622SOL    HW116325   1.369   3.714   1.233  1.1508 -0.7405  1.4631
 1622SOL    HW216326   1.217   3.735   1.242 -0.5397  0.2628  2.0154
 1623SOL     OW16327   2.341   2.984  12.879 -0.1009 -0.3484 -0.4886
 1623SOL    HW116328   2.319   3.056  12.938  4.1714  1.8440 -1.6015
 1623SOL    HW216329   2.432   3.007  12.864 -0.0605 -0.0480  0.2193
 1624SOL     OW16330   2.789   1.600   5.832 -0.5639 -0.0731  0.3148
 1624SOL    HW116331   2.806   1.614   5.739  2.5919 -1.0585  0.7334
 1624SOL    HW216332   2.853   1.661   5.869 -0.6935 -1.3970  2.7484
 1625SOL     OW16333   2.116   0.329   3.248 -0.4589  0.2946  0.0762
 1625SOL    HW116334   2.208   0.353   3.237 -0.1497 -0.9852 -0.1724
 1625SOL    HW216335   2.120   0.313   3.342 -1.2877 -2.4213 -0.3569
 1626SOL     OW16336   4.370   2.676   5.096  0.5509  0.1572 -0.1356
 1626SOL    HW116337   4.291   2.655   5.146 -0.1117  0.6045 -0.9939
 1626SOL    HW216338   4.439   2.653   5.159 -1.3747  1.5480  2.4603
 1627SOL     OW16339   1.945   2.274  11.312  0.0784 -0.0230  0.1081
 1627SOL    HW116340   1.979   2.301  11.227  0.9250 -1.2124  0.0743
 1627SOL    HW216341   1.866   2.328  11.323 -0.2765 -0.0374 -2.4535
 1628SOL     OW16342   1.198   1.341   3.221 -0.2105 -0.0485 -0.7447
 1628SOL    HW116343   1.161   1.253   3.220 -0.0314 -0.1320  0.2049
 1628SOL    HW216344   1.288   1.310   3.219  0.1145  0.7272  1.9007
 1629SOL     OW16345   1.227   2.646   7.860 -0.3020  0.0054  0.0678
 1629SOL    HW116346   1.140   2.610   7.843 -0.0876 -0.4473 -0.0617
 1629SOL    HW216347   1.197   2.720   7.913  1.3767  1.0212 -0.3926
 1630SOL     OW16348   3.926   1.669   4.171  0.5191  0.1080  0.0608
 1630SOL    HW116349   3.931   1.644   4.264 -1.5209 -1.4578 -0.2779
 1630SOL    HW216350   3.870   1.747   4.176 -0.1566 -0.2755 -1.8250
 1631SOL     OW16351   2.661   3.071   4.865  0.4989 -0.1533  0.7193
 1631SOL    HW116352   2.636   3.071   4.957 -0.3356  0.0913  0.4904
 1631SOL    HW216353   2.687   3.162   4.849 -1.7827  0.4731  0.6246
 1632SOL     OW16354   1.896   0.317  14.666  0.4168 -0.5202  0.4242
 1632SOL    HW116355   1.921   0.406  14.641 -0.1075 -1.2710 -2.7149
 1632SOL    HW216356   1.811   0.333  14.706  1.3883  1.4654  1.7213
 1633SOL     OW16357   1.352   0.294  10.284  0.4192  0.4645 -0.8369
 1633SOL    HW116358   1.432   0.321  10.329 -0.4598 -0.8968  1.5098
 1633SOL    HW216359   1.304   0.253  10.356  1.8801 -2.1858 -1.3795
 1634SOL     OW16360   2.258   2.170   2.721  0.0336  0.6040 -0.3363
 1634SOL    HW116361   2.304   2.221   2.787  0.4062  2.0875 -1.7346
 1634SOL    HW216362   2.239   2.241   2.660 -0.6220  0.9448  0.2671
 1635SOL     OW16363   2.260   1.820  13.362 -0.5345 -0.1318 -0.0163
 1635SOL    HW116364   2.237   1.905  13.324  0.8155  0.4014  0.3552
 1635SOL    HW216365   2.318   1.844  13.435 -0.1960 -0.4310 -0.1868
 1636SOL     OW16366   1.065   0.444   4.879 -0.3614  0.4115  0.0380
 1636SOL    HW116367   1.028   0.515   4.827 -0.4143  0.2099 -0.1981
 1636SOL    HW216368   1.144   0.482   4.919  0.7803 -0.2149 -1.6054
 1637SOL     OW16369   3.198   1.042  16.428  0.3417  0.1557  0.0616
 1637SOL    HW116370   3.123   1.100  16.420  1.4156  1.4247 -0.8444
 1637SOL    HW216371   3.157   0.956  16.422  0.5925 -0.1467  2.5285
 1638SOL     OW16372   0.645   3.489   8.618 -0.1576 -0.4407 -0.3103
 1638SOL    HW116373   0.550   3.489   8.629  0.0417  0.5154  1.4118
 1638SOL    HW216374   0.678   3.408   8.656 -0.7237  0.1257  1.3850
 1639SOL     OW16375   1.013   0.826   6.361 -0.1430 -0.4047 -0.3789
 1639SOL    HW116376   0.923   0.858   6.363  0.3162  0.7911  1.9529
 1639SOL    HW216377   1.004   0.731   6.352  1.9635 -0.5649 -0.7563
 1640SOL     OW16378   1.660   2.528   7.493  0.6701  0.2185  0.2264
 1640SOL    HW116379   1.641   2.613   7.454 -1.5286 -0.6477 -0.6289
 1640SOL    HW216380   1.624   2.546   7.580 -2.1045 -0.3626 -0.7946
 1641SOL     OW16381   2.893   3.825   7.696 -0.3003  0.2609 -0.1452
 1641SOL    HW116382   2.845   3.908   7.706  0.8379  1.0161 -1.0133
 1641SOL    HW216383   2.856   3.795   7.612  1.0644 -0.4278 -0.5069
 1642SOL     OW16384   3.101   4.621   4.683 -0.1591 -0.1777  0.6499
 1642SOL    HW116385   3.156   4.646   4.757 -0.8956  1.2911  0.6995
 1642SOL    HW216386   3.018   4.661   4.709 -0.3173  0.5855 -1.0653
 1643SOL     OW16387   0.589   2.961  13.214  0.0072 -0.0063  0.2894
 1643SOL    HW116388   0.629   3.041  13.183  2.7498 -1.4982  0.0120
 1643SOL    HW216389   0.670   2.912  13.230  0.3154  1.4028  2.9236
 1644SOL     OW16390   1.286   0.866  12.463  0.5505  0.0617 -0.2730
 1644SOL    HW116391   1.278   0.892  12.555 -0.5022  0.9232 -0.6126
 1644SOL    HW216392   1.344   0.936  12.435  2.2852 -0.8208  1.0638
 1645SOL     OW16393   4.365   1.630   6.176 -0.2061  0.0528 -0.2118
 1645SOL    HW116394   4.421   1.552   6.177 -1.4833 -0.8623 -0.9220
 1645SOL    HW216395   4.284   1.587   6.148  1.3418 -2.4197 -0.9189
 1646SOL     OW16396   3.746   3.404  11.469  0.0618  0.3742 -0.2508
 1646SOL    HW116397   3.657   3.438  11.455  0.2965  0.4320 -1.5977
 1646SOL    HW216398   3.741   3.381  11.562  2.5160  1.1526  0.0809
 1647SOL     OW16399   3.900   3.922   3.426  0.3247  0.1478 -0.0240
 1647SOL    HW116400   3.808   3.899   3.413 -0.3387  1.7495  1.7907
 1647SOL    HW216401   3.938   3.841   3.393 -0.9402 -0.7434  0.7042
 1648SOL     OW16402   1.410   0.262   7.534 -0.0051 -0.4815 -0.1568
 1648SOL    HW116403   1.398   0.355   7.556  1.1274 -0.9150  2.3302
 1648SOL    HW216404   1.463   0.233   7.609 -0.2975 -0.1398  0.1806
 1649SOL     OW16405   0.616   3.853  17.093 -0.5329  0.0901 -0.0064
 1649SOL    HW116406   0.678   3.881  17.160 -0.8387  0.9933 -0.0974
 1649SOL    HW216407   0.560   3.795  17.146  0.2126  1.3450  2.1456
 1650SOL     OW16408   0.101   1.845  12.288 -0.6943  0.0440  0.3737
 1650SOL    HW116409   0.182   1.794  12.289  0.7707  2.3934 -0.1229
 1650SOL    HW216410   0.131   1.932  12.261 -1.1469  0.3219  0.7693
 1651SOL     OW16411   3.899   4.580   0.030  0.0082 -0.8046  0.4042
 1651SOL    HW116412   3.853   4.605  17.645  1.1266 -1.9520 -0.6002
 1651SOL    HW216413   3.907   4.665   0.074 -1.4191 -0.8274  0.7077
 1652SOL     OW16414   2.030   3.547   1.931 -0.8777 -0.1153 -0.2732
 1652SOL    HW116415   2.103   3.515   1.878 -2.3283 -0.5341 -2.0109
 1652SOL    HW216416   2.023   3.630   1.883 -1.3873 -0.1018 -0.1818
 1653SOL     OW16417   1.367   0.773   2.946 -0.0964  0.1204  0.2304
 1653SOL    HW116418   1.294   0.740   2.893  0.9938  0.4774 -1.4577
 1653SOL    HW216419   1.437   0.787   2.883 -0.1779 -0.3421  0.0368
 1654SOL     OW16420   1.337   2.470   5.329 -0.2606 -0.2689 -0.4602
 1654SOL    HW116421   1.363   2.558   5.302 -0.5876 -0.5130 -1.5635
 1654SOL    HW216422   1.274   2.491   5.398 -0.3369  0.3205 -0.7053
 1655SOL     OW16423   3.794   0.770   9.366 -0.8857 -0.7309  0.2197
 1655SOL    HW116424   3.767   0.678   9.372 -1.5449 -0.5384  0.1646
 1655SOL    HW216425   3.878   0.758   9.410  0.1024  2.0016 -0.9735
 1656SOL     OW16426   3.841   4.014   9.126  0.1265 -0.4052  0.2153
 1656SOL    HW116427   3.902   4.069   9.176 -1.1195  0.9807  0.1854
 1656SOL    HW216428   3.759   4.042   9.166  0.1492 -0.0965  0.0432
 1657SOL     OW16429   0.380   1.888   8.826 -0.1785 -0.3353 -0.1293
 1657SOL    HW116430   0.449   1.824   8.809  1.0854  0.9785  0.0172
 1657SOL    HW216431   0.305   1.833   8.847  0.9336 -1.4528  0.9309
 1658SOL     OW16432   1.790   2.092   6.089 -0.1524  0.7270 -0.0082
 1658SOL    HW116433   1.702   2.061   6.113 -0.6615  0.1500 -2.6319
 1658SOL    HW216434   1.842   2.013   6.103 -0.7153  0.8658  2.8843
 1659SOL     OW16435   4.642   4.577   3.421 -0.4035 -0.2016 -0.4503
 1659SOL    HW116436   4.552   4.588   3.390  0.5318 -2.3432 -4.0001
 1659SOL    HW216437   4.660   4.486   3.398 -1.7802 -0.0969 -1.9643
 1660SOL     OW16438   2.079   1.672   6.205 -0.5837  0.5655  0.0222
 1660SOL    HW116439   2.112   1.757   6.175  0.0924  0.4160  0.3207
 1660SOL    HW216440   2.143   1.606   6.177 -1.2926 -0.3680  0.6142
 1661SOL     OW16441   1.762   0.264  12.690 -0.0421 -0.3681 -0.0350
 1661SOL    HW116442   1.801   0.346  12.721  2.0164 -1.7551  1.0554
 1661SOL    HW216443   1.798   0.194  12.745 -2.7682 -0.6477  1.3706
 1662SOL     OW16444   3.979   4.278   7.144 -0.0220  0.5910  0.3903
 1662SOL    HW116445   3.941   4.261   7.230 -1.8061  1.8416 -0.1396
 1662SOL    HW216446   4.068   4.307   7.160  1.2142 -3.3507  0.7563
 1663SOL     OW16447   4.575   0.888   0.805  0.3303 -0.0577 -0.2498
 1663SOL    HW116448   4.541   0.884   0.715  2.6203 -0.5105 -1.0881
 1663SOL    HW216449   4.593   0.981   0.816  1.4834 -0.0900 -1.9359
 1664SOL     OW16450   0.558   4.263  12.175  0.7250 -0.2719  0.0384
 1664SOL    HW116451   0.496   4.335  12.184  0.8968  0.0957 -1.8461
 1664SOL    HW216452   0.612   4.296  12.247  1.5337  0.9125 -1.1188
 1665SOL     OW16453   2.521   1.411   1.947 -0.1518 -1.0074  0.1762
 1665SOL    HW116454   2.541   1.495   1.906 -1.5561 -1.2106 -0.9361
 1665SOL    HW216455   2.607   1.391   1.983  1.3197 -1.4433 -3.5741
 1666SOL     OW16456   1.451   2.402   4.216  0.1812  0.2866 -0.9806
 1666SOL    HW116457   1.378   2.363   4.167 -0.9293  0.3956  0.5830
 1666SOL    HW216458   1.461   2.480   4.162 -0.7832  1.0734 -0.0286
 1667SOL     OW16459   2.432   4.072   3.426 -0.0512 -0.2273 -0.2663
 1667SOL    HW116460   2.467   4.135   3.489  0.1063  0.6728 -1.2585
 1667SOL    HW216461   2.441   3.991   3.475  0.5872  1.2324  2.0196
 1668SOL     OW16462   2.773   4.607  12.321 -0.0589  0.3183 -0.2432
 1668SOL    HW116463   2.701   4.622  12.260  1.7938  2.6538 -1.8407
 1668SOL    HW216464   2.721   4.609  12.402  0.6834  2.1597  0.1975
 1669SOL     OW16465   0.141   1.057   1.536 -0.0224  0.0631  0.3724
 1669SOL    HW116466   0.089   1.093   1.464  0.2132  0.9086  0.6205
 1669SOL    HW216467   0.230   1.073   1.505 -0.3404  1.3422  0.0972
 1670SOL     OW16468   1.986   0.399   9.666  0.1374 -0.6632  0.0641
 1670SOL    HW116469   1.941   0.322   9.632  0.6746 -0.8966 -0.1162
 1670SOL    HW216470   1.975   0.451   9.586  1.9937  0.7898  0.7437
 1671SOL     OW16471   2.028   2.285  11.720 -0.2809 -0.4068  0.0451
 1671SOL    HW116472   1.996   2.371  11.749  0.9675 -0.4060  1.4457
 1671SOL    HW216473   2.071   2.300  11.636  0.0693 -0.3957  0.2288
 1672SOL     OW16474   2.087   2.328  13.126  0.6607 -0.3274 -0.3425
 1672SOL    HW116475   2.145   2.262  13.088  0.8704  1.4240 -3.1236
 1672SOL    HW216476   2.078   2.389  13.053 -0.8401 -2.5866 -2.0449
 1673SOL     OW16477   1.416   3.646   6.226  0.2481  0.5149  0.1996
 1673SOL    HW116478   1.441   3.673   6.138 -1.6371  2.5276  0.2958
 1673SOL    HW216479   1.377   3.730   6.248 -1.3545 -0.6626  1.8796
 1674SOL     OW16480   2.535   1.122   1.780  0.2674 -0.4458  0.4906
 1674SOL    HW116481   2.497   1.044   1.739  0.9418 -0.1652 -0.6671
 1674SOL    HW216482   2.469   1.152   1.843 -0.5367  1.7123 -1.4111
 1675SOL     OW16483   4.269   0.615   7.605  0.2592  0.2089 -0.2870
 1675SOL    HW116484   4.240   0.673   7.676  1.7523 -0.6876  1.0670
 1675SOL    HW216485   4.203   0.546   7.613  2.2264 -1.7212 -0.6863
 1676SOL     OW16486   4.418   3.260   5.271 -0.5072 -0.5727  0.4615
 1676SOL    HW116487   4.345   3.258   5.209  0.1188  0.9893 -0.3225
 1676SOL    HW216488   4.460   3.175   5.262 -0.5893 -0.9026  3.2638
 1677SOL     OW16489   3.680   2.070   3.971 -0.4822  0.0321  0.1382
 1677SOL    HW116490   3.686   2.116   4.055 -0.7258  1.4104 -0.5977
 1677SOL    HW216491   3.597   2.097   3.932 -0.3706 -1.6081 -1.2420
 1678SOL     OW16492   2.257   4.539   3.235  0.7766 -0.0830  0.4971
 1678SOL    HW116493   2.281   4.447   3.223 -3.8985 -0.9727 -1.9805
 1678SOL    HW216494   2.177   4.534   3.182  1.2009 -0.5007 -0.1019
 1679SOL     OW16495   2.988   1.485  10.550  1.0623 -0.5754  0.2431
 1679SOL    HW116496   3.059   1.433  10.511 -0.3053 -2.0887 -0.1990
 1679SOL    HW216497   2.976   1.439  10.633  2.2120  1.2410  1.4229
 1680SOL     OW16498   1.980   3.405   4.768 -0.0533  0.0234  0.2778
 1680SOL    HW116499   1.973   3.349   4.691 -1.1595  1.5599 -0.7404
 1680SOL    HW216500   1.959   3.343   4.838  1.1874 -0.0683  0.5555
 1681SOL     OW16501   2.958   1.391   7.058 -0.4084  0.4740  0.5567
 1681SOL    HW116502   3.037   1.432   7.022  0.6680 -2.9542 -0.9770
 1681SOL    HW216503   2.993   1.340   7.131 -2.4751 -2.5296 -0.5518
 1682SOL     OW16504   4.422   1.163   7.185  0.3970 -0.0185  0.6674
 1682SOL    HW116505   4.509   1.126   7.172  0.9000  1.9210 -1.4833
 1682SOL    HW216506   4.374   1.081   7.174  2.5379 -0.8687 -2.2641
 1683SOL     OW16507   4.654   0.006  15.670  0.6805 -0.1646 -0.0083
 1683SOL    HW116508   4.580   4.685  15.628 -0.8029  0.9115  1.4599
 1683SOL    HW216509   4.638   0.100  15.676  2.6111 -0.0806  3.8765
 1684SOL     OW16510   1.089   2.505   4.151 -0.3686 -0.0552  0.0832
 1684SOL    HW116511   1.110   2.563   4.224 -0.8865  0.6184 -0.3028
 1684SOL    HW216512   1.138   2.537   4.075  2.1664 -0.4852  1.5507
 1685SOL     OW16513   2.504   2.813   9.699  0.2450  0.3529  0.4076
 1685SOL    HW116514   2.484   2.721   9.713 -1.2114  0.8922  1.9168
 1685SOL    HW216515   2.525   2.841   9.788  0.5002  0.0264  0.4502
 1686SOL     OW16516   4.315   0.327   2.450 -0.0143  0.4496  0.5879
 1686SOL    HW116517   4.389   0.344   2.508 -1.4837  0.4638  2.5062
 1686SOL    HW216518   4.300   0.234   2.464  0.7862  0.0215 -1.4728
 1687SOL     OW16519   2.062   3.336   8.277  0.7847 -0.0069  0.0891
 1687SOL    HW116520   2.103   3.289   8.349 -0.1319 -1.8495 -0.5793
 1687SOL    HW216521   2.136   3.326   8.217  1.5721 -2.7337  1.5438
 1688SOL     OW16522   1.828   1.582   4.582  0.4983  0.2738 -0.0100
 1688SOL    HW116523   1.771   1.518   4.539 -1.4714 -0.4848  3.6772
 1688SOL    HW216524   1.819   1.661   4.528  0.7197  1.5106  1.7307
 1689SOL     OW16525   1.879   4.323   5.175 -0.5252  0.3875 -0.8543
 1689SOL    HW116526   1.788   4.294   5.181  0.2107 -2.1822 -2.1981
 1689SOL    HW216527   1.923   4.289   5.253  0.7786 -1.2005 -2.2710
 1690SOL     OW16528   2.667   1.761   4.737  0.1704  0.0444 -0.6054
 1690SOL    HW116529   2.657   1.747   4.643  1.2619 -1.0311 -0.5527
 1690SOL    HW216530   2.715   1.680   4.753  1.8938  1.1593 -0.1312
 1691SOL     OW16531   2.807   1.068  11.459  0.5094 -0.5478 -0.4736
 1691SOL    HW116532   2.842   1.154  11.482  0.6412 -0.6291 -0.3688
 1691SOL    HW216533   2.850   1.022  11.531  0.0713  1.0592  0.8041
 1692SOL     OW16534   4.552   3.673   7.598  0.3203 -0.0943 -0.6075
 1692SOL    HW116535   4.533   3.688   7.690 -1.2085  1.7704 -1.2285
 1692SOL    HW216536   4.491   3.719   7.540 -0.0614  0.7029  0.4305
 1693SOL     OW16537   2.729   4.361   8.489 -0.1298  0.2604 -0.5326
 1693SOL    HW116538   2.656   4.414   8.521 -0.1958 -0.0348 -0.1960
 1693SOL    HW216539   2.776   4.419   8.429  1.9437 -0.6144  0.2347
 1694SOL     OW16540   0.326   4.286   8.331  0.4302  0.0773  0.1069
 1694SOL    HW116541   0.249   4.253   8.285  0.2956  1.7862 -0.8871
 1694SOL    HW216542   0.349   4.368   8.287  1.0994  0.4028  1.0400
 1695SOL     OW16543   0.957   4.676   9.498  0.6443  0.0380 -0.2437
 1695SOL    HW116544   0.902   4.611   9.541 -2.3084  3.1026  0.5433
 1695SOL    HW216545   0.946   4.640   9.410 -0.2668 -1.1098  0.3452
 1696SOL     OW16546   3.399   3.452   2.906  0.2831  0.4496  0.2455
 1696SOL    HW116547   3.303   3.451   2.901  0.2080 -0.7449  2.0512
 1696SOL    HW216548   3.417   3.499   2.987 -0.5819  0.5776  0.3715
 1697SOL     OW16549   4.309   1.183  16.664 -0.2012  0.4705 -0.5952
 1697SOL    HW116550   4.388   1.188  16.719 -2.2404  0.1713  2.3726
 1697SOL    HW216551   4.257   1.107  16.693 -2.3648  2.0208 -0.4598
 1698SOL     OW16552   4.095   4.702   2.889  0.4096  0.2545 -0.3150
 1698SOL    HW116553   4.074   4.684   2.798  1.7537  1.6364 -0.9192
 1698SOL    HW216554   4.035   0.048   2.917 -0.5114 -0.5057 -0.4458
 1699SOL     OW16555   1.455   2.691   8.058  0.1707 -0.4190 -0.0609
 1699SOL    HW116556   1.534   2.644   8.029  0.2547 -0.3446  0.0461
 1699SOL    HW216557   1.480   2.745   8.133 -0.4280 -0.7066  0.3471
 1700SOL     OW16558   1.285   4.530   2.621 -0.2488  0.4862  0.4269
 1700SOL    HW116559   1.367   4.559   2.661  0.6490  2.2839 -2.6603
 1700SOL    HW216560   1.253   4.607   2.574 -1.5562 -0.2919  0.0452
 1701SOL     OW16561   3.584   2.314  16.530 -0.2866  0.0165 -0.2872
 1701SOL    HW116562   3.551   2.380  16.591 -0.5256 -0.6269  0.2822
 1701SOL    HW216563   3.620   2.371  16.462 -0.8392  0.4886 -0.1836
 1702SOL     OW16564   3.410   1.310  16.081  0.0861 -0.4686  0.3184
 1702SOL    HW116565   3.448   1.252  16.015  1.6917  1.3324 -0.3565
 1702SOL    HW216566   3.398   1.240  16.145  1.0351 -0.3017  0.6816
 1703SOL     OW16567   2.061   1.178   3.089 -0.3884  0.1330  0.3522
 1703SOL    HW116568   2.124   1.249   3.104  0.5328 -0.7563  0.6824
 1703SOL    HW216569   2.021   1.236   3.024  3.4756  0.9095 -1.3645
 1704SOL     OW16570   4.237   1.718   4.325  0.6688  0.0336  0.1803
 1704SOL    HW116571   4.198   1.660   4.390 -0.9504  1.2720  0.3188
 1704SOL    HW216572   4.322   1.731   4.368  0.4227 -1.5418  1.1085
 1705SOL     OW16573   0.609   1.468   4.597  0.0561  0.1649  0.1024
 1705SOL    HW116574   0.668   1.491   4.526  1.2622  0.7397  1.2904
 1705SOL    HW216575   0.601   1.550   4.645  0.0036  0.1061  0.1941
 1706SOL     OW16576   0.804   4.700   6.616  0.3627 -0.1674 -0.3786
 1706SOL    HW116577   0.722   0.025   6.632 -0.3347 -0.6508 -2.5062
 1706SOL    HW216578   0.837   4.688   6.705 -1.4565 -3.7410 -0.1813
 1707SOL     OW16579   3.949   1.400   6.855 -0.0292 -0.3393 -0.2633
 1707SOL    HW116580   4.027   1.346   6.844  0.1461 -0.1387 -0.0198
 1707SOL    HW216581   3.987   1.461   6.919  0.0385 -0.1972 -0.4371
 1708SOL     OW16582   3.093   3.893   9.329  0.1906  0.1450 -0.0134
 1708SOL    HW116583   3.159   3.880   9.262 -0.4600  2.0404 -1.0434
 1708SOL    HW216584   3.127   3.850   9.408 -0.3461  2.3676  1.4568
 1709SOL     OW16585   0.167   0.400   2.938 -0.1803 -0.0994  0.4191
 1709SOL    HW116586   0.251   0.400   2.891  0.1388  1.5977  1.0013
 1709SOL    HW216587   0.113   0.446   2.874 -0.1031  0.7355  0.9542
 1710SOL     OW16588   0.917   2.356  11.028  0.2206 -0.2879  0.4281
 1710SOL    HW116589   0.825   2.329  11.026 -0.0074  0.5504  0.0346
 1710SOL    HW216590   0.933   2.362  11.122  0.4709 -1.5146  0.4702
 1711SOL     OW16591   2.273   0.134   5.348 -0.9070  0.0182 -0.4607
 1711SOL    HW116592   2.216   0.118   5.273 -1.7449  1.6457 -0.1715
 1711SOL    HW216593   2.288   0.043   5.375 -0.2013 -0.2320 -1.7039
 1712SOL     OW16594   0.087   3.162   6.560 -0.3509  0.0699 -0.3170
 1712SOL    HW116595   0.102   3.069   6.542 -0.2318  0.1976 -0.8825
 1712SOL    HW216596   0.140   3.192   6.486 -1.4489  0.6528 -0.8598
 1713SOL     OW16597   1.401   1.075   0.872 -0.4661 -0.9613 -0.0214
 1713SOL    HW116598   1.379   1.163   0.902 -3.1592 -0.5397 -3.2986
 1713SOL    HW216599   1.495   1.087   0.882 -0.4420 -0.9753 -0.2350
 1714SOL     OW16600   1.388   3.043   2.025 -0.1735 -0.2031  0.1346
 1714SOL    HW116601   1.345   3.019   2.107 -0.1532 -0.3459  0.1030
 1714SOL    HW216602   1.450   2.970   2.023  0.2383  0.1533 -0.2548
 1715SOL     OW16603   3.056   2.465   2.043 -0.3598 -0.2264 -0.4600
 1715SOL    HW116604   3.117   2.499   2.108 -0.2542  0.0972 -0.7305
 1715SOL    HW216605   3.102   2.457   1.960 -0.9357 -1.9303 -0.6054
 1716SOL     OW16606   0.282   2.851   2.393 -0.0642  0.7128  0.0694
 1716SOL    HW116607   0.207   2.796   2.415 -2.1633  2.7173 -2.0987
 1716SOL    HW216608   0.353   2.792   2.419 -1.1560 -0.0894  1.2497
 1717SOL     OW16609   2.573   3.715   4.073  0.2659 -0.5374 -0.4681
 1717SOL    HW116610   2.614   3.783   4.019 -0.6796  0.3751 -0.0355
 1717SOL    HW216611   2.574   3.640   4.014  1.8742  0.7242 -2.0446
 1718SOL     OW16612   3.277   3.869   0.988 -0.0794 -0.4129 -0.0164
 1718SOL    HW116613   3.332   3.854   0.912  2.2886 -1.5229  1.9294
 1718SOL    HW216614   3.204   3.924   0.959  1.4848  1.9941  0.6500
 1719SOL     OW16615   0.505   0.129   6.319  0.0310  0.0743 -0.2472
 1719SOL    HW116616   0.505   0.205   6.377  1.5232 -0.1931  0.1181
 1719SOL    HW216617   0.512   0.165   6.231  0.6107  3.7966  1.2895
 1720SOL     OW16618   0.041   1.984   0.225 -0.3488 -0.5052  0.7065
 1720SOL    HW116619   0.121   2.019   0.265 -0.9677  0.9199  0.6993
 1720SOL    HW216620   4.704   2.058   0.234  1.0840  0.4786  2.0532
 1721SOL     OW16621   1.646   4.578  11.171  0.0722  0.1438 -0.1424
 1721SOL    HW116622   1.631   4.533  11.254  1.2560  1.3775  0.7392
 1721SOL    HW216623   1.737   4.607  11.175  0.6154 -2.1138  3.3478
 1722SOL     OW16624   1.874   0.403   8.158  0.1777 -0.1756 -0.0752
 1722SOL    HW116625   1.812   0.338   8.190 -0.2995 -0.2950 -1.2438
 1722SOL    HW216626   1.888   0.448   8.242 -0.3228 -2.5583  1.2709
 1723SOL     OW16627   0.754   2.714   8.268  0.5489 -0.1884  0.1859
 1723SOL    HW116628   0.668   2.673   8.256 -0.2902  1.6274  0.0167
 1723SOL    HW216629   0.745   2.757   8.352 -2.7856  1.8409 -1.2203
 1724SOL     OW16630   1.848   2.263   8.175  0.3758 -0.2767  0.3557
 1724SOL    HW116631   1.902   2.189   8.201  1.1454  0.1581  0.0014
 1724SOL    HW216632   1.776   2.247   8.236 -0.1617 -0.0036 -0.2130
 1725SOL     OW16633   1.580   0.982   7.226  0.5197 -0.0242  0.2382
 1725SOL    HW116634   1.491   0.967   7.257  0.3651  3.3519  1.3851
 1725SOL    HW216635   1.575   1.034   7.145 -0.1267  0.1245  0.3680
 1726SOL     OW16636   4.401   2.654   5.636  0.3966 -0.4169 -0.1026
 1726SOL    HW116637   4.421   2.684   5.725 -0.6040  1.1216 -0.3914
 1726SOL    HW216638   4.488   2.628   5.608  0.0549 -2.1739  0.4301
 1727SOL     OW16639   0.465   1.629   8.998  0.3499  0.3638  0.5526
 1727SOL    HW116640   0.456   1.723   9.017  1.1784  0.4124  0.7023
 1727SOL    HW216641   0.554   1.626   8.963 -0.1347 -1.1820 -0.5241
 1728SOL     OW16642   1.327   4.640   5.121  0.5795 -0.5689  0.4718
 1728SOL    HW116643   1.278   4.720   5.141 -1.1946 -1.1799 -1.4725
 1728SOL    HW216644   1.280   4.613   5.042 -2.7685  0.8084  1.9979
 1729SOL     OW16645   3.558   4.180  13.008 -0.4739 -0.0535 -0.2679
 1729SOL    HW116646   3.548   4.256  12.952 -1.9651  1.6769  2.3321
 1729SOL    HW216647   3.503   4.116  12.963  0.8076 -2.4047  1.4649
 1730SOL     OW16648   3.797   1.130  16.651  0.0995  0.5731  0.3636
 1730SOL    HW116649   3.719   1.079  16.630 -0.3892  0.5550  2.2540
 1730SOL    HW216650   3.845   1.088  16.579  1.2845  1.3860  0.6759
 1731SOL     OW16651   1.182   0.520   8.598  0.8020  0.1537  0.4216
 1731SOL    HW116652   1.226   0.530   8.683  2.1689 -0.0231 -0.2728
 1731SOL    HW216653   1.172   0.425   8.590  1.2165  0.2984 -1.7539
 1732SOL     OW16654   0.041   1.382   4.128  0.2530  0.4781  0.4151
 1732SOL    HW116655   0.019   1.475   4.139 -2.7548 -0.4464  2.2871
 1732SOL    HW216656   0.123   1.370   4.174  0.5820 -0.2847 -0.3835
 1733SOL     OW16657   1.042   4.280   2.764  0.2536  0.3450  0.6174
 1733SOL    HW116658   1.024   4.365   2.726 -0.5435  0.2563  0.7971
 1733SOL    HW216659   1.013   4.227   2.690  1.0718 -0.1096  0.6244
 1734SOL     OW16660   0.581   0.687   6.558  0.0725  0.1188 -0.5198
 1734SOL    HW116661   0.504   0.727   6.600 -1.3814 -3.3223  0.0557
 1734SOL    HW216662   0.632   0.667   6.635 -0.8071  0.0810  0.0579
 1735SOL     OW16663   2.637   0.902   2.345  0.1436 -0.5267 -0.2386
 1735SOL    HW116664   2.660   0.948   2.264 -1.6577  1.1825  0.2098
 1735SOL    HW216665   2.560   0.945   2.383  0.8228 -1.1510  1.8304
 1736SOL     OW16666   0.730   0.732   3.216  0.1653  0.7371 -0.0529
 1736SOL    HW116667   0.792   0.716   3.144 -0.1929 -3.2669  0.5499
 1736SOL    HW216668   0.644   0.720   3.176 -0.4436 -1.0781  1.8722
 1737SOL     OW16669   2.109   3.688   7.314 -0.9749 -0.3261  0.2649
 1737SOL    HW116670   2.150   3.760   7.363  1.9404 -2.4634  1.0300
 1737SOL    HW216671   2.038   3.677   7.377 -1.6891  0.1655 -0.4721
 1738SOL     OW16672   3.672   3.666   7.165 -0.1865  0.1036 -0.0892
 1738SOL    HW116673   3.690   3.668   7.071  0.5716  0.3147  0.0611
 1738SOL    HW216674   3.730   3.738   7.190  0.1337 -1.1448  2.8215
 1739SOL     OW16675   0.541   1.310  17.425 -0.0168 -0.4632 -0.7635
 1739SOL    HW116676   0.585   1.226  17.410 -2.6783 -1.9140 -0.3488
 1739SOL    HW216677   0.604   1.368  17.468  0.1007  0.5615 -2.3307
 1740SOL     OW16678   4.050   0.057  11.465  0.5861  0.4584 -0.4463
 1740SOL    HW116679   4.022   0.083  11.552  3.4280 -2.3431  1.3304
 1740SOL    HW216680   4.070   4.687  11.471  1.6600  0.7363  0.2465
 1741SOL     OW16681   0.893   1.156   7.394 -0.6869  0.8530 -0.8363
 1741SOL    HW116682   0.920   1.212   7.467 -0.7628 -1.3332  0.8671
 1741SOL    HW216683   0.923   1.208   7.319 -1.1784  2.3027 -0.0323
 1742SOL     OW16684   1.257   2.733   0.909 -0.4607  0.2149 -0.1043
 1742SOL    HW116685   1.198   2.715   0.983 -1.0990  1.3770 -0.3240
 1742SOL    HW216686   1.220   2.670   0.847 -0.5178 -1.2882  1.4511
 1743SOL     OW16687   1.850   3.028  15.416  0.6187  0.5625  0.2263
 1743SOL    HW116688   1.833   3.032  15.322 -0.8109 -0.9377  0.4168
 1743SOL    HW216689   1.788   2.961  15.446 -0.1195  1.5258  0.8588
 1744SOL     OW16690   2.327   4.049   0.973  0.3089 -0.2688  0.3864
 1744SOL    HW116691   2.415   4.060   1.007  1.1731  1.2202 -2.3363
 1744SOL    HW216692   2.291   4.137   0.985 -1.3122 -1.0949  1.5403
 1745SOL     OW16693   2.296   1.294  14.557  0.7434 -0.0790  0.4718
 1745SOL    HW116694   2.331   1.350  14.487  0.6649 -1.0757 -0.3554
 1745SOL    HW216695   2.207   1.330  14.556  1.7458  2.3440 -1.3350
 1746SOL     OW16696   4.628   1.712   2.154  0.4484 -0.1282 -0.2660
 1746SOL    HW116697   4.625   1.788   2.096  0.9578  0.1401  0.0536
 1746SOL    HW216698   4.582   1.734   2.235  0.6798 -1.5012  0.2366
 1747SOL     OW16699   2.566   3.576   6.378  0.9243  0.3749  0.4005
 1747SOL    HW116700   2.503   3.623   6.324 -0.4171 -0.2220  1.4492
 1747SOL    HW216701   2.517   3.561   6.459  1.0489  0.8516  0.5703
 1748SOL     OW16702   1.529   4.553   0.967  0.4297 -0.2391 -0.2499
 1748SOL    HW116703   1.524   4.463   0.934 -2.5102 -0.7228  1.4832
 1748SOL    HW216704   1.619   4.556   0.999  1.0743  0.0391 -2.0621
 1749SOL     OW16705   0.478   4.601   4.074  0.5683 -0.2501 -0.1282
 1749SOL    HW116706   0.539   4.646   4.132 -0.1658 -1.3611  1.5205
 1749SOL    HW216707   0.464   4.673   4.013  1.3248 -0.9872 -1.1726
 1750SOL     OW16708   1.076   0.976  10.874 -0.4658  0.4844  0.0161
 1750SOL    HW116709   1.165   0.986  10.908 -0.3616  0.6494 -0.3143
 1750SOL    HW216710   1.106   0.919  10.804  1.9759  0.1044  1.3730
 1751SOL     OW16711   2.741   0.199   3.202 -0.3462  0.1156 -0.6560
 1751SOL    HW116712   2.703   0.190   3.115  0.9114 -1.1101 -1.0858
 1751SOL    HW216713   2.799   0.274   3.189  0.6406 -0.3759  0.8865
 1752SOL     OW16714   1.823   0.185   8.826  0.6945 -0.3687  0.0280
 1752SOL    HW116715   1.875   0.109   8.853 -1.2109 -2.3203 -1.6842
 1752SOL    HW216716   1.849   0.190   8.734  1.2716 -1.2029  0.1421
 1753SOL     OW16717   2.431   3.211  15.086 -0.5329  0.6534 -0.1099
 1753SOL    HW116718   2.434   3.116  15.099  3.0181  0.7658 -0.0601
 1753SOL    HW216719   2.344   3.240  15.115 -0.9060 -0.1031 -0.4755
 1754SOL     OW16720   0.844   2.407   7.074 -0.0511 -0.3377  0.3520
 1754SOL    HW116721   0.798   2.420   6.992 -1.7307 -1.9069  1.0478
 1754SOL    HW216722   0.930   2.438   7.046 -0.5588 -0.9733 -1.8522
 1755SOL     OW16723   0.547   1.468  16.743  0.3814  0.4647 -0.3181
 1755SOL    HW116724   0.513   1.547  16.700  0.2217  0.3568 -0.3882
 1755SOL    HW216725   0.617   1.506  16.797 -2.7622  3.3207  1.7137
 1756SOL     OW16726   0.729   0.944   2.861 -0.0960  0.0672 -0.3520
 1756SOL    HW116727   0.670   1.016   2.839  1.2132  1.3271  0.2345
 1756SOL    HW216728   0.657   0.885   2.884 -0.3308 -0.0225 -1.2952
 1757SOL     OW16729   1.868   4.504   6.964 -0.3201  0.2757  0.1288
 1757SOL    HW116730   1.954   4.484   6.927  0.1110  1.8422  0.2627
 1757SOL    HW216731   1.870   4.452   7.044  0.0820  0.2044  0.0743
 1758SOL     OW16732   2.700   1.538   7.778  0.4062  0.4651 -0.2117
 1758SOL    HW116733   2.777   1.500   7.820 -1.2554 -0.8626  1.5958
 1758SOL    HW216734   2.672   1.475   7.712  1.8973 -1.3081  0.8768
 1759SOL     OW16735   2.255   0.720   3.671  0.0274 -0.4329  0.0179
 1759SOL    HW116736   2.274   0.749   3.760  0.4689  1.5452 -0.7158
 1759SOL    HW216737   2.167   0.685   3.657 -0.5505 -0.3333  3.5138
 1760SOL     OW16738   3.515   2.047   4.851  0.2006 -0.4882  0.3878
 1760SOL    HW116739   3.557   2.124   4.889 -0.4318  1.1684 -2.2136
 1760SOL    HW216740   3.568   2.029   4.773 -0.4109 -0.1716 -0.1128
 1761SOL     OW16741   1.907   1.404   4.983 -0.0423  0.0398 -0.1081
 1761SOL    HW116742   1.832   1.406   5.042 -0.1920 -1.3320 -0.2642
 1761SOL    HW216743   1.868   1.381   4.898 -1.6626  3.6031 -0.3355
 1762SOL     OW16744   2.432   3.457   5.464  0.1257 -0.2584 -0.5255
 1762SOL    HW116745   2.503   3.405   5.499  0.1104  1.4008  1.9474
 1762SOL    HW216746   2.439   3.534   5.521 -0.3451  0.2422 -1.1279
 1763SOL     OW16747   2.057   3.271   1.435 -0.0493  0.3124  0.1856
 1763SOL    HW116748   2.128   3.310   1.486  0.1668 -1.2881  1.0969
 1763SOL    HW216749   2.018   3.351   1.399 -0.3027 -0.2105 -0.7138
 1764SOL     OW16750   3.883   2.054   2.220 -0.5338  1.1421 -0.1677
 1764SOL    HW116751   3.835   2.092   2.293 -1.0644  0.8408 -0.3602
 1764SOL    HW216752   3.877   2.120   2.151  1.9832  2.0361  0.4524
 1765SOL     OW16753   0.940   0.254   3.140 -0.2220 -0.1156 -0.0624
 1765SOL    HW116754   0.942   0.165   3.105  1.3826 -1.6210  3.8011
 1765SOL    HW216755   0.919   0.241   3.233  1.3445 -0.7241  0.2217
 1766SOL     OW16756   4.393   1.880   7.065 -0.4389 -0.3497  0.1738
 1766SOL    HW116757   4.409   1.808   7.125 -1.5261 -3.1520 -2.8715
 1766SOL    HW216758   4.298   1.892   7.065 -0.0751  2.5137  0.2185
 1767SOL     OW16759   1.089   3.800   8.221 -0.0365 -0.4715  0.8654
 1767SOL    HW116760   1.061   3.825   8.133  3.3961  0.3141 -0.0175
 1767SOL    HW216761   1.107   3.882   8.266  0.1895  0.3125 -0.6246
 1768SOL     OW16762   4.160   2.665   4.444  0.4054  0.2729  0.3422
 1768SOL    HW116763   4.148   2.651   4.350 -0.7625  0.5088  0.4557
 1768SOL    HW216764   4.083   2.696   4.491  2.0069  2.2854  1.6095
 1769SOL     OW16765   2.411   0.221   1.899 -0.0110  0.2316  0.2383
 1769SOL    HW116766   2.369   0.220   1.813  0.4220  2.3572 -0.0011
 1769SOL    HW216767   2.338   0.237   1.959 -0.3580 -0.6682  0.0466
 1770SOL     OW16768   0.249   1.007   2.819 -0.1400  0.2644 -0.1283
 1770SOL    HW116769   0.201   1.054   2.751 -0.8012 -1.2469 -0.7101
 1770SOL    HW216770   0.303   0.948   2.766 -2.0483  0.2091 -1.9935
 1771SOL     OW16771   1.241   3.557   5.872 -0.3173 -0.1510 -0.5840
 1771SOL    HW116772   1.150   3.541   5.849 -0.3219 -0.3783 -0.3984
 1771SOL    HW216773   1.287   3.534   5.791  0.7142 -0.7800  0.1816
 1772SOL     OW16774   4.526   2.370   2.213  0.0962  0.4548 -0.6102
 1772SOL    HW116775   4.616   2.359   2.181 -0.0575 -0.2797 -0.7698
 1772SOL    HW216776   4.476   2.355   2.133  0.5495 -1.2475 -0.5756
 1773SOL     OW16777   1.775   0.929  11.787 -0.3821 -0.5175  0.6423
 1773SOL    HW116778   1.755   0.836  11.776 -0.5035 -0.4582  0.3603
 1773SOL    HW216779   1.810   0.933  11.875  0.3460  1.0250  0.2788
 1774SOL     OW16780   3.769   0.045   3.791 -0.0144  0.1521 -0.1159
 1774SOL    HW116781   3.832   0.104   3.832  0.0924 -1.5398  2.1606
 1774SOL    HW216782   3.730   0.005   3.869  0.5467 -0.3793 -0.1142
 1775SOL     OW16783   1.652   0.216  13.767  0.4082  0.5132 -0.0025
 1775SOL    HW116784   1.674   0.209  13.674 -0.6416  0.2998 -0.2360
 1775SOL    HW216785   1.573   0.271  13.766  0.8829  1.2112  0.8577
 1776SOL     OW16786   1.485   0.889   0.362 -0.1930 -0.1015  0.1121
 1776SOL    HW116787   1.571   0.852   0.383 -0.2431  0.3204  1.0361
 1776SOL    HW216788   1.463   0.837   0.284  1.5608 -1.4999  0.5594
 1777SOL     OW16789   4.694   0.054  16.419 -0.2515 -0.1993 -0.3968
 1777SOL    HW116790   4.665   0.130  16.368 -0.4861  1.3587  2.0647
 1777SOL    HW216791   0.029   0.099  16.480 -1.1342  1.3296 -0.6749
 1778SOL     OW16792   3.007   0.059  12.305 -0.2642 -0.1250  0.1297
 1778SOL    HW116793   2.985   0.150  12.326  0.4190 -0.0809  0.6258
 1778SOL    HW216794   2.922   0.017  12.290 -0.9591  1.0927  0.6940
 1779SOL     OW16795   0.347   3.048   3.511  0.1182 -0.8528 -0.4691
 1779SOL    HW116796   0.253   3.039   3.528  0.4194 -0.9256  1.1326
 1779SOL    HW216797   0.368   3.122   3.568 -0.2374  1.1882 -3.0190
 1780SOL     OW16798   0.957   1.355  16.105  0.5691 -0.1360  0.0487
 1780SOL    HW116799   1.043   1.338  16.066  0.4164  1.0522 -0.8244
 1780SOL    HW216800   0.936   1.264  16.125 -1.0300 -0.1423 -1.6340
 1781SOL     OW16801   2.852   1.640   4.196  0.1380 -0.4688  0.3605
 1781SOL    HW116802   2.881   1.570   4.138  0.8370  1.0691 -1.1356
 1781SOL    HW216803   2.879   1.718   4.148  1.9385  0.3861  2.7498
 1782SOL     OW16804   3.817   3.702   4.306  0.0170 -0.6406  0.2008
 1782SOL    HW116805   3.766   3.782   4.320  0.5353 -0.4496  1.0071
 1782SOL    HW216806   3.908   3.730   4.297  0.5358 -2.4229 -0.1858
 1783SOL     OW16807   3.395   3.189  17.545 -0.1594  0.0228  0.2079
 1783SOL    HW116808   3.372   3.171  17.636 -1.4589 -2.0050 -0.5202
 1783SOL    HW216809   3.448   3.267  17.557 -0.0755 -0.1576  1.0137
 1784SOL     OW16810   0.323   3.453   7.043  0.5810  0.3762 -0.1015
 1784SOL    HW116811   0.319   3.481   7.134 -2.0976 -0.0701 -0.0845
 1784SOL    HW216812   0.339   3.534   6.996 -2.4416 -1.0978 -3.6661
 1785SOL     OW16813   4.667   1.262   7.424  0.2419  0.0497  0.3165
 1785SOL    HW116814   0.004   1.195   7.455  0.1772  0.6393  1.7003
 1785SOL    HW216815   0.011   1.329   7.413 -0.4104  1.0674  2.6157
 1786SOL     OW16816   4.590   2.671   0.383 -0.2019  0.6484  0.1076
 1786SOL    HW116817   4.513   2.639   0.336 -0.1729 -0.0064  0.5087
 1786SOL    HW216818   4.563   2.753   0.425  0.3107  0.2407  1.2241
 1787SOL     OW16819   3.119   3.653   9.801 -0.0832 -0.4433  0.0001
 1787SOL    HW116820   3.168   3.653   9.883 -0.8994  1.1646  0.4885
 1787SOL    HW216821   3.076   3.568   9.807 -1.9879  0.5879  0.7422
 1788SOL     OW16822   4.058   3.946  14.022  0.2642 -0.1356  0.0538
 1788SOL    HW116823   4.105   4.023  14.053 -0.2363 -0.1908  0.9632
 1788SOL    HW216824   4.037   3.910  14.108  2.7071  3.3476  2.0939
 1789SOL     OW16825   1.998   0.078   2.986 -0.2837  0.2604 -0.5391
 1789SOL    HW116826   2.030   0.141   3.051 -1.4476  1.9345 -1.6056
 1789SOL    HW216827   2.067   0.093   2.922  1.8854 -0.8954  1.5084
 1790SOL     OW16828   4.302   4.672   8.901 -0.2602  0.3858  0.4205
 1790SOL    HW116829   4.316   0.044   8.896  1.4162  0.1039 -0.0481
 1790SOL    HW216830   4.370   4.644   8.961  1.9572  1.2756 -1.6800
 1791SOL     OW16831   1.197   0.615  13.465 -0.5039 -0.1667 -0.1421
 1791SOL    HW116832   1.161   0.703  13.476  1.2559  0.6023 -0.4941
 1791SOL    HW216833   1.144   0.571  13.532 -2.8773 -1.3929 -2.8308
 1792SOL     OW16834   2.375   1.343  12.294  0.1324 -0.2872 -0.0127
 1792SOL    HW116835   2.281   1.342  12.277 -0.3141  0.8178  2.3690
 1792SOL    HW216836   2.416   1.349  12.208 -0.5720  0.9059 -0.2729
 1793SOL     OW16837   1.093   3.949  16.074 -0.3952  0.1882  0.4404
 1793SOL    HW116838   1.046   3.894  16.136  1.5928 -1.2329  0.6648
 1793SOL    HW216839   1.094   4.027  16.130 -0.2101  1.2547 -1.0455
 1794SOL     OW16840   0.216   1.370   6.269 -0.1212 -0.0328 -0.0437
 1794SOL    HW116841   0.207   1.286   6.314  0.2024  0.2113  0.4718
 1794SOL    HW216842   0.168   1.426   6.330  0.4053  0.4510 -0.0800
 1795SOL     OW16843   2.569   0.602  12.282 -0.3583  0.4374 -0.0316
 1795SOL    HW116844   2.569   0.693  12.312 -1.6802  0.7329 -0.9314
 1795SOL    HW216845   2.474   0.594  12.272 -0.2906  0.1421 -0.4386
 1796SOL     OW16846   4.653   2.805   5.510 -0.0148 -0.1836 -0.3690
 1796SOL    HW116847   4.690   2.888   5.480  2.4093 -0.6676  1.2287
 1796SOL    HW216848   0.012   2.759   5.526  0.0723  0.1877  0.2808
 1797SOL     OW16849   3.473   2.207  13.507 -0.5058 -0.4509 -0.3250
 1797SOL    HW116850   3.411   2.229  13.577  0.4743  0.5721  0.2406
 1797SOL    HW216851   3.478   2.112  13.502 -1.4325 -0.3702 -2.5456
 1798SOL     OW16852   3.785   0.036  14.039  0.7780 -0.5889  0.4894
 1798SOL    HW116853   3.781   0.009  14.131  0.6110 -0.9883  0.3656
 1798SOL    HW216854   3.878   0.017  14.025  0.8392  0.1628 -0.0931
 1799SOL     OW16855   4.615   2.885   7.632 -0.0186  0.2079  0.5611
 1799SOL    HW116856   4.583   2.848   7.550  0.2365 -0.3448  0.7096
 1799SOL    HW216857   4.563   2.965   7.636 -0.6287 -0.2271  1.2908
 1800SOL     OW16858   3.969   1.381  15.122 -0.0678 -0.1026 -0.2577
 1800SOL    HW116859   3.993   1.323  15.194 -1.5427 -0.4062 -0.0208
 1800SOL    HW216860   3.884   1.344  15.099 -0.8890 -0.3783  3.3054
 1801SOL     OW16861   3.132   4.581  13.639  0.4104  0.9771  0.1212
 1801SOL    HW116862   3.048   4.538  13.627  0.5959  1.0756 -1.6443
 1801SOL    HW216863   3.196   4.511  13.651 -0.8926 -0.0862  0.6961
 1802SOL     OW16864   3.712   1.576  17.122  0.2664  0.1177  0.5468
 1802SOL    HW116865   3.692   1.609  17.209 -0.8236  1.5752 -0.2603
 1802SOL    HW216866   3.791   1.621  17.092  0.4490 -0.4664  0.1461
 1803SOL     OW16867   3.659   4.105   2.132 -0.3957 -0.3700 -0.0539
 1803SOL    HW116868   3.607   4.170   2.180 -0.5379 -1.0033  0.6499
 1803SOL    HW216869   3.730   4.160   2.100 -0.3863 -0.6547 -0.5299
 1804SOL     OW16870   4.171   1.987   2.373 -0.2335  0.1463  0.0093
 1804SOL    HW116871   4.110   2.055   2.400  0.1117  1.2683 -2.0429
 1804SOL    HW216872   4.253   2.035   2.391  0.2214 -0.8809  0.7026
 1805SOL     OW16873   1.867   0.881   8.790 -0.2292 -0.3081  0.3122
 1805SOL    HW116874   1.927   0.855   8.719 -0.5276 -1.6488  0.5398
 1805SOL    HW216875   1.844   0.794   8.824 -1.7367 -0.3149 -0.7295
 1806SOL     OW16876   2.446   1.651   1.587  0.1827 -0.1459 -0.1225
 1806SOL    HW116877   2.532   1.633   1.548  0.0982  2.4111 -1.5141
 1806SOL    HW216878   2.413   1.709   1.518  1.4430 -1.4204 -1.8290
 1807SOL     OW16879   3.089   0.844   6.049  0.1147  0.5327  0.3838
 1807SOL    HW116880   3.076   0.795   5.968 -0.7033  3.0416 -1.0216
 1807SOL    HW216881   3.184   0.854   6.046  0.2889 -1.3019 -0.0495
 1808SOL     OW16882   1.480   2.917   1.013  0.2010  0.2876 -0.2678
 1808SOL    HW116883   1.547   2.914   0.945 -0.1732 -3.8906 -0.4727
 1808SOL    HW216884   1.419   2.852   0.978 -0.1490  0.9023 -0.7997
 1809SOL     OW16885   3.319   3.761  11.470 -0.4545  0.0493  0.0871
 1809SOL    HW116886   3.365   3.809  11.539 -0.5200 -0.8751  0.7788
 1809SOL    HW216887   3.306   3.675  11.512 -0.7975  0.8501  1.6297
 1810SOL     OW16888   3.062   0.675   8.245 -0.1868 -0.4179  0.3726
 1810SOL    HW116889   3.155   0.695   8.254 -0.2500  1.2652 -2.8898
 1810SOL    HW216890   3.028   0.763   8.262 -2.6612 -1.0051 -1.4771
 1811SOL     OW16891   1.889   1.613  14.717 -0.1430  0.1717  0.2968
 1811SOL    HW116892   1.853   1.625  14.805  1.0229 -1.1596  0.9494
 1811SOL    HW216893   1.821   1.663  14.672  0.1206 -1.1763 -1.5773
 1812SOL     OW16894   4.097   2.387   3.752  0.2162 -0.5965 -0.5465
 1812SOL    HW116895   4.002   2.397   3.758  0.4722  0.8468  1.2872
 1812SOL    HW216896   4.137   2.472   3.732 -0.8820  0.8279  3.1322
 1813SOL     OW16897   4.433   1.855   8.577 -0.2503  0.0473 -0.1977
 1813SOL    HW116898   4.517   1.897   8.559 -0.0744 -0.2557 -0.0932
 1813SOL    HW216899   4.445   1.779   8.520 -0.5808  0.5057 -0.8758
 1814SOL     OW16900   4.474   0.416   3.727  0.1761  0.7915 -0.0302
 1814SOL    HW116901   4.555   0.368   3.742 -0.4849 -0.5904 -0.9742
 1814SOL    HW216902   4.485   0.475   3.802 -1.1868 -1.0128  1.5864
 1815SOL     OW16903   2.765   2.796  11.186 -0.1387 -0.3760 -0.0539
 1815SOL    HW116904   2.806   2.808  11.101 -0.7768  1.4223 -0.0959
 1815SOL    HW216905   2.690   2.742  11.160 -0.6006 -1.5462  3.7020
 1816SOL     OW16906   4.647   2.340   7.888  0.1730  0.0196  0.1846
 1816SOL    HW116907   4.640   2.244   7.890  0.0593  0.0337  0.5959
 1816SOL    HW216908   4.562   2.364   7.925 -1.0378 -1.6908 -1.5085
 1817SOL     OW16909   4.471   3.897   1.318  0.6191 -0.2998 -0.2039
 1817SOL    HW116910   4.529   3.821   1.330  0.7064 -0.1616  0.2540
 1817SOL    HW216911   4.433   3.880   1.231 -0.6067  1.4297 -0.0071
 1818SOL     OW16912   2.133   3.780   5.983  0.2922  0.2440  0.7050
 1818SOL    HW116913   2.139   3.871   5.953  0.7698  0.8059  2.4796
 1818SOL    HW216914   2.096   3.789   6.071 -0.3926  1.5275  0.2832
 1819SOL     OW16915   1.564   4.476   9.958 -0.3572 -0.0094  0.0243
 1819SOL    HW116916   1.530   4.564   9.974 -0.4659 -0.1911  0.8218
 1819SOL    HW216917   1.613   4.458  10.039  2.1452  2.1184 -1.0465
 1820SOL     OW16918   0.812   2.016  15.465 -0.0003 -0.5473 -0.0832
 1820SOL    HW116919   0.773   2.101  15.483 -2.6219 -2.1596  1.8770
 1820SOL    HW216920   0.895   2.045  15.425  0.3649 -0.4694  0.7376
 1821SOL     OW16921   3.348   2.419   9.883 -0.0524  0.2040 -0.1827
 1821SOL    HW116922   3.382   2.508   9.893 -0.2069  0.4418 -1.7713
 1821SOL    HW216923   3.391   2.392   9.801  3.0539 -0.1691  1.5617
 1822SOL     OW16924   3.396   1.426   5.127 -0.0693 -0.1171 -0.5155
 1822SOL    HW116925   3.450   1.389   5.058  0.5264  0.0027 -0.1120
 1822SOL    HW216926   3.355   1.347   5.161 -2.4044  1.6009  0.6311
 1823SOL     OW16927   2.713   1.470   2.293  0.6025  0.5878 -0.1580
 1823SOL    HW116928   2.726   1.537   2.361  1.5834  0.2987 -0.0684
 1823SOL    HW216929   2.630   1.503   2.260  1.1662  1.8942 -0.2953
 1824SOL     OW16930   3.295   4.572   1.953  0.1794 -0.3690 -0.2354
 1824SOL    HW116931   3.389   4.591   1.944 -0.2258  0.0078 -3.5273
 1824SOL    HW216932   3.275   4.534   1.868  1.1066  0.8045 -0.9777
 1825SOL     OW16933   1.731   0.492   5.654 -0.1890  0.3273  0.3262
 1825SOL    HW116934   1.815   0.529   5.628  0.6290 -1.4790  0.4493
 1825SOL    HW216935   1.751   0.427   5.721 -1.4883  0.1337  0.5331
 1826SOL     OW16936   3.536   1.613   7.086 -0.4158  0.2365 -0.2659
 1826SOL    HW116937   3.511   1.578   7.172 -0.6587  0.5593 -0.2058
 1826SOL    HW216938   3.527   1.538   7.028 -0.3321  0.0349 -0.0195
 1827SOL     OW16939   3.312   2.376   3.873  0.4001 -0.6277  0.3513
 1827SOL    HW116940   3.329   2.423   3.791 -0.8766 -0.4605  0.1823
 1827SOL    HW216941   3.222   2.390   3.902 -0.1193  1.9281 -2.4704
 1828SOL     OW16942   4.303   1.517  17.554  0.0667 -0.0237 -0.2555
 1828SOL    HW116943   4.308   1.451  17.484  0.0144 -1.1199  0.7718
 1828SOL    HW216944   4.258   1.594  17.520 -2.0642 -1.3466 -0.4265
 1829SOL     OW16945   3.696   2.599   5.735 -0.2321  0.7194  0.0195
 1829SOL    HW116946   3.644   2.519   5.731 -0.2726  0.5973  2.9801
 1829SOL    HW216947   3.647   2.648   5.668  1.8978  0.6902 -1.5514
 1830SOL     OW16948   2.397   2.775  13.649  0.2506  0.0928 -0.4837
 1830SOL    HW116949   2.399   2.775  13.553 -0.9553  1.1291 -0.5074
 1830SOL    HW216950   2.388   2.868  13.672 -1.6616 -0.1029 -0.5172
 1831SOL     OW16951   3.500   2.606   9.753  0.6628  0.1432 -0.6145
 1831SOL    HW116952   3.545   2.661   9.690  1.1985  0.3629 -0.0401
 1831SOL    HW216953   3.510   2.521   9.712 -0.3695  0.6529 -1.9416
 1832SOL     OW16954   4.041   2.847  10.247 -0.7528  0.4622 -0.0692
 1832SOL    HW116955   3.960   2.827  10.294  0.2298 -0.0173  1.4053
 1832SOL    HW216956   4.101   2.803  10.307 -0.0824 -0.1052 -1.1623
 1833SOL     OW16957   2.707   2.790   3.775 -0.5341  0.2649 -0.4070
 1833SOL    HW116958   2.694   2.787   3.870 -0.2927  0.3482 -0.3698
 1833SOL    HW216959   2.696   2.697   3.753  0.7814 -0.1537  0.6563
 1834SOL     OW16960   1.952   1.061   3.748  0.3621  0.4315 -0.3643
 1834SOL    HW116961   1.946   1.106   3.832  1.3908  0.3071 -0.2200
 1834SOL    HW216962   1.863   1.026   3.736  0.1142 -0.0335  2.7139
 1835SOL     OW16963   2.652   3.477   5.727 -0.1307 -0.1735 -0.2362
 1835SOL    HW116964   2.729   3.430   5.760 -0.9197 -1.7278 -0.6419
 1835SOL    HW216965   2.610   3.402   5.685  0.0768 -2.6670  3.9805
 1836SOL     OW16966   2.541   2.055   8.381 -0.6016  0.2283  0.1245
 1836SOL    HW116967   2.494   2.131   8.346 -0.2937 -0.1700 -1.1666
 1836SOL    HW216968   2.603   2.039   8.310 -1.6917 -0.3435 -0.7041
 1837SOL     OW16969   0.983   2.867   4.023 -0.0460 -0.1726  0.7422
 1837SOL    HW116970   1.054   2.929   4.007 -0.9897  0.7566  0.1603
 1837SOL    HW216971   1.026   2.785   3.998  0.7243  1.0860 -2.0626
 1838SOL     OW16972   2.075   3.184   4.338 -0.5831  0.5766 -0.1094
 1838SOL    HW116973   2.140   3.175   4.268 -0.2044 -1.9576  0.5461
 1838SOL    HW216974   2.007   3.226   4.286 -2.1607  1.0951  2.3381
 1839SOL     OW16975   2.898   2.586   0.987  0.0970 -0.0060  0.0547
 1839SOL    HW116976   2.817   2.562   0.943 -0.2357 -0.9020  1.1503
 1839SOL    HW216977   2.965   2.593   0.920 -0.3952 -0.5964 -0.4887
 1840SOL     OW16978   0.804   3.730   3.986 -0.6753  0.3723  0.1913
 1840SOL    HW116979   0.814   3.640   3.954 -2.0778  0.0007  0.8014
 1840SOL    HW216980   0.721   3.757   3.946 -0.6934 -0.2148 -0.1645
 1841SOL     OW16981   2.481   2.871   8.367  0.1111 -0.3446  0.8648
 1841SOL    HW116982   2.560   2.863   8.314 -0.7443 -0.6630 -0.3522
 1841SOL    HW216983   2.407   2.840   8.315  0.8809 -1.9224  0.7010
 1842SOL     OW16984   3.552   1.211  11.357  0.2298 -0.5242 -0.1058
 1842SOL    HW116985   3.561   1.307  11.357 -2.0675 -0.3057 -1.0262
 1842SOL    HW216986   3.497   1.184  11.284  0.8746  1.1513 -1.2156
 1843SOL     OW16987   3.902   0.224   1.984  0.3451  0.1458 -0.6773
 1843SOL    HW116988   3.902   0.291   2.053  0.4060 -1.8234  1.2552
 1843SOL    HW216989   3.890   0.147   2.040  0.2996 -0.1767 -1.1365
 1844SOL     OW16990   3.195   1.115   7.587 -0.1794 -0.0013  0.0683
 1844SOL    HW116991   3.267   1.094   7.646  0.4057  1.4177 -0.1352
 1844SOL    HW216992   3.139   1.044   7.617  1.7350 -0.9175  1.4113
 1845SOL     OW16993   0.438   2.153   2.675 -0.1123  0.2510  0.4019
 1845SOL    HW116994   0.508   2.093   2.650  0.1932  0.4311  0.8380
 1845SOL    HW216995   0.361   2.099   2.657 -1.3256  1.9843  0.3979
 1846SOL     OW16996   1.807   3.361  12.559 -0.0923 -0.1611  0.0200
 1846SOL    HW116997   1.799   3.400  12.472 -1.9901  0.4821  0.4764
 1846SOL    HW216998   1.829   3.440  12.609  0.1534 -0.2749  0.0928
 1847SOL     OW16999   1.508   1.495  12.625  0.7159  0.0268 -0.5153
 1847SOL    HW117000   1.587   1.500  12.570  2.0771  0.4058  1.4850
 1847SOL    HW217001   1.510   1.583  12.663  0.8799  0.7369 -2.1477
 1848SOL     OW17002   4.383   2.127  11.033  0.3230  0.4266 -0.1389
 1848SOL    HW117003   4.290   2.138  11.016  0.6269  0.3409 -1.8543
 1848SOL    HW217004   4.411   2.217  11.049 -1.6418  0.7478  1.4374
 1849SOL     OW17005   4.722   0.435   9.182  1.0298  1.3161  0.1342
 1849SOL    HW117006   0.071   0.391   9.228  0.8956  0.0621 -0.8635
 1849SOL    HW217007   4.654   0.368   9.188  1.4223  1.0146  1.3980
 1850SOL     OW17008   2.517   4.189   7.435  0.2665  0.0532  0.2712
 1850SOL    HW117009   2.470   4.264   7.399 -0.6781  0.2088  1.8432
 1850SOL    HW217010   2.469   4.170   7.516  1.0860  0.7687  0.9335
 1851SOL     OW17011   0.974   2.076   5.928  0.0804 -0.0083  0.1401
 1851SOL    HW117012   0.884   2.045   5.921 -0.4510  0.9687  2.5442
 1851SOL    HW217013   1.002   2.051   5.840  2.6187 -0.0627  0.9478
 1852SOL     OW17014   0.626   3.350   0.017 -0.0159 -0.0000  0.0122
 1852SOL    HW117015   0.695   3.389  17.658  0.7696  1.0639  1.8188
 1852SOL    HW217016   0.639   3.256   0.001 -3.4312  0.0399 -2.9303
 1853SOL     OW17017   4.660   0.588   8.708  0.3507 -0.0184  0.4563
 1853SOL    HW117018   4.574   0.612   8.673  0.8662  1.0887 -0.0926
 1853SOL    HW217019   4.711   0.558   8.632 -0.2832  1.6927 -0.6482
 1854SOL     OW17020   1.640   1.411   6.626  0.0143 -0.1645  0.2678
 1854SOL    HW117021   1.618   1.345   6.560  2.8461 -1.8644  1.0033
 1854SOL    HW217022   1.714   1.372   6.672 -0.1059 -0.7496 -0.0371
 1855SOL     OW17023   3.390   2.147   5.183 -0.2479 -0.2947  0.0427
 1855SOL    HW117024   3.392   2.052   5.167  1.0559  0.0739 -2.0307
 1855SOL    HW217025   3.482   2.170   5.193 -0.8172 -0.1205  4.7305
 1856SOL     OW17026   4.517   2.320   3.476 -0.1748 -0.6675  0.0071
 1856SOL    HW117027   4.515   2.225   3.492  1.7635 -0.4327  1.6980
 1856SOL    HW217028   4.496   2.339   3.385  2.8663  0.8977 -0.3681
 1857SOL     OW17029   3.607   1.195   5.795 -0.1830  0.2186  0.3098
 1857SOL    HW117030   3.587   1.160   5.882 -0.4262 -1.3904 -0.3979
 1857SOL    HW217031   3.702   1.185   5.788 -0.2932 -0.6215  0.0191
 1858SOL     OW17032   1.395   2.888   9.404 -0.1511 -0.1260  0.8535
 1858SOL    HW117033   1.440   2.807   9.430  1.6697  1.4807  2.7051
 1858SOL    HW217034   1.468   2.918   9.351  0.1507 -0.3788  1.1241
 1859SOL     OW17035   2.845   3.836  17.132  0.0753 -0.2991  0.6612
 1859SOL    HW117036   2.762   3.876  17.106  1.8949  1.8883 -1.7046
 1859SOL    HW217037   2.808   3.772  17.194  1.5467 -2.0678 -0.2979
 1860SOL     OW17038   3.983   4.272  16.229  0.0044  0.6855  0.6633
 1860SOL    HW117039   3.944   4.349  16.271  0.5051  0.2051  2.0055
 1860SOL    HW217040   4.050   4.309  16.173  1.0218 -1.1597  0.6641
 1861SOL     OW17041   1.268   3.518   1.487  0.5401  0.0974  0.1084
 1861SOL    HW117042   1.191   3.564   1.521  0.2938  0.1540 -0.5294
 1861SOL    HW217043   1.280   3.565   1.405  0.5651  0.3565  0.2614
 1862SOL     OW17044   2.133   1.335   5.605 -0.2869 -0.2992 -0.3041
 1862SOL    HW117045   2.201   1.360   5.667  0.0353  0.4475 -0.9512
 1862SOL    HW217046   2.174   1.266   5.552  0.7636 -0.2259  0.4176
 1863SOL     OW17047   3.140   0.047   2.460 -0.2740 -0.4882  0.0396
 1863SOL    HW117048   3.097   4.691   2.492  1.1543 -0.7728  1.2691
 1863SOL    HW217049   3.111   0.049   2.369 -1.3064  1.6456  0.4066
 1864SOL     OW17050   1.255   1.870   8.907 -0.3244 -0.6330 -0.3373
 1864SOL    HW117051   1.235   1.872   8.814 -0.1633  0.9850 -0.3388
 1864SOL    HW217052   1.206   1.946   8.938 -1.1990 -1.2867 -0.1064
 1865SOL     OW17053   0.539   0.095  12.515  0.3120 -0.3225 -0.1049
 1865SOL    HW117054   0.575   0.182  12.532 -0.3207  0.3214 -2.0069
 1865SOL    HW217055   0.452   0.113  12.550  1.0290  1.2693  0.8159
 1866SOL     OW17056   3.622   0.178  12.491  0.1620 -0.0401 -0.1878
 1866SOL    HW117057   3.656   0.129  12.566  0.6508  1.2978  0.4589
 1866SOL    HW217058   3.697   0.183  12.431  0.8196 -0.0561  0.6258
 1867SOL     OW17059   0.729   0.683   9.167 -0.2352  1.4248  0.4513
 1867SOL    HW117060   0.701   0.594   9.146  2.7866  0.3331  1.1482
 1867SOL    HW217061   0.649   0.712   9.212  0.0498  0.7846  1.3816
 1868SOL     OW17062   4.060   2.121   0.986 -0.3343  0.1903  0.1581
 1868SOL    HW117063   4.103   2.115   1.071  1.0287 -1.0092 -0.6018
 1868SOL    HW217064   4.056   2.029   0.959 -0.9174  0.9653 -2.4191
 1869SOL     OW17065   1.946   4.281   4.265  0.0680  0.3400 -0.0053
 1869SOL    HW117066   1.957   4.359   4.319 -0.2138 -0.5563  1.3478
 1869SOL    HW217067   2.025   4.277   4.211  0.3128  0.9818  0.3118
 1870SOL     OW17068   0.659   0.437   2.746  0.2973  0.1246  0.3522
 1870SOL    HW117069   0.711   0.386   2.684  2.7203  0.3434  2.2136
 1870SOL    HW217070   0.698   0.425   2.832 -0.2862  0.8982  0.7268
 1871SOL     OW17071   3.044   4.299   3.283 -0.4081 -0.1793  0.3184
 1871SOL    HW117072   3.111   4.338   3.339 -1.0994  0.5740  0.6124
 1871SOL    HW217073   3.058   4.340   3.197  3.6900  0.2083  1.1789
 1872SOL     OW17074   0.202   2.327   6.394  0.3960  0.4330 -0.1908
 1872SOL    HW117075   0.285   2.304   6.352  0.1353 -0.3354 -0.2705
 1872SOL    HW217076   0.222   2.345   6.486 -1.2362  2.2399 -0.1887
 1873SOL     OW17077   0.125   1.672   6.689 -0.2957  0.3672  0.4700
 1873SOL    HW117078   0.168   1.749   6.726 -1.2097  0.6873  0.8520
 1873SOL    HW217079   0.035   1.693   6.714  0.1852  1.7798  1.0111
 1874SOL     OW17080   2.136   1.045  10.659 -0.3244  0.2206  0.4767
 1874SOL    HW117081   2.070   1.051  10.729  1.2638  2.5486  1.7809
 1874SOL    HW217082   2.192   1.120  10.680  2.7653 -1.5858 -1.5178
 1875SOL     OW17083   3.929   0.436   0.913  0.8043 -0.0773 -0.1642
 1875SOL    HW117084   3.881   0.518   0.909 -2.4000 -1.8159  2.7779
 1875SOL    HW217085   3.853   0.377   0.912  0.6136  0.1439  1.4559
 1876SOL     OW17086   0.964   2.498  13.994  0.5312  0.2409  0.1722
 1876SOL    HW117087   0.964   2.577  13.938 -0.8651  0.7963  0.9555
 1876SOL    HW217088   1.058   2.478  13.990  0.2882 -0.6701 -1.1800
 1877SOL     OW17089   2.001   2.510  12.958 -0.5875  0.5296 -0.5879
 1877SOL    HW117090   2.014   2.603  12.976  1.4564  0.5945 -2.3918
 1877SOL    HW217091   2.000   2.511  12.862 -0.0323  0.2096 -0.5927
 1878SOL     OW17092   3.812   2.201   5.854 -0.2787  0.2763  0.1091
 1878SOL    HW117093   3.853   2.148   5.786 -0.8412 -1.7483  1.3577
 1878SOL    HW217094   3.742   2.144   5.885 -0.8005  1.8720  1.9429
 1879SOL     OW17095   4.379   3.541   1.772  0.4106  0.4160 -0.0426
 1879SOL    HW117096   4.473   3.527   1.764  0.2628 -0.9916  0.7422
 1879SOL    HW217097   4.345   3.464   1.728  3.7857 -0.3324 -1.3383
 1880SOL     OW17098   1.125   4.236   5.039  0.2582 -0.1733  0.1097
 1880SOL    HW117099   1.125   4.270   4.950 -2.7697  0.3970  0.3214
 1880SOL    HW217100   1.070   4.158   5.027  1.7745 -0.9420 -1.8583
 1881SOL     OW17101   2.246   1.517   2.836 -0.3564  0.1579 -0.8041
 1881SOL    HW117102   2.267   1.424   2.836 -0.3325  0.1649 -0.4300
 1881SOL    HW217103   2.161   1.524   2.792 -0.3340 -1.3743 -1.0885
 1882SOL     OW17104   0.681   0.690   7.874  0.0222  0.6835  0.2660
 1882SOL    HW117105   0.767   0.649   7.884  1.0423  2.0437 -3.0564
 1882SOL    HW217106   0.691   0.755   7.805  1.7153  1.7754  1.5120
 1883SOL     OW17107   1.706   0.605   2.711  0.0702 -0.4631  0.0459
 1883SOL    HW117108   1.760   0.618   2.790 -1.3618  1.4545  0.7014
 1883SOL    HW217109   1.697   0.510   2.716  0.1193 -0.6540 -3.6498
 1884SOL     OW17110   1.438   0.773   0.107  0.2369 -0.2721  0.4441
 1884SOL    HW117111   1.508   0.708   0.117 -0.7244 -1.0515  2.1416
 1884SOL    HW217112   1.429   0.796   0.014  3.4698 -0.4786  0.0709
 1885SOL     OW17113   0.818   2.233   0.559  0.0043  0.0130 -0.0888
 1885SOL    HW117114   0.790   2.164   0.620  1.1859 -0.7033 -0.3531
 1885SOL    HW217115   0.744   2.248   0.501  1.0813  1.7447 -0.9854
 1886SOL     OW17116   0.646   0.251   4.676  0.0253 -0.1194  0.1423
 1886SOL    HW117117   0.597   0.293   4.605  0.9260 -0.1526 -0.5007
 1886SOL    HW217118   0.578   0.227   4.739  0.7903 -0.0946  0.9726
 1887SOL     OW17119   3.541   4.581   9.699 -0.3234  0.2775 -0.3158
 1887SOL    HW117120   3.480   4.513   9.669 -2.4935  1.6196  1.0774
 1887SOL    HW217121   3.503   4.596   9.785  2.7077  0.6872  0.9368
 1888SOL     OW17122   4.567   2.605   5.870  0.1889 -0.0449 -0.2159
 1888SOL    HW117123   4.572   2.668   5.943  0.0689 -0.7949  0.4399
 1888SOL    HW217124   4.483   2.565   5.892  0.0043  0.5522  0.1821
 1889SOL     OW17125   3.615   2.329   7.446  0.0801 -0.2155  0.0969
 1889SOL    HW117126   3.531   2.307   7.405  0.1362  0.8724 -0.5825
 1889SOL    HW217127   3.584   2.346   7.534  0.0053  2.0014 -0.3722
 1890SOL     OW17128   1.713   0.766   5.450  0.0793  0.3241  0.0189
 1890SOL    HW117129   1.786   0.706   5.468 -2.2513 -2.9673 -1.4659
 1890SOL    HW217130   1.699   0.808   5.535  0.9745 -1.0366  0.8453
 1891SOL     OW17131   1.088   0.363   4.588 -0.0761  0.2357  0.5864
 1891SOL    HW117132   1.101   0.330   4.676  0.3514  1.5828  1.0261
 1891SOL    HW217133   1.036   0.438   4.616 -0.0865 -0.0934  1.4517
 1892SOL     OW17134   0.579   0.071  13.167 -0.2872 -0.1056  0.2231
 1892SOL    HW117135   0.602   0.124  13.243 -0.4650  0.2944  0.0003
 1892SOL    HW217136   0.660   0.024  13.151 -0.0127 -0.1354  1.6739
 1893SOL     OW17137   3.493   0.895   5.696 -0.1930  0.4781 -0.4842
 1893SOL    HW117138   3.465   0.890   5.604  0.1470 -0.1798 -0.5540
 1893SOL    HW217139   3.510   0.989   5.695 -0.0384  0.4606  1.8209
 1894SOL     OW17140   3.443   3.956   8.532 -0.2121 -0.3531  0.0380
 1894SOL    HW117141   3.428   4.048   8.551 -0.8416 -0.5031  0.2665
 1894SOL    HW217142   3.435   3.924   8.622  0.8813  1.2576  0.7090
 1895SOL     OW17143   3.301   4.180   9.361  0.7251 -0.0941 -0.4283
 1895SOL    HW117144   3.273   4.140   9.443 -2.8006  3.1372 -0.0616
 1895SOL    HW217145   3.274   4.271   9.374  1.9475  0.3118 -0.7393
 1896SOL     OW17146   2.516   1.305  11.299 -0.6099  0.0115 -0.2432
 1896SOL    HW117147   2.431   1.323  11.260 -0.5019  0.3882 -0.3026
 1896SOL    HW217148   2.555   1.392  11.306 -1.0039  0.2015 -0.4830
 1897SOL     OW17149   0.428   1.630   2.115  0.1292 -0.1110 -0.5960
 1897SOL    HW117150   0.488   1.601   2.046  0.4164  2.1115 -1.3054
 1897SOL    HW217151   0.412   1.717   2.078  1.7432 -0.1390 -1.3793
 1898SOL     OW17152   0.812   0.286   4.266  0.0974 -0.4826  0.1369
 1898SOL    HW117153   0.874   0.289   4.339  0.2628  2.3560 -0.1023
 1898SOL    HW217154   0.874   0.282   4.193  1.2386 -0.5909  1.1227
 1899SOL     OW17155   3.899   2.289   3.312 -0.0685  0.4090 -0.2135
 1899SOL    HW117156   3.891   2.345   3.390  0.4144 -1.6765  1.3109
 1899SOL    HW217157   3.819   2.237   3.305 -1.1446  1.8458  1.3539
 1900SOL     OW17158   2.129   2.587   8.933 -0.1156  0.6095  0.0073
 1900SOL    HW117159   2.174   2.504   8.917  2.5833  2.0344  0.1908
 1900SOL    HW217160   2.154   2.634   8.854 -0.4513  0.3975 -0.2259
 1901SOL     OW17161   1.730   1.302   7.229  0.3486  0.0841 -0.3730
 1901SOL    HW117162   1.750   1.268   7.142  2.1861 -0.1031  0.1300
 1901SOL    HW217163   1.816   1.344   7.239  0.6688 -1.0991  1.5795
 1902SOL     OW17164   2.003   0.667   6.796  0.4996  0.0991  0.4834
 1902SOL    HW117165   1.909   0.648   6.798  0.6164 -0.4573  0.5430
 1902SOL    HW217166   2.026   0.712   6.878 -0.4167 -2.1573  1.9760
 1903SOL     OW17167   2.835   1.162   9.774 -0.4259  0.6433  0.2761
 1903SOL    HW117168   2.922   1.136   9.743  0.2342  3.3161 -0.1271
 1903SOL    HW217169   2.777   1.162   9.698  1.1712 -1.0159 -0.9298
 1904SOL     OW17170   4.078   2.511   6.394 -0.7730  0.5488 -0.5140
 1904SOL    HW117171   4.098   2.561   6.473  0.0716 -0.9049  0.2035
 1904SOL    HW217172   4.073   2.417   6.411  2.1490  0.4734 -0.0120
 1905SOL     OW17173   3.300   0.176   3.759  0.3568  0.3853  0.1352
 1905SOL    HW117174   3.230   0.126   3.801 -0.7249 -0.2561 -2.4175
 1905SOL    HW217175   3.294   0.261   3.803  1.6146 -1.0900  3.1406
 1906SOL     OW17176   3.874   2.870  11.550  0.5796 -0.4897  0.1918
 1906SOL    HW117177   3.859   2.956  11.590 -2.0273 -0.9579  0.2365
 1906SOL    HW217178   3.804   2.824  11.596 -0.1760 -0.4710 -0.9318
 1907SOL     OW17179   3.661   4.169  13.283  0.4403 -0.0583 -0.3487
 1907SOL    HW117180   3.625   4.145  13.198  1.2007 -1.2747 -0.3300
 1907SOL    HW217181   3.717   4.093  13.303 -1.0983 -1.6405 -2.1191
 1908SOL     OW17182   0.609   1.615   8.468  0.4585  0.3652 -0.3575
 1908SOL    HW117183   0.668   1.542   8.454 -1.4687 -0.9013 -1.8475
 1908SOL    HW217184   0.676   1.684   8.463 -0.8514  1.5826 -1.0467
 1909SOL     OW17185   3.928   4.030   4.359 -0.7547 -0.0879 -0.2718
 1909SOL    HW117186   3.971   4.024   4.273 -0.9514 -1.8696 -0.2575
 1909SOL    HW217187   3.839   4.005   4.332 -0.7598 -0.4989  0.1242
 1910SOL     OW17188   0.458   3.159   5.215  0.4013  0.2656  0.1085
 1910SOL    HW117189   0.410   3.109   5.282  0.6767  0.3051  0.3357
 1910SOL    HW217190   0.516   3.087   5.189 -0.0513  0.1408 -0.5440
 1911SOL     OW17191   3.749   3.301  16.107  0.3099 -0.4072  0.2803
 1911SOL    HW117192   3.771   3.348  16.027  1.4692  0.0021  0.8444
 1911SOL    HW217193   3.671   3.351  16.135 -0.2344 -0.9015 -0.3620
 1912SOL     OW17194   3.303   0.948  11.589  0.8180 -0.0072 -0.0829
 1912SOL    HW117195   3.265   1.017  11.534 -1.5557 -0.0541  1.5097
 1912SOL    HW217196   3.296   0.986  11.676 -1.9929  2.5625 -1.4385
 1913SOL     OW17197   1.643   0.739   7.062  0.2269 -0.0529  0.0709
 1913SOL    HW117198   1.548   0.743   7.046  0.0219 -0.4383  1.2015
 1913SOL    HW217199   1.650   0.815   7.120  0.5672  0.4222 -0.6038
 1914SOL     OW17200   1.770   2.720   3.846 -0.3093 -0.0739  0.3976
 1914SOL    HW117201   1.794   2.787   3.783  1.6513 -0.7231  0.4375
 1914SOL    HW217202   1.741   2.647   3.791  0.0253  0.7310 -0.8251
 1915SOL     OW17203   3.429   3.725   1.694 -0.0017  0.1869 -0.9642
 1915SOL    HW117204   3.486   3.665   1.741 -2.4505 -1.2060  0.2520
 1915SOL    HW217205   3.448   3.704   1.602  0.3973 -1.1666 -0.5732
 1916SOL     OW17206   3.153   1.941   1.845  0.2965 -0.1632 -0.1613
 1916SOL    HW117207   3.183   1.959   1.756  2.7147  0.6395  0.8090
 1916SOL    HW217208   3.194   2.018   1.885 -0.6430 -0.4976  1.4557
 1917SOL     OW17209   4.536   3.550   4.004  0.6419 -0.3791  0.1434
 1917SOL    HW117210   4.525   3.512   3.917 -0.2734  2.1090 -0.8241
 1917SOL    HW217211   4.489   3.632   3.998  2.4526  0.7245  1.1235
 1918SOL     OW17212   1.937   3.219  13.550 -0.1364  0.2187  0.0672
 1918SOL    HW117213   1.896   3.143  13.591  0.9383 -0.9505 -1.0104
 1918SOL    HW217214   1.898   3.286  13.606 -0.8036  0.6570 -0.9186
 1919SOL     OW17215   4.633   0.361   9.514  0.3677  0.7425 -0.3917
 1919SOL    HW117216   4.628   0.266   9.503  1.5750  0.6379  0.0742
 1919SOL    HW217217   4.547   0.384   9.548 -0.8819 -2.7532 -1.1185
 1920SOL     OW17218   2.551   2.846   3.525  0.2224 -0.4444  0.9873
 1920SOL    HW117219   2.640   2.882   3.530  0.6992 -1.5179  0.1816
 1920SOL    HW217220   2.568   2.754   3.507 -0.6657 -0.2714 -0.7690
 1921SOL     OW17221   3.764   3.433   2.276  0.0132  0.2529  0.0409
 1921SOL    HW117222   3.846   3.416   2.322 -1.0711 -3.6146  0.5783
 1921SOL    HW217223   3.705   3.415   2.350 -0.1988 -0.3077 -0.2608
 1922SOL     OW17224   3.707   2.033   7.998  0.5937  0.1461 -0.3187
 1922SOL    HW117225   3.665   2.083   8.069 -0.5255 -0.6631 -0.4170
 1922SOL    HW217226   3.726   2.104   7.936  2.3719 -0.4917 -0.4775
 1923SOL     OW17227   2.891   1.434  12.589 -0.2857  0.1186 -0.1608
 1923SOL    HW117228   2.887   1.432  12.684 -2.3051  1.3464 -0.2321
 1923SOL    HW217229   2.801   1.424  12.558 -0.2008  1.6867 -0.8989
 1924SOL     OW17230   0.647   2.601   4.079  0.4888  0.1003 -0.0963
 1924SOL    HW117231   0.687   2.682   4.047  0.1578  0.7806  1.1748
 1924SOL    HW217232   0.561   2.614   4.040 -0.8105 -1.6553  2.1224
 1925SOL     OW17233   3.083   0.297   4.276 -0.2514  0.5458  0.3019
 1925SOL    HW117234   3.108   0.208   4.303  0.5744  0.4573 -0.7600
 1925SOL    HW217235   2.993   0.283   4.246  0.2158 -0.4950 -0.6222
 1926SOL     OW17236   0.100   4.695   9.146  0.2627 -0.3908  0.3417
 1926SOL    HW117237   0.124   0.054   9.188 -2.8385 -0.7923  2.9005
 1926SOL    HW217238   0.188   4.668   9.121  0.6640 -0.4279  1.8019
 1927SOL     OW17239   0.732   4.387   2.669  0.3032 -0.3552  0.0730
 1927SOL    HW117240   0.755   4.464   2.722 -2.0142  0.7653 -0.5872
 1927SOL    HW217241   0.811   4.366   2.619  1.7593  0.9937  1.7990
 1928SOL     OW17242   0.331   1.222   5.135 -0.3445 -0.5035  0.0110
 1928SOL    HW117243   0.288   1.186   5.213 -2.8554  4.4761  0.8968
 1928SOL    HW217244   0.251   1.268   5.110  0.5194  1.7001  1.3201
 1929SOL     OW17245   0.695   0.612   9.572  0.8071  0.4256  0.4542
 1929SOL    HW117246   0.671   0.690   9.522  0.5629 -0.6421 -1.0936
 1929SOL    HW217247   0.750   0.565   9.510  3.9524  0.4894  3.2238
 1930SOL     OW17248   1.456   2.493  15.461 -0.9235  0.1993 -0.3255
 1930SOL    HW117249   1.427   2.486  15.552  0.3418 -1.9539 -0.0929
 1930SOL    HW217250   1.391   2.436  15.419 -1.3185  0.3179  0.1242
 1931SOL     OW17251   4.378   2.355   2.452 -0.5315 -0.1523  0.4935
 1931SOL    HW117252   4.438   2.364   2.378  0.5439 -0.3829  1.3379
 1931SOL    HW217253   4.303   2.330   2.397 -0.3972 -2.5657  1.3966
 1932SOL     OW17254   2.973   1.618   2.016  0.2413 -0.1320  0.1949
 1932SOL    HW117255   3.053   1.656   2.053 -2.2907  1.8950  3.5092
 1932SOL    HW217256   2.976   1.530   2.055  1.5364 -0.6691 -1.0867
 1933SOL     OW17257   3.588   2.123  14.138 -0.5386  0.2281 -0.5355
 1933SOL    HW117258   3.522   2.162  14.194 -0.5147  0.5003 -0.6987
 1933SOL    HW217259   3.565   2.037  14.173  1.3253 -1.4003 -3.2256
 1934SOL     OW17260   1.755   1.341   8.373  0.2081  0.2778 -0.4466
 1934SOL    HW117261   1.805   1.415   8.339 -3.7428  3.2899  0.3245
 1934SOL    HW217262   1.693   1.340   8.301  0.3694 -1.2911 -0.5583
 1935SOL     OW17263   3.624   2.642  12.608  0.2940  0.7798  0.3396
 1935SOL    HW117264   3.605   2.720  12.557  2.1578  1.0774  0.1082
 1935SOL    HW217265   3.551   2.590  12.573  1.0496 -0.5018  0.6452
 1936SOL     OW17266   0.364   4.645   1.330 -0.0122 -0.4694 -0.1032
 1936SOL    HW117267   0.294   4.635   1.394  0.2409 -0.9395  0.0902
 1936SOL    HW217268   0.332   4.722   1.282 -0.0263 -0.1933  0.3527
 1937SOL     OW17269   4.130   1.915   6.808 -0.0324 -0.5484  0.1519
 1937SOL    HW117270   4.111   1.979   6.877  3.9714  0.2371  0.5647
 1937SOL    HW217271   4.168   1.848   6.864  2.8610  0.3497 -0.7405
 1938SOL     OW17272   0.557   3.291   0.328  0.3618 -0.0986  0.1428
 1938SOL    HW117273   0.623   3.354   0.357  1.8425 -1.1783 -0.9001
 1938SOL    HW217274   0.595   3.205   0.313  2.9559  1.3050 -1.2747
 1939SOL     OW17275   2.913   0.557  11.155 -0.1079  0.4746  0.0417
 1939SOL    HW117276   2.846   0.530  11.218  0.0016 -1.4820 -0.6926
 1939SOL    HW217277   2.923   0.649  11.178 -1.7563  1.2441 -2.3704
 1940SOL     OW17278   1.341   1.558  11.093 -0.3008  0.1924  0.0695
 1940SOL    HW117279   1.278   1.486  11.081 -2.3326  1.9184  0.4655
 1940SOL    HW217280   1.281   1.631  11.079 -0.0023  0.1843 -1.2385
 1941SOL     OW17281   1.480   1.108  10.481  0.3598 -0.2250 -0.1750
 1941SOL    HW117282   1.527   1.056  10.545  0.0773 -1.5276 -1.0341
 1941SOL    HW217283   1.390   1.076  10.486 -0.1711  1.0245 -1.5756
 1942SOL     OW17284   2.505   3.309   2.344 -0.1193 -0.0215  0.1379
 1942SOL    HW117285   2.551   3.260   2.413 -0.5128 -0.7164 -0.0981
 1942SOL    HW217286   2.414   3.323   2.371 -0.1118  0.2617  0.0200
 1943SOL     OW17287   4.181   2.438  11.694 -0.0101 -0.5063 -0.0956
 1943SOL    HW117288   4.209   2.389  11.617  2.9279  1.3037 -0.1767
 1943SOL    HW217289   4.229   2.518  11.673 -1.3690  0.3771  0.2006
 1944SOL     OW17290   1.575   1.080   4.708  0.3926 -0.4664 -0.4393
 1944SOL    HW117291   1.553   1.109   4.797  1.5252  0.1639 -0.3628
 1944SOL    HW217292   1.542   0.990   4.712  3.9065 -1.7295  0.0281
 1945SOL     OW17293   3.146   3.038   1.107  0.5697  0.0061 -0.0364
 1945SOL    HW117294   3.159   3.042   1.012 -1.7289 -0.8213 -0.3978
 1945SOL    HW217295   3.065   2.987   1.098  0.6139  0.0870 -0.9220
 1946SOL     OW17296   0.821   0.513   7.177 -0.0329  0.1724  0.1253
 1946SOL    HW117297   0.743   0.466   7.146  0.9865 -1.2560 -0.2564
 1946SOL    HW217298   0.801   0.523   7.271  0.9503  0.9026  0.2518
 1947SOL     OW17299   4.201   3.595  13.941 -0.4127  0.2278  0.5206
 1947SOL    HW117300   4.207   3.678  13.988  1.1370  0.7363 -0.5883
 1947SOL    HW217301   4.107   3.577  13.935 -0.4106 -0.0453  1.2652
 1948SOL     OW17302   1.415   3.237  11.788 -0.1454  0.3104  0.3459
 1948SOL    HW117303   1.468   3.239  11.868  2.3456  0.7164 -1.3128
 1948SOL    HW217304   1.434   3.327  11.761 -1.2291 -0.0967 -1.7428
 1949SOL     OW17305   2.859   2.086   7.466 -0.6547  0.2993  0.2349
 1949SOL    HW117306   2.952   2.090   7.490 -1.4560  1.7992  3.1721
 1949SOL    HW217307   2.870   2.077   7.372 -0.9377 -0.1309  0.2422
 1950SOL     OW17308   0.397   3.084  15.610 -0.0601  0.2366 -0.1189
 1950SOL    HW117309   0.393   3.107  15.517 -1.8145 -2.3703 -0.6681
 1950SOL    HW217310   0.490   3.064  15.619  0.4296  2.3589 -0.4251
 1951SOL     OW17311   1.217   1.514   4.769  0.1141 -0.0094  0.2616
 1951SOL    HW117312   1.271   1.591   4.787  1.9598 -1.2734  0.0986
 1951SOL    HW217313   1.192   1.482   4.856  1.6837  0.6885  0.9715
 1952SOL     OW17314   3.157   1.687   8.261 -0.4206 -0.0896 -0.2037
 1952SOL    HW117315   3.133   1.641   8.342  0.2765  0.5939  0.3885
 1952SOL    HW217316   3.096   1.645   8.200  0.5482  1.0525 -1.9391
 1953SOL     OW17317   0.949   4.409   9.157 -0.3609 -0.2519  0.2602
 1953SOL    HW117318   0.895   4.487   9.168  2.8987  1.7117  2.4467
 1953SOL    HW217319   1.024   4.421   9.215 -0.0357 -1.6667  0.1350
 1954SOL     OW17320   3.979   4.045   2.248 -0.2197  0.4050 -0.3108
 1954SOL    HW117321   3.924   3.968   2.263  3.0198 -2.0747 -1.3513
 1954SOL    HW217322   3.944   4.081   2.166  2.2301 -0.0871 -1.5429
 1955SOL     OW17323   1.460   2.217   8.119 -0.7168 -0.6082  0.2502
 1955SOL    HW117324   1.452   2.255   8.031 -1.0745 -0.7828  0.2084
 1955SOL    HW217325   1.372   2.185   8.136 -0.6905  0.0684  1.6427
 1956SOL     OW17326   1.738   3.072   2.091  0.1208 -0.8498  0.2076
 1956SOL    HW117327   1.803   3.053   2.023 -0.0524 -2.0616  0.3784
 1956SOL    HW217328   1.714   3.160   2.063  0.1309 -1.1795 -0.8345
 1957SOL     OW17329   1.180   3.995  13.023 -0.2494 -0.6282  0.0053
 1957SOL    HW117330   1.250   4.044  12.980  0.1224  0.5687  2.0038
 1957SOL    HW217331   1.239   3.953  13.086 -0.9370 -1.1846  0.2758
 1958SOL     OW17332   3.410   2.972  17.388  0.1621  0.2401  0.1283
 1958SOL    HW117333   3.316   2.958  17.376 -0.1319  2.8557 -0.5456
 1958SOL    HW217334   3.415   3.041  17.454 -1.1245  0.6218 -0.1899
 1959SOL     OW17335   3.401   2.167   0.922  0.1994  0.7101  0.1339
 1959SOL    HW117336   3.487   2.158   0.964 -0.8224 -0.1216  2.0376
 1959SOL    HW217337   3.345   2.171   1.000 -1.5855 -0.3391 -1.1145
 1960SOL     OW17338   0.616   4.048   0.204  0.0533 -0.5759  0.2292
 1960SOL    HW117339   0.536   4.058   0.255 -0.2746 -0.6601 -0.2612
 1960SOL    HW217340   0.637   4.137   0.176 -1.1301 -0.3563  0.0091
 1961SOL     OW17341   2.679   1.236   5.699 -0.3291 -0.6325  0.1223
 1961SOL    HW117342   2.750   1.274   5.751 -1.8817  0.0993  1.7288
 1961SOL    HW217343   2.669   1.149   5.736 -0.7893 -1.5313 -2.1384
 1962SOL     OW17344   2.564   4.661   4.252  0.5545  0.3952 -0.1922
 1962SOL    HW117345   2.514   4.722   4.200  1.4354  1.7390  0.5310
 1962SOL    HW217346   2.608   0.006   4.302 -1.4599  1.4885  0.0491
 1963SOL     OW17347   3.723   2.694   2.549 -0.9480  0.0443  0.0341
 1963SOL    HW117348   3.704   2.625   2.613  0.9697  2.9985  3.7875
 1963SOL    HW217349   3.805   2.725   2.586 -1.4883 -1.5689  2.6409
 1964SOL     OW17350   3.853   3.886   7.245  0.6209  0.7815 -0.0795
 1964SOL    HW117351   3.819   3.973   7.222 -3.2864 -0.6935  0.0177
 1964SOL    HW217352   3.823   3.878   7.335 -0.5955  0.3180 -0.5261
 1965SOL     OW17353   2.629   1.026   6.663 -0.3167 -0.2135 -0.6531
 1965SOL    HW117354   2.575   0.998   6.736  0.5342  0.3722  0.2004
 1965SOL    HW217355   2.563   1.074   6.613 -1.2333 -1.2255 -0.4132
 1966SOL     OW17356   2.643   1.446  14.797 -0.2509  0.7240  0.3085
 1966SOL    HW117357   2.669   1.502  14.870 -0.5062  0.6101  0.4836
 1966SOL    HW217358   2.549   1.460  14.795 -0.7835 -2.7409  3.2685
 1967SOL     OW17359   2.629   4.237   9.053 -0.3333  0.5526  0.1000
 1967SOL    HW117360   2.670   4.151   9.043 -1.2081  0.2471 -0.7561
 1967SOL    HW217361   2.618   4.247   9.148 -0.1497  0.1867  0.1605
 1968SOL     OW17362   4.592   3.323   5.532  0.1374 -0.1345  0.4748
 1968SOL    HW117363   4.525   3.328   5.463  0.9028 -0.9602 -0.3383
 1968SOL    HW217364   4.541   3.280   5.601  2.4788 -3.7094  0.0122
 1969SOL     OW17365   0.950   4.420   6.604 -0.2571  0.1192  0.4623
 1969SOL    HW117366   0.934   4.410   6.698 -0.8669  1.1598  0.4644
 1969SOL    HW217367   1.033   4.468   6.595  1.4351 -2.9683 -0.3391
 1970SOL     OW17368   0.164   2.359   0.389  0.2754  0.4257 -0.1659
 1970SOL    HW117369   0.240   2.304   0.372 -0.5986 -0.4281 -1.3036
 1970SOL    HW217370   0.186   2.433   0.332  2.2651 -2.5515 -3.2860
 1971SOL     OW17371   1.665   3.234   8.485  0.3072 -0.2433  0.4566
 1971SOL    HW117372   1.728   3.276   8.544  0.8861 -1.0556  0.4181
 1971SOL    HW217373   1.714   3.159   8.453  2.4650  1.0627  0.6649
 1972SOL     OW17374   0.138   0.490  10.790 -0.0150  0.2084 -0.0898
 1972SOL    HW117375   0.199   0.436  10.841  2.0924  0.3568 -2.4653
 1972SOL    HW217376   0.051   0.456  10.807  1.3157 -1.7398  2.8326
 1973SOL     OW17377   2.061   4.521   2.085 -0.3294  0.1551  0.0214
 1973SOL    HW117378   2.099   4.493   2.002 -0.4541 -0.7618  0.2792
 1973SOL    HW217379   1.975   4.480   2.078  0.0503 -0.3633 -1.7235
 1974SOL     OW17380   0.743   1.746   5.558  0.0680 -0.2226 -0.6384
 1974SOL    HW117381   0.715   1.835   5.541 -0.0457 -0.3270 -0.9846
 1974SOL    HW217382   0.657   1.711   5.583 -0.8952  3.3123  1.0007
 1975SOL     OW17383   2.052   3.026   3.916  0.1999  0.3214 -0.0243
 1975SOL    HW117384   1.984   3.052   3.978  0.8384 -1.5223  1.4342
 1975SOL    HW217385   2.073   3.111   3.878 -3.4430  1.4000  0.3933
 1976SOL     OW17386   0.099   0.462   4.997  0.0553  0.2305 -0.3957
 1976SOL    HW117387   0.048   0.434   5.073  1.3961 -0.3946  0.2723
 1976SOL    HW217388   0.175   0.509   5.033  0.5879  0.1169 -1.3416
 1977SOL     OW17389   3.722   3.092   2.747  0.0170  0.2606  0.4053
 1977SOL    HW117390   3.712   3.186   2.728 -0.0804  0.4606  1.4233
 1977SOL    HW217391   3.732   3.045   2.665 -2.2560 -0.4002  0.5096
 1978SOL     OW17392   1.860   3.390   4.411 -0.4513  0.0393 -0.6222
 1978SOL    HW117393   1.934   3.448   4.426  0.0976 -0.4789 -1.3032
 1978SOL    HW217394   1.844   3.411   4.318  0.2154 -0.1000 -0.7660
 1979SOL     OW17395   1.116   2.316   3.445  0.2514 -0.1882  0.2060
 1979SOL    HW117396   1.193   2.360   3.411  0.1106  0.8000  1.1686
 1979SOL    HW217397   1.070   2.309   3.361  0.4168 -0.3536  0.1275
 1980SOL     OW17398   1.771   4.195   4.818 -0.6932 -0.5974 -0.2793
 1980SOL    HW117399   1.687   4.235   4.837  0.2608 -1.0819  5.0439
 1980SOL    HW217400   1.781   4.232   4.731  0.5864  0.1052  0.1589
 1981SOL     OW17401   1.343   1.601   1.751 -0.1373  0.3219 -0.1927
 1981SOL    HW117402   1.358   1.610   1.845 -1.6933  0.8280  0.0160
 1981SOL    HW217403   1.253   1.570   1.743 -0.1028  0.4780 -1.2618
 1982SOL     OW17404   1.085   4.224   3.534 -0.4626  0.3258 -0.1018
 1982SOL    HW117405   1.130   4.259   3.457  0.3565  1.2406  0.7965
 1982SOL    HW217406   1.032   4.294   3.572  0.4293 -0.3872  2.4385
 1983SOL     OW17407   2.331   2.807   2.976  0.0465  0.3918  0.5658
 1983SOL    HW117408   2.362   2.883   3.024  0.3034  1.5937 -1.4778
 1983SOL    HW217409   2.349   2.839   2.887  1.3691 -1.3562  0.1986
 1984SOL     OW17410   4.038   1.028  15.130  0.9230  0.1756 -0.0070
 1984SOL    HW117411   4.097   0.953  15.132 -1.0357 -1.3859 -1.4945
 1984SOL    HW217412   4.076   1.090  15.193  1.7692 -1.0986  0.7254
 1985SOL     OW17413   2.278   4.267   5.214 -0.4818  0.5020  0.0218
 1985SOL    HW117414   2.205   4.304   5.264  0.0528  1.5194  0.0382
 1985SOL    HW217415   2.297   4.334   5.149  0.9465 -1.7136 -1.8523
 1986SOL     OW17416   1.847   3.321   3.128  0.0671  0.3996 -0.2782
 1986SOL    HW117417   1.792   3.245   3.148  2.3500 -1.2821 -0.3044
 1986SOL    HW217418   1.933   3.278   3.137  0.1285  0.5603 -0.1010
 1987SOL     OW17419   0.106   1.889   9.224  0.2989  0.3937 -0.4214
 1987SOL    HW117420   0.168   1.961   9.211  1.3443 -0.4992 -0.4035
 1987SOL    HW217421   0.057   1.930   9.295 -0.0091  0.2851 -0.5729
 1988SOL     OW17422   2.885   2.352   4.803  0.3438 -0.1078  0.8037
 1988SOL    HW117423   2.947   2.421   4.778  0.3999 -0.3299  0.3384
 1988SOL    HW217424   2.891   2.306   4.720 -0.1555 -0.6171  1.0493
 1989SOL     OW17425   3.539   2.250  15.122  0.1021  0.3266  0.3486
 1989SOL    HW117426   3.537   2.338  15.086  1.0578  0.6341  1.0292
 1989SOL    HW217427   3.448   2.224  15.108  0.2456 -0.4414  0.8442
 1990SOL     OW17428   3.741   3.391   5.536  0.2296 -0.1932 -0.3413
 1990SOL    HW117429   3.820   3.340   5.552 -0.1749 -0.7661 -0.1818
 1990SOL    HW217430   3.756   3.451   5.609 -0.6887  1.7139 -1.6958
 1991SOL     OW17431   2.020   4.081   4.799  0.2927 -0.2992  0.3413
 1991SOL    HW117432   1.935   4.124   4.790  0.5625 -0.0948 -1.1970
 1991SOL    HW217433   2.076   4.144   4.844  0.8881 -0.4171 -0.2349
 1992SOL     OW17434   2.544   3.236   5.636  0.2742 -0.5508  0.4332
 1992SOL    HW117435   2.595   3.157   5.621 -1.0123 -1.1101 -1.0313
 1992SOL    HW217436   2.525   3.220   5.728  0.3612  0.2257  0.5900
 1993SOL     OW17437   0.489   0.353   8.742  0.3718 -0.3765 -0.3350
 1993SOL    HW117438   0.464   0.289   8.809  1.0155  0.0694  0.3216
 1993SOL    HW217439   0.521   0.424   8.798  2.3356 -1.7089  0.2047
 1994SOL     OW17440   1.481   4.092   1.932 -0.2809 -0.4359  0.2930
 1994SOL    HW117441   1.453   4.180   1.908  0.3225 -0.0490  1.0009
 1994SOL    HW217442   1.559   4.108   1.985 -0.8288  0.0158  0.9621
 1995SOL     OW17443   0.062   2.191   5.977 -0.4441 -0.0439 -0.0933
 1995SOL    HW117444   0.101   2.117   6.023  0.9021  0.5394 -0.2827
 1995SOL    HW217445   0.050   2.258   6.044  1.5936  1.7675 -1.5274
 1996SOL     OW17446   2.463   4.255   5.472 -0.1518 -0.1955  0.5718
 1996SOL    HW117447   2.455   4.346   5.500  1.3661  0.6732 -1.8880
 1996SOL    HW217448   2.553   4.264   5.442 -0.4073 -0.1197 -0.1716
 1997SOL     OW17449   3.410   1.756  15.493 -0.7911 -0.2708 -0.4248
 1997SOL    HW117450   3.480   1.778  15.554  0.3723 -0.1644 -1.7957
 1997SOL    HW217451   3.454   1.694  15.434  1.1274 -0.6055  1.3405
 1998SOL     OW17452   4.689   2.012   7.421  0.2292 -0.4874 -0.1300
 1998SOL    HW117453   0.034   2.021   7.488 -0.7423 -0.4998  0.8612
 1998SOL    HW217454   4.616   1.968   7.464 -0.2140  0.5503  0.2032
 1999SOL     OW17455   2.446   1.004   6.891  0.2330 -0.2099 -0.0788
 1999SOL    HW117456   2.470   1.096   6.905 -0.2869  0.0873 -1.1310
 1999SOL    HW217457   2.365   1.001   6.943  0.3416  2.2970  0.2302
 2000SOL     OW17458   0.924   0.255  10.085 -0.2063  0.4512  0.3014
 2000SOL    HW117459   0.943   0.163  10.063 -0.7598  0.7203 -1.3114
 2000SOL    HW217460   1.011   0.295  10.076  1.4635 -2.7222  2.4117
 2001SOL     OW17461   1.123   3.936  15.584 -0.0116 -0.4687 -0.1671
 2001SOL    HW117462   1.049   3.951  15.643  0.3133  1.9600 -0.3805
 2001SOL    HW217463   1.183   3.905  15.651  1.2260  1.1733 -0.5270
 2002SOL     OW17464   1.944   0.820   5.200  0.0547  0.0469 -0.0579
 2002SOL    HW117465   2.027   0.821   5.153 -0.2694  0.2279 -0.6239
 2002SOL    HW217466   1.875   0.817   5.134 -0.5601 -0.8647  0.6177
 2003SOL     OW17467   2.979   2.694   7.337  0.3187  0.4001  0.3655
 2003SOL    HW117468   2.920   2.723   7.407  0.2267 -1.4335  1.0455
 2003SOL    HW217469   2.928   2.623   7.300  0.0699  1.0017 -0.4486
 2004SOL     OW17470   3.988   1.790   2.298  0.7140  0.2084 -0.4587
 2004SOL    HW117471   4.051   1.798   2.369 -0.0063  0.1184  0.1923
 2004SOL    HW217472   3.961   1.880   2.281 -0.8348 -0.3208 -0.8441
 2005SOL     OW17473   0.371   0.286  12.783  0.1915 -0.1544 -0.1511
 2005SOL    HW117474   0.309   0.270  12.712 -0.9095  0.3629  0.6940
 2005SOL    HW217475   0.357   0.380  12.797 -1.9249 -0.6839  1.2928
 2006SOL     OW17476   3.988   3.754  14.614  0.2262 -0.2451  0.0741
 2006SOL    HW117477   3.963   3.832  14.664 -2.6244 -0.7790 -0.5176
 2006SOL    HW217478   3.975   3.682  14.676  2.0059  0.1999  0.9802
 2007SOL     OW17479   1.815   0.003   8.456 -0.2165 -0.0145  0.2847
 2007SOL    HW117480   1.846   0.089   8.485 -1.6794  0.5967  0.0322
 2007SOL    HW217481   1.767   4.708   8.537 -1.4186  0.2191 -0.3753
 2008SOL     OW17482   4.209   0.047   1.629  0.2606  0.3569 -0.3585
 2008SOL    HW117483   4.236   4.697   1.685  1.7135  0.3325 -1.0811
 2008SOL    HW217484   4.183   0.111   1.696  1.9332  0.6299  0.0311
 2009SOL     OW17485   3.712   0.368  15.432 -0.3888 -0.0269  1.1728
 2009SOL    HW117486   3.640   0.431  15.433 -1.6034 -1.3509 -1.3114
 2009SOL    HW217487   3.675   0.282  15.455  2.5417 -1.1819  1.5777
 2010SOL     OW17488   0.304   0.693  16.762  0.1434 -0.1346  0.5563
 2010SOL    HW117489   0.221   0.675  16.806  1.2419 -3.4286  1.2528
 2010SOL    HW217490   0.321   0.785  16.783  1.5889 -0.2964  0.1107
 2011SOL     OW17491   3.320   2.056   4.362  0.4284 -0.7318 -0.1606
 2011SOL    HW117492   3.379   2.035   4.290  2.9202 -1.0408  1.9797
 2011SOL    HW217493   3.281   1.972   4.387 -2.0607  0.3628 -0.3439
 2012SOL     OW17494   3.973   0.092   3.567  0.0216 -0.6997 -0.3546
 2012SOL    HW117495   3.891   0.076   3.614  1.5489 -0.4415  2.3669
 2012SOL    HW217496   4.041   0.036   3.604 -0.0509 -0.5057  0.0688
 2013SOL     OW17497   3.295   3.568   9.321 -0.2243 -0.3858 -0.2478
 2013SOL    HW117498   3.229   3.605   9.380  1.5505 -1.4965  2.4119
 2013SOL    HW217499   3.368   3.551   9.380  1.4748  1.1431 -1.9249
 2014SOL     OW17500   2.198   0.830   8.278 -0.0356 -0.2831  0.6529
 2014SOL    HW117501   2.123   0.886   8.299  0.1633  0.6882 -1.2032
 2014SOL    HW217502   2.200   0.841   8.183  1.8384 -3.3060  0.3653
 2015SOL     OW17503   4.705   1.343  10.271 -0.0831 -0.6794  0.2547
 2015SOL    HW117504   0.022   1.271  10.318  2.1972  1.1158  1.0460
 2015SOL    HW217505   4.633   1.351  10.334 -0.8770  0.8918 -0.8208
 2016SOL     OW17506   1.474   1.271   6.061  0.5241  0.2382 -0.3538
 2016SOL    HW117507   1.562   1.300   6.083  0.2250 -0.5579  1.8318
 2016SOL    HW217508   1.424   1.315   6.130 -2.5893 -3.2119 -0.3518
 2017SOL     OW17509   3.931   3.640   6.716 -0.4684 -0.6915 -0.1493
 2017SOL    HW117510   3.962   3.676   6.632 -0.9637 -1.1236 -0.5158
 2017SOL    HW217511   4.018   3.640   6.758  0.0292 -1.9952 -1.1829
 2018SOL     OW17512   3.647   3.389   2.751  0.3454 -0.5168  0.1280
 2018SOL    HW117513   3.560   3.366   2.782  0.6782 -1.0399  0.6686
 2018SOL    HW217514   3.666   3.470   2.798  1.0949  0.5635 -2.0265
 2019SOL     OW17515   1.346   0.383   6.796  0.3252  0.1978 -0.1782
 2019SOL    HW117516   1.260   0.344   6.781 -0.8788  1.8721  2.4956
 2019SOL    HW217517   1.355   0.366   6.890 -0.9589  1.4669  0.1671
 2020SOL     OW17518   1.058   3.656   5.408  0.0219  0.3130 -0.0399
 2020SOL    HW117519   1.025   3.730   5.355 -1.9083 -0.0987  0.5859
 2020SOL    HW217520   0.995   3.679   5.476 -3.5343  0.8369 -3.4578
 2021SOL     OW17521   1.364   1.197   2.942  0.9171 -0.4375 -0.2841
 2021SOL    HW117522   1.402   1.251   2.873  0.5739 -1.1846 -1.0608
 2021SOL    HW217523   1.290   1.251   2.967  0.9509  0.0944 -1.3502
 2022SOL     OW17524   1.503   2.461   1.845 -0.0334 -0.1182  0.1943
 2022SOL    HW117525   1.476   2.430   1.931 -0.0707 -1.2971 -0.2480
 2022SOL    HW217526   1.525   2.376   1.807 -0.2319  0.0575 -0.3143
 2023SOL     OW17527   0.083   0.669   5.900  0.6940 -0.0014  0.7302
 2023SOL    HW117528   0.075   0.574   5.900  1.0187 -0.0231 -0.0839
 2023SOL    HW217529   0.022   0.682   5.973  0.6986  1.3408  0.5080
 2024SOL     OW17530   0.338   4.314   7.981  0.2707 -0.0707  0.0069
 2024SOL    HW117531   0.405   4.255   7.947 -0.5390 -2.0810  1.9146
 2024SOL    HW217532   0.265   4.288   7.924 -0.0857 -0.2293  0.5279
 2025SOL     OW17533   1.013   4.343   3.248  0.1460 -0.1667  0.1778
 2025SOL    HW117534   1.029   4.415   3.308 -0.2501  1.1684 -1.3322
 2025SOL    HW217535   1.104   4.320   3.226 -0.5346 -2.0968 -0.6383
 2026SOL     OW17536   0.328   3.451   9.656  0.1075 -0.2233  0.4334
 2026SOL    HW117537   0.392   3.506   9.611 -1.6089  2.3851  1.2218
 2026SOL    HW217538   0.364   3.431   9.743 -0.3464  1.0947  0.9180
 2027SOL     OW17539   1.128   4.066  11.689  0.2677  0.0021 -0.1820
 2027SOL    HW117540   1.161   4.019  11.612 -0.9452 -3.0786  1.1854
 2027SOL    HW217541   1.137   4.157  11.663  0.6670 -0.2614 -0.9893
 2028SOL     OW17542   3.971   2.641   5.083  0.1618  0.1133 -0.5783
 2028SOL    HW117543   3.955   2.667   5.174  0.9862  0.0930 -0.4304
 2028SOL    HW217544   3.998   2.551   5.098  1.2228  0.5441  0.1122
 2029SOL     OW17545   1.660   2.207  12.741  0.5490  0.4423 -0.3811
 2029SOL    HW117546   1.710   2.215  12.659 -1.5962 -0.0009 -1.7467
 2029SOL    HW217547   1.700   2.283  12.783 -1.1496  0.1462  1.7216
 2030SOL     OW17548   1.333   0.180   3.024  0.0159  0.1835 -0.7365
 2030SOL    HW117549   1.423   0.169   3.057  0.2260 -0.7874 -1.6482
 2030SOL    HW217550   1.346   0.200   2.932  0.9321  3.3134  0.0458
 2031SOL     OW17551   3.694   1.231   7.541 -0.4892 -0.4597 -0.1190
 2031SOL    HW117552   3.774   1.186   7.566  0.1568  0.3453 -0.7352
 2031SOL    HW217553   3.724   1.300   7.481  0.3926 -0.8587 -0.1256
 2032SOL     OW17554   0.090   2.543   7.513 -0.1916  0.0306  0.2829
 2032SOL    HW117555   0.087   2.452   7.545  2.3487 -0.0830  0.1865
 2032SOL    HW217556   0.086   2.585   7.599 -0.3575  0.0948  0.2435
 2033SOL     OW17557   0.888   3.963   9.722  0.9118 -0.1798 -0.1633
 2033SOL    HW117558   0.902   3.931   9.811 -1.2413 -0.8605 -0.0553
 2033SOL    HW217559   0.793   3.978   9.721  0.4129 -3.2442  0.0896
 2034SOL     OW17560   1.694   4.003   5.994  0.5055 -0.1853  0.3723
 2034SOL    HW117561   1.666   4.008   5.902 -2.5743  2.3094  1.4475
 2034SOL    HW217562   1.618   3.952   6.022  0.0240 -0.5359 -1.5050
 2035SOL     OW17563   1.498   2.803   1.983 -0.1983  0.9355  0.3757
 2035SOL    HW117564   1.465   2.732   2.038 -1.6979 -0.1327 -1.9281
 2035SOL    HW217565   1.587   2.774   1.962 -0.1924  1.5535 -0.4291
 2036SOL     OW17566   1.887   1.815   4.424 -0.3428 -0.1572  0.1297
 2036SOL    HW117567   1.882   1.909   4.408 -1.2559 -0.3630 -0.7741
 2036SOL    HW217568   1.981   1.806   4.411  0.1338  0.9101  2.7311
 2037SOL     OW17569   2.552   3.672   9.055  0.2498  0.0305  0.8834
 2037SOL    HW117570   2.541   3.580   9.078 -0.8086  0.0592  0.5114
 2037SOL    HW217571   2.605   3.700   9.129  0.8547 -0.1163  0.5103
 2038SOL     OW17572   2.435   3.244   0.111 -0.3557 -0.0788 -0.1555
 2038SOL    HW117573   2.410   3.194   0.189 -1.3856  0.5044 -0.1121
 2038SOL    HW217574   2.351   3.282   0.085 -0.6697 -2.2598 -2.3378
 2039SOL     OW17575   0.012   4.176   4.745 -0.1123 -0.1026 -0.3136
 2039SOL    HW117576   4.659   4.234   4.756  0.3025  0.5083 -0.6455
 2039SOL    HW217577   0.085   4.230   4.776 -1.4888  0.5095  1.8696
 2040SOL     OW17578   1.901   1.051   7.005 -0.8295 -0.5650 -0.8228
 2040SOL    HW117579   1.842   1.122   6.978  2.1358  1.9444 -0.6380
 2040SOL    HW217580   1.979   1.104   7.021 -2.5136  1.8785 -0.5559
 2041SOL     OW17581   4.363   3.771  10.689  0.3418 -0.0838 -0.0571
 2041SOL    HW117582   4.289   3.719  10.656 -0.8475  0.2937  2.0070
 2041SOL    HW217583   4.406   3.713  10.751 -0.4950  1.6291  2.1184
 2042SOL     OW17584   3.680   1.883   8.753 -0.7853  0.0455  0.1192
 2042SOL    HW117585   3.753   1.859   8.697 -1.2308 -2.3600  0.5723
 2042SOL    HW217586   3.608   1.835   8.712  0.5383 -1.2374 -0.6933
 2043SOL     OW17587   0.784   2.204  17.141  0.0369  0.1608 -0.2323
 2043SOL    HW117588   0.792   2.116  17.178  1.0219  0.3115 -0.0694
 2043SOL    HW217589   0.778   2.183  17.048  0.9744 -0.5381 -0.1407
 2044SOL     OW17590   2.143   2.590  17.189  0.1912  0.1335 -0.4550
 2044SOL    HW117591   2.183   2.640  17.119  2.0717  1.9608  1.9267
 2044SOL    HW217592   2.136   2.502  17.152  1.5351 -0.5043  0.8038
 2045SOL     OW17593   1.834   3.341   3.883 -0.6830 -0.2774 -0.0934
 2045SOL    HW117594   1.855   3.427   3.846 -0.3999  0.3930  1.5946
 2045SOL    HW217595   1.914   3.294   3.859 -0.2279  0.5306 -0.1864
 2046SOL     OW17596   1.788   3.643   7.208 -0.8058  0.3463  0.3997
 2046SOL    HW117597   1.764   3.589   7.134 -0.2685 -0.0005  0.4751
 2046SOL    HW217598   1.743   3.606   7.284  0.0115  0.4099  0.9257
 2047SOL     OW17599   2.985   4.221   8.936 -0.3292  0.6112 -0.2095
 2047SOL    HW117600   2.942   4.301   8.967  0.8901  1.3942 -0.5124
 2047SOL    HW217601   2.927   4.203   8.862 -0.4666  2.0769 -0.4560
 2048SOL     OW17602   2.400   3.950   3.889 -0.9055  0.3874  0.1401
 2048SOL    HW117603   2.436   4.038   3.895  1.4294 -0.3139 -3.7650
 2048SOL    HW217604   2.367   3.946   3.978 -2.0756  1.4320 -0.2388
 2049SOL     OW17605   3.226   3.369   6.616  0.0427 -0.5051  0.2035
 2049SOL    HW117606   3.206   3.341   6.705 -2.8453 -1.4313 -0.7463
 2049SOL    HW217607   3.167   3.317   6.561 -0.5169  2.1295 -1.7352
 2050SOL     OW17608   3.892   0.190   5.239  0.2496  0.4564 -0.2327
 2050SOL    HW117609   3.943   0.154   5.166 -1.6897  0.7448 -1.7189
 2050SOL    HW217610   3.934   0.275   5.254  0.1404  0.1704  1.6321
 2051SOL     OW17611   2.718   1.939  17.338 -0.2375  0.4494  0.1057
 2051SOL    HW117612   2.729   1.978  17.251 -2.5158  0.0823 -0.3454
 2051SOL    HW217613   2.728   2.013  17.397 -0.3288 -0.0193  0.7146
 2052SOL     OW17614   0.642   0.079   0.179  0.0160  0.5235 -0.6803
 2052SOL    HW117615   0.559   0.062   0.225  0.0308 -0.1692 -0.9146
 2052SOL    HW217616   0.712   0.088   0.244 -0.2318  0.6810 -0.4348
 2053SOL     OW17617   2.488   1.528   9.366  0.1170 -0.6658  0.0891
 2053SOL    HW117618   2.411   1.568   9.405  0.3865  1.0827 -1.1655
 2053SOL    HW217619   2.501   1.579   9.285 -1.9586  0.4402  0.4475
 2054SOL     OW17620   2.771   1.045  10.946 -0.1892  0.0636  0.1587
 2054SOL    HW117621   2.734   1.074  11.029 -0.4980 -1.0103  0.3960
 2054SOL    HW217622   2.856   1.090  10.947 -0.0437 -0.2216  0.6211
 2055SOL     OW17623   1.676   3.979  11.639  0.1186 -0.1551 -0.7513
 2055SOL    HW117624   1.598   3.996  11.692  0.5661  0.9059 -0.4136
 2055SOL    HW217625   1.650   3.896  11.599  2.9134  0.4121 -3.7802
 2056SOL     OW17626   1.111   2.877   8.854  0.3917 -0.1729  0.0984
 2056SOL    HW117627   1.058   2.884   8.934 -1.3341 -0.3488 -1.0269
 2056SOL    HW217628   1.191   2.917   8.887 -0.2832 -0.0100  1.5620
 2057SOL     OW17629   1.104   2.717   8.628  0.0292  0.0681  0.5551
 2057SOL    HW117630   1.107   2.774   8.705  2.1667  0.4149  0.2150
 2057SOL    HW217631   1.136   2.638   8.669 -2.1246  0.0441  2.2246
 2058SOL     OW17632   1.558   4.338   6.431  0.3064  0.1197 -0.7837
 2058SOL    HW117633   1.489   4.273   6.416 -1.5746  1.6369  1.2600
 2058SOL    HW217634   1.512   4.414   6.466 -0.2483 -0.5991  0.0478
 2059SOL     OW17635   2.734   2.921   8.119  0.1174 -0.1781 -0.5614
 2059SOL    HW117636   2.773   2.953   8.200 -1.2474 -0.8191  0.3533
 2059SOL    HW217637   2.694   3.003   8.089  0.5286 -0.2278 -1.2497
 2060SOL     OW17638   1.032   1.895   0.386 -0.1387 -0.7839 -0.3544
 2060SOL    HW117639   1.119   1.862   0.360 -0.3226 -0.5410 -1.2648
 2060SOL    HW217640   0.980   1.856   0.317 -1.1837 -2.7469  1.5355
 2061SOL     OW17641   0.189   0.273  10.514 -0.0609 -0.2440  0.3206
 2061SOL    HW117642   0.279   0.284  10.547 -0.0822  1.0356 -0.0357
 2061SOL    HW217643   0.178   0.350  10.458 -0.3858  0.7160  1.7045
 2062SOL     OW17644   2.311   0.309   4.446 -0.3417  0.1809 -0.0285
 2062SOL    HW117645   2.261   0.388   4.467 -1.5599 -0.2160 -1.5122
 2062SOL    HW217646   2.288   0.310   4.354 -1.0744  1.1809  0.1575
 2063SOL     OW17647   3.196   3.278   6.887  0.5972  0.1986 -0.0333
 2063SOL    HW117648   3.116   3.279   6.940  0.3856 -0.0212 -0.3429
 2063SOL    HW217649   3.252   3.227   6.945  3.7155  2.2897 -1.2051
 2064SOL     OW17650   3.938   4.031   0.272  0.1606 -0.2179  0.6094
 2064SOL    HW117651   3.916   4.121   0.295 -0.5949 -0.6495  1.5535
 2064SOL    HW217652   3.885   3.987   0.338 -2.2169 -0.3673 -1.4177
 2065SOL     OW17653   1.908   2.007   6.519  0.5931 -0.0385  0.2870
 2065SOL    HW117654   1.966   2.009   6.595  1.4337 -2.9493 -0.2505
 2065SOL    HW217655   1.877   2.097   6.511 -3.5602 -1.6278 -1.5075
 2066SOL     OW17656   4.661   3.162   7.553 -0.0930  0.7064  0.7338
 2066SOL    HW117657   4.663   3.257   7.564  0.3128  0.7459  0.3327
 2066SOL    HW217658   4.626   3.155   7.464 -1.7464 -0.5405  1.4861
 2067SOL     OW17659   4.397   3.099  14.800  0.0970 -0.4075 -0.3839
 2067SOL    HW117660   4.429   3.167  14.858  0.9597 -0.9691 -0.2155
 2067SOL    HW217661   4.400   3.145  14.716 -0.0451 -0.6523 -0.5237
 2068SOL     OW17662   0.961   3.315   8.649 -0.4454  0.2712 -0.1359
 2068SOL    HW117663   0.878   3.278   8.678  0.4748 -1.1268  0.6894
 2068SOL    HW217664   1.014   3.280   8.720 -0.7033 -2.9965 -1.5641
 2069SOL     OW17665   3.143   3.835   7.510  1.0121 -0.1533  0.4794
 2069SOL    HW117666   3.108   3.895   7.445  1.1745 -1.1775 -0.5494
 2069SOL    HW217667   3.071   3.854   7.571 -0.7380 -0.9026 -1.3495
 2070SOL     OW17668   3.385   1.090   1.420  0.0103  0.2235 -0.2551
 2070SOL    HW117669   3.304   1.086   1.369  0.4669 -1.8511 -0.8176
 2070SOL    HW217670   3.431   1.161   1.374 -0.9480  1.5320  0.7910
 2071SOL     OW17671   1.927   4.707   9.978 -0.5383 -0.1883 -0.1140
 2071SOL    HW117672   1.841   4.685   9.944 -0.6104 -1.1699  0.6924
 2071SOL    HW217673   1.952   4.623  10.016  0.0925  0.4249  0.8403
 2072SOL     OW17674   3.987   1.503   5.794 -0.2710 -0.3093  0.5043
 2072SOL    HW117675   4.065   1.550   5.767 -2.1893  2.9208  0.6724
 2072SOL    HW217676   3.950   1.464   5.715 -1.4615  0.2270  0.8001
 2073SOL     OW17677   0.400   0.645   4.745  0.0189  0.0485  0.4775
 2073SOL    HW117678   0.454   0.601   4.810 -1.9753 -2.4525  0.4644
 2073SOL    HW217679   0.400   0.738   4.767 -2.9305  0.1748  0.0110
 2074SOL     OW17680   3.552   2.659   7.715 -0.3843 -0.5504  0.2458
 2074SOL    HW117681   3.493   2.689   7.646  1.7022  1.2322 -0.7690
 2074SOL    HW217682   3.599   2.741   7.729  0.6067 -0.6928 -2.1805
 2075SOL     OW17683   0.152   1.670   3.029 -0.1174 -0.0131 -0.0133
 2075SOL    HW117684   0.057   1.670   3.028 -0.1019  1.6088 -1.3489
 2075SOL    HW217685   0.174   1.737   3.093  2.3504 -2.2044  1.4634
 2076SOL     OW17686   0.594   0.367  12.574  0.6623  0.2071 -0.0415
 2076SOL    HW117687   0.637   0.451  12.588 -0.9626  0.9916  0.1939
 2076SOL    HW217688   0.513   0.394  12.532 -0.1956 -2.4126 -0.1185
 2077SOL     OW17689   0.040   2.741   0.864 -0.1200 -0.1348  0.5226
 2077SOL    HW117690   4.695   2.801   0.831 -1.1045  0.1390  3.0529
 2077SOL    HW217691   4.720   2.660   0.891 -0.7035  0.1217  0.3724
 2078SOL     OW17692   3.254   2.337   2.696  0.1164  0.5490 -0.2891
 2078SOL    HW117693   3.235   2.310   2.606 -0.4191  1.2517 -0.3913
 2078SOL    HW217694   3.240   2.256   2.745 -0.9947  0.5183 -0.6378
 2079SOL     OW17695   0.638   3.212  13.404 -0.8813 -0.7396 -0.5486
 2079SOL    HW117696   0.638   3.263  13.323  0.1090  0.2349  0.0656
 2079SOL    HW217697   0.574   3.144  13.384  0.8052 -2.0189 -1.5227
 2080SOL     OW17698   3.412   4.027  15.073  0.4370 -0.1324  0.0073
 2080SOL    HW117699   3.432   4.017  14.980 -1.7444 -1.2169 -0.3455
 2080SOL    HW217700   3.424   3.935  15.097 -0.0178 -0.3792 -0.7094
 2081SOL     OW17701   4.267   3.401   2.476  0.5882  0.1219 -0.2482
 2081SOL    HW117702   4.287   3.352   2.396 -0.6354  0.5927 -0.8449
 2081SOL    HW217703   4.351   3.406   2.522  0.4946  0.3354 -0.1012
 2082SOL     OW17704   3.793   2.199   0.891 -0.2458  0.6807 -0.1561
 2082SOL    HW117705   3.754   2.127   0.840  0.0752 -0.6723  1.4884
 2082SOL    HW217706   3.887   2.182   0.884 -0.4342 -0.6129  0.4691
 2083SOL     OW17707   1.539   3.581   6.670 -0.1706  0.2969 -0.0575
 2083SOL    HW117708   1.629   3.610   6.687 -0.2494  0.3772  0.2217
 2083SOL    HW217709   1.491   3.608   6.748  0.1292 -0.8755  0.5288
 2084SOL     OW17710   4.464   0.148   6.900  0.1109 -0.4259 -0.0897
 2084SOL    HW117711   4.533   0.117   6.958 -0.7058 -0.9990  0.5792
 2084SOL    HW217712   4.531   0.192   6.847 -1.8563  0.7930 -1.5555
 2085SOL     OW17713   0.259   0.609   7.439  0.3300 -0.4127 -0.6023
 2085SOL    HW117714   0.204   0.650   7.372  1.4770  0.6161 -0.9180
 2085SOL    HW217715   0.344   0.643   7.411  0.3169  0.9253  0.9838
 2086SOL     OW17716   1.157   0.012   8.219  0.1435 -0.0025  0.5361
 2086SOL    HW117717   1.184   4.664   8.277  0.8080 -0.4866 -0.3788
 2086SOL    HW217718   1.204   0.090   8.248  0.3755  0.8084 -2.0274
 2087SOL     OW17719   0.035   0.128   0.100  0.2001 -0.3527 -0.1216
 2087SOL    HW117720   0.103   0.195   0.092 -1.3334  1.1191 -1.0049
 2087SOL    HW217721   4.698   0.163   0.166 -0.5930 -0.0711 -0.9872
 2088SOL     OW17722   0.008   0.853   3.448  0.1787 -0.0656 -0.2017
 2088SOL    HW117723   0.075   0.847   3.379 -0.4336  1.2004 -0.9079
 2088SOL    HW217724   0.065   0.862   3.525  1.3441  1.0682 -1.1908
 2089SOL     OW17725   2.139   4.434   5.475  0.1301  0.2727 -0.8049
 2089SOL    HW117726   2.149   4.400   5.564 -0.1248  0.2861 -0.7689
 2089SOL    HW217727   2.089   4.360   5.439 -2.2742  0.6299  1.7639
 2090SOL     OW17728   1.606   1.525   6.882 -0.4107  0.2961 -0.0313
 2090SOL    HW117729   1.684   1.580   6.890 -0.8963  0.7704  1.3770
 2090SOL    HW217730   1.625   1.491   6.795 -1.0006  2.9160 -1.1777
 2091SOL     OW17731   2.225   0.478  11.386  0.4037  0.2880  0.1264
 2091SOL    HW117732   2.240   0.569  11.413  1.5712  0.0785  0.1642
 2091SOL    HW217733   2.167   0.497  11.312  0.1227  2.2845  0.8692
 2092SOL     OW17734   2.734   1.904  16.849 -0.2419  0.2690 -0.0473
 2092SOL    HW117735   2.823   1.930  16.871  0.1036  0.6528 -1.8660
 2092SOL    HW217736   2.758   1.863  16.766  0.3982  1.3044 -0.3668
 2093SOL     OW17737   1.980   3.022   7.771  0.4003  0.6646 -0.1971
 2093SOL    HW117738   1.918   2.978   7.712  0.5200 -0.8252  0.7686
 2093SOL    HW217739   1.928   3.102   7.767 -0.5571 -0.0163 -1.2502
 2094SOL     OW17740   3.006   1.596  12.376  0.1209 -0.1474 -0.1542
 2094SOL    HW117741   2.954   1.519  12.353 -0.2750  0.0811 -0.0400
 2094SOL    HW217742   2.991   1.591  12.470 -0.8378  1.1984 -0.2338
 2095SOL     OW17743   1.315   1.911   0.334 -0.1590 -0.2061 -0.7898
 2095SOL    HW117744   1.347   1.912   0.244  1.3102  0.6957 -0.2593
 2095SOL    HW217745   1.376   1.966   0.384 -2.3118  0.6884  0.8796
 2096SOL     OW17746   3.511   3.227   4.304  0.5383  0.2109  0.5961
 2096SOL    HW117747   3.566   3.305   4.300 -1.1154  1.4927  2.7393
 2096SOL    HW217748   3.437   3.254   4.250  0.7285  0.2785  0.3729
 2097SOL     OW17749   1.207   3.869   0.093  0.0346  0.3629  0.3273
 2097SOL    HW117750   1.164   3.926   0.156  3.0488  1.1897  1.6241
 2097SOL    HW217751   1.135   3.854   0.032  0.7713 -0.7735 -0.2660
 2098SOL     OW17752   2.178   3.608  11.114 -0.0227  0.2402  0.3445
 2098SOL    HW117753   2.248   3.587  11.053  0.9412  0.3880  1.3981
 2098SOL    HW217754   2.213   3.556  11.187 -3.3295 -2.5245 -0.0403
 2099SOL     OW17755   2.839   0.580   8.816  0.3072 -0.6055  0.1841
 2099SOL    HW117756   2.784   0.542   8.884  1.4887 -0.2564  1.3319
 2099SOL    HW217757   2.777   0.642   8.778  1.0194  1.4686  2.3945
 2100SOL     OW17758   0.628   0.678   8.700 -0.3251 -0.0960  0.1153
 2100SOL    HW117759   0.539   0.693   8.666 -0.0964 -0.9092 -0.8543
 2100SOL    HW217760   0.607   0.656   8.790 -0.0167 -1.2359 -0.0849
 2101SOL     OW17761   2.068   2.622   2.809  0.1856  0.3160  0.1712
 2101SOL    HW117762   2.058   2.528   2.796  0.6304  0.0049  2.0919
 2101SOL    HW217763   2.127   2.641   2.736  2.1606  0.1622  1.7169
 2102SOL     OW17764   3.436   2.972  13.779 -0.7517 -0.5872 -0.4483
 2102SOL    HW117765   3.353   2.983  13.825 -1.3348  0.3854 -1.7564
 2102SOL    HW217766   3.443   3.040  13.713  2.1029 -0.5654 -0.1505
 2103SOL     OW17767   3.990   2.927   8.553  0.5674 -0.5812 -0.1628
 2103SOL    HW117768   3.901   2.907   8.524  0.9750 -2.3514 -0.1975
 2103SOL    HW217769   4.041   2.917   8.473 -1.1634 -1.2838 -1.1904
 2104SOL     OW17770   1.756   1.765  14.383  0.0457  0.4465  0.3157
 2104SOL    HW117771   1.740   1.764  14.477 -0.6883  0.8610  0.1984
 2104SOL    HW217772   1.819   1.696  14.364 -1.4918 -0.8942  0.0628
 2105SOL     OW17773   2.685   2.064  10.523 -0.1757 -0.1247  0.1272
 2105SOL    HW117774   2.652   2.150  10.548  1.6357  0.1819  1.4993
 2105SOL    HW217775   2.767   2.061  10.573 -0.0843  0.4527  0.0143
 2106SOL     OW17776   2.586   1.563   4.265 -0.3064  0.5753 -0.5192
 2106SOL    HW117777   2.673   1.603   4.261  0.3279 -1.1329 -3.1284
 2106SOL    HW217778   2.529   1.630   4.227 -0.4210  0.1419 -1.0989
 2107SOL     OW17779   1.902   0.901   2.306  0.2611 -0.5578  0.1981
 2107SOL    HW117780   1.975   0.867   2.254 -0.7654 -1.6390 -0.5410
 2107SOL    HW217781   1.901   0.849   2.386  1.5413 -1.6782 -0.5181
 2108SOL     OW17782   1.182   1.137  15.475 -0.0258 -0.3546 -0.1225
 2108SOL    HW117783   1.196   1.140  15.381  2.8138  0.5931  0.3331
 2108SOL    HW217784   1.197   1.045  15.496 -1.0204 -0.8786 -1.7665
 2109SOL     OW17785   1.233   4.054  15.163  0.3486  0.1735  0.1410
 2109SOL    HW117786   1.180   4.046  15.084  1.8925  1.7277 -1.0422
 2109SOL    HW217787   1.316   4.092  15.134 -0.1494 -1.0610 -2.8328
 2110SOL     OW17788   1.575   1.606   7.715  0.0111  0.1088 -0.7274
 2110SOL    HW117789   1.561   1.649   7.799  0.3677  0.1685 -0.7002
 2110SOL    HW217790   1.661   1.570   7.733 -1.1486 -1.7987  1.0517
 2111SOL     OW17791   1.573   1.136   0.268  0.6703 -0.6629 -0.3525
 2111SOL    HW117792   1.523   1.074   0.322 -2.1322  1.2558 -0.7575
 2111SOL    HW217793   1.556   1.208   0.329 -1.3863  0.2310 -1.9768
 2112SOL     OW17794   2.685   4.027   5.842 -0.2642  0.1731 -0.2655
 2112SOL    HW117795   2.664   3.962   5.775  1.4332 -2.2674  1.5667
 2112SOL    HW217796   2.637   4.102   5.806  1.5945  0.4463 -2.2194
 2113SOL     OW17797   3.468   2.222   1.374  0.5781  0.1413 -0.1051
 2113SOL    HW117798   3.484   2.265   1.289  2.1418  0.2219  0.2181
 2113SOL    HW217799   3.448   2.132   1.350 -0.5367  0.5671 -0.7594
 2114SOL     OW17800   4.676   1.383   2.231 -0.5500 -0.2652 -0.0608
 2114SOL    HW117801   4.593   1.342   2.204 -0.1062 -0.8111 -0.5939
 2114SOL    HW217802   4.680   1.348   2.320 -2.5178  1.0692  0.5657
 2115SOL     OW17803   3.774   4.688   5.477 -0.3459 -0.3517  0.0992
 2115SOL    HW117804   3.792   0.037   5.416 -2.7674  1.4698  1.5281
 2115SOL    HW217805   3.826   4.710   5.554 -0.7104 -0.2700  0.3209
 2116SOL     OW17806   3.047   2.477   3.978  0.3164 -0.5586  0.7761
 2116SOL    HW117807   3.007   2.391   3.992 -0.7562 -0.1786  0.1033
 2116SOL    HW217808   3.069   2.509   4.066  0.9427  3.4071 -0.8262
 2117SOL     OW17809   1.659   2.034  14.974  0.0242  0.4537  0.2278
 2117SOL    HW117810   1.722   1.973  14.936 -2.4271 -0.9753 -1.5320
 2117SOL    HW217811   1.697   2.061  15.058  2.1894 -3.2768  0.4070
 2118SOL     OW17812   4.650   1.936  11.052  0.1002 -0.5101  0.1132
 2118SOL    HW117813   4.581   1.922  10.987  0.4656 -1.5285 -0.0672
 2118SOL    HW217814   4.672   2.029  11.045  1.1676 -0.8421 -1.0800
 2119SOL     OW17815   0.669   0.823   3.712 -0.2031 -0.1797 -0.5186
 2119SOL    HW117816   0.658   0.740   3.665 -2.0711  0.9541 -2.0828
 2119SOL    HW217817   0.714   0.811   3.795 -1.0487  2.0324  0.2473
 2120SOL     OW17818   4.699   1.138   6.864  0.3952  0.1921 -0.0536
 2120SOL    HW117819   0.024   1.220   6.858 -0.2945  0.4962 -1.5612
 2120SOL    HW217820   0.030   1.091   6.799 -0.6977 -0.5315 -0.4468
 2121SOL     OW17821   0.056   4.064  14.601  0.0474  0.4633  0.0070
 2121SOL    HW117822   4.723   3.987  14.591  1.0667 -0.5246  1.9732
 2121SOL    HW217823   0.011   4.132  14.551  0.5183 -0.1969 -1.3043
 2122SOL     OW17824   3.214   3.866  10.703  0.0919 -0.1194  0.2382
 2122SOL    HW117825   3.281   3.833  10.643  2.8461  1.5532  2.4337
 2122SOL    HW217826   3.256   3.893  10.785  0.5424  1.2049 -0.4415
 2123SOL     OW17827   1.769   3.946   1.723 -0.2123 -0.2454  0.1544
 2123SOL    HW117828   1.813   4.018   1.769 -2.8759  1.0591  0.6354
 2123SOL    HW217829   1.847   3.892   1.708  0.3175 -0.1578  2.7045
 2124SOL     OW17830   3.026   1.412  14.636 -0.5996  0.1041 -0.6212
 2124SOL    HW117831   2.954   1.361  14.600 -1.2532  1.4074 -1.1685
 2124SOL    HW217832   3.077   1.334  14.657 -0.6542  0.4710  0.9288
 2125SOL     OW17833   0.569   1.098  12.249 -0.2824  0.2511 -0.6689
 2125SOL    HW117834   0.659   1.120  12.271 -0.6263 -0.1766  1.1927
 2125SOL    HW217835   0.569   1.061  12.161 -1.5815 -0.7845 -0.2321
 2126SOL     OW17836   3.003   3.002   2.595 -0.0647 -0.4099 -0.5548
 2126SOL    HW117837   3.085   2.962   2.565 -0.6320 -2.3423  0.4273
 2126SOL    HW217838   2.998   3.083   2.545 -3.2477 -0.7448 -0.7700
 2127SOL     OW17839   3.420   2.146   3.029 -0.1827  0.8178 -0.3319
 2127SOL    HW117840   3.403   2.121   3.120 -2.1306  1.8322 -0.4053
 2127SOL    HW217841   3.342   2.119   2.981 -0.2471 -0.4894  0.5224
 2128SOL     OW17842   1.599   2.849   2.884  0.0700  0.1500 -0.7342
 2128SOL    HW117843   1.676   2.801   2.854  1.1363 -0.6362  3.2223
 2128SOL    HW217844   1.584   2.894   2.801 -2.4942  0.6188  0.0049
 2129SOL     OW17845   4.123   3.079  13.762  0.2821  0.5474 -0.0770
 2129SOL    HW117846   4.089   3.082  13.672 -0.0058  1.0672  0.0476
 2129SOL    HW217847   4.130   3.172  13.781 -0.0360  0.3453  0.9823
 2130SOL     OW17848   4.181   0.215   0.006 -0.4175  0.3525 -0.9760
 2130SOL    HW117849   4.189   0.294   0.060  1.0067  1.0787 -2.2461
 2130SOL    HW217850   4.098   0.188   0.045  0.9340  0.7930  2.2061
 2131SOL     OW17851   1.507   4.694   7.390 -0.1860 -0.5492 -0.4295
 2131SOL    HW117852   1.582   4.636   7.379  1.3255  1.3132 -0.0465
 2131SOL    HW217853   1.538   0.052   7.349 -3.4698  0.7612 -0.3209
 2132SOL     OW17854   4.229   4.180   0.528 -0.2961 -0.2489 -0.0297
 2132SOL    HW117855   4.274   4.228   0.458  0.3523 -0.4258  0.2703
 2132SOL    HW217856   4.282   4.202   0.605  0.0722  1.2970 -0.7144
 2133SOL     OW17857   2.965   3.025   7.555  0.4826 -0.1527  0.2750
 2133SOL    HW117858   3.052   2.987   7.551 -0.4144 -2.3190  1.3378
 2133SOL    HW217859   2.932   3.003   7.642 -1.4985 -0.2994 -0.5081
 2134SOL     OW17860   4.045   2.474   7.027  0.4404 -0.2710 -0.1248
 2134SOL    HW117861   3.994   2.511   7.099 -0.8972 -2.5243  0.0804
 2134SOL    HW217862   4.010   2.521   6.951  2.3269 -0.3085 -1.0141
 2135SOL     OW17863   1.428   3.095   8.643  0.0111  0.8668  0.5074
 2135SOL    HW117864   1.481   3.149   8.584 -1.1757  0.2337 -1.1307
 2135SOL    HW217865   1.347   3.075   8.596  1.0840 -2.2343 -0.0151
 2136SOL     OW17866   3.790   3.891   7.500 -0.2136  0.2333 -0.2359
 2136SOL    HW117867   3.772   3.953   7.570  1.5586  0.0580  0.3702
 2136SOL    HW217868   3.863   3.837   7.530  0.2291  1.0901  0.2063
 2137SOL     OW17869   3.718   4.483   8.005  0.1712  0.3885  0.2082
 2137SOL    HW117870   3.731   4.506   7.913 -3.5886  0.3714 -0.3158
 2137SOL    HW217871   3.780   4.411   8.017 -0.6360 -0.2806  0.3622
 2138SOL     OW17872   1.583   1.616   5.020 -0.1981 -0.0552 -0.2184
 2138SOL    HW117873   1.657   1.630   4.961 -2.5856  1.1875 -2.9211
 2138SOL    HW217874   1.518   1.631   4.951  0.1643 -2.4165 -1.0862
 2139SOL     OW17875   2.630   4.269   1.363 -0.3108 -0.3283  0.2487
 2139SOL    HW117876   2.664   4.267   1.274 -0.9272  0.3113 -0.0119
 2139SOL    HW217877   2.541   4.290   1.332 -0.0906  1.1590  0.6106
 2140SOL     OW17878   2.084   1.472   4.513  0.4771  0.6607 -0.3143
 2140SOL    HW117879   2.003   1.516   4.542  0.0389 -0.1764 -0.2617
 2140SOL    HW217880   2.128   1.458   4.597 -0.7672  0.2959  0.2894
 2141SOL     OW17881   0.305   0.312  16.797 -0.5192 -0.7541 -0.3019
 2141SOL    HW117882   0.361   0.389  16.791 -0.2975 -0.8745  0.2405
 2141SOL    HW217883   0.343   0.261  16.724  0.1738  0.5050 -0.8170
 2142SOL     OW17884   4.329   3.815  12.949  0.1023  0.0667 -0.3945
 2142SOL    HW117885   4.276   3.763  13.010  0.1330  1.9705  1.2425
 2142SOL    HW217886   4.268   3.879  12.912 -1.0811 -1.0200 -0.3341
 2143SOL     OW17887   0.687   1.212  15.550 -0.1288  0.7912 -0.0822
 2143SOL    HW117888   0.676   1.257  15.467 -0.2986 -0.3680 -0.6966
 2143SOL    HW217889   0.778   1.185  15.564 -0.5516 -2.0181 -2.7221
 2144SOL     OW17890   0.966   1.590   2.541 -0.4907  0.3113 -0.3855
 2144SOL    HW117891   0.953   1.685   2.542 -2.1637  0.0687  0.6605
 2144SOL    HW217892   1.016   1.586   2.460 -0.8073 -1.4442 -0.4946
 2145SOL     OW17893   4.047   0.819   0.954 -0.4006 -0.4779  0.1001
 2145SOL    HW117894   4.005   0.874   1.020  0.3965  0.9741 -0.5997
 2145SOL    HW217895   3.974   0.768   0.920  0.1919 -1.4667  0.3151
 2146SOL     OW17896   4.477   0.662   6.966 -0.1787 -0.1731 -0.1300
 2146SOL    HW117897   4.496   0.568   6.969 -0.1019 -0.1291  0.6931
 2146SOL    HW217898   4.408   0.661   6.900  1.4548  0.6358 -1.8749
 2147SOL     OW17899   1.076   2.579   5.396 -0.1183 -0.7646 -0.2196
 2147SOL    HW117900   1.056   2.644   5.329  1.7388  0.1702  0.1303
 2147SOL    HW217901   1.040   2.627   5.471 -0.8717 -0.7153 -0.6107
 2148SOL     OW17902   2.280   0.993   5.639  0.2636 -0.5917 -0.1693
 2148SOL    HW117903   2.278   1.009   5.733 -2.0084 -0.9599 -0.1718
 2148SOL    HW217904   2.244   0.905   5.642 -0.3634 -0.3661 -1.1764
 2149SOL     OW17905   4.102   4.585   2.614 -0.6620  0.4082 -0.8431
 2149SOL    HW117906   4.076   4.493   2.613  2.6086 -0.5145  0.0333
 2149SOL    HW217907   4.044   4.615   2.544  0.0116  0.7925 -1.2321
 2150SOL     OW17908   2.999   1.469  16.198 -0.2317  0.4976 -0.1965
 2150SOL    HW117909   3.057   1.466  16.274  0.2666 -0.3377 -0.6139
 2150SOL    HW217910   3.068   1.472  16.132  1.2660 -1.1752  1.2801
 2151SOL     OW17911   1.861   1.133   1.138  0.2336  0.3837 -0.5179
 2151SOL    HW117912   1.851   1.195   1.210 -1.6918 -0.6510  0.0834
 2151SOL    HW217913   1.917   1.062   1.169 -2.4140 -0.8153  1.4055
 2152SOL     OW17914   1.791   4.410   8.274  0.2092  0.3749  0.0354
 2152SOL    HW117915   1.722   4.424   8.340 -1.6784  2.1729 -2.3148
 2152SOL    HW217916   1.872   4.422   8.324  0.2273  0.2217  0.0418
 2153SOL     OW17917   0.876   1.404   9.361  0.3076 -0.0371  0.2885
 2153SOL    HW117918   0.804   1.451   9.317  0.2210  1.3244  1.8564
 2153SOL    HW217919   0.828   1.348   9.421  1.1285  1.2010  2.0858
 2154SOL     OW17920   1.135   2.066   3.598 -0.2987 -0.9460  0.4102
 2154SOL    HW117921   1.134   2.155   3.562 -0.6065 -1.9976 -2.1718
 2154SOL    HW217922   1.192   2.081   3.674 -0.0231  0.7471 -0.1229
 2155SOL     OW17923   3.756   1.043   4.519 -0.5050 -0.4528 -0.5891
 2155SOL    HW117924   3.799   0.957   4.520  0.1842 -0.0977 -0.0790
 2155SOL    HW217925   3.724   1.054   4.429 -0.9529  1.7824 -0.1656
 2156SOL     OW17926   2.197   0.901   3.485 -0.5389 -0.4171 -0.0571
 2156SOL    HW117927   2.202   0.863   3.572  0.0277 -1.1774 -0.4205
 2156SOL    HW217928   2.104   0.921   3.474 -0.9014 -1.8980  0.2956
 2157SOL     OW17929   1.157   0.481  16.403  0.2589  0.2270  0.1665
 2157SOL    HW117930   1.141   0.539  16.328 -1.0723  0.5988  0.7202
 2157SOL    HW217931   1.164   0.551  16.469  2.5200 -1.0619  1.2729
 2158SOL     OW17932   4.636   3.143   6.801 -0.2248 -0.1035  0.3810
 2158SOL    HW117933   4.713   3.170   6.852 -0.6363 -0.8246  1.3699
 2158SOL    HW217934   4.668   3.168   6.714  0.8572 -0.4416  0.6814
 2159SOL     OW17935   1.337   3.942   9.699 -0.0085  0.6394 -0.0713
 2159SOL    HW117936   1.385   3.959   9.780  0.5312 -0.3878 -0.1716
 2159SOL    HW217937   1.402   3.891   9.650 -0.6395  1.1164 -1.3882
 2160SOL     OW17938   1.705   1.258  14.709  0.5570 -0.1164 -0.1668
 2160SOL    HW117939   1.716   1.303  14.793  0.3248  1.5421 -1.0206
 2160SOL    HW217940   1.739   1.172  14.734  0.3149  0.2288  1.3663
 2161SOL     OW17941   2.129   0.846  13.444 -0.1457  0.0052 -0.8750
 2161SOL    HW117942   2.114   0.930  13.399  1.8314  0.3536 -0.8813
 2161SOL    HW217943   2.089   0.784  13.384  1.9375 -2.3460  0.1914
 2162SOL     OW17944   1.700   4.243   3.731 -0.2693 -0.2087 -0.3946
 2162SOL    HW117945   1.702   4.325   3.782  4.7086 -1.4881  1.4721
 2162SOL    HW217946   1.794   4.225   3.724 -0.2443  0.3013 -1.3100
 2163SOL     OW17947   3.895   0.505   9.797 -0.2637  0.2517 -0.1298
 2163SOL    HW117948   3.910   0.411   9.802 -0.6573  0.2132  0.4429
 2163SOL    HW217949   3.837   0.524   9.872 -0.4636 -1.0537  0.0516
 2164SOL     OW17950   1.160   4.077  12.486  0.1100 -0.1780 -0.1734
 2164SOL    HW117951   1.114   4.116  12.412  0.8953 -0.9460 -1.0700
 2164SOL    HW217952   1.252   4.099  12.471 -0.1549  0.9339 -0.1597
 2165SOL     OW17953   2.705   4.083   6.468  0.2333 -0.2104  0.7205
 2165SOL    HW117954   2.610   4.074   6.481  0.2627 -0.0475  1.0662
 2165SOL    HW217955   2.740   3.997   6.444  0.6169  0.3740 -0.7934
 2166SOL     OW17956   0.156   2.047   6.518 -0.5021  0.3253 -0.5476
 2166SOL    HW117957   0.091   2.117   6.527 -1.2224 -0.4512  0.2451
 2166SOL    HW217958   0.160   2.048   6.423 -1.7893  1.8577 -0.5993
 2167SOL     OW17959   2.384   3.128   6.870 -0.2009  0.0733  0.3045
 2167SOL    HW117960   2.457   3.094   6.921 -0.1720 -1.4100 -0.7300
 2167SOL    HW217961   2.389   3.084   6.786 -1.5687 -3.1653  1.9166
 2168SOL     OW17962   2.225   4.387  16.153  0.4566  0.2678 -0.1891
 2168SOL    HW117963   2.132   4.406  16.139  0.3443  1.0062  1.6114
 2168SOL    HW217964   2.244   4.404  16.245 -2.0171 -0.3472  0.4381
 2169SOL     OW17965   4.053   3.108   6.675 -0.4589  0.5525  0.4474
 2169SOL    HW117966   4.055   3.076   6.585 -0.1599  3.2151 -0.5144
 2169SOL    HW217967   4.125   3.171   6.673  0.2418 -0.1877  2.7707
 2170SOL     OW17968   0.480   2.137   3.282  0.1282  0.2939  0.9055
 2170SOL    HW117969   0.457   2.197   3.354 -1.6923  1.6945 -0.8406
 2170SOL    HW217970   0.567   2.171   3.263  1.0043 -0.5762  3.3525
 2171SOL     OW17971   3.288   3.151   7.223  0.1739 -0.8914  0.5016
 2171SOL    HW117972   3.228   3.207   7.271  0.3323  0.3042 -0.7057
 2171SOL    HW217973   3.238   3.069   7.215 -1.7332  0.3811 -0.5760
 2172SOL     OW17974   2.366   2.937  14.599 -0.0209 -0.1101 -0.2761
 2172SOL    HW117975   2.438   2.971  14.544  1.0102  0.2210  1.2820
 2172SOL    HW217976   2.327   2.867  14.546  1.0105 -1.7470  1.1278
 2173SOL     OW17977   2.813   0.125   8.738  0.2364 -0.0208  0.1075
 2173SOL    HW117978   2.807   0.091   8.827  0.7314  2.7519  1.1816
 2173SOL    HW217979   2.873   0.198   8.754  0.0515  0.4973 -1.5913
 2174SOL     OW17980   4.084   2.197   6.976 -0.7854  0.6713 -0.0276
 2174SOL    HW117981   4.070   2.289   7.000  1.1016  0.6119  1.2832
 2174SOL    HW217982   4.002   2.161   7.011  0.4168 -1.0924  0.9100
 2175SOL     OW17983   0.224   4.155   4.235 -0.2938 -0.0503 -0.3169
 2175SOL    HW117984   0.212   4.063   4.213 -1.1058  0.3878 -1.7378
 2175SOL    HW217985   0.184   4.161   4.322  0.9534  0.3794  0.2276
 2176SOL     OW17986   3.673   0.714  12.916  0.0650  0.2086 -0.4951
 2176SOL    HW117987   3.706   0.795  12.953  2.7797 -1.6035  1.0083
 2176SOL    HW217988   3.620   0.738  12.840 -1.5341  0.6165  0.7561
 2177SOL     OW17989   2.926   0.056   7.508 -0.8462  0.0208 -0.2159
 2177SOL    HW117990   2.906   4.712   7.442 -0.1450 -0.4093  0.0018
 2177SOL    HW217991   2.997   0.009   7.553 -1.0043 -0.3791 -0.3809
 2178SOL     OW17992   3.408   4.224  15.721  0.1216  0.3951 -0.2405
 2178SOL    HW117993   3.476   4.176  15.674 -1.0734 -0.9315 -0.6410
 2178SOL    HW217994   3.427   4.312  15.690 -0.9148  0.5058 -0.5635
 2179SOL     OW17995   0.839   3.741   5.546 -1.0358  0.1139 -0.1622
 2179SOL    HW117996   0.811   3.817   5.495 -0.8645 -0.3383 -0.9311
 2179SOL    HW217997   0.763   3.728   5.602 -0.1654  1.0202  1.2104
 2180SOL     OW17998   3.616   1.179   7.122 -0.2887 -0.0728  0.5793
 2180SOL    HW117999   3.668   1.100   7.105  0.8966  1.2235 -1.8049
 2180SOL    HW218000   3.685   1.245   7.120 -0.8257  0.5431  2.3860
 2181SOL     OW18001   3.503   1.241   4.307 -0.2539  0.4012 -0.3558
 2181SOL    HW118002   3.484   1.148   4.299 -1.7006  0.6943 -0.2274
 2181SOL    HW218003   3.582   1.260   4.256 -0.2521  0.7446 -0.2316
 2182SOL     OW18004   1.597   0.013   9.398  0.2487 -0.4599  0.6013
 2182SOL    HW118005   1.505   0.031   9.377  0.2347 -0.7911  0.3834
 2182SOL    HW218006   1.648   0.030   9.319  0.6483 -0.0892  0.9403
 2183SOL     OW18007   1.165   1.647   1.467  0.0625 -0.3551 -0.0447
 2183SOL    HW118008   1.204   1.727   1.503 -1.1908  0.4422 -0.4550
 2183SOL    HW218009   1.142   1.613   1.553  2.6140  1.2646  1.2990
 2184SOL     OW18010   1.282   3.025   1.176 -0.2148  0.2267  0.4259
 2184SOL    HW118011   1.334   2.963   1.125 -0.1196  1.0053 -0.4102
 2184SOL    HW218012   1.342   3.083   1.222 -1.6327  1.5237  0.6480
 2185SOL     OW18013   2.492   2.439   8.142 -0.3095 -0.5321 -0.1569
 2185SOL    HW118014   2.552   2.508   8.114 -1.6788  1.2196  1.1945
 2185SOL    HW218015   2.470   2.395   8.060 -1.1539 -1.2813  0.4749
 2186SOL     OW18016   0.259   2.989   7.350  0.7005  0.4014  0.2413
 2186SOL    HW118017   0.209   2.908   7.359 -1.1417  1.4231 -0.7682
 2186SOL    HW218018   0.346   2.954   7.330  0.6408  0.1516  0.4267
 2187SOL     OW18019   0.111   0.771   4.291  0.4212 -0.1996 -0.5074
 2187SOL    HW118020   0.049   0.830   4.332  1.5656 -0.2244  1.2311
 2187SOL    HW218021   0.067   0.686   4.288 -0.0205  0.0365 -0.7445
 2188SOL     OW18022   3.626   2.035  12.608 -0.1464 -0.4279 -0.4846
 2188SOL    HW118023   3.629   1.978  12.685 -0.7892 -0.6374 -0.6191
 2188SOL    HW218024   3.633   1.968  12.541  0.2740  0.3587 -1.2298
 2189SOL     OW18025   2.581   3.332   6.972 -0.2993  0.0362  0.4411
 2189SOL    HW118026   2.567   3.394   6.900  1.6156 -0.2433 -0.1730
 2189SOL    HW218027   2.554   3.380   7.050 -0.0844  0.7371  0.0881
 2190SOL     OW18028   3.334   3.583   4.597 -0.0123 -0.3208  0.6494
 2190SOL    HW118029   3.371   3.569   4.684 -0.4686  0.3247  0.9550
 2190SOL    HW218030   3.254   3.629   4.624 -0.9960 -0.4928 -1.9739
 2191SOL     OW18031   0.907   2.086   7.587  0.0808 -0.0798  0.8527
 2191SOL    HW118032   0.976   2.113   7.526 -2.5015  0.0010 -2.0803
 2191SOL    HW218033   0.828   2.121   7.546  0.7420 -0.5445 -0.8441
 2192SOL     OW18034   1.758   2.278   5.578  0.0773 -0.4616  0.6349
 2192SOL    HW118035   1.753   2.301   5.485  2.6565 -2.0993  0.0985
 2192SOL    HW218036   1.685   2.334   5.605 -1.6240 -1.7083 -1.3316
 2193SOL     OW18037   1.863   0.907  13.570 -0.0408  0.0651 -0.2728
 2193SOL    HW118038   1.949   0.876  13.541 -0.2240 -0.9735  0.2696
 2193SOL    HW218039   1.823   0.820  13.583  1.2239 -0.2657  1.5036
 2194SOL     OW18040   0.524   4.252  13.334 -0.0730 -0.7499 -0.0366
 2194SOL    HW118041   0.617   4.247  13.358  0.0465 -2.2986 -0.8524
 2194SOL    HW218042   0.526   4.190  13.261  0.9976 -2.3505  1.3392
 2195SOL     OW18043   0.376   0.610   7.927  0.1238 -0.3387 -0.0242
 2195SOL    HW118044   0.450   0.553   7.904  2.7709  2.2105  2.3772
 2195SOL    HW218045   0.343   0.560   8.001 -2.8592 -1.4281 -2.0629
 2196SOL     OW18046   4.470   3.273   2.122  0.5168  0.1101 -0.4286
 2196SOL    HW118047   4.438   3.358   2.089 -1.4172  0.2707  1.8980
 2196SOL    HW218048   4.545   3.254   2.066  0.4474 -1.0855 -0.1149
 2197SOL     OW18049   4.345   1.252   0.554  0.2348  0.5678  0.7274
 2197SOL    HW118050   4.278   1.187   0.575  1.3376 -1.0754 -0.8215
 2197SOL    HW218051   4.346   1.272   0.461  1.6568  0.4933  0.7231
 2198SOL     OW18052   0.268   2.584   6.735 -0.6557 -0.1995 -0.0193
 2198SOL    HW118053   0.337   2.537   6.781  1.8148  2.2578 -1.2190
 2198SOL    HW218054   0.267   2.540   6.650 -1.1624 -0.7613  0.2797
 2199SOL     OW18055   3.795   4.032   0.680  0.2716  0.0092 -0.2756
 2199SOL    HW118056   3.848   4.105   0.649  1.8724 -0.9552  0.1339
 2199SOL    HW218057   3.709   4.069   0.662  0.4061  0.5153  0.1273
 2200SOL     OW18058   0.089   4.150   8.254  0.8035  0.0391 -0.1994
 2200SOL    HW118059   0.152   4.081   8.233 -2.0432 -2.1826 -1.4924
 2200SOL    HW218060   0.056   4.154   8.164 -1.6730  1.0055  0.7649
 2201SOL     OW18061   0.577   4.579   5.724  0.1375 -0.2959  0.5565
 2201SOL    HW118062   0.539   4.519   5.788  0.9574 -0.3024  1.0372
 2201SOL    HW218063   0.641   4.631   5.774 -2.9622 -0.1342  4.3662
 2202SOL     OW18064   2.203   0.259   2.872 -0.9843  0.3377  0.3211
 2202SOL    HW118065   2.203   0.333   2.934  0.5742 -0.3806  1.1521
 2202SOL    HW218066   2.294   0.232   2.871 -1.1707 -0.3955  3.0055
 2203SOL     OW18067   3.534   0.544   9.039  0.0123 -0.3899 -0.5500
 2203SOL    HW118068   3.590   0.602   8.988 -1.5299  0.4146 -1.3298
 2203SOL    HW218069   3.469   0.608   9.067  1.0063 -0.5209  2.0996
 2204SOL     OW18070   3.623   1.725   4.562 -0.4136 -0.6094  0.8024
 2204SOL    HW118071   3.556   1.677   4.514 -0.6658  0.5273  0.0417
 2204SOL    HW218072   3.701   1.685   4.523 -1.0106 -0.5000 -0.5064
 2205SOL     OW18073   3.529   3.618   7.868  0.0539  0.3382 -0.2272
 2205SOL    HW118074   3.457   3.559   7.846 -0.3980  0.2678  1.4817
 2205SOL    HW218075   3.573   3.612   7.783  0.1519  0.1122 -0.1596
 2206SOL     OW18076   0.427   0.655  17.493 -0.1236  0.2883 -0.0717
 2206SOL    HW118077   0.502   0.639  17.550 -0.7742 -2.5121  0.0142
 2206SOL    HW218078   0.480   0.687  17.420 -2.8433  1.2390 -1.6415
 2207SOL     OW18079   1.728   0.236   6.836 -0.4932 -0.2301  0.5095
 2207SOL    HW118080   1.688   0.157   6.873 -1.8843  0.0856 -0.3267
 2207SOL    HW218081   1.803   0.257   6.892 -0.7016 -2.0576  1.4812
 2208SOL     OW18082   1.015   3.445   3.357  0.1016 -0.0661 -0.4369
 2208SOL    HW118083   0.996   3.364   3.309  1.5507 -0.0933 -0.9595
 2208SOL    HW218084   0.986   3.510   3.293  1.3548 -0.1408 -1.0754
 2209SOL     OW18085   0.859   0.187  11.909  0.0547  0.0265 -0.1271
 2209SOL    HW118086   0.828   0.278  11.911 -1.8506 -0.6535  0.6070
 2209SOL    HW218087   0.922   0.188  11.836 -1.8029 -0.8133 -1.7327
 2210SOL     OW18088   4.142   1.658   2.012 -0.3166 -0.2447  0.0174
 2210SOL    HW118089   4.182   1.574   2.035  0.8232  0.0324 -0.9662
 2210SOL    HW218090   4.102   1.685   2.094 -0.9868 -2.7258  0.5192
 2211SOL     OW18091   1.064   1.009   2.086  0.3920 -0.1620  0.1702
 2211SOL    HW118092   1.046   1.092   2.043  0.8036 -0.2142 -0.0974
 2211SOL    HW218093   1.130   0.978   2.025  0.7062  0.6246  0.1092
 2212SOL     OW18094   4.458   1.684   7.252 -0.2511  0.0526  0.2191
 2212SOL    HW118095   4.551   1.701   7.266 -0.0620 -0.7537 -0.0585
 2212SOL    HW218096   4.451   1.595   7.288 -1.5167  1.1498  2.7301
 2213SOL     OW18097   4.476   2.423  10.734  0.4734 -0.0977  0.0799
 2213SOL    HW118098   4.484   2.425  10.830  2.7525 -2.3317 -0.0578
 2213SOL    HW218099   4.547   2.481  10.707  0.0680 -0.3469 -1.4857
 2214SOL     OW18100   0.586   0.745  13.055  0.0295  0.4321 -0.1564
 2214SOL    HW118101   0.645   0.809  13.016 -0.2688  0.8844  0.1254
 2214SOL    HW218102   0.510   0.805  13.055 -0.5536 -0.3051 -1.8801
 2215SOL     OW18103   1.172   1.568   7.635 -0.3402 -0.1327 -0.1350
 2215SOL    HW118104   1.152   1.497   7.697  0.9372 -0.0636  0.3605
 2215SOL    HW218105   1.260   1.536   7.612  0.7196  2.4676  0.2988
 2216SOL     OW18106   3.845   1.275   8.810 -0.2173  0.5329  0.3593
 2216SOL    HW118107   3.916   1.263   8.873  0.3110 -0.8418 -0.4884
 2216SOL    HW218108   3.827   1.368   8.823 -0.3702  0.3510  1.4164
 2217SOL     OW18109   3.193   1.444  15.994  0.1068  0.1829  0.0070
 2217SOL    HW118110   3.268   1.396  16.029  0.6521  1.0479  0.0152
 2217SOL    HW218111   3.154   1.367  15.953  0.8172  1.1315 -2.4578
 2218SOL     OW18112   2.488   1.601   6.842  0.1421  0.6267  0.0051
 2218SOL    HW118113   2.431   1.671   6.809  0.4629  0.2527 -1.3235
 2218SOL    HW218114   2.484   1.625   6.935  0.9858  0.1631  0.1650
 2219SOL     OW18115   0.182   3.963   8.685  0.2852 -0.2264  0.1918
 2219SOL    HW118116   0.229   3.958   8.768 -1.5653  1.5767  1.3655
 2219SOL    HW218117   0.220   4.038   8.640  0.5972  0.3858  1.4702
 2220SOL     OW18118   3.772   2.809   6.002 -0.1798  0.8596  0.2075
 2220SOL    HW118119   3.770   2.715   6.018 -1.6079  0.9035  0.3145
 2220SOL    HW218120   3.858   2.829   6.039  0.5241  1.5044 -1.7764
 2221SOL     OW18121   4.589   2.030   5.532  0.6453 -0.6677  0.2834
 2221SOL    HW118122   4.666   1.973   5.536  0.9984 -0.1674  0.7434
 2221SOL    HW218123   4.517   1.971   5.509  0.3780 -0.9874  1.9374
 2222SOL     OW18124   4.711   4.429   7.832 -0.2581 -0.3601 -0.1883
 2222SOL    HW118125   4.641   4.422   7.767 -1.9749  1.4722  1.4585
 2222SOL    HW218126   4.668   4.450   7.915 -0.7547  0.2030 -0.5876
 2223SOL     OW18127   0.421   3.864  15.310 -0.0786  0.2823 -0.1448
 2223SOL    HW118128   0.416   3.959  15.303  0.7630  0.5129  2.4415
 2223SOL    HW218129   0.371   3.846  15.230  0.5648 -2.6942  0.1172
 2224SOL     OW18130   2.496   1.755  14.699 -0.2756  0.3855  0.2189
 2224SOL    HW118131   2.513   1.730  14.608 -0.7810  0.6064  0.0653
 2224SOL    HW218132   2.581   1.728  14.733 -1.2856 -1.5363  1.1712
 2225SOL     OW18133   3.739   2.098   3.669 -0.3567 -0.8073  0.2534
 2225SOL    HW118134   3.724   2.052   3.752 -0.1394  2.2801  2.0011
 2225SOL    HW218135   3.655   2.142   3.657  0.3183  0.4758  0.2851
 2226SOL     OW18136   2.091   0.520   3.032  0.1756 -0.6355 -0.2718
 2226SOL    HW118137   2.096   0.495   3.124  2.8218 -2.7835 -0.9879
 2226SOL    HW218138   2.151   0.595   3.035  1.0572 -1.3483 -0.0837
 2227SOL     OW18139   0.414   2.879  13.902  0.5120  0.1073  0.3319
 2227SOL    HW118140   0.488   2.827  13.871 -0.1895 -1.4512  1.2970
 2227SOL    HW218141   0.368   2.884  13.818 -2.0201 -0.3584  1.6940
 2228SOL     OW18142   4.568   2.782   6.921 -0.7353 -0.2242  0.4756
 2228SOL    HW118143   4.478   2.790   6.889 -0.5934  0.4574  0.2498
 2228SOL    HW218144   4.593   2.711   6.862 -0.4225  0.6641 -0.4453
 2229SOL     OW18145   4.528   4.460   5.007 -0.7843  0.3485  0.0626
 2229SOL    HW118146   4.500   4.505   4.927 -1.2210  1.2766  0.7292
 2229SOL    HW218147   4.495   4.516   5.078  0.0390  0.0555  0.6806
 2230SOL     OW18148   2.703   1.202   2.595 -0.1064  0.0834 -0.3555
 2230SOL    HW118149   2.635   1.269   2.606 -0.1892 -0.1069  0.3129
 2230SOL    HW218150   2.780   1.242   2.556 -1.8668  1.0639 -2.8129
 2231SOL     OW18151   3.777   3.100  11.645 -0.3643 -0.1034 -0.1538
 2231SOL    HW118152   3.738   3.054  11.719  0.9664 -0.0882  0.5720
 2231SOL    HW218153   3.722   3.175  11.624 -1.5984 -1.0116 -0.1850
 2232SOL     OW18154   4.103   0.938  13.152  0.4455  0.1542 -0.0655
 2232SOL    HW118155   4.133   0.877  13.220 -1.1231 -2.5469 -1.7865
 2232SOL    HW218156   4.173   1.004  13.149 -0.3908  1.0157 -0.3690
 2233SOL     OW18157   2.376   0.873   2.177 -0.2617 -0.1997 -0.1794
 2233SOL    HW118158   2.383   0.927   2.099 -2.8365  2.3998  1.4073
 2233SOL    HW218159   2.467   0.878   2.208 -0.6764 -1.7074  1.2942
 2234SOL     OW18160   0.715   1.780   4.293  0.5556 -0.3195 -0.7320
 2234SOL    HW118161   0.703   1.831   4.374  0.9728 -0.4198 -0.6071
 2234SOL    HW218162   0.726   1.693   4.330 -4.7247 -0.8813 -0.4056
 2235SOL     OW18163   3.528   3.464  15.655  0.4245  0.5554  0.1341
 2235SOL    HW118164   3.488   3.546  15.624  3.1544  1.1400 -1.8373
 2235SOL    HW218165   3.462   3.406  15.617  1.3459  1.1524 -2.3773
 2236SOL     OW18166   1.525   3.960   8.624  0.2612  0.0813  0.4081
 2236SOL    HW118167   1.484   3.932   8.543 -0.9486  0.5130  0.8654
 2236SOL    HW218168   1.488   3.896   8.684 -0.8384 -2.3227 -2.8830
 2237SOL     OW18169   0.721   0.780  17.605  0.3743 -0.1503 -0.2963
 2237SOL    HW118170   0.803   0.779  17.654  0.3800 -1.4956 -0.3371
 2237SOL    HW218171   0.711   0.686  17.597 -0.8746  0.1053 -1.9560
 2238SOL     OW18172   3.699   1.089   6.723  0.3998  0.2945  0.2867
 2238SOL    HW118173   3.706   1.078   6.628 -1.1281  2.5191 -0.0614
 2238SOL    HW218174   3.786   1.054   6.743  0.0646 -0.5665  0.2355
 2239SOL     OW18175   4.687   2.147   1.069 -0.1481 -0.0499  0.0310
 2239SOL    HW118176   4.714   2.061   1.100  0.1181 -0.3144 -0.9466
 2239SOL    HW218177   4.636   2.109   0.997 -2.3244 -1.8297  2.5238
 2240SOL     OW18178   4.023   4.531   6.287 -0.1357 -0.0870 -0.7648
 2240SOL    HW118179   3.999   4.617   6.319  0.6462 -0.5094  0.9471
 2240SOL    HW218180   3.945   4.489   6.324 -0.0193  0.1855 -0.2161
 2241SOL     OW18181   3.739   4.393   2.185  0.1382  0.1939  0.0016
 2241SOL    HW118182   3.764   4.476   2.144 -1.1912  0.5616 -0.0835
 2241SOL    HW218183   3.779   4.331   2.125  1.9267  1.7695 -0.4276
 2242SOL     OW18184   4.535   4.690   9.087  0.0602 -0.8952  0.0576
 2242SOL    HW118185   4.629   4.705   9.090 -0.2392  0.8193  0.8588
 2242SOL    HW218186   4.513   4.685   9.180  0.3963  0.1189  0.1935
 2243SOL     OW18187   3.846   2.255   1.170  0.3270 -0.1543  0.0856
 2243SOL    HW118188   3.902   2.224   1.099  0.1309 -0.7038  0.1659
 2243SOL    HW218189   3.760   2.218   1.147  1.3507 -1.0756 -2.2199
 2244SOL     OW18190   2.889   2.117  14.054  0.1403  0.6106 -0.3833
 2244SOL    HW118191   2.920   2.098  14.143 -0.2589  0.5353 -0.2592
 2244SOL    HW218192   2.870   2.037  14.006 -2.5388  1.5108 -0.8307
 2245SOL     OW18193   4.295   2.112   4.362  0.6037 -0.2269 -0.7086
 2245SOL    HW118194   4.304   2.206   4.382 -0.3926 -0.1007 -0.8402
 2245SOL    HW218195   4.366   2.075   4.415 -0.3131  1.7407  1.9380
 2246SOL     OW18196   1.392   2.340   8.578 -0.4446  0.9154  0.0630
 2246SOL    HW118197   1.301   2.312   8.563  0.5151 -1.1463 -1.9975
 2246SOL    HW218198   1.420   2.278   8.645 -2.3107  0.5841  0.5438
 2247SOL     OW18199   3.866   0.572   6.668 -0.4922 -0.0812 -0.2734
 2247SOL    HW118200   3.871   0.667   6.680 -0.9314  0.2223 -2.4842
 2247SOL    HW218201   3.865   0.539   6.758 -1.6149 -0.2642 -0.3492
 2248SOL     OW18202   2.311   4.356   2.214 -0.1245  0.0432 -0.6275
 2248SOL    HW118203   2.368   4.403   2.153 -0.7189  0.7686 -0.6293
 2248SOL    HW218204   2.233   4.413   2.210 -0.2884  0.0165  2.4562
 2249SOL     OW18205   0.765   2.112   4.869 -0.8301  0.3761  0.2706
 2249SOL    HW118206   0.794   2.043   4.809 -0.7989 -0.2777  1.0346
 2249SOL    HW218207   0.848   2.159   4.873 -0.3929 -0.2489 -1.7489
 2250SOL     OW18208   1.245   2.588   4.364  0.4442 -0.5372 -0.6630
 2250SOL    HW118209   1.274   2.664   4.415  0.2235  1.0441 -2.8916
 2250SOL    HW218210   1.331   2.549   4.351  0.3123 -0.4372 -1.8197
 2251SOL     OW18211   4.058   4.564   7.613  0.1996  0.2790  0.2082
 2251SOL    HW118212   4.071   4.581   7.706 -0.4150 -1.6831  0.6626
 2251SOL    HW218213   4.041   4.649   7.574  0.5786  0.7731  1.1192
 2252SOL     OW18214   4.319   0.667   5.354  0.3501 -0.0587 -0.2615
 2252SOL    HW118215   4.329   0.619   5.272  0.2717 -1.1638  0.3828
 2252SOL    HW218216   4.239   0.713   5.329 -0.6186 -1.9590 -0.6351
 2253SOL     OW18217   2.260   2.579   1.851 -0.0609 -0.4611 -0.4056
 2253SOL    HW118218   2.223   2.667   1.851 -1.3705 -1.0291  0.9555
 2253SOL    HW218219   2.352   2.607   1.845 -1.0087  2.6889 -0.0482
 2254SOL     OW18220   2.948   1.216  12.458 -0.3826  0.5497  0.1005
 2254SOL    HW118221   2.944   1.302  12.500  1.0906 -0.1979  1.7829
 2254SOL    HW218222   3.033   1.230  12.417 -0.1147  0.5141  0.6423
 2255SOL     OW18223   1.025   3.804  12.502 -0.4117 -0.4554 -0.0527
 2255SOL    HW118224   1.075   3.881  12.530  1.3573 -2.4710  2.3711
 2255SOL    HW218225   1.084   3.773  12.433 -0.4706 -0.2874 -0.1808
 2256SOL     OW18226   3.585   2.521   4.242  0.1006 -0.6927  0.0636
 2256SOL    HW118227   3.640   2.577   4.297  0.0611 -0.2204 -0.3820
 2256SOL    HW218228   3.576   2.438   4.289 -0.7383 -1.1152 -0.8670
 2257SOL     OW18229   1.990   2.816   9.301  0.2530  0.5784 -0.1556
 2257SOL    HW118230   2.068   2.871   9.292  0.5626  0.2778  0.7332
 2257SOL    HW218231   1.996   2.806   9.396  0.1173 -1.4301 -0.3619
 2258SOL     OW18232   3.222   2.633   0.005 -0.4055 -0.0989 -0.2298
 2258SOL    HW118233   3.202   2.720  17.664  1.6337  0.8671  0.9524
 2258SOL    HW218234   3.254   2.650   0.094 -1.2218  1.0743 -0.1478
 2259SOL     OW18235   2.253   2.126  16.216 -0.6243  0.0579 -0.3730
 2259SOL    HW118236   2.318   2.096  16.153 -1.3051 -0.3073 -0.9023
 2259SOL    HW218237   2.289   2.215  16.213 -0.2606 -0.1000 -0.6414
 2260SOL     OW18238   3.371   1.661  13.803  0.9015  0.8663  0.0230
 2260SOL    HW118239   3.434   1.700  13.863  2.4693  1.0315 -1.7134
 2260SOL    HW218240   3.414   1.589  13.756 -1.1391  1.1822 -2.3558
 2261SOL     OW18241   0.261   2.725  11.073  0.2804  0.2322  0.0459
 2261SOL    HW118242   0.245   2.631  11.071 -0.0922  0.3411 -2.0189
 2261SOL    HW218243   0.230   2.765  10.992  0.0564 -1.0785 -0.5170
 2262SOL     OW18244   1.882   4.257  16.201  0.0744  0.3882 -0.4490
 2262SOL    HW118245   1.896   4.283  16.110  1.3250  1.3137  0.0165
 2262SOL    HW218246   1.857   4.336  16.249  0.0804  0.1765 -0.0914
 2263SOL     OW18247   1.657   0.230   4.789 -0.1120 -0.6036  0.3132
 2263SOL    HW118248   1.682   0.321   4.802 -1.5794 -0.1515 -0.0674
 2263SOL    HW218249   1.566   0.218   4.816 -0.6666 -1.1723 -1.7805
 2264SOL     OW18250   0.993   3.247   3.147 -0.2353 -0.2654  0.1795
 2264SOL    HW118251   1.001   3.157   3.178  1.8189 -0.5806 -1.2901
 2264SOL    HW218252   0.904   3.243   3.113  0.3602 -1.2244 -1.2333
 2265SOL     OW18253   1.464   3.247   9.256  0.2911  0.0680  0.1371
 2265SOL    HW118254   1.505   3.324   9.294 -0.1720 -1.5814  3.9481
 2265SOL    HW218255   1.531   3.187   9.290 -0.1672 -0.2465  0.4893
 2266SOL     OW18256   3.931   0.537  15.319  0.4747 -0.1315 -0.4955
 2266SOL    HW118257   3.850   0.507  15.359  2.2915  0.2932  3.5839
 2266SOL    HW218258   3.902   0.616  15.274 -0.5789  0.3792  1.0762
 2267SOL     OW18259   2.611   0.207   4.717 -0.3239 -0.1740  0.0346
 2267SOL    HW118260   2.516   0.198   4.715 -0.3680  0.6855 -1.9635
 2267SOL    HW218261   2.625   0.298   4.690 -1.5618  0.0493  0.1641
 2268SOL     OW18262   2.019   2.794  13.021  0.3014 -0.5345 -0.5531
 2268SOL    HW118263   2.073   2.870  13.041 -0.1580  0.2193 -2.2136
 2268SOL    HW218264   1.963   2.780  13.098 -1.5127 -2.6029 -2.2427
 2269SOL     OW18265   3.157   2.430   7.654  0.5640 -0.4898 -0.0449
 2269SOL    HW118266   3.162   2.339   7.681  0.6747  0.4335  3.0511
 2269SOL    HW218267   3.175   2.473   7.738  0.5732 -1.3040  0.3661
 2270SOL     OW18268   4.445   2.810   7.891 -0.4077 -0.0885  0.0653
 2270SOL    HW118269   4.404   2.845   7.970  0.4288  1.9497 -0.4005
 2270SOL    HW218270   4.424   2.717   7.902 -1.9977  0.2968  0.2502
 2271SOL     OW18271   2.140   3.573   6.827  0.1703  0.3289  0.2708
 2271SOL    HW118272   2.084   3.622   6.887 -1.0715  0.1136 -0.7032
 2271SOL    HW218273   2.176   3.502   6.880 -0.3355 -0.4549 -0.4240
 2272SOL     OW18274   2.461   2.392   7.227  0.2826 -0.0888 -0.1968
 2272SOL    HW118275   2.503   2.306   7.237 -0.0689 -0.5276 -2.3907
 2272SOL    HW218276   2.375   2.383   7.186  0.2634 -1.4156  0.1278
 2273SOL     OW18277   0.988   3.072   4.300  0.3468  0.2307 -0.0636
 2273SOL    HW118278   1.070   3.081   4.251 -0.7168  0.9381 -1.7066
 2273SOL    HW218279   0.990   3.158   4.342 -0.6663  0.4396 -0.4531
 2274SOL     OW18280   2.321   0.656  15.394  0.2932 -0.4421  0.7673
 2274SOL    HW118281   2.366   0.603  15.459  0.4804 -0.6524  0.4699
 2274SOL    HW218282   2.358   0.625  15.311 -0.6328 -0.7195  0.4620
 2275SOL     OW18283   0.321   1.044   4.287  0.2036 -0.0888 -0.0310
 2275SOL    HW118284   0.340   1.075   4.198 -2.9025  0.0110 -0.6564
 2275SOL    HW218285   0.251   0.981   4.269  1.8789 -2.5278  1.9584
 2276SOL     OW18286   1.034   0.964   1.632 -0.0736  0.1838 -0.2921
 2276SOL    HW118287   1.039   1.010   1.548  0.8838 -1.7132 -1.2554
 2276SOL    HW218288   1.118   0.973   1.677  0.3750 -0.3494 -1.0299
 2277SOL     OW18289   3.632   1.724   7.595  0.0315  0.2256  0.0943
 2277SOL    HW118290   3.622   1.783   7.670 -2.7548 -0.5776  0.3395
 2277SOL    HW218291   3.539   1.709   7.581  0.0885  1.0945 -1.1966
 2278SOL     OW18292   3.180   0.661   5.819 -0.1081 -0.4021  0.2275
 2278SOL    HW118293   3.113   0.599   5.848  0.7103 -3.3348 -4.0952
 2278SOL    HW218294   3.200   0.621   5.735 -2.5271 -0.9775 -0.0704
 2279SOL     OW18295   1.348   3.887   3.689 -0.0532 -0.5774 -0.2182
 2279SOL    HW118296   1.336   3.822   3.758  1.0491 -0.1953  0.3306
 2279SOL    HW218297   1.433   3.855   3.658  0.3470  2.1619 -1.9461
 2280SOL     OW18298   0.080   1.639   9.148  0.0419 -0.0660 -0.1083
 2280SOL    HW118299   0.110   1.640   9.057  0.3589 -1.8719 -0.0188
 2280SOL    HW218300   0.058   1.732   9.155 -1.7894 -0.5198  0.3102
 2281SOL     OW18301   3.188   2.502   7.903 -0.7997  0.1969  1.0496
 2281SOL    HW118302   3.197   2.584   7.952  0.3009  0.7809 -0.1322
 2281SOL    HW218303   3.197   2.430   7.964 -1.2815  2.0990  3.3536
 2282SOL     OW18304   2.192   4.151   7.284  0.3154 -0.2801 -0.2776
 2282SOL    HW118305   2.098   4.134   7.278  0.7572 -2.0226 -2.2551
 2282SOL    HW218306   2.224   4.074   7.333  1.3324  0.3868  0.1207
 2283SOL     OW18307   0.363   4.555   4.857 -0.5135  0.3560 -0.4506
 2283SOL    HW118308   0.382   4.508   4.776  1.5661  0.6547 -0.1451
 2283SOL    HW218309   0.437   4.527   4.911  0.0621  3.3476  0.3397
 2284SOL     OW18310   3.836   1.797   9.247 -0.5967 -0.2111 -0.2197
 2284SOL    HW118311   3.873   1.883   9.264 -2.1956  1.0768 -3.2539
 2284SOL    HW218312   3.800   1.778   9.333 -0.8989  1.0611 -0.0752
 2285SOL     OW18313   4.460   4.095   3.796 -0.2034 -0.3011  0.3449
 2285SOL    HW118314   4.480   4.068   3.706 -0.9982 -0.3969  0.1937
 2285SOL    HW218315   4.551   4.115   3.816  0.0813 -1.0714 -0.1633
 2286SOL     OW18316   3.263   3.731  10.027  0.1398 -0.8763 -0.0354
 2286SOL    HW118317   3.227   3.783  10.099 -0.8578 -1.1933 -0.3068
 2286SOL    HW218318   3.358   3.739  10.037  0.1241  0.6240 -1.0551
 2287SOL     OW18319   2.615   4.621   2.725 -0.0119  0.0438 -0.2031
 2287SOL    HW118320   2.601   4.693   2.664 -0.3499 -0.0232 -0.2030
 2287SOL    HW218321   2.627   4.546   2.668  1.9661 -0.0829  0.3637
 2288SOL     OW18322   0.640   3.465   3.505  1.0694  0.2253 -0.1019
 2288SOL    HW118323   0.641   3.557   3.479  1.6211 -0.0191 -0.9326
 2288SOL    HW218324   0.614   3.419   3.426 -0.2087  0.5592  0.1356
 2289SOL     OW18325   0.699   2.169   6.955  0.0623 -0.2907 -0.3029
 2289SOL    HW118326   0.668   2.214   7.033  1.9449  0.7143 -0.1381
 2289SOL    HW218327   0.775   2.117   6.982 -0.5100  0.1837  2.2043
 2290SOL     OW18328   2.102   4.542   2.835  0.1498  0.0351  0.2932
 2290SOL    HW118329   2.184   4.591   2.822 -0.5177  1.5993  1.9604
 2290SOL    HW218330   2.135   4.454   2.819  0.3057  0.0617  0.4643
 2291SOL     OW18331   2.880   1.412  10.274 -0.1287 -0.1558 -0.0558
 2291SOL    HW118332   2.932   1.337  10.303 -0.6051  0.0530  1.3516
 2291SOL    HW218333   2.834   1.384  10.195  0.4349  3.0878 -1.5258
 2292SOL     OW18334   2.389   2.238   0.420  0.5541  0.4697 -0.0860
 2292SOL    HW118335   2.319   2.229   0.356  1.2903 -1.7815 -0.5661
 2292SOL    HW218336   2.459   2.200   0.367  1.3140  0.2947  1.0299
 2293SOL     OW18337   0.450   1.639   7.727 -0.1114 -0.0074  0.2172
 2293SOL    HW118338   0.475   1.553   7.762  1.8339 -0.2935 -1.8946
 2293SOL    HW218339   0.540   1.673   7.724 -0.1240  0.0812  0.8363
 2294SOL     OW18340   2.548   0.162  15.597  0.2925 -0.2145 -0.5907
 2294SOL    HW118341   2.482   0.143  15.532 -0.3851 -0.1145  0.0707
 2294SOL    HW218342   2.486   0.204  15.657  0.1915 -1.1735 -0.0346
 2295SOL     OW18343   1.963   2.796   3.002  0.2577  0.1747  0.6629
 2295SOL    HW118344   1.895   2.731   3.015  1.6428 -1.4001 -0.0278
 2295SOL    HW218345   2.006   2.756   2.927 -1.1514 -1.1457  0.5802
 2296SOL     OW18346   3.631   3.122   3.760 -0.1835  0.5687 -0.0490
 2296SOL    HW118347   3.654   3.141   3.851 -2.8516  0.7118  0.6015
 2296SOL    HW218348   3.539   3.146   3.766 -0.9004 -1.9068 -1.4197
 2297SOL     OW18349   3.023   1.639   5.012  0.2223  0.0933 -0.4804
 2297SOL    HW118350   2.969   1.673   4.941  0.1579  2.5956  0.7859
 2297SOL    HW218351   3.108   1.626   4.969  0.7028 -2.0539  1.1017
 2298SOL     OW18352   0.510   4.431   1.712  0.1031  0.1761  0.7903
 2298SOL    HW118353   0.557   4.506   1.675  0.8588 -0.6979  0.0188
 2298SOL    HW218354   0.438   4.478   1.755  0.5476 -0.7004  2.4618
 2299SOL     OW18355   2.415   4.008  14.505 -0.2873  0.1394  0.4420
 2299SOL    HW118356   2.374   4.047  14.428 -0.6980 -0.4965  0.3410
 2299SOL    HW218357   2.343   3.971  14.557  2.1357 -1.1294  2.9201
 2300SOL     OW18358   4.180   2.986  14.895  0.5287 -0.2458 -0.2721
 2300SOL    HW118359   4.272   2.991  14.868  0.4794  0.5356 -0.2990
 2300SOL    HW218360   4.163   3.064  14.948 -0.8124 -0.9721  0.3788
 2301SOL     OW18361   3.041   3.117   3.440  0.1595 -0.2411  0.2575
 2301SOL    HW118362   2.992   3.040   3.469 -0.0972 -0.2279 -0.1481
 2301SOL    HW218363   3.134   3.097   3.454  0.3964  1.3608  0.9615
 2302SOL     OW18364   1.667   4.529   1.825  0.2761 -0.2088  0.4628
 2302SOL    HW118365   1.641   4.560   1.912 -0.8417  2.6201 -0.8840
 2302SOL    HW218366   1.732   4.462   1.844 -0.4911 -0.8656  0.8002
 2303SOL     OW18367   2.935   0.701   7.185  0.3548  0.3539 -0.0262
 2303SOL    HW118368   2.960   0.793   7.191 -0.3820  0.7511 -3.1934
 2303SOL    HW218369   2.935   0.691   7.090  2.7701 -1.1022  0.1254
 2304SOL     OW18370   0.864   1.815   9.061  0.0657  0.0419 -0.9849
 2304SOL    HW118371   0.912   1.762   9.126  0.2640  0.7921 -0.5127
 2304SOL    HW218372   0.922   1.891   9.048  0.1252  0.6529  2.7550
 2305SOL     OW18373   0.197   4.337   3.097 -0.2146 -0.1970 -0.0448
 2305SOL    HW118374   0.216   4.430   3.086  1.7000 -0.7003 -0.9935
 2305SOL    HW218375   0.101   4.338   3.100 -0.1831  1.0086  0.4584
 2306SOL     OW18376   2.328   2.408   1.299 -0.4731 -0.2969  0.5684
 2306SOL    HW118377   2.421   2.425   1.288 -0.4212  0.0011  1.4815
 2306SOL    HW218378   2.288   2.495   1.295  0.7500  0.3124  1.6379
 2307SOL     OW18379   0.614   0.513   4.210 -0.2348  0.0754 -0.3470
 2307SOL    HW118380   0.520   0.493   4.218 -0.2837  0.8683  1.1724
 2307SOL    HW218381   0.651   0.426   4.227  0.6069 -0.4736 -4.9027
 2308SOL     OW18382   0.478   4.331   3.942  0.0173 -0.5252 -0.0528
 2308SOL    HW118383   0.452   4.390   3.871 -1.9848 -0.7459  0.4910
 2308SOL    HW218384   0.527   4.395   3.993  0.4419  0.9394 -2.3031
 2309SOL     OW18385   3.365   2.038   8.763 -0.2495 -0.3942 -0.1074
 2309SOL    HW118386   3.365   2.033   8.859  1.9866  0.2400 -0.0711
 2309SOL    HW218387   3.385   1.951   8.730 -1.3971 -0.0892 -1.6163
 2310SOL     OW18388   3.027   3.556   2.090  0.1301 -0.1469 -0.1190
 2310SOL    HW118389   3.094   3.489   2.104  1.5218  1.1427 -0.5920
 2310SOL    HW218390   3.072   3.622   2.038 -0.5242  0.2712 -0.1592
 2311SOL     OW18391   1.642   2.537  12.607  0.0742 -0.2007  0.8210
 2311SOL    HW118392   1.613   2.587  12.683 -0.4779 -2.2817  1.9688
 2311SOL    HW218393   1.726   2.582  12.591 -0.3526  0.0555 -0.7548
 2312SOL     OW18394   2.196   0.828   7.563  0.2213  0.0795  0.1695
 2312SOL    HW118395   2.130   0.842   7.631 -1.2010  0.4874 -1.2992
 2312SOL    HW218396   2.147   0.772   7.502 -1.0744 -1.4326  2.5888
 2313SOL     OW18397   3.351   0.589  12.868 -0.1164 -0.0326 -0.0521
 2313SOL    HW118398   3.420   0.634  12.820  0.4744  0.0205  0.8420
 2313SOL    HW218399   3.304   0.665  12.903 -0.0618 -1.2995  2.7651
 2314SOL     OW18400   4.700   3.329   9.376 -0.2623  0.0442  0.2481
 2314SOL    HW118401   0.049   3.293   9.427  0.9751 -0.5468 -1.9353
 2314SOL    HW218402   0.032   3.372   9.311 -0.6118 -0.4383 -0.3719
 2315SOL     OW18403   3.921   0.727  17.050  0.4733 -0.0666 -0.1065
 2315SOL    HW118404   4.010   0.729  17.017 -0.0189  2.8239 -1.2307
 2315SOL    HW218405   3.887   0.790  16.986  1.1221  0.8085  0.4166
 2316SOL     OW18406   0.823   1.200   7.084  0.0443 -0.2945  0.2416
 2316SOL    HW118407   0.850   1.234   6.999 -0.6160  2.5458  1.1873
 2316SOL    HW218408   0.784   1.277   7.125 -0.5485  0.3951 -1.6156
 2317SOL     OW18409   1.458   1.384   4.747  0.0884  0.6184 -0.5265
 2317SOL    HW118410   1.468   1.339   4.832  1.5933  1.5831 -0.2125
 2317SOL    HW218411   1.362   1.388   4.739 -0.0261  0.8821  0.8717
 2318SOL     OW18412   3.904   2.503  14.493 -0.4969  0.2095  0.1421
 2318SOL    HW118413   3.990   2.543  14.477 -1.5095  3.0518  1.6806
 2318SOL    HW218414   3.872   2.561  14.562 -1.2559  1.6848 -1.4610
 2319SOL     OW18415   3.891   1.503  16.716 -0.1816  0.0128  0.1549
 2319SOL    HW118416   3.836   1.444  16.767  0.9206 -1.0635  0.0933
 2319SOL    HW218417   3.970   1.500  16.770 -0.6799 -1.8540  0.7610
 2320SOL     OW18418   2.689   0.485   6.179  0.0096  0.2213  0.1377
 2320SOL    HW118419   2.623   0.429   6.138  0.0186  1.3323 -1.3838
 2320SOL    HW218420   2.760   0.422   6.168 -1.0816 -0.7794 -1.1380
 2321SOL     OW18421   0.152   1.700   8.012 -0.2681 -0.7233 -0.2210
 2321SOL    HW118422   0.195   1.619   8.038  1.8591  0.6795  0.6242
 2321SOL    HW218423   0.232   1.750   8.028 -0.1869 -1.5356  1.8203
 2322SOL     OW18424   4.366   1.536  14.947 -0.0766  0.2440 -0.4128
 2322SOL    HW118425   4.452   1.493  14.942 -0.1547  0.1111 -0.6073
 2322SOL    HW218426   4.344   1.515  15.038  1.4564 -0.0570 -0.0984
 2323SOL     OW18427   4.670   2.160   4.125  0.2303 -0.1308  0.7160
 2323SOL    HW118428   0.028   2.206   4.143 -0.2740 -0.2479  3.2925
 2323SOL    HW218429   4.605   2.229   4.110  0.3691 -0.4331 -1.3263
 2324SOL     OW18430   2.922   0.066   8.185 -0.4459 -0.3904 -0.2550
 2324SOL    HW118431   2.970   0.087   8.105 -2.5812 -0.0786 -1.4640
 2324SOL    HW218432   2.833   0.067   8.149 -0.6363  1.1088  0.2430
 2325SOL     OW18433   0.680   1.508   2.725  0.4052 -0.4999 -0.5450
 2325SOL    HW118434   0.652   1.589   2.683  0.7448  0.2606  0.7032
 2325SOL    HW218435   0.708   1.460   2.647  0.1025 -0.7182 -0.5204
 2326SOL     OW18436   2.759   3.693  12.652  0.8991  0.3886 -0.1258
 2326SOL    HW118437   2.800   3.753  12.590  0.5939  0.6498 -0.0710
 2326SOL    HW218438   2.670   3.727  12.656  0.7098 -0.2130  0.7542
 2327SOL     OW18439   1.764   4.677  13.836 -0.0203  0.6627  0.4348
 2327SOL    HW118440   1.789   0.045  13.822  2.2341  0.2186  1.4662
 2327SOL    HW218441   1.777   4.645  13.747 -1.1020 -0.1821  0.5790
 2328SOL     OW18442   0.554   1.186   2.799  0.5785 -0.4739 -0.1895
 2328SOL    HW118443   0.509   1.246   2.859 -2.9831 -3.1572 -0.2589
 2328SOL    HW218444   0.507   1.202   2.718 -0.8833 -0.6195  0.6320
 2329SOL     OW18445   3.775   0.943   7.035 -0.1445 -0.4016 -1.7426
 2329SOL    HW118446   3.805   0.963   6.946 -1.9038  1.7933 -1.8507
 2329SOL    HW218447   3.855   0.904   7.069 -3.6067 -4.0717  2.0861
 2330SOL     OW18448   1.887   1.361   2.157 -0.0461 -0.4273 -0.8014
 2330SOL    HW118449   1.866   1.400   2.242  2.8235 -0.9713  0.1767
 2330SOL    HW218450   1.951   1.293   2.181 -0.3156  0.4280  2.4026
 2331SOL     OW18451   0.110   2.793   0.262  0.3946  0.8067  0.2641
 2331SOL    HW118452   0.127   2.699   0.255  2.2983  1.2137 -0.5523
 2331SOL    HW218453   0.054   2.792   0.339 -1.3940  0.7120 -1.0233
 2332SOL     OW18454   1.295   3.699   7.472  0.0098 -0.1782  0.1381
 2332SOL    HW118455   1.313   3.605   7.468 -0.7810 -0.3555  0.8968
 2332SOL    HW218456   1.353   3.734   7.404  1.8217 -1.0327  1.2400
 2333SOL     OW18457   4.065   2.053   8.283 -0.0377  0.2325  0.1007
 2333SOL    HW118458   4.099   1.963   8.277 -1.2262 -0.2109 -0.0665
 2333SOL    HW218459   3.983   2.037   8.329  0.7373 -0.5636  1.2181
 2334SOL     OW18460   0.798   0.674   6.093  0.5042  0.1723  0.4049
 2334SOL    HW118461   0.797   0.594   6.146 -0.2922  0.3161  0.6039
 2334SOL    HW218462   0.715   0.682   6.047  0.6642 -1.9059 -0.2557
 2335SOL     OW18463   3.930   0.205   4.852 -0.0668 -0.1121 -0.3429
 2335SOL    HW118464   3.935   0.263   4.928  0.8495 -1.8705  0.9560
 2335SOL    HW218465   3.939   0.121   4.896 -0.3570 -0.8782 -1.7506
 2336SOL     OW18466   2.297   1.189  11.045 -0.1823  0.1525  0.0469
 2336SOL    HW118467   2.287   1.123  11.113  1.2722  0.2246  0.3293
 2336SOL    HW218468   2.218   1.243  11.054 -0.6752 -0.9073  2.0959
 2337SOL     OW18469   3.472   0.349   4.823 -0.6222 -0.2773  0.5424
 2337SOL    HW118470   3.556   0.324   4.784 -1.0228  0.1321 -0.5610
 2337SOL    HW218471   3.411   0.292   4.777  2.5766 -2.3963 -1.0458
 2338SOL     OW18472   1.484   1.900   8.694  0.5780 -0.0384 -0.0264
 2338SOL    HW118473   1.501   1.990   8.722  1.4233  0.1280 -1.0588
 2338SOL    HW218474   1.390   1.896   8.678  0.5359 -0.6984  0.4135
 2339SOL     OW18475   0.674   2.595  17.402 -0.0428  0.1413  0.2467
 2339SOL    HW118476   0.716   2.513  17.378 -1.9679 -0.3429 -1.5076
 2339SOL    HW218477   0.581   2.576  17.389 -0.2129 -0.0468  1.7847
 2340SOL     OW18478   3.726   0.026   8.141 -0.2990 -0.5975 -0.1610
 2340SOL    HW118479   3.753   0.017   8.232  0.7424  1.5457 -0.2698
 2340SOL    HW218480   3.752   4.665   8.104 -0.7029 -0.2279 -1.2916
 2341SOL     OW18481   1.681   1.811   5.212  0.1911  0.6742 -0.9673
 2341SOL    HW118482   1.698   1.878   5.145 -0.7911 -0.0523 -1.9532
 2341SOL    HW218483   1.631   1.742   5.169 -0.1040  0.4212 -0.2153
 2342SOL     OW18484   2.391   4.698   3.851  0.8002 -0.0930 -0.1038
 2342SOL    HW118485   2.363   4.710   3.942 -0.6573 -0.7091 -0.4607
 2342SOL    HW218486   2.397   0.060   3.808  2.9905 -0.8448 -1.2788
 2343SOL     OW18487   3.337   1.138   5.004 -0.4295 -0.3280  0.0803
 2343SOL    HW118488   3.276   1.160   4.933 -0.2636  1.6153  0.5420
 2343SOL    HW218489   3.288   1.069   5.047  0.8657 -1.5084 -0.3419
 2344SOL     OW18490   1.554   0.734   9.824 -0.1488  0.3912 -0.2655
 2344SOL    HW118491   1.567   0.644   9.855  2.0586  0.8768  0.2453
 2344SOL    HW218492   1.515   0.774   9.902 -1.4905 -2.0957  0.3401
 2345SOL     OW18493   0.106   3.069   6.139 -0.6341  0.2308  0.3133
 2345SOL    HW118494   0.157   2.989   6.151 -0.0855  0.5787  0.2648
 2345SOL    HW218495   0.037   3.050   6.203  0.7146  3.0636  2.6262
 2346SOL     OW18496   4.388   4.544   1.468 -0.1138 -0.6624 -0.3372
 2346SOL    HW118497   4.340   4.610   1.418  2.2789  0.8170 -0.6592
 2346SOL    HW218498   4.464   4.538   1.410 -0.8665  2.3309 -1.6335
 2347SOL     OW18499   0.697   1.032  11.155  0.0125 -0.1757 -0.5360
 2347SOL    HW118500   0.721   0.981  11.233 -1.0247 -1.9366 -1.3899
 2347SOL    HW218501   0.648   0.967  11.105 -3.3816  0.9241  1.3693
 2348SOL     OW18502   3.392   4.224   4.359  0.6330  0.3527  0.2436
 2348SOL    HW118503   3.361   4.291   4.298  0.0320  1.0766  1.3437
 2348SOL    HW218504   3.366   4.267   4.440  0.8183  1.0069 -0.0452
 2349SOL     OW18505   2.995   4.133   8.410 -0.4699  0.2756 -0.3180
 2349SOL    HW118506   2.936   4.159   8.481 -1.1062 -1.4097 -0.2318
 2349SOL    HW218507   3.078   4.142   8.456 -0.3777  0.1068 -0.4546
 2350SOL     OW18508   3.169   0.626   7.350  0.1422 -0.0912 -0.0188
 2350SOL    HW118509   3.175   0.721   7.363  2.0736 -0.1997 -0.1003
 2350SOL    HW218510   3.087   0.633   7.301  0.1680  0.0132 -0.0459
 2351SOL     OW18511   1.819   1.652   6.273 -0.3871  0.6472  0.1377
 2351SOL    HW118512   1.906   1.629   6.240 -1.1450  0.4355 -1.7089
 2351SOL    HW218513   1.848   1.657   6.364  1.3397 -1.3877 -0.3019
 2352SOL     OW18514   4.016   1.445   4.854 -0.2086 -0.1008 -0.4182
 2352SOL    HW118515   3.989   1.358   4.824  0.3780 -0.1731 -0.7232
 2352SOL    HW218516   3.937   1.495   4.834 -1.0845 -1.6829 -0.9235
 2353SOL     OW18517   3.042   2.708  10.709  0.2297 -0.2980  0.1385
 2353SOL    HW118518   2.947   2.697  10.721  0.6253 -1.5899  2.2086
 2353SOL    HW218519   3.059   2.640  10.644 -0.9524  0.7090 -1.2186
 2354SOL     OW18520   4.353   2.529   6.219 -0.1380  0.2304 -0.0418
 2354SOL    HW118521   4.333   2.486   6.136  1.3157  0.6690 -0.6273
 2354SOL    HW218522   4.280   2.586   6.244 -0.4848 -0.7575  1.2090
 2355SOL     OW18523   0.059   3.911   1.493 -0.7747  0.2512  0.1054
 2355SOL    HW118524   0.106   3.986   1.457 -0.2669  1.3767  3.0519
 2355SOL    HW218525   0.124   3.851   1.458 -1.9604 -0.5742 -0.6616
 2356SOL     OW18526   1.812   0.161  11.582  1.0565 -0.5059 -0.2604
 2356SOL    HW118527   1.827   0.209  11.501 -0.3963  0.0784 -0.1892
 2356SOL    HW218528   1.728   0.116  11.573  1.1107 -0.5666 -0.4587
 2357SOL     OW18529   4.341   2.804   3.943  0.7387 -0.3331  0.3908
 2357SOL    HW118530   4.372   2.876   3.889 -0.6835  0.8627  1.1542
 2357SOL    HW218531   4.412   2.781   4.002  2.3317 -2.6765 -2.4454
 2358SOL     OW18532   4.386   2.008   8.036  0.8253 -0.1545 -0.3779
 2358SOL    HW118533   4.298   2.016   8.073  1.1235 -0.6252  0.4441
 2358SOL    HW218534   4.441   2.034   8.111  1.7311  2.2003 -1.8388
 2359SOL     OW18535   0.755   2.799   3.915  0.5949  0.1017 -0.0583
 2359SOL    HW118536   0.831   2.822   3.968 -0.1114 -2.0482  1.8878
 2359SOL    HW218537   0.697   2.874   3.927  1.2767  0.5982  0.1793
 2360SOL     OW18538   3.373   3.044  12.619 -0.0695  0.2103  0.0421
 2360SOL    HW118539   3.367   3.016  12.711  0.5685 -0.1780 -0.0399
 2360SOL    HW218540   3.425   2.978  12.574 -2.1767 -1.3881 -0.0352
 2361SOL     OW18541   3.921   4.268  13.074  0.0040 -0.2010 -0.2808
 2361SOL    HW118542   3.871   4.191  13.102 -0.6047  0.3993  0.2697
 2361SOL    HW218543   3.888   4.337  13.131 -0.3757  0.0520 -0.7990
 2362SOL     OW18544   1.497   0.634   5.694 -0.1468  0.0743 -0.6440
 2362SOL    HW118545   1.570   0.586   5.655  1.3833  1.9817 -0.1223
 2362SOL    HW218546   1.526   0.638   5.785 -0.4869 -0.5689 -0.5082
 2363SOL     OW18547   4.639   4.591   1.318  0.5206 -0.0047 -0.5449
 2363SOL    HW118548   4.681   4.505   1.323  2.7176  1.1890  2.1243
 2363SOL    HW218549   4.720   4.642   1.326 -0.4250  1.3873  0.2364
 2364SOL     OW18550   3.976   0.745  12.839 -0.0904 -0.3386  0.4742
 2364SOL    HW118551   4.044   0.677  12.833  0.4399  0.2891 -0.5831
 2364SOL    HW218552   3.903   0.693  12.874 -1.3882  1.5240  0.5305
 2365SOL     OW18553   0.937   2.044   7.070 -0.0223 -0.0055  0.0039
 2365SOL    HW118554   1.005   2.028   7.137 -1.7628 -0.6844  1.6068
 2365SOL    HW218555   0.965   1.996   6.992  0.4482 -1.1569  0.8839
 2366SOL     OW18556   1.831   3.460   3.392  0.0864  0.0747 -0.5637
 2366SOL    HW118557   1.799   3.444   3.303  0.5188  0.2295 -0.7509
 2366SOL    HW218558   1.779   3.537   3.416 -1.4290 -1.5466  1.3769
 2367SOL     OW18559   0.705   3.259   6.234 -0.4162  0.2823  0.0669
 2367SOL    HW118560   0.672   3.276   6.322 -0.4545 -0.0955  0.1292
 2367SOL    HW218561   0.665   3.328   6.181 -0.9623 -0.1130 -0.0385
 2368SOL     OW18562   2.030   1.552   9.405 -0.2087 -0.0403  0.1466
 2368SOL    HW118563   1.964   1.622   9.410 -2.0944 -1.7754 -0.2765
 2368SOL    HW218564   1.995   1.504   9.329  0.4832 -1.3764  0.6785
 2369SOL     OW18565   1.259   1.167   8.112 -0.1491 -0.0700 -0.6479
 2369SOL    HW118566   1.279   1.260   8.102 -3.0980  0.6937  0.4337
 2369SOL    HW218567   1.336   1.133   8.068  1.6641  1.1180  1.6140
 2370SOL     OW18568   0.570   1.165   7.955  0.3333  0.1289  0.0841
 2370SOL    HW118569   0.492   1.156   7.899 -0.1127 -0.9753  0.8666
 2370SOL    HW218570   0.633   1.154   7.884  0.6362  1.7017  0.1031
 2371SOL     OW18571   4.237   1.085   2.689  0.7436  0.6826 -0.1934
 2371SOL    HW118572   4.197   1.155   2.741 -2.2976 -0.0291 -1.5666
 2371SOL    HW218573   4.170   1.065   2.624 -0.9171  1.2317  1.3359
 2372SOL     OW18574   2.219   1.434   3.708  0.2226  0.0043 -0.3646
 2372SOL    HW118575   2.163   1.453   3.632  0.6789 -0.7357 -0.8829
 2372SOL    HW218576   2.285   1.386   3.658 -0.5150 -1.6829  0.2902
 2373SOL     OW18577   0.428   2.498  10.919 -0.4853 -0.0634  0.1261
 2373SOL    HW118578   0.388   2.544  10.846  0.3606 -0.1372 -0.3920
 2373SOL    HW218579   0.408   2.551  10.996 -1.2135 -1.7024  1.0631
 2374SOL     OW18580   4.711   1.559   3.345 -0.5510 -0.2810  0.5876
 2374SOL    HW118581   4.719   1.613   3.424  1.6460 -1.3766  1.1114
 2374SOL    HW218582   4.695   1.634   3.287  1.1421 -0.4052 -0.0492
 2375SOL     OW18583   3.428   2.115   6.583 -0.3248 -0.1603  0.2000
 2375SOL    HW118584   3.364   2.138   6.650  1.3249 -0.6969  1.9685
 2375SOL    HW218585   3.438   2.200   6.540  3.2249 -0.5595  0.2280
 2376SOL     OW18586   0.361   4.206   6.350  0.2188 -0.3485 -0.1555
 2376SOL    HW118587   0.272   4.179   6.327  0.6829 -2.2231  0.2776
 2376SOL    HW218588   0.383   4.124   6.393  1.5952 -1.6079 -3.2285
 2377SOL     OW18589   2.725   2.107  14.331 -0.2628 -0.1208  0.5289
 2377SOL    HW118590   2.717   2.192  14.375 -0.4944  0.2579 -0.2488
 2377SOL    HW218591   2.820   2.091  14.336 -0.4253 -0.8256  1.3305
 2378SOL     OW18592   3.994   3.394   2.434  0.1448  0.1200  0.7269
 2378SOL    HW118593   4.086   3.382   2.459 -0.0951 -2.7647  0.2459
 2378SOL    HW218594   3.976   3.461   2.499  1.0040  0.4939  0.5743
 2379SOL     OW18595   0.246   2.538   0.220  0.4382  0.2571  0.5549
 2379SOL    HW118596   0.249   2.541   0.125  0.1844  0.1471  0.5439
 2379SOL    HW218597   0.325   2.587   0.247  0.3730  0.4149  0.4610
 2380SOL     OW18598   0.296   2.675   0.943 -0.1833 -0.5889  0.0820
 2380SOL    HW118599   0.206   2.700   0.920 -0.3408 -0.1398  1.2033
 2380SOL    HW218600   0.265   2.617   1.012  0.7827 -2.0457 -0.7342
 2381SOL     OW18601   1.902   0.722   4.124  0.4005  0.7859 -0.4404
 2381SOL    HW118602   1.988   0.758   4.143  0.4162  1.0687 -1.0385
 2381SOL    HW218603   1.927   0.662   4.053  0.3450  0.1510  0.0768
 2382SOL     OW18604   2.425   0.010  16.068 -0.4754 -0.7085 -0.1593
 2382SOL    HW118605   2.397   0.087  16.118 -0.5750 -2.9184  3.1773
 2382SOL    HW218606   2.514   0.043  16.051 -0.2372 -1.0516  0.4073
 2383SOL     OW18607   1.167   4.334   8.734 -0.5355  0.2784  0.5462
 2383SOL    HW118608   1.117   4.310   8.812  1.9114 -0.4254  1.9107
 2383SOL    HW218609   1.196   4.422   8.760 -0.4209  0.6453 -0.8571
 2384SOL     OW18610   2.535   1.969  14.466 -0.1524  0.0889 -0.0788
 2384SOL    HW118611   2.583   2.028  14.407  0.8725 -1.1236 -0.4659
 2384SOL    HW218612   2.546   1.880  14.434 -1.8925  0.4051 -1.5287
 2385SOL     OW18613   1.203   4.016   2.737 -0.0805  0.1124  0.7009
 2385SOL    HW118614   1.144   4.001   2.810  0.0942  0.3463  0.8897
 2385SOL    HW218615   1.189   4.109   2.719 -2.8498 -0.5880 -0.6955
 2386SOL     OW18616   0.144   2.497   7.928 -0.2884 -0.2049 -0.2675
 2386SOL    HW118617   0.109   2.578   7.890 -1.1284 -0.1398  0.6406
 2386SOL    HW218618   0.068   2.445   7.902 -0.6907 -0.0389  0.5895
 2387SOL     OW18619   1.786   0.758   1.735  0.1783 -0.1523  0.5206
 2387SOL    HW118620   1.783   0.813   1.813 -0.7337  0.1964  0.2360
 2387SOL    HW218621   1.839   0.808   1.672 -0.1562 -0.1479  0.2448
 2388SOL     OW18622   1.598   3.865   5.755 -0.0533  0.2510  0.4539
 2388SOL    HW118623   1.516   3.900   5.721  0.8010  2.5097  0.7327
 2388SOL    HW218624   1.646   3.878   5.673  1.6376  1.7466  1.6889
 2389SOL     OW18625   3.104   0.246   1.800  0.5738  0.4508 -0.2621
 2389SOL    HW118626   3.136   0.238   1.890  1.3469 -1.9280 -0.7356
 2389SOL    HW218627   3.015   0.210   1.801  0.9750 -0.6393 -3.4847
 2390SOL     OW18628   1.128   0.074   3.380  0.1194  0.0357 -0.5760
 2390SOL    HW118629   1.211   0.081   3.333  1.3320  0.5507  1.6429
 2390SOL    HW218630   1.067   0.122   3.323 -2.6308 -2.4303  0.2624
 2391SOL     OW18631   1.876   3.092  15.145  0.0131  0.2472  0.3316
 2391SOL    HW118632   1.869   3.178  15.103 -1.8014 -0.5727 -1.0710
 2391SOL    HW218633   1.964   3.105  15.179 -1.6694  1.6931  4.1327
 2392SOL     OW18634   4.197   3.391   1.058 -0.1514 -0.6286 -0.0029
 2392SOL    HW118635   4.165   3.362   0.972 -1.2657 -0.3458  0.3201
 2392SOL    HW218636   4.223   3.306   1.092  2.9241 -0.0270 -0.8764
 2393SOL     OW18637   1.817   2.271   5.319  0.0361 -0.3639 -0.1183
 2393SOL    HW118638   1.799   2.274   5.225  2.2556 -1.8779 -0.6077
 2393SOL    HW218639   1.898   2.218   5.320  0.0799 -0.3066 -0.8265
 2394SOL     OW18640   0.748   3.280   3.051 -0.0240  0.2815  0.6353
 2394SOL    HW118641   0.688   3.319   3.115 -1.2051  0.6560 -0.6804
 2394SOL    HW218642   0.768   3.355   2.994  0.8079 -0.4669 -0.0466
 2395SOL     OW18643   1.412   1.809   7.084 -0.0014  0.8963  0.4399
 2395SOL    HW118644   1.360   1.729   7.084  0.7397  0.4103 -0.2148
 2395SOL    HW218645   1.390   1.844   7.170  2.3124  1.5061  0.7872
 2396SOL     OW18646   3.184   4.208   3.939 -0.0614 -0.4031 -0.2574
 2396SOL    HW118647   3.273   4.189   3.908  0.0059  1.4518 -1.1818
 2396SOL    HW218648   3.173   4.297   3.908  1.5444 -0.3911 -0.7866
 2397SOL     OW18649   3.585   4.398   1.688  0.4182  0.2217  0.2383
 2397SOL    HW118650   3.648   4.374   1.756  0.4054 -0.8876 -0.1372
 2397SOL    HW218651   3.629   4.383   1.604  1.5329  0.0066  0.8697
 2398SOL     OW18652   1.758   0.996   9.123 -0.2987  0.7738 -0.1499
 2398SOL    HW118653   1.802   0.941   9.188 -0.5225 -0.1056 -0.7441
 2398SOL    HW218654   1.759   1.081   9.166 -0.2274  0.5585  0.2796
 2399SOL     OW18655   0.711   0.602   6.830  0.4792 -0.2111 -0.1881
 2399SOL    HW118656   0.781   0.663   6.851  0.2608  0.0500 -0.2284
 2399SOL    HW218657   0.750   0.548   6.760  0.4370  0.7825 -0.9753
 2400SOL     OW18658   4.354   1.783   5.124 -0.1119 -0.3327  0.3570
 2400SOL    HW118659   4.280   1.728   5.099  0.9359 -1.6908  0.2197
 2400SOL    HW218660   4.390   1.797   5.036  0.1372 -2.2521  0.1442
 2401SOL     OW18661   0.183   2.796   8.728 -0.4700  0.3085 -0.2676
 2401SOL    HW118662   0.262   2.816   8.679 -0.0206 -2.3580 -0.6207
 2401SOL    HW218663   0.121   2.866   8.706 -0.8517 -0.7059 -2.3911
 2402SOL     OW18664   0.379   3.418   8.662 -0.0205  0.1756  0.3048
 2402SOL    HW118665   0.319   3.463   8.723 -0.9538 -0.4605 -0.1450
 2402SOL    HW218666   0.312   3.405   8.595  0.4383  2.6491 -0.6302
 2403SOL     OW18667   2.665   1.920  10.307 -0.4041  0.3435 -0.5571
 2403SOL    HW118668   2.691   1.967  10.228 -0.7631 -1.5461 -1.8144
 2403SOL    HW218669   2.692   1.975  10.380 -0.0689 -0.0144 -0.4081
 2404SOL     OW18670   2.649   4.009  17.406 -0.7625 -0.8555 -0.3812
 2404SOL    HW118671   2.582   4.077  17.407  1.5352  1.4217 -2.1042
 2404SOL    HW218672   2.612   3.935  17.358 -0.3441  0.4689 -2.7237
 2405SOL     OW18673   1.611   0.470   6.725 -0.3162 -0.3236 -0.4497
 2405SOL    HW118674   1.653   0.385   6.734  1.0825  0.3163 -0.9446
 2405SOL    HW218675   1.519   0.458   6.749 -0.3546 -0.4482 -0.6612
 2406SOL     OW18676   2.586   4.352   4.878 -0.7856  0.5021 -0.3536
 2406SOL    HW118677   2.654   4.284   4.878 -0.4763  0.8294  2.0182
 2406SOL    HW218678   2.567   4.366   4.971 -0.4486 -1.7780  0.0587
 2407SOL     OW18679   4.243   2.642   3.728  0.0076 -0.3117 -0.1511
 2407SOL    HW118680   4.300   2.664   3.802  2.0805  1.8827 -2.4206
 2407SOL    HW218681   4.212   2.729   3.703  0.0580 -0.9992 -2.5787
 2408SOL     OW18682   1.422   4.362   5.075 -0.0792 -0.1327 -0.6061
 2408SOL    HW118683   1.335   4.331   5.100  0.7251 -1.6243  0.3556
 2408SOL    HW218684   1.412   4.450   5.039 -0.6222  0.0955  0.1077
 2409SOL     OW18685   0.059   3.877   9.861 -0.5023 -0.1775 -0.4436
 2409SOL    HW118686   0.144   3.834   9.862 -0.4369 -0.0291  1.7314
 2409SOL    HW218687   0.079   3.967   9.835  0.7101 -1.3080 -3.3965
 2410SOL     OW18688   4.538   1.824   5.308  0.9012  0.2900  0.2568
 2410SOL    HW118689   4.605   1.887   5.284  0.2187  0.2022 -1.8124
 2410SOL    HW218690   4.479   1.823   5.234 -0.1313  0.1280  1.0844
 2411SOL     OW18691   2.320   0.854  12.432  0.1433 -0.4662 -0.5014
 2411SOL    HW118692   2.268   0.932  12.453  0.2628 -0.0860 -1.6158
 2411SOL    HW218693   2.306   0.803  12.511 -3.4202  0.2878 -0.6834
 2412SOL     OW18694   0.381   2.580   0.574  0.4045  0.2134 -0.2695
 2412SOL    HW118695   0.416   2.500   0.613 -1.6287 -0.3591  0.4185
 2412SOL    HW218696   0.401   2.640   0.645  1.2322 -0.4815  0.0764
 2413SOL     OW18697   2.092   1.321   8.254 -0.0425 -0.1347 -0.2138
 2413SOL    HW118698   2.088   1.382   8.328  0.1620 -1.2743  0.7329
 2413SOL    HW218699   2.040   1.356   8.181  1.0980 -0.6082 -1.2538
 2414SOL     OW18700   1.298   2.135   6.070  0.5057  0.4836  0.0766
 2414SOL    HW118701   1.334   2.124   5.982 -0.3524 -2.2077  0.0566
 2414SOL    HW218702   1.311   2.049   6.110  0.9936  0.7427  0.4706
 2415SOL     OW18703   2.642   1.039   2.122  0.2384 -0.1872 -0.1609
 2415SOL    HW118704   2.615   1.131   2.115 -1.0156 -0.5222  0.2740
 2415SOL    HW218705   2.728   1.043   2.080  0.3552 -0.5347  0.0509
 2416SOL     OW18706   0.183   3.518   0.073  0.1179  0.2134 -0.3172
 2416SOL    HW118707   0.127   3.577   0.024 -0.1221 -1.4964 -2.1134
 2416SOL    HW218708   0.246   3.488   0.008 -1.3432 -1.1536 -1.1121
 2417SOL     OW18709   0.867   1.950   3.117 -0.0391 -0.2893 -0.3101
 2417SOL    HW118710   0.817   1.932   3.038 -2.2736 -2.0621  1.5219
 2417SOL    HW218711   0.851   1.868   3.164 -0.7386 -0.7272 -1.3089
 2418SOL     OW18712   4.421   4.186   9.108  0.3512 -0.6379  0.6183
 2418SOL    HW118713   4.452   4.263   9.060 -1.0223  1.1294  2.5674
 2418SOL    HW218714   4.441   4.213   9.198 -0.0032  2.1252 -0.1332
 2419SOL     OW18715   2.206   3.692   5.097 -0.4379 -0.3701 -0.2371
 2419SOL    HW118716   2.227   3.775   5.139  0.7631  0.4458 -2.4216
 2419SOL    HW218717   2.255   3.639   5.159  1.6582  0.3746 -1.2540
 2420SOL     OW18718   1.385   0.286  14.652 -0.3223  0.1808 -0.0609
 2420SOL    HW118719   1.392   0.266  14.559  3.2722  0.6899  0.0793
 2420SOL    HW218720   1.313   0.349  14.647 -1.6526 -1.3474  0.1073
 2421SOL     OW18721   0.916   1.955   3.469  0.1011 -0.3121  0.1750
 2421SOL    HW118722   0.955   1.935   3.384 -0.2613  0.0885 -0.0905
 2421SOL    HW218723   0.993   1.966   3.524  0.1740 -2.1697  0.4261
 2422SOL     OW18724   0.949   0.668   8.592  0.1028 -0.5802  0.9892
 2422SOL    HW118725   1.004   0.594   8.619  0.2879 -1.1316 -0.8975
 2422SOL    HW218726   1.007   0.707   8.527 -1.7033  2.4279  1.1480
 2423SOL     OW18727   1.714   3.756   5.488  0.4747  0.0964 -0.2473
 2423SOL    HW118728   1.703   3.669   5.450 -0.6537  0.3586 -0.5189
 2423SOL    HW218729   1.651   3.806   5.436 -0.6460 -0.0470  0.9810
 2424SOL     OW18730   4.075   1.025  16.801  0.4257 -0.3356 -0.3893
 2424SOL    HW118731   4.012   1.024  16.729  0.0182 -1.7630 -0.0078
 2424SOL    HW218732   4.015   1.012  16.874  1.2275 -1.6366  0.0331
 2425SOL     OW18733   2.799   3.915   5.558  0.6341 -0.5664 -0.4898
 2425SOL    HW118734   2.784   3.895   5.465 -0.0021  1.6710 -0.8713
 2425SOL    HW218735   2.799   3.827   5.596  1.0373  0.1915  1.2593
 2426SOL     OW18736   2.125   0.647   2.649 -0.0924  0.2288 -0.6626
 2426SOL    HW118737   2.211   0.669   2.613 -0.1186  1.1780 -0.1516
 2426SOL    HW218738   2.144   0.660   2.742 -1.3089 -1.2440 -0.2137
 2427SOL     OW18739   1.126   0.853  15.436  0.4206  0.0323 -0.2227
 2427SOL    HW118740   1.141   0.772  15.388 -1.9121  0.2564 -1.3070
 2427SOL    HW218741   1.032   0.859  15.454  0.0585 -1.1776 -1.7616
 2428SOL     OW18742   4.420   1.251   5.184 -0.3531 -0.0019 -0.1519
 2428SOL    HW118743   4.495   1.193   5.177 -0.2648 -0.0034  0.7375
 2428SOL    HW218744   4.345   1.195   5.165 -0.0988 -0.1814 -0.6238
 2429SOL     OW18745   3.104   2.146   5.863 -0.3237  0.4465 -0.8927
 2429SOL    HW118746   3.052   2.138   5.783 -0.2993 -0.0630 -0.8588
 2429SOL    HW218747   3.037   2.188   5.917 -0.6489 -0.0735 -0.8936
 2430SOL     OW18748   3.488   3.032   4.861  0.3473  0.2098  0.4231
 2430SOL    HW118749   3.510   2.997   4.947  0.0855 -0.4863  0.2076
 2430SOL    HW218750   3.575   3.072   4.860 -0.3350  1.7160  1.1550
 2431SOL     OW18751   2.325   1.744   2.278  0.9426 -0.3061 -0.1948
 2431SOL    HW118752   2.330   1.786   2.192  1.1072  0.1798  0.0511
 2431SOL    HW218753   2.371   1.661   2.261 -1.6526 -1.7604 -0.1331
 2432SOL     OW18754   2.424   2.704   7.094 -0.0190 -0.0593  0.0547
 2432SOL    HW118755   2.456   2.780   7.143 -0.3863 -0.8624  1.5321
 2432SOL    HW218756   2.374   2.658   7.161 -0.8495 -0.7614 -1.0508
 2433SOL     OW18757   0.964   3.618   3.167  0.2003 -0.6304  0.0004
 2433SOL    HW118758   0.997   3.620   3.077  0.3735  1.5909  0.1142
 2433SOL    HW218759   0.975   3.710   3.193  0.8043 -0.3938 -1.1058
 2434SOL     OW18760   2.636   1.196  14.916  0.3944  0.3124  0.2257
 2434SOL    HW118761   2.564   1.167  14.858  0.6650 -1.3929  0.7295
 2434SOL    HW218762   2.679   1.256  14.856  0.2867  1.4473  1.2951
 2435SOL     OW18763   2.842   0.639   5.683  0.5943  0.3045  0.9007
 2435SOL    HW118764   2.870   0.552   5.713 -2.9986 -0.8711  0.8774
 2435SOL    HW218765   2.757   0.657   5.721  1.0986  1.3022  1.5590
 2436SOL     OW18766   1.942   3.092   9.061  0.2121  0.1964 -0.3630
 2436SOL    HW118767   1.874   3.079   8.994 -1.1106 -2.1995  1.4242
 2436SOL    HW218768   1.980   3.005   9.073 -1.9067 -0.5961  0.5921
 2437SOL     OW18769   2.846   2.519   8.371 -0.0628  0.2263  0.1735
 2437SOL    HW118770   2.812   2.517   8.461  0.0875  0.6471  0.2392
 2437SOL    HW218771   2.763   2.552   8.335  0.5110  2.7570  1.1477
 2438SOL     OW18772   2.021   0.020   8.857 -0.2999 -0.0834  0.2373
 2438SOL    HW118773   2.058   4.655   8.855 -1.3985 -0.5279 -0.7390
 2438SOL    HW218774   2.100   0.074   8.858 -0.0652 -0.4375  0.7115
 2439SOL     OW18775   1.203   2.592  16.133  0.0942 -0.3800  0.5760
 2439SOL    HW118776   1.203   2.569  16.040 -1.6289  0.1553  0.4485
 2439SOL    HW218777   1.296   2.600  16.155  0.9073 -2.2840 -2.1915
 2440SOL     OW18778   3.202   0.735   0.881  0.0417 -0.1332  0.0569
 2440SOL    HW118779   3.113   0.701   0.890  0.2741 -0.3540  1.4719
 2440SOL    HW218780   3.200   0.788   0.801 -2.0001  1.4689  1.1750
 2441SOL     OW18781   3.560   2.417  13.359  0.4723  0.2353  0.6668
 2441SOL    HW118782   3.521   2.345  13.409  0.1306  0.0464  0.1256
 2441SOL    HW218783   3.649   2.425  13.393  0.5133 -1.4957  0.9577
 2442SOL     OW18784   1.362   4.179   6.318 -0.8948  0.2812 -0.1914
 2442SOL    HW118785   1.399   4.204   6.233 -0.8585  1.7095  0.2407
 2442SOL    HW218786   1.270   4.205   6.309 -1.5056 -1.4847  1.1406
 2443SOL     OW18787   0.391   4.414  11.396 -0.5137 -0.1312  0.8541
 2443SOL    HW118788   0.478   4.406  11.434  0.4869  0.0219 -1.4064
 2443SOL    HW218789   0.386   4.507  11.373  2.1430 -0.4752 -1.0912
 2444SOL     OW18790   3.311   0.423  13.449 -0.0384  0.6786 -0.0269
 2444SOL    HW118791   3.310   0.369  13.528  1.2009  0.5789 -0.0790
 2444SOL    HW218792   3.405   0.416  13.432 -0.3106 -1.5526 -0.5628
 2445SOL     OW18793   2.594   1.300  12.436  0.2126  0.1266 -0.2460
 2445SOL    HW118794   2.511   1.315  12.390 -0.4380 -1.7649  0.3223
 2445SOL    HW218795   2.649   1.333  12.364  0.2223  1.7344  0.4863
 2446SOL     OW18796   4.456   4.699   9.349  0.2985 -0.0659  0.0051
 2446SOL    HW118797   4.530   0.003   9.402 -0.0676  2.6051 -0.8476
 2446SOL    HW218798   4.401   0.054   9.358 -0.2949 -0.2913 -1.7967
 2447SOL     OW18799   3.697   0.593   5.304 -0.0351 -0.5059  0.3805
 2447SOL    HW118800   3.608   0.619   5.281 -0.9281 -3.0205  0.9750
 2447SOL    HW218801   3.736   0.578   5.218 -2.5337 -0.2735 -0.8027
 2448SOL     OW18802   1.810   0.142   3.967  0.4883  0.1167 -0.1573
 2448SOL    HW118803   1.863   0.099   4.034  0.5021 -0.5003 -0.5650
 2448SOL    HW218804   1.837   0.089   3.893  2.3144 -1.3718  1.5749
 2449SOL     OW18805   3.588   0.691  12.350 -0.2136 -0.4933  0.0265
 2449SOL    HW118806   3.519   0.630  12.325 -0.6630  0.0216  0.0323
 2449SOL    HW218807   3.659   0.683  12.285 -0.7389  0.4045 -0.6596
 2450SOL     OW18808   3.142   0.873   6.821 -0.6097 -0.1038 -0.0114
 2450SOL    HW118809   3.093   0.949   6.790  0.9434  1.1716  0.6693
 2450SOL    HW218810   3.222   0.918   6.848  0.5325 -2.0570 -0.1073
 2451SOL     OW18811   3.572   2.630   3.487  0.0495  0.3193 -0.0229
 2451SOL    HW118812   3.613   2.703   3.534  1.7572 -1.0806  0.6415
 2451SOL    HW218813   3.494   2.678   3.457  0.3591 -0.2789 -1.7963
 2452SOL     OW18814   2.868   4.242   7.477  0.8565 -0.2107  0.1116
 2452SOL    HW118815   2.853   4.290   7.395 -0.5767  1.4243  1.3236
 2452SOL    HW218816   2.803   4.284   7.533  0.4722 -1.5665  0.6721
 2453SOL     OW18817   0.150   0.452   1.996  0.2778  0.3997 -0.1796
 2453SOL    HW118818   0.069   0.409   1.971 -0.3321  1.7770 -0.5456
 2453SOL    HW218819   0.102   0.520   2.044  1.8811  1.6981 -0.3867
 2454SOL     OW18820   2.897   1.356   7.855  0.1122 -0.0450 -0.0989
 2454SOL    HW118821   2.889   1.293   7.783 -2.3892  1.2255 -0.9097
 2454SOL    HW218822   2.981   1.397   7.834 -0.3283  1.3584  0.9036
 2455SOL     OW18823   4.161   2.057  11.878 -0.4717  0.3350  0.3304
 2455SOL    HW118824   4.239   2.021  11.921  0.1588 -0.5232 -1.5577
 2455SOL    HW218825   4.173   2.046  11.784  1.6842 -0.1995  0.6802
 2456SOL     OW18826   0.206   2.973   3.841  0.0254 -0.2912  0.0507
 2456SOL    HW118827   0.128   2.932   3.878 -0.3442 -0.8364 -1.3528
 2456SOL    HW218828   0.184   2.980   3.748 -2.2348 -0.1385  0.5941
 2457SOL     OW18829   3.443   4.465   7.956  0.2628 -0.4857 -0.2990
 2457SOL    HW118830   3.428   4.535   8.019 -2.3501 -3.2508  2.1740
 2457SOL    HW218831   3.537   4.451   7.949  0.1683 -1.1457 -0.2661
 2458SOL     OW18832   1.139   4.364   3.965  0.0422 -0.4072  0.4022
 2458SOL    HW118833   1.222   4.378   4.011 -1.2857 -2.0264  3.3109
 2458SOL    HW218834   1.077   4.321   4.023 -0.3593  0.1690  0.3958
 2459SOL     OW18835   2.327   3.975   4.141  0.2008  0.3653  0.1288
 2459SOL    HW118836   2.387   3.959   4.214  0.4313  0.8152  0.0362
 2459SOL    HW218837   2.279   4.049   4.179 -0.9345 -0.0995 -0.3885
 2460SOL     OW18838   3.938   1.971   4.573 -0.2198  0.2721  0.4047
 2460SOL    HW118839   3.932   2.060   4.606 -1.7541  0.3832 -0.1610
 2460SOL    HW218840   3.997   1.985   4.499  1.4608 -0.9413  1.5113
 2461SOL     OW18841   1.211   0.971   6.003  0.3371 -0.0945  0.0856
 2461SOL    HW118842   1.171   1.000   6.085  1.6964  1.1094  0.3187
 2461SOL    HW218843   1.273   0.907   6.039  0.9516  0.9969  0.9333
 2462SOL     OW18844   3.910   4.543  16.715  0.1742  0.1738  0.7953
 2462SOL    HW118845   3.965   4.608  16.671  0.2356  0.3180  1.0855
 2462SOL    HW218846   3.939   4.460  16.676  1.3194  2.7661 -3.9724
 2463SOL     OW18847   1.622   0.854  16.688 -0.3128 -0.2887 -0.1521
 2463SOL    HW118848   1.652   0.779  16.636  0.2449  0.6343 -1.1513
 2463SOL    HW218849   1.562   0.887  16.621  1.0576 -1.1058 -1.7830
 2464SOL     OW18850   0.303   2.537   9.611  0.5899  0.0696 -0.1338
 2464SOL    HW118851   0.368   2.532   9.541  1.0476 -2.2085  0.4457
 2464SOL    HW218852   0.367   2.565   9.676 -1.2677  1.7567  0.9435
 2465SOL     OW18853   2.093   4.092   3.115 -0.1493 -0.0467  0.1059
 2465SOL    HW118854   2.056   4.135   3.038 -0.7803 -0.6452  0.0678
 2465SOL    HW218855   2.104   4.003   3.080 -1.3137 -0.4603  0.7885
 2466SOL     OW18856   3.671   0.782   2.808  0.2658  0.2461 -0.0735
 2466SOL    HW118857   3.691   0.861   2.757 -0.8006  1.6410  1.6544
 2466SOL    HW218858   3.586   0.759   2.771 -0.5794  1.4083  1.1636
 2467SOL     OW18859   4.220   2.002   5.505  0.0181  0.6104  0.4024
 2467SOL    HW118860   4.228   2.032   5.415 -2.0238  2.5350  0.8282
 2467SOL    HW218861   4.271   1.922   5.497  0.3310  1.1024 -2.3964
 2468SOL     OW18862   2.995   1.389   7.605 -0.4104 -0.2747  0.1761
 2468SOL    HW118863   2.997   1.296   7.584 -1.2863 -0.4392  0.8489
 2468SOL    HW218864   3.072   1.409   7.658  0.4933 -1.8698 -0.5346
 2469SOL     OW18865   3.032   2.927   7.191 -0.0402 -0.4773 -0.0266
 2469SOL    HW118866   3.122   2.897   7.183 -0.6042 -1.7843 -1.5450
 2469SOL    HW218867   2.997   2.856   7.245  1.3087 -1.4058 -0.3792
 2470SOL     OW18868   2.564   0.526   4.725 -0.3507 -0.1557  0.0639
 2470SOL    HW118869   2.518   0.465   4.784 -0.1835  0.2493  0.6150
 2470SOL    HW218870   2.516   0.605   4.749 -0.7394 -0.4779  0.3588
 2471SOL     OW18871   1.121   0.980   2.691  0.4548  0.1549  0.3427
 2471SOL    HW118872   1.201   1.032   2.692  0.3005  0.4485 -2.7061
 2471SOL    HW218873   1.072   1.006   2.768 -1.4823  0.0674 -0.8528
 2472SOL     OW18874   1.576   3.253   3.664 -0.2563  0.0983 -0.4616
 2472SOL    HW118875   1.531   3.321   3.714  0.7474  1.8281 -1.8838
 2472SOL    HW218876   1.506   3.235   3.601 -0.7581  0.6026 -0.0392
 2473SOL     OW18877   3.106   3.732  11.709  0.0342 -0.2309  0.1240
 2473SOL    HW118878   3.051   3.807  11.732 -0.6382 -0.2430 -1.4762
 2473SOL    HW218879   3.189   3.775  11.689 -0.6725  0.8578 -0.4458
 2474SOL     OW18880   4.001   1.475  16.453  0.8714  0.0354 -0.7005
 2474SOL    HW118881   4.093   1.474  16.480  0.1717 -0.0771  1.6373
 2474SOL    HW218882   3.954   1.452  16.533  3.9986 -1.7844  0.6295
 2475SOL     OW18883   2.040   1.432   5.241 -0.1754  0.4924 -0.7774
 2475SOL    HW118884   2.134   1.414   5.238 -0.6555 -2.1075 -0.2439
 2475SOL    HW218885   2.015   1.418   5.150 -0.5489  0.3471 -0.6531
 2476SOL     OW18886   1.712   2.131   7.476  0.4028 -0.3442  0.2340
 2476SOL    HW118887   1.725   2.053   7.422  1.2804 -0.6744  0.9173
 2476SOL    HW218888   1.653   2.187   7.425  2.1671  0.6036 -0.7638
 2477SOL     OW18889   2.585   1.743  15.639  0.0408 -0.0471  0.0246
 2477SOL    HW118890   2.519   1.681  15.609 -0.4284  0.8417 -0.7856
 2477SOL    HW218891   2.628   1.757  15.554 -2.0944 -0.7204 -1.1828
 2478SOL     OW18892   3.512   0.131   4.029  0.3095  0.0727  0.4661
 2478SOL    HW118893   3.545   0.210   3.986  0.5437 -1.5143 -2.2627
 2478SOL    HW218894   3.556   0.115   4.112  1.0094  0.0030  0.0845
 2479SOL     OW18895   0.813   0.025   4.633  0.5241 -0.1251 -0.0341
 2479SOL    HW118896   0.764   0.108   4.629 -0.5960 -0.8871 -1.8831
 2479SOL    HW218897   0.744   4.693   4.597  0.1900  0.8714 -0.9176
 2480SOL     OW18898   0.043   0.563  10.073 -0.2988 -0.5167  0.0210
 2480SOL    HW118899   0.107   0.629  10.102 -0.7956  0.6843 -1.6534
 2480SOL    HW218900   4.720   0.546  10.156  1.9627  0.4537  1.4857
 2481SOL     OW18901   0.293   1.870  13.815 -0.0988  0.3267  0.4604
 2481SOL    HW118902   0.360   1.821  13.766  0.4661 -1.7691  3.3521
 2481SOL    HW218903   0.263   1.936  13.753 -2.2913 -0.4790  0.6402
 2482SOL     OW18904   2.583   1.115  10.339 -0.6995  0.3645  0.4429
 2482SOL    HW118905   2.515   1.048  10.349  0.7216 -1.2258 -0.5694
 2482SOL    HW218906   2.567   1.169  10.416 -1.8323  1.9925 -0.9386
 2483SOL     OW18907   0.397   3.709   5.001 -0.7107  0.0053  0.1559
 2483SOL    HW118908   0.361   3.793   4.972 -0.7479  0.1384  0.5915
 2483SOL    HW218909   0.319   3.667   5.038  0.2491  0.6505  2.9090
 2484SOL     OW18910   1.433   3.615  11.373 -0.3378  0.2581 -0.5651
 2484SOL    HW118911   1.436   3.521  11.356  1.2375 -0.0902  1.7437
 2484SOL    HW218912   1.371   3.632  11.302 -0.0708  2.8889 -0.1598
 2485SOL     OW18913   4.194   1.182   8.001 -0.1659 -0.1058 -0.1626
 2485SOL    HW118914   4.140   1.143   7.932  0.1122 -1.3629  0.3316
 2485SOL    HW218915   4.140   1.157   8.076 -1.0808  1.1922 -0.3748
 2486SOL     OW18916   2.099   4.448   4.576  0.3046  0.6131 -0.1243
 2486SOL    HW118917   2.185   4.459   4.615  0.9085  1.0319 -1.5744
 2486SOL    HW218918   2.068   4.535   4.600  0.0362  0.7065 -0.8016
 2487SOL     OW18919   2.264   3.162   7.242 -0.0879  0.2924 -0.4730
 2487SOL    HW118920   2.247   3.254   7.259  0.3514  0.9036 -3.3324
 2487SOL    HW218921   2.348   3.146   7.285  0.3650 -0.5209 -1.6427
 2488SOL     OW18922   0.851   4.187  16.150 -0.0407  0.0489  0.2440
 2488SOL    HW118923   0.793   4.156  16.220 -0.1030  0.4455  0.3678
 2488SOL    HW218924   0.916   4.241  16.194  2.8442 -2.8428 -0.4433
 2489SOL     OW18925   2.416   3.967  15.374 -0.4677 -0.5027 -0.6432
 2489SOL    HW118926   2.445   4.022  15.446 -0.8219 -2.5341  1.0604
 2489SOL    HW218927   2.330   4.001  15.348 -0.1375  0.1952 -0.8247
 2490SOL     OW18928   2.581   1.702  11.990 -0.7020 -0.1386 -0.0226
 2490SOL    HW118929   2.665   1.665  11.963 -0.6264  0.9034 -1.2109
 2490SOL    HW218930   2.606   1.783  12.034  3.0475  0.2701 -2.9842
 2491SOL     OW18931   1.843   0.793   2.999  0.1009 -0.2286  0.0699
 2491SOL    HW118932   1.792   0.798   3.080  0.6674  0.9329  0.3541
 2491SOL    HW218933   1.917   0.846   3.028 -1.1476  1.0010  1.0153
 2492SOL     OW18934   3.688   2.729   1.080  0.0364  0.1969  0.3380
 2492SOL    HW118935   3.710   2.638   1.065  0.1360  0.5080 -1.3939
 2492SOL    HW218936   3.751   2.751   1.149  0.8007 -1.0772  0.0312
 2493SOL     OW18937   0.239   2.702   8.324 -0.7686 -0.3262 -0.0687
 2493SOL    HW118938   0.189   2.779   8.297  2.7555  1.5428 -1.2856
 2493SOL    HW218939   0.251   2.706   8.419  1.1750 -1.1424 -0.2771
 2494SOL     OW18940   0.018   2.742  14.713  0.0541  0.3312  0.9748
 2494SOL    HW118941   4.703   2.654  14.707  0.7883 -0.0052  1.2582
 2494SOL    HW218942   4.666   2.787  14.752 -0.6340 -1.8372  2.1828
 2495SOL     OW18943   3.351   0.848   5.911  0.2059 -0.3587 -0.0983
 2495SOL    HW118944   3.401   0.871   5.833  2.2944  0.8504  1.6013
 2495SOL    HW218945   3.291   0.781   5.879  1.9743 -2.1039  0.1771
 2496SOL     OW18946   0.806   2.742   8.540  0.4293  0.2730  0.2322
 2496SOL    HW118947   0.789   2.826   8.581  0.1254  1.0644 -1.5021
 2496SOL    HW218948   0.900   2.732   8.557  0.9000 -0.2077 -2.5763
 2497SOL     OW18949   0.117   4.680   1.479  0.5587  0.1553 -0.7441
 2497SOL    HW118950   0.081   4.618   1.542  0.2286 -0.2440 -1.3237
 2497SOL    HW218951   0.127   0.031   1.538  1.6749 -0.9705  0.4874
 2498SOL     OW18952   4.217   4.405  13.245 -0.5140  0.4828 -0.2211
 2498SOL    HW118953   4.166   4.394  13.165  0.4469  0.9604 -0.9029
 2498SOL    HW218954   4.301   4.362  13.230 -1.2523 -0.6371 -1.1408
 2499SOL     OW18955   4.340   1.653  12.294  0.2646  0.3050  0.4599
 2499SOL    HW118956   4.418   1.700  12.265  2.0768 -2.2746  1.1580
 2499SOL    HW218957   4.355   1.573  12.243 -0.5163 -0.0500  0.7966
 2500SOL     OW18958   0.793   3.209   2.409 -0.5838  0.1820  0.1243
 2500SOL    HW118959   0.817   3.188   2.319  0.3185 -1.7882  0.8225
 2500SOL    HW218960   0.870   3.172   2.453 -1.6265  0.1464  1.9402
 2501SOL     OW18961   4.649   4.149   6.186  0.2876  0.7626 -0.2491
 2501SOL    HW118962   4.652   4.136   6.091  0.5814  0.0266 -0.1440
 2501SOL    HW218963   4.554   4.146   6.198  0.4487 -0.5465  0.6881
 2502SOL     OW18964   0.240   0.914   5.863 -0.3810  0.4013  0.0933
 2502SOL    HW118965   0.283   0.881   5.784 -1.2676 -0.9813  0.1953
 2502SOL    HW218966   0.211   0.829   5.895 -0.4372  1.7548  3.6332
 2503SOL     OW18967   3.455   2.621  10.037  0.0516  0.5708  0.4123
 2503SOL    HW118968   3.393   2.692  10.053 -0.3673  0.6970 -1.7608
 2503SOL    HW218969   3.488   2.642   9.949  0.6994  0.1481  0.5535
 2504SOL     OW18970   3.463   4.525   1.390 -0.4616  0.5422 -0.0683
 2504SOL    HW118971   3.413   4.451   1.354  0.5011 -0.1594  0.0315
 2504SOL    HW218972   3.550   4.488   1.403 -0.7193 -0.0584 -0.0322
 2505SOL     OW18973   4.504   2.134   7.047 -0.4964 -0.3188  0.2755
 2505SOL    HW118974   4.535   2.129   6.957  0.7318  1.0307  0.6188
 2505SOL    HW218975   4.486   2.042   7.064 -1.9942 -0.2360 -0.9090
 2506SOL     OW18976   2.423   3.033   8.580 -0.1862 -0.2594  0.1883
 2506SOL    HW118977   2.511   3.064   8.600 -0.3449 -0.1627  0.7247
 2506SOL    HW218978   2.436   2.976   8.504  2.1042  0.4575  0.0627
 2507SOL     OW18979   0.190   2.699   5.578 -0.9733 -0.8296  0.0108
 2507SOL    HW118980   0.189   2.626   5.640  3.4549  0.4987  1.5717
 2507SOL    HW218981   0.253   2.760   5.615 -0.0995 -0.6302 -1.8143
 2508SOL     OW18982   1.433   4.510   4.802  0.7649  0.1862 -0.4125
 2508SOL    HW118983   1.525   4.501   4.777  1.3350  2.4076  0.8291
 2508SOL    HW218984   1.411   4.569   4.730  0.8685 -1.2035 -1.5643
 2509SOL     OW18985   0.480   3.160   5.567 -0.5738  0.1562  0.3710
 2509SOL    HW118986   0.508   3.110   5.490  2.7730  0.7564  1.2111
 2509SOL    HW218987   0.542   3.233   5.564  1.5758 -1.6129  2.3563
 2510SOL     OW18988   0.105   1.761  14.234  0.4798  0.0726  0.6018
 2510SOL    HW118989   0.176   1.711  14.194  1.5679  1.9099  0.2666
 2510SOL    HW218990   0.147   1.802  14.309 -0.5524  1.8491  0.2014
 2511SOL     OW18991   3.141   3.665   3.593  0.0861 -0.2602  0.7803
 2511SOL    HW118992   3.084   3.736   3.562 -0.1834 -1.9192 -2.5065
 2511SOL    HW218993   3.070   3.617   3.637 -1.6645  0.9106 -0.7583
 2512SOL     OW18994   4.543   3.949   6.744  0.4101  0.3033  0.5347
 2512SOL    HW118995   4.569   3.867   6.785 -1.7289  1.1004  3.4589
 2512SOL    HW218996   4.603   3.956   6.670 -1.0005 -1.0965 -0.7415
 2513SOL     OW18997   4.237   0.442   4.778 -0.3952  0.0743 -0.1700
 2513SOL    HW118998   4.249   0.373   4.712  0.3313 -0.9232  0.9933
 2513SOL    HW218999   4.289   0.509   4.734  0.7230  1.4515  3.2301
 2514SOL     OW19000   3.752   0.587  17.612 -0.3161 -0.2438 -0.1940
 2514SOL    HW119001   3.662   0.573  17.581 -0.3833 -2.7848  1.1500
 2514SOL    HW219002   3.735   0.669  17.657 -0.4924 -0.9304  0.9874
 2515SOL     OW19003   4.212   3.230   3.778 -0.1549  0.4932  0.8687
 2515SOL    HW119004   4.236   3.318   3.807 -3.9155  1.4881  0.8971
 2515SOL    HW219005   4.181   3.247   3.689  1.6751 -0.0608  0.1055
 2516SOL     OW19006   3.966   4.504   1.379  0.8984  0.2452  0.1369
 2516SOL    HW119007   4.029   4.477   1.312  0.7307  2.3393 -0.8770
 2516SOL    HW219008   3.982   4.597   1.394  2.3242  0.4598 -2.7940
 2517SOL     OW19009   3.510   4.681   5.605  0.1434  0.1963  0.0993
 2517SOL    HW119010   3.592   4.642   5.576  1.0710  0.8780  1.8665
 2517SOL    HW219011   3.530   0.052   5.610  0.4780  0.2623 -2.3163
 2518SOL     OW19012   0.275   2.273   5.773 -0.4669  0.1023  0.4845
 2518SOL    HW119013   0.194   2.245   5.815 -1.8452  2.7707 -0.4749
 2518SOL    HW219014   0.279   2.362   5.807 -1.6992  0.2193  0.3017
 2519SOL     OW19015   2.005   1.203  14.981 -0.5401 -0.8180  0.3271
 2519SOL    HW119016   2.013   1.269  14.912  0.5383 -0.2594  0.9890
 2519SOL    HW219017   1.931   1.154  14.945 -1.6408  2.4140 -1.8064
 2520SOL     OW19018   3.842   2.192   4.230 -0.1423 -0.2206 -0.1220
 2520SOL    HW119019   3.872   2.168   4.142 -0.0453  1.9060 -0.6543
 2520SOL    HW219020   3.868   2.282   4.245 -0.0752 -0.1775 -0.5063
 2521SOL     OW19021   0.949   2.587   7.827  0.5888 -0.3230 -0.2602
 2521SOL    HW119022   0.864   2.543   7.833  0.7695 -0.5489  0.6134
 2521SOL    HW219023   0.974   2.583   7.919 -3.7355 -0.8410  0.9009
 2522SOL     OW19024   0.920   0.567   7.853  0.0905 -0.0868 -0.3952
 2522SOL    HW119025   1.011   0.543   7.831 -0.2571 -2.0569  0.2914
 2522SOL    HW219026   0.875   0.495   7.808  1.6362 -0.0671 -2.0110
 2523SOL     OW19027   1.197   4.073   7.640  0.6234  0.3494 -0.2001
 2523SOL    HW119028   1.183   3.980   7.655 -1.3015  0.8342  0.9945
 2523SOL    HW219029   1.258   4.074   7.566 -2.0430 -0.9905 -2.3922
 2524SOL     OW19030   3.835   4.561   6.008 -0.3467  0.1630 -0.4175
 2524SOL    HW119031   3.841   4.484   6.065  2.6270 -0.8553 -2.1219
 2524SOL    HW219032   3.896   4.616   6.056 -2.3596 -0.4840  2.9123
 2525SOL     OW19033   4.173   4.484  14.196  0.2057  0.1366  0.0354
 2525SOL    HW119034   4.226   4.561  14.216 -0.8657  0.6059  1.0666
 2525SOL    HW219035   4.229   4.448  14.128 -0.0969  0.3104 -0.3074
 2526SOL     OW19036   4.205   4.154  15.281  0.1718 -0.1154 -0.4582
 2526SOL    HW119037   4.294   4.132  15.254  0.6220 -0.9191  1.6203
 2526SOL    HW219038   4.232   4.171  15.372  0.4765 -0.0329 -0.5643
 2527SOL     OW19039   3.077   2.405   0.135  0.1321  0.0031 -0.1103
 2527SOL    HW119040   3.143   2.468   0.163 -0.6029  0.9075 -0.4392
 2527SOL    HW219041   3.018   2.408   0.211 -0.9316  1.0606 -0.9870
 2528SOL     OW19042   2.409   0.197   5.061 -0.1096  0.7142  0.0350
 2528SOL    HW119043   2.476   0.263   5.077  0.1701  0.6291 -0.7789
 2528SOL    HW219044   2.402   0.164   5.150 -1.8473  1.3971  0.1539
 2529SOL     OW19045   1.717   3.162   4.534 -0.5306  0.1393  0.4487
 2529SOL    HW119046   1.738   3.095   4.469  0.0014 -0.1057  0.8691
 2529SOL    HW219047   1.761   3.237   4.495  0.2928 -0.0761  0.9722
 2530SOL     OW19048   4.409   1.335  12.411 -0.0148 -0.3597 -0.3776
 2530SOL    HW119049   4.368   1.410  12.454  1.4988  0.2589 -0.0318
 2530SOL    HW219050   4.475   1.381  12.358  0.0072  2.5451  2.1794
 2531SOL     OW19051   0.633   3.690   2.436 -0.1735 -0.2701  0.8345
 2531SOL    HW119052   0.553   3.705   2.386  0.7319 -1.1092 -0.8563
 2531SOL    HW219053   0.630   3.595   2.447  0.2964 -0.3728 -0.0163
 2532SOL     OW19054   0.080   0.361   5.376 -0.5357  0.3514 -0.2561
 2532SOL    HW119055   0.173   0.379   5.390 -0.3865 -0.5118 -0.1632
 2532SOL    HW219056   0.091   0.286   5.318  1.2146  1.9519 -2.0264
 2533SOL     OW19057   1.272   1.554   4.058 -0.2071  0.4037 -0.2589
 2533SOL    HW119058   1.217   1.623   4.021  0.6721  1.1241 -0.1913
 2533SOL    HW219059   1.267   1.567   4.152  1.9422  0.1473 -0.1127
 2534SOL     OW19060   0.688   4.310   8.972 -0.2635 -0.2359 -0.1055
 2534SOL    HW119061   0.745   4.247   8.928 -1.0024  0.8456 -2.6073
 2534SOL    HW219062   0.708   4.279   9.061 -2.7498  0.6938  0.7651
 2535SOL     OW19063   2.806   1.826   2.994  0.4355 -0.2956 -0.2785
 2535SOL    HW119064   2.883   1.882   3.002  0.5800 -0.5694  0.2072
 2535SOL    HW219065   2.740   1.885   2.957  1.7747 -0.0341 -2.2406
 2536SOL     OW19066   4.402   2.417  15.184 -0.3687 -0.0189  0.3953
 2536SOL    HW119067   4.494   2.403  15.204 -0.0387  3.0717  1.0314
 2536SOL    HW219068   4.362   2.387  15.265 -0.0972  4.1496  2.0907
 2537SOL     OW19069   3.829   3.327   2.998 -0.7556  0.3807  0.1664
 2537SOL    HW119070   3.830   3.313   2.904 -2.0298  0.2492  0.1667
 2537SOL    HW219071   3.910   3.281   3.020 -1.0069  0.4975  1.3366
 2538SOL     OW19072   2.617   3.148  16.643 -0.5154 -0.7696 -0.0832
 2538SOL    HW119073   2.711   3.135  16.626  0.4525  1.9449  3.1493
 2538SOL    HW219074   2.592   3.230  16.600  0.7119 -0.4865 -0.2572
 2539SOL     OW19075   1.870   2.745  13.249  0.0898 -0.0997 -0.2955
 2539SOL    HW119076   1.943   2.703  13.293  1.5539  1.4471 -1.2618
 2539SOL    HW219077   1.813   2.669  13.238 -1.4049  1.0107 -0.3058
 2540SOL     OW19078   4.618   1.194  16.684 -0.3667  0.1205 -0.2637
 2540SOL    HW119079   4.681   1.132  16.646 -3.2255 -1.9693 -1.5790
 2540SOL    HW219080   4.615   1.268  16.623 -0.6185 -0.3369 -0.8072
 2541SOL     OW19081   1.309   1.360   5.228 -0.8751  0.1919 -1.0557
 2541SOL    HW119082   1.221   1.392   5.251 -0.6530  0.2506 -0.2822
 2541SOL    HW219083   1.367   1.431   5.254  0.0637 -1.7487  2.1568
 2542SOL     OW19084   2.625   0.038  13.340 -0.2545  0.4026  0.1061
 2542SOL    HW119085   2.538   0.020  13.303 -0.8244  2.0080  0.6472
 2542SOL    HW219086   2.658   0.108  13.283 -0.3897 -1.7305 -2.6316
 2543SOL     OW19087   2.147   3.746   1.552  0.1420 -0.3482  0.6005
 2543SOL    HW119088   2.115   3.684   1.487  2.7427 -1.2337  0.1597
 2543SOL    HW219089   2.195   3.791   1.483  2.4184 -1.8766  1.1866
 2544SOL     OW19090   4.319   2.448   4.951 -0.1539 -0.3304 -0.1334
 2544SOL    HW119091   4.334   2.535   4.989  1.8503 -0.9658  0.5139
 2544SOL    HW219092   4.306   2.482   4.862  3.0273  4.1325  1.1270
 2545SOL     OW19093   3.484   2.343   2.834 -0.8586 -0.2794  0.6235
 2545SOL    HW119094   3.399   2.337   2.790 -0.7625  2.3329  0.0488
 2545SOL    HW219095   3.467   2.298   2.916  0.0198  0.0743  0.9990
 2546SOL     OW19096   1.140   3.136  11.778  0.0369  0.1904  0.7159
 2546SOL    HW119097   1.236   3.136  11.771  0.0808 -0.4601  1.3960
 2546SOL    HW219098   1.114   3.219  11.737  1.5380  0.4293  0.2339
 2547SOL     OW19099   1.153   3.511  10.223  0.1759  0.6224 -0.4888
 2547SOL    HW119100   1.152   3.527  10.129  2.2058 -0.6519 -0.7289
 2547SOL    HW219101   1.243   3.525  10.250 -0.9023  1.4756  2.7053
 2548SOL     OW19102   1.215   2.955   6.057 -0.0058 -0.3238 -0.1826
 2548SOL    HW119103   1.227   2.981   5.966  0.1891 -2.1597 -0.6815
 2548SOL    HW219104   1.144   3.015   6.081  0.8825 -0.0376  1.7081
 2549SOL     OW19105   0.378   0.489   1.865 -0.2477  0.3396  0.2268
 2549SOL    HW119106   0.292   0.485   1.906 -0.6797 -0.9998 -0.7877
 2549SOL    HW219107   0.415   0.566   1.908 -0.2480  1.7134 -2.2181
 2550SOL     OW19108   4.297   0.827   1.445 -0.6200 -0.0027 -0.5286
 2550SOL    HW119109   4.362   0.769   1.485  0.3747  1.8051  0.4628
 2550SOL    HW219110   4.299   0.800   1.353 -3.6610 -1.0534 -0.2872
 2551SOL     OW19111   4.068   0.731   5.334 -0.1642  0.5732  0.3032
 2551SOL    HW119112   4.011   0.727   5.410  0.9688 -1.0606  1.0757
 2551SOL    HW219113   4.021   0.781   5.267 -1.1304  1.2659  1.5065
 2552SOL     OW19114   3.062   3.393   9.758 -0.7802  0.3321 -0.2146
 2552SOL    HW119115   2.993   3.332   9.786  1.1572 -0.5089  2.8354
 2552SOL    HW219116   3.137   3.334   9.747 -2.3277 -1.3071 -2.0754
 2553SOL     OW19117   3.790   1.704   9.851  0.4558  0.0376  0.3322
 2553SOL    HW119118   3.748   1.618   9.854  0.1450  0.1744 -0.1469
 2553SOL    HW219119   3.880   1.683   9.875  0.1057 -0.0742  1.5993
 2554SOL     OW19120   4.529   3.594   4.455  0.0821 -0.5990 -0.2420
 2554SOL    HW119121   4.492   3.506   4.462 -0.0443 -0.4243  1.1455
 2554SOL    HW219122   4.456   3.651   4.481 -0.0823 -1.0135  0.1890
 2555SOL     OW19123   1.608   2.489  11.262  0.0638  0.0890 -0.1619
 2555SOL    HW119124   1.699   2.515  11.245  0.2037 -0.0885  0.3431
 2555SOL    HW219125   1.568   2.489  11.174 -0.2214  0.4384 -0.0330
 2556SOL     OW19126   3.198   0.091  13.415  0.7180  0.7848  0.3809
 2556SOL    HW119127   3.288   0.097  13.385  0.5940 -1.2160 -0.4278
 2556SOL    HW219128   3.164   0.027  13.352  2.8096  1.3961 -1.3529
 2557SOL     OW19129   3.804   2.767  10.364  0.0279 -0.2351  0.2161
 2557SOL    HW119130   3.719   2.758  10.323  0.2381 -2.0595  0.1854
 2557SOL    HW219131   3.772   2.740  10.450 -3.8196  0.6329 -0.9792
 2558SOL     OW19132   3.523   1.753   2.853 -0.4152  0.7567 -0.1476
 2558SOL    HW119133   3.526   1.660   2.831 -1.8825  0.8897 -0.9272
 2558SOL    HW219134   3.449   1.784   2.801  0.6708  1.2169 -1.4010
 2559SOL     OW19135   0.765   0.934   9.417  0.9732 -0.1035 -0.7092
 2559SOL    HW119136   0.758   0.969   9.328 -1.2494  3.4547  0.8925
 2559SOL    HW219137   0.860   0.925   9.422  0.7089 -1.1148  2.1741
 2560SOL     OW19138   2.331   2.916   6.542  0.6187  0.1220 -0.0156
 2560SOL    HW119139   2.328   2.883   6.452 -0.3787 -0.9621  0.4112
 2560SOL    HW219140   2.244   2.954   6.558  0.0907 -1.8947  1.8736
 2561SOL     OW19141   3.744   0.531   7.818  0.8653  0.1615 -0.1371
 2561SOL    HW119142   3.826   0.580   7.824  0.5155  0.8952 -1.2106
 2561SOL    HW219143   3.688   0.600   7.853  2.1416  0.4850  1.2414
 2562SOL     OW19144   1.206   1.047   2.297  0.4485 -0.1146  0.6483
 2562SOL    HW119145   1.154   1.031   2.218 -0.9822  1.0549  1.3444
 2562SOL    HW219146   1.185   0.968   2.347 -0.3748  0.5187  1.3045
 2563SOL     OW19147   1.252   0.537   8.311 -0.8100  0.1628  0.5049
 2563SOL    HW119148   1.185   0.528   8.242  0.2752 -0.4130 -0.4767
 2563SOL    HW219149   1.194   0.552   8.385 -0.8446  0.3762  0.4352
 2564SOL     OW19150   1.628   0.444   9.844 -0.5006 -0.1047  0.0465
 2564SOL    HW119151   1.702   0.475   9.897 -1.0887  0.4922  0.5148
 2564SOL    HW219152   1.615   0.364   9.896  2.1853 -1.8662 -2.0364
 2565SOL     OW19153   4.632   0.268  15.708 -0.6497  0.8972  0.4801
 2565SOL    HW119154   4.705   0.325  15.682 -1.4780  1.5602 -0.4060
 2565SOL    HW219155   4.661   0.242  15.795 -0.5114  0.6624  0.3627
 2566SOL     OW19156   0.967   1.591  17.376  0.5904 -0.5281 -0.2381
 2566SOL    HW119157   1.050   1.590  17.423 -0.8313 -1.3962  2.2303
 2566SOL    HW219158   1.007   1.609  17.291 -1.6470  0.1909 -1.1433
 2567SOL     OW19159   1.850   0.357  11.368  0.1652  0.4124  0.3244
 2567SOL    HW119160   1.790   0.379  11.297  0.3640  2.2162  0.7158
 2567SOL    HW219161   1.923   0.315  11.322  1.9731  2.3392  1.4565
 2568SOL     OW19162   3.453   2.443   5.039  0.2237  0.1229 -0.5817
 2568SOL    HW119163   3.360   2.421   5.043 -0.2271  1.6902 -2.4303
 2568SOL    HW219164   3.436   2.537   5.047  0.7275  0.1937 -0.3473
 2569SOL     OW19165   0.883   3.311   8.311  0.0744  0.8733  0.0421
 2569SOL    HW119166   0.805   3.367   8.310  0.0892  0.8143 -4.2459
 2569SOL    HW219167   0.899   3.314   8.217 -0.4784  2.2764 -0.0057
 2570SOL     OW19168   2.863   0.446   0.712  0.4545  0.0032  0.1651
 2570SOL    HW119169   2.892   0.482   0.796  3.0228  0.0131 -0.7331
 2570SOL    HW219170   2.782   0.497   0.703  0.3702 -0.4895 -1.8177
 2571SOL     OW19171   1.210   1.904   2.705 -0.6481  0.0106 -0.0405
 2571SOL    HW119172   1.118   1.880   2.720 -0.2135 -0.0646  2.4108
 2571SOL    HW219173   1.204   1.964   2.631 -1.0890 -0.0098 -0.0205
 2572SOL     OW19174   2.469   0.558   7.767 -0.1048 -0.4747 -0.3227
 2572SOL    HW119175   2.402   0.573   7.701  1.3914 -0.9541 -1.9534
 2572SOL    HW219176   2.527   0.495   7.724 -1.5861 -1.1630 -1.3131
 2573SOL     OW19177   1.126   3.594  11.456  0.0015 -0.4491  0.4963
 2573SOL    HW119178   1.091   3.639  11.379  0.7318 -0.9432 -0.1210
 2573SOL    HW219179   1.151   3.663  11.517  2.3276  1.0706 -2.2321
 2574SOL     OW19180   0.154   2.414  16.773 -0.9279 -0.4319  0.3870
 2574SOL    HW119181   0.187   2.504  16.762  0.5644 -0.9869  0.2385
 2574SOL    HW219182   0.224   2.367  16.819  0.6501  2.3826  0.8892
 2575SOL     OW19183   1.303   1.244  15.252  0.2225  0.1231  0.1776
 2575SOL    HW119184   1.359   1.211  15.182  0.3915 -1.7748  1.2194
 2575SOL    HW219185   1.358   1.311  15.292  0.1041 -1.1567  2.4878
 2576SOL     OW19186   2.460   1.517   2.179 -0.4690 -0.1358 -0.3267
 2576SOL    HW119187   2.492   1.489   2.094  0.7631 -2.0346  0.7833
 2576SOL    HW219188   2.406   1.441   2.199  2.4934 -1.7700  1.4300
 2577SOL     OW19189   1.975   4.344   1.096  0.1388 -0.1720 -0.0612
 2577SOL    HW119190   2.051   4.316   1.146 -0.4786  0.3782  1.1808
 2577SOL    HW219191   1.981   4.291   1.017 -0.0319  0.3658 -0.4359
 2578SOL     OW19192   2.564   2.788   2.758 -0.6730  0.6965  0.1298
 2578SOL    HW119193   2.610   2.855   2.809 -0.4406  0.8502 -0.2835
 2578SOL    HW219194   2.603   2.816   2.675 -2.5440  1.9074 -0.3309
 2579SOL     OW19195   4.702   1.837   6.316  0.2090 -0.3598  0.2067
 2579SOL    HW119196   0.037   1.911   6.324 -0.6801  0.4951 -1.2115
 2579SOL    HW219197   4.625   1.874   6.358  0.5683  0.1521  0.4024
 2580SOL     OW19198   0.421   1.837   8.070  0.7433 -0.2743  0.6515
 2580SOL    HW119199   0.420   1.931   8.050 -2.1568 -0.6748 -1.2066
 2580SOL    HW219200   0.401   1.841   8.164 -0.6906  0.9638  0.3023
 2581SOL     OW19201   3.820   3.503   3.207 -0.3976  0.1414  0.0849
 2581SOL    HW119202   3.910   3.532   3.191 -0.8414  0.9801 -0.9308
 2581SOL    HW219203   3.805   3.448   3.130 -2.3796  1.2456 -0.3139
 2582SOL     OW19204   3.568   2.763   8.940  0.8842  0.3048 -0.2140
 2582SOL    HW119205   3.568   2.683   8.887  2.2517 -1.0078  1.7521
 2582SOL    HW219206   3.663   2.762   8.956  0.7584  1.6732  0.5768
 2583SOL     OW19207   1.848   2.128   1.011  0.2658  0.6258 -0.6219
 2583SOL    HW119208   1.809   2.188   1.075  0.6248  0.3178 -0.1140
 2583SOL    HW219209   1.863   2.056   1.072 -1.7462  2.2454  1.8187
 2584SOL     OW19210   2.184   2.630   8.636  0.2952 -0.1649  0.3473
 2584SOL    HW119211   2.090   2.623   8.620  0.4212  0.7572 -0.8119
 2584SOL    HW219212   2.208   2.722   8.629  0.1158 -0.1847 -0.6090
 2585SOL     OW19213   0.874   1.375   6.868 -0.1464  0.3208  0.1359
 2585SOL    HW119214   0.809   1.407   6.805  1.3695  1.1644 -1.0153
 2585SOL    HW219215   0.896   1.292   6.825  0.7220  1.5223 -1.7563
 2586SOL     OW19216   3.427   0.073   6.813 -0.0471 -0.0002 -0.1559
 2586SOL    HW119217   3.467   0.021   6.884  0.1490 -1.3913 -1.2952
 2586SOL    HW219218   3.377   0.136   6.866  0.1082 -1.0488  1.2647
 2587SOL     OW19219   1.464   3.763  11.617 -0.3601  0.3328  0.3369
 2587SOL    HW119220   1.443   3.718  11.535  0.9859 -0.2832  0.3277
 2587SOL    HW219221   1.376   3.795  11.639 -1.4413 -3.3760  1.4282
 2588SOL     OW19222   2.231   1.148   6.553  0.6933  0.3073 -0.0446
 2588SOL    HW119223   2.250   1.065   6.508  0.1389 -0.6807  1.5363
 2588SOL    HW219224   2.316   1.192   6.546  0.0602  1.3054 -1.2843
 2589SOL     OW19225   3.849   3.398   8.139 -0.2910 -0.6688 -0.0421
 2589SOL    HW119226   3.799   3.449   8.076 -0.1718  0.3256  0.6601
 2589SOL    HW219227   3.905   3.336   8.093 -0.5972 -0.3211 -0.8733
 2590SOL     OW19228   0.451   2.682  15.467 -0.0704 -0.3168  0.4777
 2590SOL    HW119229   0.364   2.692  15.506  0.5824  1.1571  1.5697
 2590SOL    HW219230   0.441   2.692  15.372 -2.7326  0.6124  0.8716
 2591SOL     OW19231   0.675   2.764   6.348 -0.0396 -0.6282  0.0144
 2591SOL    HW119232   0.624   2.836   6.312  1.6379  0.4351 -0.2275
 2591SOL    HW219233   0.760   2.802   6.324  0.1284 -1.1620 -0.2372
 2592SOL     OW19234   1.590   1.655  16.134 -0.0882 -0.1187 -0.0838
 2592SOL    HW119235   1.508   1.641  16.182  0.2901 -0.5721  0.4189
 2592SOL    HW219236   1.602   1.562  16.119 -1.0732 -0.3458  0.5021
 2593SOL     OW19237   4.362   3.847  11.856  0.0832 -0.2554 -0.9022
 2593SOL    HW119238   4.356   3.861  11.762 -2.4176 -0.6017 -0.7828
 2593SOL    HW219239   4.433   3.783  11.853  0.9751  0.6504  0.5427
 2594SOL     OW19240   4.291   2.637   8.536 -0.4174 -0.0800 -0.2898
 2594SOL    HW119241   4.306   2.691   8.613 -0.9736 -0.4802  0.0906
 2594SOL    HW219242   4.364   2.666   8.480 -1.8865  2.5759 -0.8645
 2595SOL     OW19243   3.377   4.062   7.139 -0.1147  0.1922 -0.0443
 2595SOL    HW119244   3.385   3.966   7.144 -0.7590  0.0436 -1.9122
 2595SOL    HW219245   3.302   4.068   7.199 -1.7452 -2.5444 -1.7776
 2596SOL     OW19246   0.893   1.995   7.870 -0.2589 -0.3491 -0.0254
 2596SOL    HW119247   0.897   1.987   7.775  0.0131 -2.0584  0.1309
 2596SOL    HW219248   0.799   2.013   7.871 -0.4286 -1.2625  0.0239
 2597SOL     OW19249   0.219   4.338   3.521  0.2990 -0.0808  0.0541
 2597SOL    HW119250   0.148   4.392   3.555  1.7317 -0.1606  3.1449
 2597SOL    HW219251   0.268   4.407   3.476  0.4389 -0.3836 -0.2622
 2598SOL     OW19252   0.278   0.043   8.035  0.3548  0.1122  0.6065
 2598SOL    HW119253   0.230   0.124   8.020  0.7729  0.2335 -0.0673
 2598SOL    HW219254   0.240   4.710   7.967  1.6965 -0.6076  0.4525
 2599SOL     OW19255   2.553   2.130   9.414 -0.4885 -0.3486  0.0293
 2599SOL    HW119256   2.547   2.052   9.469  2.8641 -0.7757 -0.2060
 2599SOL    HW219257   2.644   2.122   9.385 -0.2125 -0.9542  1.0577
 2600SOL     OW19258   4.193   1.622   6.759 -0.2061  0.4258  0.1689
 2600SOL    HW119259   4.140   1.602   6.836 -2.6471  1.3595 -1.2422
 2600SOL    HW219260   4.275   1.575   6.773 -0.9091 -0.5409  1.0523
 2601SOL     OW19261   3.306   4.426   2.629  0.2719 -0.6457  0.0428
 2601SOL    HW119262   3.384   4.372   2.614  0.9046  0.0167  0.9208
 2601SOL    HW219263   3.306   4.475   2.547 -3.5840 -1.7109 -0.5693
 2602SOL     OW19264   0.091   2.037   3.051 -0.1334  0.0603 -0.3684
 2602SOL    HW119265   0.104   2.093   2.975 -0.2324 -0.3712 -0.7063
 2602SOL    HW219266   0.031   1.968   3.022 -1.4939  0.8100  0.6298
 2603SOL     OW19267   4.613   2.997   8.944 -0.4799  0.6372 -0.1087
 2603SOL    HW119268   4.542   2.960   8.890 -0.1756 -1.8629  1.2001
 2603SOL    HW219269   4.666   3.037   8.875 -0.4290 -1.4174 -1.2989
 2604SOL     OW19270   2.661   2.376  10.318  0.2169  0.1605 -0.5118
 2604SOL    HW119271   2.609   2.299  10.297  0.4285  0.4926 -2.1945
 2604SOL    HW219272   2.632   2.362  10.408  3.3619 -1.5982  0.2528
 2605SOL     OW19273   4.545   2.252  17.468  0.2743  0.4816 -0.3575
 2605SOL    HW119274   4.524   2.294  17.385  1.5760  0.9167 -0.4685
 2605SOL    HW219275   4.474   2.280  17.526 -0.1329 -0.3097 -0.4851
 2606SOL     OW19276   1.348   2.126   7.275 -0.1523  0.1217 -0.4866
 2606SOL    HW119277   1.435   2.158   7.250 -0.4263  1.8576  0.7411
 2606SOL    HW219278   1.374   2.040   7.309  0.5450  1.3633  2.1434
 2607SOL     OW19279   1.815   0.705   9.621  0.1172 -0.7189 -0.8495
 2607SOL    HW119280   1.905   0.708   9.653 -0.5195 -2.4271  1.0678
 2607SOL    HW219281   1.767   0.682   9.700  2.3500  3.1556  1.6109
 2608SOL     OW19282   1.953   1.553  12.889  0.8858  0.0073 -0.0827
 2608SOL    HW119283   1.905   1.595  12.818 -0.0403  0.6233  0.9008
 2608SOL    HW219284   1.948   1.460  12.868 -1.4445  0.1647 -0.2221
 2609SOL     OW19285   1.492   3.532  16.712  0.1078  0.2471  0.1579
 2609SOL    HW119286   1.412   3.571  16.676 -0.3589 -0.2850  0.6085
 2609SOL    HW219287   1.467   3.506  16.801  0.9868 -0.3889  0.2230
 2610SOL     OW19288   3.406   1.985  13.668  0.7984 -0.3671 -0.3211
 2610SOL    HW119289   3.475   1.929  13.633  0.4159 -1.7213  1.1321
 2610SOL    HW219290   3.439   2.029  13.747  1.4845 -0.0539 -0.7794
 2611SOL     OW19291   2.119   3.531  10.777 -0.3221  0.2846 -0.6452
 2611SOL    HW119292   2.143   3.484  10.857 -0.7195 -0.8159 -1.1768
 2611SOL    HW219293   2.121   3.621  10.809 -1.7747  0.0668  0.0957
 2612SOL     OW19294   0.977   4.719   5.838 -0.4709 -0.8629 -0.4499
 2612SOL    HW119295   1.037   0.018   5.910 -1.3780 -0.7699  0.2790
 2612SOL    HW219296   1.019   0.036   5.762 -0.1677  0.0187  0.1853
 2613SOL     OW19297   2.505   1.521   5.793 -0.0689 -0.4237  0.2803
 2613SOL    HW119298   2.572   1.538   5.859  0.9155 -1.0508 -0.5507
 2613SOL    HW219299   2.528   1.577   5.719  0.5409  0.1787  0.9275
 2614SOL     OW19300   2.083   0.860  11.006 -0.1200  0.4768 -0.1327
 2614SOL    HW119301   2.128   0.913  11.071  0.1549  0.6344 -0.4539
 2614SOL    HW219302   2.049   0.933  10.954  0.4909  0.5228 -0.4658
 2615SOL     OW19303   3.674   3.950   4.319  0.3711 -0.3713  0.1795
 2615SOL    HW119304   3.637   3.919   4.401 -3.0146  1.8421 -0.5079
 2615SOL    HW219305   3.609   3.938   4.249  1.4699 -1.1700 -0.7208
 2616SOL     OW19306   1.481   1.054   6.936 -0.6384  0.1454  0.5221
 2616SOL    HW119307   1.448   1.140   6.963  1.2784  1.1707 -0.3777
 2616SOL    HW219308   1.514   1.079   6.849  1.2741 -1.5099  0.7638
 2617SOL     OW19309   2.945   3.900   5.152 -0.1971 -0.1906  0.1407
 2617SOL    HW119310   2.851   3.887   5.168 -0.4124  0.2970 -0.7074
 2617SOL    HW219311   2.962   3.847   5.075  0.1530 -0.6816  0.5596
 2618SOL     OW19312   1.429   1.630   9.898 -0.2964 -0.4383  0.9576
 2618SOL    HW119313   1.401   1.679   9.820  0.5292  3.0183  2.8355
 2618SOL    HW219314   1.358   1.567   9.907 -0.7088 -0.0848  0.2427
 2619SOL     OW19315   0.164   1.962   4.610 -0.1958 -0.0567 -0.3541
 2619SOL    HW119316   0.165   1.867   4.616 -0.4635 -0.0318  0.0706
 2619SOL    HW219317   0.257   1.984   4.608 -0.1361 -0.5214 -2.7800
 2620SOL     OW19318   2.734   4.269   5.390 -0.3277  0.5621 -0.4322
 2620SOL    HW119319   2.768   4.207   5.455  1.8474  0.2498 -1.8449
 2620SOL    HW219320   2.800   4.339   5.384 -1.5278  1.9751  2.7396
 2621SOL     OW19321   0.338   0.218   7.251  0.5769  0.1422 -0.2120
 2621SOL    HW119322   0.388   0.170   7.317 -0.3935 -1.0458 -0.3403
 2621SOL    HW219323   0.359   0.164   7.175  3.2507  0.7809  0.0915
 2622SOL     OW19324   2.695   0.176  12.309  0.0552  0.4236  0.5654
 2622SOL    HW119325   2.681   0.125  12.389  1.3094  1.9585  1.7722
 2622SOL    HW219326   2.619   0.154  12.256  2.3752  0.3158 -2.7578
 2623SOL     OW19327   1.135   3.200   8.846 -0.0621 -0.1813  0.1726
 2623SOL    HW119328   1.229   3.183   8.835 -0.1608  1.8733 -3.5221
 2623SOL    HW219329   1.120   3.177   8.938 -3.4869 -3.2000 -1.1364
 2624SOL     OW19330   0.459   2.664   2.527 -0.1756  0.3423  0.3790
 2624SOL    HW119331   0.444   2.688   2.618  1.0543 -1.0594  0.9468
 2624SOL    HW219332   0.431   2.573   2.511  0.0731  0.2954  0.2094
 2625SOL     OW19333   2.466   2.638  14.838 -0.3380 -0.3970  0.5748
 2625SOL    HW119334   2.414   2.609  14.913  0.1504 -1.8373  0.3604
 2625SOL    HW219335   2.493   2.724  14.871 -1.9189 -0.1596  1.2610
 2626SOL     OW19336   2.987   0.578   6.029 -0.4957  0.4638  0.7254
 2626SOL    HW119337   3.006   0.622   6.111  1.0253  0.9454  0.0993
 2626SOL    HW219338   2.898   0.541   6.031 -0.1070 -0.5008  0.3736
 2627SOL     OW19339   4.101   4.456   2.998 -0.0329  0.4811 -0.0604
 2627SOL    HW119340   4.180   4.430   3.044 -0.7395 -0.5435  0.5650
 2627SOL    HW219341   4.119   4.540   2.955  0.4816  0.2075 -0.3840
 2628SOL     OW19342   3.631   1.114   4.009 -0.0765 -0.0070  0.2984
 2628SOL    HW119343   3.677   1.186   3.965  1.1070 -1.7692 -1.3581
 2628SOL    HW219344   3.565   1.101   3.940  1.7607 -1.2022 -1.2348
 2629SOL     OW19345   3.059   4.437   6.089 -0.3568 -0.4496  0.4745
 2629SOL    HW119346   3.128   4.446   6.023  1.6885 -0.0937  2.6664
 2629SOL    HW219347   3.066   4.521   6.134  1.7139 -0.0831 -0.4848
 2630SOL     OW19348   3.971   2.434   4.730  0.1997  0.0884  0.1334
 2630SOL    HW119349   3.946   2.421   4.822 -1.4601  2.4560  0.0350
 2630SOL    HW219350   3.908   2.499   4.700  1.0911  1.1376  0.5319
 2631SOL     OW19351   3.983   3.015   4.298 -0.2621 -0.2813  0.7059
 2631SOL    HW119352   4.049   2.988   4.362  0.5674  2.0485  0.8403
 2631SOL    HW219353   3.902   2.996   4.345  0.1095  1.7844  2.1749
 2632SOL     OW19354   4.265   3.354  17.102 -0.5457  0.2836  0.9865
 2632SOL    HW119355   4.340   3.380  17.049 -1.5401  2.6794  0.7431
 2632SOL    HW219356   4.307   3.303  17.171 -0.8272 -0.7229  0.4265
 2633SOL     OW19357   4.193   4.678  13.322 -0.4311 -0.3391 -0.5029
 2633SOL    HW119358   4.171   4.659  13.413  4.2483  0.5191  0.7791
 2633SOL    HW219359   4.214   4.592  13.286 -1.6386 -0.8727  0.0429
 2634SOL     OW19360   3.445   3.972   3.841  1.0661 -0.3894 -0.1620
 2634SOL    HW119361   3.458   4.030   3.766 -0.1575 -0.0740 -0.1162
 2634SOL    HW219362   3.360   3.928   3.839 -0.2927  2.1636  1.8129
 2635SOL     OW19363   1.545   2.091  14.046  0.3518  0.4378 -0.2932
 2635SOL    HW119364   1.639   2.102  14.034  0.4300 -1.6955 -1.6394
 2635SOL    HW219365   1.539   2.031  14.121  1.1632  1.3152  0.4679
 2636SOL     OW19366   3.288   4.214  17.142  0.2808  0.3026  0.0101
 2636SOL    HW119367   3.326   4.300  17.124  0.8400 -0.1143 -0.7815
 2636SOL    HW219368   3.244   4.191  17.061  1.0863 -1.7917  0.1689
 2637SOL     OW19369   1.786   0.855  14.996  0.0662 -0.3548  0.1592
 2637SOL    HW119370   1.809   0.777  15.048  1.0694 -0.3827 -0.3093
 2637SOL    HW219371   1.710   0.879  15.049 -0.4345  1.6036 -1.4448
 2638SOL     OW19372   0.824   3.293   5.394  0.2372  0.6004  0.5445
 2638SOL    HW119373   0.792   3.376   5.360  1.7992  0.3656 -1.5350
 2638SOL    HW219374   0.912   3.286   5.358  0.0056 -0.9503  0.2837
 2639SOL     OW19375   3.075   2.240   6.328  0.1719  0.2993 -0.3722
 2639SOL    HW119376   3.086   2.328   6.363 -0.7491  0.7159 -1.1095
 2639SOL    HW219377   3.044   2.188   6.402  0.6942  0.3295 -0.1377
 2640SOL     OW19378   4.531   2.649   8.413  0.3060 -0.2961 -0.0627
 2640SOL    HW119379   4.619   2.627   8.385 -0.0406 -0.5206 -0.9917
 2640SOL    HW219380   4.548   2.720   8.474 -1.6791  0.2118 -0.0758
 2641SOL     OW19381   1.143   3.839  10.232  0.1270  0.3740  0.4094
 2641SOL    HW119382   1.077   3.902  10.261 -0.4055 -0.8199  1.7628
 2641SOL    HW219383   1.214   3.836  10.296  1.1977 -1.5406 -0.8619
 2642SOL     OW19384   1.292   2.404   9.489 -0.7964 -0.6395 -0.1943
 2642SOL    HW119385   1.383   2.375   9.481  0.7685  4.2135 -0.1501
 2642SOL    HW219386   1.260   2.372   9.404 -4.4582 -1.7321  1.5922
 2643SOL     OW19387   0.344   2.788   3.284  0.3211  0.5092 -0.4005
 2643SOL    HW119388   0.267   2.838   3.259 -1.1813 -1.0638  1.0470
 2643SOL    HW219389   0.405   2.857   3.308  0.2310  0.6131 -0.4730
 2644SOL     OW19390   1.609   2.328   3.223 -0.9049 -0.2384  0.5237
 2644SOL    HW119391   1.700   2.340   3.196 -1.5884  2.7554 -0.4119
 2644SOL    HW219392   1.591   2.244   3.180  1.7852  0.2985 -1.6499
 2645SOL     OW19393   1.065   3.829   8.659 -0.0582 -0.3690  0.6560
 2645SOL    HW119394   1.114   3.747   8.661 -2.0657 -1.6247 -0.7923
 2645SOL    HW219395   0.992   3.803   8.716 -0.0619 -0.8943  0.4096
 2646SOL     OW19396   2.702   3.946   4.820  0.4100 -0.1024  0.5750
 2646SOL    HW119397   2.748   4.009   4.765  1.1515 -0.8083  0.3942
 2646SOL    HW219398   2.662   4.005   4.884  1.6732 -0.8344  2.0236
 2647SOL     OW19399   0.359   3.916   3.733 -0.1856  0.6691  0.0458
 2647SOL    HW119400   0.325   4.002   3.706 -1.2475  0.4710  0.7504
 2647SOL    HW219401   0.309   3.862   3.672 -2.6327  0.7382  2.0175
 2648SOL     OW19402   0.396   0.671  12.039 -0.1750  0.3766  0.1150
 2648SOL    HW119403   0.430   0.611  11.972 -0.6227  1.7877 -1.3726
 2648SOL    HW219404   0.433   0.755  12.011  0.1692  0.5640  1.1564
 2649SOL     OW19405   1.336   3.058   4.867 -0.4396 -0.5904 -0.0429
 2649SOL    HW119406   1.397   3.118   4.825 -0.3417  0.6453  1.8738
 2649SOL    HW219407   1.376   2.971   4.856  0.1296 -0.0717 -1.9845
 2650SOL     OW19408   2.506   0.081   2.145 -0.6688 -0.2127  0.1566
 2650SOL    HW119409   2.518   0.127   2.062  1.4387 -1.1859 -0.0734
 2650SOL    HW219410   2.513   0.142   2.218  1.5736 -0.8435  0.4665
 2651SOL     OW19411   2.462   3.957   7.875  0.6096  0.3411 -0.4443
 2651SOL    HW119412   2.421   3.982   7.958  0.1499 -0.6372 -0.3822
 2651SOL    HW219413   2.528   3.895   7.907  2.1197  1.5272 -1.2558
 2652SOL     OW19414   3.764   3.591   6.919  0.6358  0.1736  0.0780
 2652SOL    HW119415   3.826   3.611   6.849  0.7892  0.5736  0.3280
 2652SOL    HW219416   3.818   3.530   6.969 -0.1982 -1.8104 -1.4391
 2653SOL     OW19417   2.407   2.806  13.079 -0.5007 -0.3581  0.1390
 2653SOL    HW119418   2.472   2.872  13.101  0.0847 -0.5989 -0.8462
 2653SOL    HW219419   2.376   2.843  12.996  3.0684  0.0595 -0.9878
 2654SOL     OW19420   1.259   1.473   1.980  0.4685  0.0493  0.1091
 2654SOL    HW119421   1.282   1.381   1.969 -2.0831 -0.5914  0.1684
 2654SOL    HW219422   1.172   1.466   1.942  0.3251  2.4263  0.0285
 2655SOL     OW19423   2.929   4.004  14.458  0.2082 -0.1774  0.3463
 2655SOL    HW119424   2.997   3.945  14.424  1.0120  0.0799  1.5138
 2655SOL    HW219425   2.953   4.079  14.404  1.5219  1.1921  2.8542
 2656SOL     OW19426   2.937   4.142   5.669  0.0829  0.6980  0.0062
 2656SOL    HW119427   2.901   4.062   5.632  0.3259  0.1941  0.8442
 2656SOL    HW219428   3.028   4.113   5.680  0.2821  1.4307  0.2640
 2657SOL     OW19429   3.240   3.774   3.834 -0.1013 -0.6707  0.2383
 2657SOL    HW119430   3.236   3.746   3.743  1.5476  0.5582 -0.2222
 2657SOL    HW219431   3.149   3.796   3.852 -0.1008  0.0779 -0.6759
 2658SOL     OW19432   0.390   1.521   2.700 -0.3164 -0.1945 -0.1877
 2658SOL    HW119433   0.468   1.568   2.729  0.5925 -0.7264 -1.7769
 2658SOL    HW219434   0.327   1.592   2.711  0.1101 -0.0471  1.2558
 2659SOL     OW19435   3.991   4.268   3.384 -0.2544 -0.4521 -0.3015
 2659SOL    HW119436   3.956   4.331   3.322 -0.5722 -0.9998 -0.6775
 2659SOL    HW219437   4.031   4.322   3.452 -0.9543  0.3477 -0.5258
 2660SOL     OW19438   2.866   2.435  12.179 -0.0284 -0.3916  0.0639
 2660SOL    HW119439   2.868   2.531  12.179 -0.2175 -0.3941  1.1755
 2660SOL    HW219440   2.952   2.416  12.142  0.2640 -0.5541  0.8357
 2661SOL     OW19441   0.511   2.844   7.338 -0.8854  0.3548 -0.1468
 2661SOL    HW119442   0.483   2.811   7.423  0.2437 -0.5377 -0.1333
 2661SOL    HW219443   0.569   2.772   7.312  0.3756  1.1396  0.4578
 2662SOL     OW19444   0.681   3.294   3.863  0.1183  0.0917 -0.7982
 2662SOL    HW119445   0.740   3.366   3.840  0.1862  0.0561 -0.7355
 2662SOL    HW219446   0.724   3.275   3.947  0.9192  1.6076 -0.8708
 2663SOL     OW19447   4.175   2.008  17.064 -0.2399 -0.0925  0.4974
 2663SOL    HW119448   4.113   1.976  17.130 -0.7343  0.4527  0.3059
 2663SOL    HW219449   4.120   2.075  17.022  0.2319  0.2974  0.5126
 2664SOL     OW19450   3.604   2.939  13.373  0.1290  0.2312 -0.6663
 2664SOL    HW119451   3.674   2.962  13.312 -1.5141  1.6251 -2.0359
 2664SOL    HW219452   3.614   2.846  13.393  0.0558  0.5790  0.9930
 2665SOL     OW19453   2.357   3.957  17.260 -0.4978  0.2097  0.1920
 2665SOL    HW119454   2.382   4.046  17.283 -1.3805  0.2799  0.9092
 2665SOL    HW219455   2.424   3.905  17.304 -1.6937 -1.8590 -0.4207
 2666SOL     OW19456   0.851   4.116   3.886 -0.6788  0.4432  0.0296
 2666SOL    HW119457   0.866   4.059   3.961 -1.8355 -0.0236 -0.0839
 2666SOL    HW219458   0.939   4.128   3.852 -0.8128  0.6280 -0.2578
 2667SOL     OW19459   2.919   3.559  15.457  1.0059 -0.9009  0.2867
 2667SOL    HW119460   2.917   3.478  15.406  0.0514 -0.9365  0.3884
 2667SOL    HW219461   2.849   3.557  15.522 -1.3082 -0.5976 -2.1869
 2668SOL     OW19462   3.689   1.286   9.141 -0.0378 -0.7350 -0.5815
 2668SOL    HW119463   3.607   1.268   9.094  0.1557 -3.2298 -0.0063
 2668SOL    HW219464   3.727   1.198   9.136  0.8021 -0.4019  0.0150
 2669SOL     OW19465   0.485   3.600   1.047  0.2462  0.1668 -0.4253
 2669SOL    HW119466   0.456   3.569   0.961  1.8625  0.3157 -1.0216
 2669SOL    HW219467   0.408   3.580   1.099  1.2090 -0.2272  0.8488
 2670SOL     OW19468   2.251   3.583   5.847 -0.6606  0.6807  0.0539
 2670SOL    HW119469   2.214   3.664   5.882  0.0066  0.7062  0.7043
 2670SOL    HW219470   2.298   3.608   5.768  0.2493  0.0966  0.4103
 2671SOL     OW19471   0.839   2.463   7.507  0.0489  0.4008 -0.0693
 2671SOL    HW119472   0.887   2.534   7.463  0.3785 -0.6609 -1.3909
 2671SOL    HW219473   0.844   2.387   7.449  1.4822 -1.4128  2.4373
 2672SOL     OW19474   2.197   2.716  16.925  0.3882  0.0846 -0.2506
 2672SOL    HW119475   2.225   2.721  16.833 -0.0654  0.5776 -0.3681
 2672SOL    HW219476   2.232   2.797  16.964  1.6149 -1.1954  1.3031
 2673SOL     OW19477   1.560   0.021   3.713  0.0998 -0.6064  0.1762
 2673SOL    HW119478   1.582   0.111   3.740  0.6559 -0.9866  0.9852
 2673SOL    HW219479   1.577   4.697   3.795  1.1458 -0.8146 -0.1676
 2674SOL     OW19480   4.127   1.216   6.895  0.2364  0.0058  0.3069
 2674SOL    HW119481   4.204   1.169   6.862 -0.0440  0.1561 -0.5774
 2674SOL    HW219482   4.102   1.167   6.973  0.8446 -1.8755 -0.6657
 2675SOL     OW19483   0.754   1.082  14.176  0.1319 -0.3116  0.5072
 2675SOL    HW119484   0.768   1.158  14.232  0.9457 -0.6145  0.7194
 2675SOL    HW219485   0.715   1.135  14.106  2.7837 -1.7859 -2.0819
 2676SOL     OW19486   0.103   1.812   2.369 -0.2352  0.3157  0.4507
 2676SOL    HW119487   0.009   1.821   2.387 -0.4187  1.1449 -0.9380
 2676SOL    HW219488   0.097   1.732   2.316  1.4271  1.6479 -1.7252
 2677SOL     OW19489   2.107   2.764   1.032  0.2021 -0.3216 -0.2700
 2677SOL    HW119490   2.129   2.718   1.113 -0.2686  1.4875  0.8725
 2677SOL    HW219491   2.017   2.736   1.013 -0.3151  0.6250  0.7504
 2678SOL     OW19492   1.099   1.305   5.737 -0.4355 -0.6139  0.3317
 2678SOL    HW119493   1.170   1.271   5.792 -1.2150 -0.9648  1.1398
 2678SOL    HW219494   1.074   1.219   5.701  1.2655 -1.1550  0.4740
 2679SOL     OW19495   2.688   0.952  17.078  0.5292  0.1550 -0.0267
 2679SOL    HW119496   2.667   1.015  17.009  3.2587  0.7836 -0.3012
 2679SOL    HW219497   2.630   0.994  17.143 -0.1408  1.1186 -1.2429
 2680SOL     OW19498   0.016   0.521   3.484 -0.1692  0.5490  0.2661
 2680SOL    HW119499   0.001   0.575   3.561 -0.3563  3.6091 -1.8776
 2680SOL    HW219500   0.096   0.555   3.444  0.0904 -0.6047 -0.1805
 2681SOL     OW19501   3.386   1.123  11.166  0.0560  0.2242  0.1056
 2681SOL    HW119502   3.427   1.039  11.143 -0.2290  1.3399 -4.3837
 2681SOL    HW219503   3.385   1.163  11.079 -1.1757  0.9804  0.4748
 2682SOL     OW19504   1.945   0.448  12.787 -0.6330 -0.2696 -0.4194
 2682SOL    HW119505   2.021   0.391  12.801 -0.9066 -0.4931  0.1458
 2682SOL    HW219506   1.980   0.534  12.764 -0.6782  0.1559  1.1121
 2683SOL     OW19507   3.608   1.866  12.814  0.2913 -0.1912  0.0312
 2683SOL    HW119508   3.577   1.776  12.827 -1.2764  0.3447  0.0206
 2683SOL    HW219509   3.655   1.891  12.894  0.6788  0.5723 -0.4373
 2684SOL     OW19510   3.239   0.169   8.134  0.1035 -0.1894  0.3992
 2684SOL    HW119511   3.332   0.175   8.111  0.0471  2.5720  0.8625
 2684SOL    HW219512   3.228   0.261   8.156  1.3583  0.1105 -0.2480
 2685SOL     OW19513   0.783   2.998   7.606  0.0677  0.4269 -0.2862
 2685SOL    HW119514   0.700   2.987   7.653  0.3032 -1.2124 -0.2481
 2685SOL    HW219515   0.840   2.928   7.637  1.8860  2.1128  0.2126
 2686SOL     OW19516   3.724   2.727   1.943 -0.0900  0.1215 -0.1850
 2686SOL    HW119517   3.751   2.724   2.035  2.3038 -0.4550 -0.9229
 2686SOL    HW219518   3.716   2.821   1.933 -2.0441  0.0882  0.8601
 2687SOL     OW19519   3.446   2.589   8.704  0.0341  0.1861  0.0116
 2687SOL    HW119520   3.462   2.667   8.650  1.8130  0.1860  0.5244
 2687SOL    HW219521   3.520   2.532   8.683  0.6362  0.5535  1.1345
 2688SOL     OW19522   3.688   1.433   4.187  0.0061 -0.7538  0.0809
 2688SOL    HW119523   3.705   1.366   4.120  1.7237  0.6674 -0.8937
 2688SOL    HW219524   3.763   1.488   4.162 -2.2264  1.4243 -1.8091
 2689SOL     OW19525   4.079   3.656   6.485  0.2306  0.6251 -0.2511
 2689SOL    HW119526   4.049   3.612   6.406  2.7566  1.9102 -1.9532
 2689SOL    HW219527   4.168   3.674   6.452  0.3801 -1.6427 -1.0423
 2690SOL     OW19528   3.464   4.112   3.587 -0.1845  0.0396 -0.1272
 2690SOL    HW119529   3.498   4.202   3.579  0.2774 -0.3488 -2.7747
 2690SOL    HW219530   3.514   4.068   3.518  0.5146  1.0558 -0.2728
 2691SOL     OW19531   2.702   2.914   9.532 -0.1286 -0.4888  0.3590
 2691SOL    HW119532   2.786   2.901   9.575  0.3854  2.7187  0.2988
 2691SOL    HW219533   2.639   2.873   9.591  0.4344 -1.9931 -0.0925
 2692SOL     OW19534   2.888   2.195   0.063  0.4568 -0.1419 -0.0150
 2692SOL    HW119535   2.940   2.274   0.072  0.2564 -0.0101 -0.0082
 2692SOL    HW219536   2.949   2.142   0.011  0.3599  0.4054 -0.6917
 2693SOL     OW19537   1.460   3.245   7.312  0.8780 -0.4096 -0.6844
 2693SOL    HW119538   1.433   3.156   7.333 -1.4271  0.4209 -0.0614
 2693SOL    HW219539   1.472   3.237   7.218  0.5261 -0.6912 -0.7032
 2694SOL     OW19540   3.427   0.979   4.254 -0.7194 -0.3058 -0.5878
 2694SOL    HW119541   3.400   0.910   4.195 -0.0014  2.5914 -4.3111
 2694SOL    HW219542   3.520   0.964   4.269 -0.4674  0.5809 -1.2272
 2695SOL     OW19543   1.776   0.775   9.311 -0.5619  0.5356  0.0179
 2695SOL    HW119544   1.842   0.706   9.309 -1.4751 -0.3557  0.2254
 2695SOL    HW219545   1.757   0.771   9.405 -3.0625 -1.7346 -0.5750
 2696SOL     OW19546   2.209   1.900   6.097  0.3338  0.0584 -0.1218
 2696SOL    HW119547   2.153   1.893   6.019 -1.2000 -0.6181  1.0208
 2696SOL    HW219548   2.160   1.957   6.156  0.7629 -2.4208  2.6582
 2697SOL     OW19549   4.312   1.960  11.303  0.3570  0.8318 -0.2156
 2697SOL    HW119550   4.331   2.001  11.219 -0.2691 -2.0453 -1.7716
 2697SOL    HW219551   4.243   2.020  11.330 -1.3816 -0.5261 -1.6369
 2698SOL     OW19552   3.683   2.584   6.884 -0.3482  0.2414 -1.0510
 2698SOL    HW119553   3.677   2.676   6.856 -3.4187  0.8249  1.4900
 2698SOL    HW219554   3.777   2.579   6.903 -0.3695  0.3252 -0.9144
 2699SOL     OW19555   3.234   1.800   1.498  0.2575 -0.1154 -0.0242
 2699SOL    HW119556   3.202   1.890   1.490  1.7537  0.3182 -1.0225
 2699SOL    HW219557   3.160   1.744   1.524 -0.3581  1.1939  1.0201
 2700SOL     OW19558   3.506   0.306   0.227  0.0432  0.3732 -0.3102
 2700SOL    HW119559   3.444   0.263   0.286 -0.4845  1.4495 -0.0662
 2700SOL    HW219560   3.443   0.335   0.161 -1.0955 -0.4084  0.4456
 2701SOL     OW19561   2.177   0.424  11.922 -0.2812 -0.2324 -0.7266
 2701SOL    HW119562   2.148   0.510  11.952 -1.3532 -0.8962  0.1088
 2701SOL    HW219563   2.102   0.401  11.867 -0.2784 -2.2110  0.0939
 2702SOL     OW19564   2.270   1.339   5.089 -0.1904 -0.1865  0.5602
 2702SOL    HW119565   2.241   1.254   5.121 -0.2364 -0.8265 -1.2264
 2702SOL    HW219566   2.349   1.356   5.141  0.2471 -0.2715 -0.0861
 2703SOL     OW19567   2.502   3.180   9.486 -0.1543 -0.3863 -0.2759
 2703SOL    HW119568   2.471   3.090   9.493 -1.4861  0.0189 -0.8522
 2703SOL    HW219569   2.530   3.191   9.395 -2.5581 -1.0958 -1.1042
 2704SOL     OW19570   3.054   4.090   4.943  0.1946  0.0217 -0.0967
 2704SOL    HW119571   3.067   4.180   4.972  0.1261  0.4351 -1.3484
 2704SOL    HW219572   3.029   4.055   5.028  2.0350  0.8525  0.7809
 2705SOL     OW19573   0.606   1.480  14.223 -1.0047 -0.4757  0.4765
 2705SOL    HW119574   0.697   1.484  14.196 -1.3662  2.5179 -0.2338
 2705SOL    HW219575   0.591   1.545  14.292  2.1587  2.1513 -1.3665
 2706SOL     OW19576   2.660   2.037  17.676  0.4519  0.1007  0.3679
 2706SOL    HW119577   2.739   2.088  17.693  0.6145  0.7748 -2.4371
 2706SOL    HW219578   2.641   2.062  17.585 -3.0740 -2.8301  0.3165
 2707SOL     OW19579   2.262   3.509   1.777  0.2321  0.0809  0.0366
 2707SOL    HW119580   2.299   3.594   1.751  1.1768  0.4387  2.5632
 2707SOL    HW219581   2.335   3.463   1.817 -0.0136 -0.4707 -0.1422
 2708SOL     OW19582   0.955   2.211  13.059  0.1701 -0.0850 -0.3488
 2708SOL    HW119583   0.900   2.170  12.992 -2.5799  0.6690  1.4280
 2708SOL    HW219584   0.967   2.131  13.110  1.2290 -0.0603 -0.5637
 2709SOL     OW19585   4.459   1.626   2.862  0.0655 -0.1412 -0.1595
 2709SOL    HW119586   4.375   1.662   2.835 -0.3442 -0.6113  0.5108
 2709SOL    HW219587   4.436   1.602   2.951  0.3598 -0.8131 -0.2613
 2710SOL     OW19588   3.147   1.551   6.979  0.1891  0.0218  0.3386
 2710SOL    HW119589   3.140   1.596   7.063 -2.8993  0.7394 -0.3370
 2710SOL    HW219590   3.234   1.575   6.946  0.1490 -1.3876 -0.7932
 2711SOL     OW19591   4.503   0.965   0.552  0.1087  0.2641  0.2266
 2711SOL    HW119592   4.561   0.948   0.478 -2.6286 -0.1353 -1.8182
 2711SOL    HW219593   4.420   0.959   0.506 -0.2873  0.7320  0.8876
 2712SOL     OW19594   2.573   0.740   4.926 -0.5951  0.0608  0.2391
 2712SOL    HW119595   2.538   0.819   4.884 -0.6140  1.2157  2.4196
 2712SOL    HW219596   2.654   0.770   4.968  0.1614  1.3339 -2.1708
 2713SOL     OW19597   3.952   1.983   5.381 -0.3397 -0.5119  0.2258
 2713SOL    HW119598   3.943   1.888   5.387 -0.8510 -0.4331  0.8393
 2713SOL    HW219599   4.042   2.002   5.356  0.0540 -2.5400  0.1055
 2714SOL     OW19600   3.501   3.875   3.371 -0.0258  0.2229  0.4210
 2714SOL    HW119601   3.567   3.830   3.423 -1.0313 -0.7184  0.8945
 2714SOL    HW219602   3.429   3.812   3.378 -0.8004  1.1417  0.7140
 2715SOL     OW19603   4.508   1.259  16.913  0.1597  0.2688 -0.0701
 2715SOL    HW119604   4.498   1.183  16.970 -0.4842 -1.0839 -2.0072
 2715SOL    HW219605   4.572   1.232  16.848  1.1161 -0.7475  1.3046
 2716SOL     OW19606   0.615   3.643   3.086  0.1923 -0.1161  1.0526
 2716SOL    HW119607   0.579   3.723   3.049  0.5573 -0.0601  0.8231
 2716SOL    HW219608   0.625   3.584   3.011  2.8821  1.6771  0.0213
 2717SOL     OW19609   3.780   4.076   8.153  0.3008  0.1544  0.1292
 2717SOL    HW119610   3.748   4.063   8.242 -0.4267 -1.4150 -0.3514
 2717SOL    HW219611   3.695   4.097   8.114  1.0417  1.3552 -0.8514
 2718SOL     OW19612   3.566   2.637   6.193 -0.4622  0.1070  0.2798
 2718SOL    HW119613   3.644   2.609   6.146  0.2708  1.9522  0.4054
 2718SOL    HW219614   3.584   2.730   6.179 -1.0274  0.3107  0.8658
 2719SOL     OW19615   1.198   1.766   6.628  0.1362 -0.1139 -0.1764
 2719SOL    HW119616   1.261   1.702   6.660 -0.1107  0.4955  1.5206
 2719SOL    HW219617   1.133   1.703   6.596 -1.0000  1.0279 -0.1210
 2720SOL     OW19618   3.704   2.248   8.262  0.6245 -0.7701  0.1899
 2720SOL    HW119619   3.760   2.191   8.313 -1.4844 -0.9154  2.3314
 2720SOL    HW219620   3.657   2.291   8.333 -0.0125  2.4462 -2.1677
 2721SOL     OW19621   1.085   2.255   7.833 -0.3651  0.2863 -0.2144
 2721SOL    HW119622   1.140   2.298   7.767  0.1684  0.3614  0.2801
 2721SOL    HW219623   1.007   2.246   7.778 -0.3956  1.2184 -0.3130
 2722SOL     OW19624   0.019   0.675  10.581  0.2539  0.0342 -0.5732
 2722SOL    HW119625   0.105   0.715  10.566  0.2379  0.7966  1.3731
 2722SOL    HW219626   0.046   0.605  10.640 -2.7129 -0.9999 -0.4707
 2723SOL     OW19627   3.249   2.515  13.554  0.5186 -0.1196 -0.5864
 2723SOL    HW119628   3.204   2.553  13.479 -1.3387  1.4216  1.3048
 2723SOL    HW219629   3.277   2.587  13.610  0.2205  1.6333 -2.6838
 2724SOL     OW19630   4.097   3.303  15.336 -0.4269  0.0839 -0.0461
 2724SOL    HW119631   4.035   3.328  15.404 -1.1646 -1.5800 -0.1104
 2724SOL    HW219632   4.050   3.225  15.307 -0.1009  0.0342 -0.4551
 2725SOL     OW19633   3.077   4.054  16.356 -0.0941  0.1632 -0.3971
 2725SOL    HW119634   3.103   3.995  16.286  2.0143 -1.3254  1.6300
 2725SOL    HW219635   3.107   4.140  16.326  2.9042 -1.3223 -1.6916
 2726SOL     OW19636   0.754   0.330   8.167  0.1475 -0.2380  0.5125
 2726SOL    HW119637   0.787   0.250   8.208 -0.4286  0.2823  1.9795
 2726SOL    HW219638   0.734   0.301   8.078  0.4001  1.0711  0.0245
 2727SOL     OW19639   3.915   1.200   8.547 -0.0943  0.2381  0.0363
 2727SOL    HW119640   3.891   1.279   8.499  2.0816  1.3936  0.8702
 2727SOL    HW219641   3.909   1.229   8.639  2.0441 -1.9437  0.8605
 2728SOL     OW19642   0.814   0.406   8.712  0.1396  0.3580 -0.0711
 2728SOL    HW119643   0.768   0.322   8.715 -1.0394  0.8596 -4.0945
 2728SOL    HW219644   0.900   0.376   8.742  0.0140  0.1443  0.0721
 2729SOL     OW19645   1.512   0.345  12.879 -0.4650  0.7305  0.0187
 2729SOL    HW119646   1.528   0.361  12.786 -1.7751  0.8801 -0.1925
 2729SOL    HW219647   1.594   0.371  12.919 -0.1156  2.1838 -1.6527
 2730SOL     OW19648   1.432   1.480   7.532  0.3346  0.2502  0.2486
 2730SOL    HW119649   1.494   1.407   7.541 -1.2185 -0.9594  1.1143
 2730SOL    HW219650   1.474   1.545   7.588 -0.3205  0.1790  0.8159
 2731SOL     OW19651   0.990   0.666   6.821 -0.6962  0.0191 -0.0556
 2731SOL    HW119652   1.024   0.755   6.815  0.5254 -0.3900  0.9668
 2731SOL    HW219653   1.045   0.608   6.768 -1.4332 -0.8923  0.1804
 2732SOL     OW19654   2.462   1.916   9.567 -0.4991  0.4186  0.3817
 2732SOL    HW119655   2.537   1.897   9.624  0.9099 -0.3413 -1.7449
 2732SOL    HW219656   2.399   1.947   9.633  0.8980  2.7148  0.6595
 2733SOL     OW19657   3.416   4.334   4.633  0.2724  0.3021  0.6545
 2733SOL    HW119658   3.469   4.413   4.637  1.5988 -0.5938  0.8514
 2733SOL    HW219659   3.353   4.359   4.700  1.4383 -0.7062  2.1192
 2734SOL     OW19660   0.338   2.206   3.545  0.0850 -0.4147  0.1757
 2734SOL    HW119661   0.259   2.258   3.553  0.2211 -0.4531  1.8051
 2734SOL    HW219662   0.362   2.206   3.638  2.1243  0.1520 -0.3405
 2735SOL     OW19663   0.584   2.108   6.468  0.0678  0.3484  0.3826
 2735SOL    HW119664   0.631   2.103   6.552 -0.1178 -1.8007  0.3633
 2735SOL    HW219665   0.541   2.194   6.464  3.3937  2.0000  0.0527
 2736SOL     OW19666   1.531   2.750   7.077 -0.0483  0.0815  0.0420
 2736SOL    HW119667   1.506   2.684   7.141  0.9945 -2.4690 -2.2101
 2736SOL    HW219668   1.549   2.695   7.001 -1.7337  2.0225 -1.7641
 2737SOL     OW19669   1.153   1.328   7.761  0.2089  0.0910  0.0683
 2737SOL    HW119670   1.247   1.313   7.770  0.2715  0.7037  0.4483
 2737SOL    HW219671   1.133   1.288   7.846  2.2213 -0.5608  0.2522
 2738SOL     OW19672   2.576   3.542   7.590 -0.6586 -0.5043  0.0091
 2738SOL    HW119673   2.564   3.488   7.512  0.1430 -0.2939 -0.2586
 2738SOL    HW219674   2.514   3.504   7.652 -1.0352 -0.0772 -0.1026
 2739SOL     OW19675   2.981   4.645   5.001  0.8561 -0.0311  0.5816
 2739SOL    HW119676   2.962   4.675   5.090 -0.6521 -0.7877  0.5195
 2739SOL    HW219677   2.958   0.003   4.957  2.0378  0.3914  0.7357
 2740SOL     OW19678   3.264   1.580   4.911  0.1762  0.0608 -0.2368
 2740SOL    HW119679   3.306   1.494   4.901 -0.7561 -0.7560  3.0107
 2740SOL    HW219680   3.344   1.631   4.920  0.2712  0.4087 -2.9514
 2741SOL     OW19681   0.740   1.244   5.962  0.1642 -0.0363  0.7015
 2741SOL    HW119682   0.689   1.182   5.909  1.8412 -1.4411  0.7135
 2741SOL    HW219683   0.669   1.289   6.007  0.2436  1.8246 -1.0269
 2742SOL     OW19684   0.135   0.370   9.654  0.2814 -0.5930 -0.4793
 2742SOL    HW119685   0.043   0.385   9.635  0.4706  0.3467 -0.6148
 2742SOL    HW219686   0.138   0.285   9.609 -0.2890 -1.6180  1.3928
 2743SOL     OW19687   0.182   2.022   7.624 -0.2341  0.1640 -0.1043
 2743SOL    HW119688   0.266   2.017   7.670  0.1657  1.7993 -0.6266
 2743SOL    HW219689   0.130   1.969   7.683 -2.8176  1.7361 -0.9834
 2744SOL     OW19690   4.003   4.304  16.570 -0.5864  0.1551 -0.0964
 2744SOL    HW119691   4.075   4.303  16.506  0.1036 -1.8804  0.6949
 2744SOL    HW219692   3.992   4.210  16.589 -0.1528 -0.0260 -0.7531
 2745SOL     OW19693   0.291   0.945  16.309  0.7527 -0.1335 -0.1102
 2745SOL    HW119694   0.352   1.016  16.329  0.1930  1.2565 -3.2752
 2745SOL    HW219695   0.209   0.993  16.308 -0.5980 -2.4373 -0.3132
 2746SOL     OW19696   0.478   3.704  13.768  0.1975 -0.3557  0.6102
 2746SOL    HW119697   0.451   3.780  13.820  2.9125  0.0621  1.3882
 2746SOL    HW219698   0.534   3.645  13.818  0.7043  1.4581  2.1631
 2747SOL     OW19699   3.772   2.327   7.961 -0.1815  0.2677 -0.0575
 2747SOL    HW119700   3.760   2.420   7.979  1.6005  0.5850 -0.4546
 2747SOL    HW219701   3.847   2.299   8.014  0.1227 -0.1277 -0.6925
 2748SOL     OW19702   2.137   2.593   6.741  0.2656 -0.4743  0.1808
 2748SOL    HW119703   2.191   2.645   6.800 -1.3024  1.7761 -0.4014
 2748SOL    HW219704   2.089   2.535   6.801  1.3073 -1.8123 -0.2745
 2749SOL     OW19705   2.108   1.909   4.808 -0.0091  0.3980  0.3189
 2749SOL    HW119706   2.104   1.974   4.738 -3.9818  0.2087  0.3519
 2749SOL    HW219707   2.197   1.926   4.841 -0.3568 -0.9396  1.9662
 2750SOL     OW19708   1.448   0.014   8.256  0.1744  0.0549 -0.7498
 2750SOL    HW119709   1.443   0.003   8.351  2.8535  0.4386 -0.5648
 2750SOL    HW219710   1.536   4.704   8.242 -0.3864 -1.8044  0.1370
 2751SOL     OW19711   2.999   3.584   5.948 -0.0974 -0.0518  0.0824
 2751SOL    HW119712   3.094   3.583   5.939 -0.1566  0.8641 -0.7203
 2751SOL    HW219713   2.984   3.663   5.896  2.1049  0.9660  1.0152
 2752SOL     OW19714   2.362   0.376   2.552 -0.1573 -0.8819 -0.4286
 2752SOL    HW119715   2.380   0.316   2.624 -1.9764  3.3496  3.4920
 2752SOL    HW219716   2.273   0.348   2.528 -0.3934 -0.1439 -0.4166
 2753SOL     OW19717   4.592   2.860   0.557 -0.4613 -0.4235  0.1355
 2753SOL    HW119718   4.513   2.906   0.586  1.1126  2.5427 -0.1865
 2753SOL    HW219719   4.651   2.935   0.549 -0.0016 -0.7381  0.5817
 2754SOL     OW19720   3.827   1.926   4.273 -0.1342  0.0423  0.3579
 2754SOL    HW119721   3.811   2.020   4.270  0.9269  0.1673 -1.2392
 2754SOL    HW219722   3.914   1.924   4.313  0.4401 -1.1659 -0.9531
 2755SOL     OW19723   0.606   0.459   5.321  0.4974  0.0118 -0.1964
 2755SOL    HW119724   0.644   0.462   5.233  1.2256  2.1117  0.1833
 2755SOL    HW219725   0.661   0.521   5.369  1.2531 -1.0337  0.2968
 2756SOL     OW19726   4.465   4.705   8.147 -0.8916 -0.0364  0.1552
 2756SOL    HW119727   4.509   4.700   8.232  1.5572  0.5662 -1.0816
 2756SOL    HW219728   4.541   4.688   8.091 -1.3855  1.6137 -1.0270
 2757SOL     OW19729   1.884   0.713   2.544  0.0794  0.0088  0.2450
 2757SOL    HW119730   1.827   0.672   2.609  0.6942 -1.4069 -0.0935
 2757SOL    HW219731   1.969   0.677   2.570  0.8822  2.2439  0.7539
 2758SOL     OW19732   2.006   2.035   2.736 -0.0034  0.4930 -0.6582
 2758SOL    HW119733   1.984   2.042   2.829  0.6631 -1.3929 -0.3613
 2758SOL    HW219734   2.094   2.072   2.742 -0.7478  2.1385  0.1155
 2759SOL     OW19735   4.540   2.803   4.817  0.2017  0.5375 -0.2930
 2759SOL    HW119736   4.561   2.710   4.813 -1.4182  0.0298  2.4562
 2759SOL    HW219737   4.621   2.838   4.855  1.2971 -0.9361 -1.2888
 2760SOL     OW19738   2.181   4.414  13.399 -0.3255  0.2927  0.0689
 2760SOL    HW119739   2.238   4.377  13.332  0.2150  1.2005  0.0204
 2760SOL    HW219740   2.095   4.395  13.362 -0.2078  0.1856 -0.1506
 2761SOL     OW19741   3.852   1.260   4.753 -0.0455  0.5053 -0.1213
 2761SOL    HW119742   3.898   1.217   4.681  0.6777  2.3427 -0.7543
 2761SOL    HW219743   3.765   1.263   4.713 -0.1216  0.3888  0.0352
 2762SOL     OW19744   0.090   3.771   2.846  0.2549 -0.2804 -0.8955
 2762SOL    HW119745   0.050   3.854   2.872 -0.1449 -0.9640  0.6919
 2762SOL    HW219746   0.160   3.803   2.789  0.1960  2.1431  0.3651
 2763SOL     OW19747   1.288   1.322   8.955  0.9036  0.3061  0.0748
 2763SOL    HW119748   1.225   1.277   8.898 -1.0527  1.9283  0.9305
 2763SOL    HW219749   1.363   1.266   8.938  1.3381  1.0893 -0.5991
 2764SOL     OW19750   3.226   1.288   5.299 -0.6276 -0.1436  0.5585
 2764SOL    HW119751   3.235   1.258   5.389 -2.7901  0.4619  0.9848
 2764SOL    HW219752   3.167   1.219   5.267  0.8653 -2.1101  2.0633
 2765SOL     OW19753   1.349   2.002   4.919 -0.6901 -0.1665  0.0552
 2765SOL    HW119754   1.277   1.971   4.973 -1.8022  2.9320  0.3395
 2765SOL    HW219755   1.360   2.084   4.968  1.6103 -0.2384 -0.3485
 2766SOL     OW19756   0.128   2.624  10.251 -0.3101  0.2890 -0.0738
 2766SOL    HW119757   0.189   2.554  10.228  0.7598  2.1347 -2.8615
 2766SOL    HW219758   0.155   2.697  10.195 -1.2443 -0.0618 -0.9799
 2767SOL     OW19759   0.410   1.144   1.482 -0.8669 -0.1842  0.0808
 2767SOL    HW119760   0.409   1.216   1.545 -0.3116 -0.1982  0.1007
 2767SOL    HW219761   0.461   1.190   1.415  1.0287 -3.3653 -0.6545
 2768SOL     OW19762   2.544   3.359  14.871  0.1088 -0.5377  0.1498
 2768SOL    HW119763   2.502   3.296  14.931 -1.9745  0.8356  0.1511
 2768SOL    HW219764   2.492   3.347  14.792  1.5265  1.3456 -1.0628
 2769SOL     OW19765   1.748   3.569  16.253  0.1781  0.0657  0.1322
 2769SOL    HW119766   1.835   3.537  16.230 -0.0491 -0.4944  0.0488
 2769SOL    HW219767   1.758   3.601  16.343 -2.9690  1.0799  0.1441
 2770SOL     OW19768   3.052   0.205   9.284 -0.0747 -0.1247  0.4160
 2770SOL    HW119769   3.142   0.175   9.277  0.1925  0.5649  0.9714
 2770SOL    HW219770   3.058   0.289   9.330  2.9101 -0.4032  0.5271
 2771SOL     OW19771   0.592   1.586  13.763  0.3779 -0.1491  0.4722
 2771SOL    HW119772   0.564   1.543  13.844 -0.3770  0.2871  0.4378
 2771SOL    HW219773   0.628   1.513  13.713  2.0119  0.7929  0.2803
 2772SOL     OW19774   0.463   1.258   3.265  0.0298 -0.5701 -0.3094
 2772SOL    HW119775   0.400   1.324   3.294 -0.7510 -2.1189  1.5513
 2772SOL    HW219776   0.528   1.262   3.335 -0.3502  0.2053 -0.0053
 2773SOL     OW19777   2.527   1.424  12.099 -0.0145  0.7492  0.1274
 2773SOL    HW119778   2.503   1.494  12.038  3.2252  1.0894 -0.7502
 2773SOL    HW219779   2.621   1.409  12.087  0.0573  1.5389 -0.3267
 2774SOL     OW19780   0.937   1.623   2.088  0.7742  0.3281  0.8359
 2774SOL    HW119781   0.945   1.573   2.007  1.4595  1.6428  0.0936
 2774SOL    HW219782   0.943   1.712   2.052  1.5494  0.4889  1.3606
 2775SOL     OW19783   2.843   0.882   8.396  0.0390  0.6241 -0.1699
 2775SOL    HW119784   2.788   0.843   8.329  0.6555 -4.2127  2.1732
 2775SOL    HW219785   2.794   0.965   8.399 -0.3869  0.4171 -1.7553
 2776SOL     OW19786   1.010   0.040   4.107  0.1077  0.3764  0.5625
 2776SOL    HW119787   1.072   0.006   4.043 -2.4065 -1.6288 -0.8300
 2776SOL    HW219788   1.070   0.103   4.147 -0.1990  1.2365 -0.3456
 2777SOL     OW19789   0.126   1.505   8.359 -0.5835 -0.2760 -0.2145
 2777SOL    HW119790   0.213   1.546   8.362 -0.6409 -0.1959  0.4551
 2777SOL    HW219791   0.083   1.564   8.421 -0.3025  0.6750 -0.9314
 2778SOL     OW19792   2.908   4.600   2.362 -0.5283 -0.0127 -0.1766
 2778SOL    HW119793   2.818   4.566   2.360 -1.4576  2.4057  0.6831
 2778SOL    HW219794   2.952   4.515   2.364 -0.2296  0.0011 -5.0001
 2779SOL     OW19795   1.497   0.543   4.047  0.1164  0.5551  0.0030
 2779SOL    HW119796   1.566   0.611   4.043 -0.1067  0.7159 -0.9650
 2779SOL    HW219797   1.453   0.551   3.963 -0.8169  2.9726  0.6931
 2780SOL     OW19798   4.141   3.146   2.551  0.1254 -0.1409  0.5307
 2780SOL    HW119799   4.190   3.088   2.610 -1.0516  1.9371  3.5856
 2780SOL    HW219800   4.194   3.136   2.472  2.7913  0.7466  2.2187
 2781SOL     OW19801   1.606   2.313   7.295  0.4751 -0.1305 -0.1028
 2781SOL    HW119802   1.594   2.376   7.366  0.4234  0.0147 -0.2401
 2781SOL    HW219803   1.576   2.363   7.219  3.1245 -0.7189 -1.5525
 2782SOL     OW19804   2.284   2.123  13.031  0.2999 -0.3400 -0.1452
 2782SOL    HW119805   2.288   2.087  12.943  2.6470  1.1896 -0.6589
 2782SOL    HW219806   2.373   2.148  13.056  0.0674  0.2986  0.0478
 2783SOL     OW19807   1.150   2.161  11.079 -0.2047  0.2698 -0.0279
 2783SOL    HW119808   1.208   2.151  11.155 -1.1050  1.5571  0.8332
 2783SOL    HW219809   1.091   2.222  11.123 -0.5483 -0.9631  1.2273
 2784SOL     OW19810   4.497   4.337   2.387 -0.0728 -0.6136  0.0521
 2784SOL    HW119811   4.593   4.337   2.390 -0.0989  0.5883  0.7631
 2784SOL    HW219812   4.472   4.308   2.300 -3.5400  1.5546  0.3368
 2785SOL     OW19813   2.345   0.732   6.797 -0.8392 -0.1094 -0.0691
 2785SOL    HW119814   2.423   0.695   6.836 -0.7624  0.5430  0.3945
 2785SOL    HW219815   2.334   0.815   6.844  2.5824  0.6725 -0.6942
 2786SOL     OW19816   1.510   1.282  13.768  0.3305 -0.1745  0.3831
 2786SOL    HW119817   1.584   1.224  13.788  0.7937  0.0556 -0.6282
 2786SOL    HW219818   1.499   1.330  13.850  0.5974 -0.5948  0.6701
 2787SOL     OW19819   3.901   2.504   4.272 -0.5669  0.0104  0.7349
 2787SOL    HW119820   3.928   2.528   4.183  0.5638 -1.6361  0.6445
 2787SOL    HW219821   3.863   2.585   4.307 -2.0278 -0.7753  0.9737
 2788SOL     OW19822   4.710   3.832  16.056 -0.3144 -0.1244  0.0538
 2788SOL    HW119823   0.010   3.897  16.122 -1.0218  1.2882 -1.0970
 2788SOL    HW219824   0.032   3.752  16.083  0.7320  0.4053 -0.1351
 2789SOL     OW19825   0.977   3.862   5.946 -0.2043  0.4095 -0.0835
 2789SOL    HW119826   0.978   3.825   6.034  1.2902 -1.0823 -0.7152
 2789SOL    HW219827   0.906   3.926   5.946  2.6662  3.5744 -1.2135
 2790SOL     OW19828   0.019   3.749   1.223 -0.4340  0.1500 -0.3964
 2790SOL    HW119829   0.088   3.742   1.289  0.6935  0.5523 -1.5310
 2790SOL    HW219830   0.040   3.837   1.192  2.1229  0.3933  1.9810
 2791SOL     OW19831   2.492   0.789   3.051 -0.3850 -0.4231  0.7262
 2791SOL    HW119832   2.489   0.819   3.142  0.9046 -1.1340  1.0063
 2791SOL    HW219833   2.524   0.699   3.060 -0.6571 -0.6025 -0.1721
 2792SOL     OW19834   2.702   0.204   2.918  0.5505 -0.1685  0.0533
 2792SOL    HW119835   2.763   0.130   2.915  2.2520  1.2360  0.2463
 2792SOL    HW219836   2.739   0.274   2.864 -1.2570  1.2911  0.6839
 2793SOL     OW19837   2.659   1.282   3.071 -0.2947  0.0591 -0.1217
 2793SOL    HW119838   2.618   1.223   3.008  2.4980 -0.3207 -1.5837
 2793SOL    HW219839   2.730   1.314   3.015 -1.3431 -0.5294 -1.8022
 2794SOL     OW19840   4.681   4.522  17.177  0.0890  0.1448 -0.0019
 2794SOL    HW119841   4.616   4.585  17.146 -1.7440 -0.3320  2.8643
 2794SOL    HW219842   0.036   4.574  17.159 -0.8200  0.4463 -3.0051
 2795SOL     OW19843   0.762   0.318  12.191  0.0334  0.6804 -0.7781
 2795SOL    HW119844   0.718   0.353  12.114  2.0551  0.6982 -1.9080
 2795SOL    HW219845   0.834   0.380  12.198  0.2628  0.0062  3.1743
 2796SOL     OW19846   2.230   1.133  13.420 -0.4630 -0.0251  0.2439
 2796SOL    HW119847   2.212   1.154  13.329  0.4500 -0.5751 -0.0580
 2796SOL    HW219848   2.207   1.214  13.466 -1.9662 -0.4483  0.2374
 2797SOL     OW19849   4.561   3.292  16.349 -0.2759 -0.0254 -0.2810
 2797SOL    HW119850   4.586   3.361  16.287  3.1870 -1.2809 -0.2939
 2797SOL    HW219851   4.484   3.254  16.307 -1.6573 -0.7308  2.8967
 2798SOL     OW19852   3.128   3.833  12.655  0.2281 -0.2307 -0.7526
 2798SOL    HW119853   3.056   3.807  12.713  0.8439  0.6080  0.4020
 2798SOL    HW219854   3.186   3.759  12.673 -0.5345 -0.8049 -0.6648
 2799SOL     OW19855   2.672   3.818  14.843  0.0875  0.9628 -0.0306
 2799SOL    HW119856   2.681   3.861  14.757  0.7811  0.9782  0.0479
 2799SOL    HW219857   2.693   3.729  14.815 -3.3518  0.8686 -2.3087
 2800SOL     OW19858   2.376   3.310   6.247 -0.1681 -0.2679 -0.1666
 2800SOL    HW119859   2.388   3.328   6.340 -0.3594  2.3023 -0.6467
 2800SOL    HW219860   2.309   3.374   6.224 -0.6202 -1.1462 -1.3136
 2801SOL     OW19861   3.010   3.166   4.940 -0.8155  0.1325  0.2049
 2801SOL    HW119862   3.100   3.179   4.909 -1.5878 -3.0145 -3.3733
 2801SOL    HW219863   3.037   3.109   5.012 -0.6579  0.6729  0.5781
 2802SOL     OW19864   0.051   0.933   3.733  0.1775 -0.0416  0.4970
 2802SOL    HW119865   0.127   0.969   3.779  0.8307 -0.5542 -0.1898
 2802SOL    HW219866   4.711   0.989   3.777  0.3431 -0.6228  1.4858
 2803SOL     OW19867   4.412   2.531   7.816  0.4958  0.2392 -0.1665
 2803SOL    HW119868   4.381   2.562   7.731 -0.6223  1.5236  0.6980
 2803SOL    HW219869   4.358   2.455   7.836 -1.0718  1.7438  1.3306
 2804SOL     OW19870   0.779   3.199  11.887 -0.4411 -0.0240  0.2939
 2804SOL    HW119871   0.785   3.244  11.971  0.1154  2.3335 -0.9925
 2804SOL    HW219872   0.872   3.191  11.866 -0.4308 -0.7129  0.6128
 2805SOL     OW19873   3.759   4.162  16.306  0.3244  0.4858  0.0408
 2805SOL    HW119874   3.828   4.223  16.282  1.8076 -0.8708  0.8755
 2805SOL    HW219875   3.781   4.143  16.397  2.7988 -0.0053 -0.6634
 2806SOL     OW19876   3.662   0.242   1.819 -0.0545 -0.5759 -0.3975
 2806SOL    HW119877   3.719   0.264   1.892 -0.1293 -2.4331  0.2198
 2806SOL    HW219878   3.730   0.197   1.769  0.2162  0.5093 -0.9973
 2807SOL     OW19879   4.229   3.211  16.281 -0.1397  0.3010  0.0189
 2807SOL    HW119880   4.278   3.134  16.310 -1.4074  0.1668  1.8120
 2807SOL    HW219881   4.149   3.206  16.333  0.7234 -0.1988  1.3142
 2808SOL     OW19882   3.780   1.335   3.948 -0.1140  0.2139 -0.2168
 2808SOL    HW119883   3.788   1.427   3.923  0.6878  0.0177 -0.6759
 2808SOL    HW219884   3.809   1.286   3.871  1.5378  0.1423  0.4573
 2809SOL     OW19885   0.953   4.005  10.928  0.4430  0.4910 -0.1413
 2809SOL    HW119886   0.927   4.061  10.854  0.1537 -0.0506 -0.4473
 2809SOL    HW219887   1.005   3.932  10.894  0.7199  1.4159 -1.7033
 2810SOL     OW19888   4.380   0.491   8.872  0.2632  0.1775  0.2086
 2810SOL    HW119889   4.471   0.513   8.890  0.4270  0.3246 -0.8205
 2810SOL    HW219890   4.362   0.566   8.815  2.4294 -0.2059 -0.9593
 2811SOL     OW19891   4.281   1.825   1.164  0.4616  0.3301  0.4200
 2811SOL    HW119892   4.320   1.906   1.197  1.4615 -0.3728  0.9475
 2811SOL    HW219893   4.213   1.864   1.109  0.2202  0.3471  0.7308
 2812SOL     OW19894   4.501   1.920   4.914 -0.0036 -0.4798 -0.3524
 2812SOL    HW119895   4.486   2.014   4.905 -0.1690 -0.5203 -0.5069
 2812SOL    HW219896   4.596   1.915   4.901  0.2510  1.5866  0.6564
 2813SOL     OW19897   0.119   2.717   4.495 -0.1953  0.1464 -0.0083
 2813SOL    HW119898   0.193   2.692   4.550  0.8043  1.5651 -0.7082
 2813SOL    HW219899   0.081   2.630   4.489  0.7508 -0.0926 -2.4958
 2814SOL     OW19900   2.980   4.693   8.545  0.4213  0.1995  0.1578
 2814SOL    HW119901   2.893   4.717   8.576  1.5107  4.3618  0.0159
 2814SOL    HW219902   2.968   4.617   8.487  1.6851  0.1841 -0.0992
 2815SOL     OW19903   4.049   1.839   0.983 -0.2184  0.2502  0.3402
 2815SOL    HW119904   4.066   1.765   0.924  1.5983  0.2909  0.8145
 2815SOL    HW219905   3.959   1.818   1.008  0.4051 -0.5438  1.9370
 2816SOL     OW19906   3.340   1.096  16.678  0.2764 -0.5549  0.3051
 2816SOL    HW119907   3.286   1.168  16.710  0.5475 -0.1196 -0.2315
 2816SOL    HW219908   3.294   1.063  16.601  1.2489  1.9058 -1.3141
 2817SOL     OW19909   2.853   3.319   3.368  0.2686  0.4893  0.0314
 2817SOL    HW119910   2.917   3.252   3.393 -0.1230  0.8563  1.9468
 2817SOL    HW219911   2.801   3.275   3.300 -0.9684 -0.5700  1.6658
 2818SOL     OW19912   0.843   1.468   5.827 -0.2442  0.8353 -0.1434
 2818SOL    HW119913   0.788   1.392   5.847  1.9461 -0.6246  0.3663
 2818SOL    HW219914   0.907   1.423   5.772 -1.0600 -0.6491  0.1190
 2819SOL     OW19915   1.343   0.816   2.510  0.1980  0.2260 -0.1635
 2819SOL    HW119916   1.256   0.797   2.546  0.9439 -1.1856  0.8878
 2819SOL    HW219917   1.397   0.801   2.587  0.3914  3.1432  0.2815
 2820SOL     OW19918   1.494   3.411  10.419 -0.0586 -0.3938 -0.0467
 2820SOL    HW119919   1.560   3.372  10.362 -0.6065 -0.3792 -0.6909
 2820SOL    HW219920   1.483   3.497  10.378  1.4475  0.2577  0.9007
 2821SOL     OW19921   1.145   4.675  13.486 -0.1071 -0.2604  0.1684
 2821SOL    HW119922   1.093   4.668  13.566  0.4355 -0.4748  0.5010
 2821SOL    HW219923   1.147   4.581  13.465  0.4643 -0.3631  0.6705
 2822SOL     OW19924   0.671   2.590   5.847 -0.6261 -0.0231 -0.2019
 2822SOL    HW119925   0.682   2.596   5.942  0.8887 -1.2260 -0.2952
 2822SOL    HW219926   0.754   2.554   5.815  0.3750  1.7158  0.4628
 2823SOL     OW19927   3.810   3.505   5.765  0.2682 -0.5300  0.0967
 2823SOL    HW119928   3.772   3.502   5.853 -0.4829 -1.1414 -0.2463
 2823SOL    HW219929   3.829   3.599   5.760  0.0857 -0.4728  0.4444
 2824SOL     OW19930   2.948   3.796   3.451 -0.5831  0.0717  0.0551
 2824SOL    HW119931   2.952   3.889   3.428  0.8254 -0.1068 -0.3908
 2824SOL    HW219932   2.861   3.779   3.412  0.0798  1.2852 -1.9877
 2825SOL     OW19933   1.529   4.114  10.361  0.7552 -0.2252  0.0277
 2825SOL    HW119934   1.593   4.050  10.329  1.6039  1.7759 -2.2906
 2825SOL    HW219935   1.529   4.176  10.288  0.4104 -1.2868 -0.8699
 2826SOL     OW19936   2.429   1.925   2.766 -0.4133  0.3564 -0.3947
 2826SOL    HW119937   2.363   1.992   2.780 -0.8645  0.5628 -3.4754
 2826SOL    HW219938   2.402   1.887   2.683 -0.4044 -0.6303  0.0503
 2827SOL     OW19939   1.989   1.007   4.335 -0.3460  0.1628  0.2716
 2827SOL    HW119940   2.016   1.087   4.380  2.6696  0.5355 -2.1640
 2827SOL    HW219941   1.895   1.021   4.322 -0.3381  2.9806  3.1719
 2828SOL     OW19942   3.311   0.166   6.568 -0.4020 -0.2618  0.5483
 2828SOL    HW119943   3.332   0.156   6.660  1.1631 -2.1988 -0.0131
 2828SOL    HW219944   3.365   0.098   6.526 -0.1734 -0.1833  0.7146
 2829SOL     OW19945   2.354   3.938   8.134  0.7467 -0.3966  0.3001
 2829SOL    HW119946   2.275   3.985   8.160  0.7699  0.1191 -0.5706
 2829SOL    HW219947   2.402   3.942   8.217 -1.1476  1.7615  1.2896
 2830SOL     OW19948   3.239   3.827   2.700 -0.0368  0.3697 -0.2628
 2830SOL    HW119949   3.208   3.917   2.695  0.7939  0.5953 -1.1991
 2830SOL    HW219950   3.233   3.800   2.792  0.5165  0.5011 -0.1861
 2831SOL     OW19951   0.823   4.067  11.159  0.0549  0.1989  0.6284
 2831SOL    HW119952   0.875   4.063  11.079  0.1536  0.1663  0.6950
 2831SOL    HW219953   0.821   4.162  11.171  0.9386 -0.0122  2.4870
 2832SOL     OW19954   3.081   4.381   2.350  0.7441  0.0201  0.0768
 2832SOL    HW119955   3.170   4.412   2.364  0.4127  0.4512  1.2077
 2832SOL    HW219956   3.090   4.368   2.255 -2.4220  2.9072 -0.6041
 2833SOL     OW19957   2.876   1.624   7.527 -0.1813 -0.2156  0.0151
 2833SOL    HW119958   2.919   1.545   7.561 -2.1470 -1.0366  0.5911
 2833SOL    HW219959   2.923   1.693   7.575 -0.4198  1.5860 -2.3871
 2834SOL     OW19960   1.795   0.135   1.561  0.0381 -0.0321 -0.1484
 2834SOL    HW119961   1.712   0.109   1.600  0.5544 -2.3445 -0.5287
 2834SOL    HW219962   1.848   0.078   1.618  0.1165  1.7539  1.5234
 2835SOL     OW19963   3.609   1.464   4.918  0.2207  0.0506 -0.0098
 2835SOL    HW119964   3.694   1.494   4.886  0.7607  0.8317  2.1192
 2835SOL    HW219965   3.553   1.473   4.841 -0.4590 -0.8235  0.3829
 2836SOL     OW19966   0.130   4.617  13.526 -0.3834  0.4545  0.7032
 2836SOL    HW119967   0.167   4.609  13.438 -0.8583  0.3608  0.5132
 2836SOL    HW219968   0.043   4.587  13.500  1.0730 -0.5370 -2.9169
 2837SOL     OW19969   0.114   3.561   6.144  0.4084  0.3750  0.1331
 2837SOL    HW119970   0.178   3.502   6.185 -0.6570 -0.5831  0.4003
 2837SOL    HW219971   0.089   3.508   6.068  2.5665 -0.5314  0.0386
 2838SOL     OW19972   2.602   1.731   8.060  0.2683  0.9999  0.1790
 2838SOL    HW119973   2.642   1.815   8.083  0.9169  0.6480  0.3490
 2838SOL    HW219974   2.616   1.738   7.965  0.4232  0.3828  0.1551
 2839SOL     OW19975   0.979   2.251   5.071  0.1148  0.1155 -0.2836
 2839SOL    HW119976   0.989   2.327   5.013  2.5504  0.9639  1.2617
 2839SOL    HW219977   0.950   2.291   5.152  0.4075 -0.2738  0.0155
 2840SOL     OW19978   1.102   2.945   1.996  0.0911 -0.4575 -0.4505
 2840SOL    HW119979   1.025   2.960   1.941  1.0783  1.3342 -1.3679
 2840SOL    HW219980   1.166   2.928   1.926  1.4441 -0.4843  0.8020
 2841SOL     OW19981   3.625   0.332   3.900  0.0359 -0.3269 -0.3335
 2841SOL    HW119982   3.713   0.305   3.876  0.0377  0.1828 -0.9052
 2841SOL    HW219983   3.605   0.386   3.823 -1.9633 -1.0825 -0.3453
 2842SOL     OW19984   1.776   3.385   8.691  0.0454  0.6182  0.5607
 2842SOL    HW119985   1.867   3.373   8.720  0.5559  2.3423 -0.3414
 2842SOL    HW219986   1.734   3.324   8.752 -0.7285 -1.0328 -1.6593
 2843SOL     OW19987   1.891   3.755   6.658 -0.0065  0.5310 -0.5004
 2843SOL    HW119988   1.893   3.838   6.610  0.7752  1.0507  0.4546
 2843SOL    HW219989   1.961   3.716   6.605  1.0862 -0.8279  1.9395
 2844SOL     OW19990   2.731   2.627   4.434  0.7767  0.5782  0.2939
 2844SOL    HW119991   2.778   2.614   4.352  1.2068 -1.4222  0.8562
 2844SOL    HW219992   2.678   2.704   4.414  0.6769  1.1634  2.7496
 2845SOL     OW19993   1.084   2.059  12.413 -0.0150 -0.6417 -0.1594
 2845SOL    HW119994   1.158   2.002  12.393 -0.9792 -1.3834 -1.5946
 2845SOL    HW219995   1.106   2.124  12.347 -0.8944 -0.0169  0.1652
 2846SOL     OW19996   1.870   4.704  15.684  0.3794 -0.0130  0.3053
 2846SOL    HW119997   1.884   4.635  15.619 -0.6498  0.5281 -0.4799
 2846SOL    HW219998   1.865   4.652  15.764 -0.7453 -1.3426 -0.6236
 2847SOL     OW19999   4.169   3.671   5.159 -0.1046 -0.6573 -0.2176
 2847SOL    HW120000   4.155   3.723   5.080 -0.8918 -1.1053 -0.3723
 2847SOL    HW220001   4.151   3.737   5.225  0.1468  1.3348 -2.1248
 2848SOL     OW20002   0.621   1.104   4.378  0.0983  0.2837  0.0994
 2848SOL    HW120003   0.558   1.108   4.306 -1.3926  1.1026  1.4759
 2848SOL    HW220004   0.706   1.102   4.335  0.2972  0.7587  0.4756
 2849SOL     OW20005   0.280   0.860   1.208  0.4889 -0.0749 -0.2186
 2849SOL    HW120006   0.274   0.876   1.302  0.6233  0.2679 -0.2688
 2849SOL    HW220007   0.321   0.773   1.214  0.2009 -0.2104 -0.2279
 2850SOL     OW20008   3.187   0.370   5.115 -0.0084 -0.1404  0.2868
 2850SOL    HW120009   3.191   0.464   5.099  0.2077 -0.1794  0.1076
 2850SOL    HW220010   3.146   0.342   5.033  3.2518  1.2188 -1.8151
 2851SOL     OW20011   2.598   0.268   6.038 -0.1550 -0.0864  0.0890
 2851SOL    HW120012   2.625   0.183   6.071  1.3535  0.0562 -0.7453
 2851SOL    HW220013   2.535   0.233   5.976  0.0847  1.2473 -0.9249
 2852SOL     OW20014   0.271   2.618   3.613 -0.1710  0.4066 -0.7634
 2852SOL    HW120015   0.266   2.578   3.526  1.2283 -0.5972 -0.3775
 2852SOL    HW220016   0.180   2.649   3.620  0.1725  1.0367  0.9992
 2853SOL     OW20017   4.043   3.335  16.975  0.0588  0.0000 -0.1516
 2853SOL    HW120018   4.032   3.246  17.009 -2.3872  1.8676  3.9869
 2853SOL    HW220019   4.117   3.361  17.029 -0.7265  2.2899 -0.1824
 2854SOL     OW20020   1.749   4.499   5.377 -0.0098 -0.1067 -0.6126
 2854SOL    HW120021   1.659   4.530   5.371 -0.8053 -2.7028 -2.1040
 2854SOL    HW220022   1.769   4.459   5.292  1.7105 -0.6897  0.0452
 2855SOL     OW20023   2.517   3.983   0.145  0.0164 -0.1589 -0.5845
 2855SOL    HW120024   2.602   3.952   0.113 -0.0457 -0.5000 -0.4187
 2855SOL    HW220025   2.547   3.986   0.236 -2.6163  0.8919  0.2452
 2856SOL     OW20026   3.987   2.572   4.032  0.3580  0.0405  1.0365
 2856SOL    HW120027   4.074   2.542   4.006  0.3369  1.9320 -1.2369
 2856SOL    HW220028   3.942   2.548   3.950  0.5690 -0.1408  0.9740
 2857SOL     OW20029   4.293   4.418   3.608  0.2094 -0.2582  0.4940
 2857SOL    HW120030   4.234   4.343   3.603  2.1077 -1.8919  3.1545
 2857SOL    HW220031   4.340   4.401   3.526  0.6825  0.4450  0.6155
 2858SOL     OW20032   1.687   0.325   1.777  0.0731 -0.2691  0.2542
 2858SOL    HW120033   1.629   0.253   1.751  0.8926 -0.9005  0.1436
 2858SOL    HW220034   1.751   0.280   1.834 -1.0752 -1.4592  0.6076
 2859SOL     OW20035   3.094   4.273  14.730  0.5148 -0.0720 -0.3406
 2859SOL    HW120036   3.021   4.237  14.680  1.0964  1.4436 -2.2581
 2859SOL    HW220037   3.109   4.357  14.688 -0.9282  0.7317  0.7563
 2860SOL     OW20038   2.101   3.036   6.595  0.0575 -0.1483  0.0063
 2860SOL    HW120039   2.032   3.085   6.551  1.1981  1.7069  0.2564
 2860SOL    HW220040   2.079   3.053   6.686  0.9360  0.5611  0.0946
 2861SOL     OW20041   1.365   2.017   3.910  0.0887  0.2016 -0.9248
 2861SOL    HW120042   1.380   2.002   3.816  0.7041  2.6736 -1.2132
 2861SOL    HW220043   1.318   2.100   3.897 -0.0632  0.3567  0.6907
 2862SOL     OW20044   2.819   2.446   7.281 -0.1958 -0.4840 -0.1544
 2862SOL    HW120045   2.803   2.374   7.220  0.1188 -0.3248 -0.4270
 2862SOL    HW220046   2.732   2.480   7.301  1.1268  2.3468  0.7239
 2863SOL     OW20047   4.143   3.951  13.750  0.0047 -0.1060 -0.3901
 2863SOL    HW120048   4.234   3.946  13.781 -0.0637  1.0524 -0.0095
 2863SOL    HW220049   4.101   3.962  13.835  0.1481  0.6210 -0.4137
 2864SOL     OW20050   4.410   4.327  15.012 -0.0679 -0.3616 -0.8873
 2864SOL    HW120051   4.500   4.300  14.993 -0.6683 -1.8966 -1.5806
 2864SOL    HW220052   4.405   4.402  14.953 -1.5783  1.2022  1.2547
 2865SOL     OW20053   4.617   0.255   5.208 -1.0288  0.1945  0.2620
 2865SOL    HW120054   4.668   0.331   5.180 -0.7008  0.1331  0.6828
 2865SOL    HW220055   4.571   0.237   5.126 -0.9489 -0.6979  0.4042
 2866SOL     OW20056   0.681   2.238   6.032 -0.2256 -0.0493 -0.1068
 2866SOL    HW120057   0.717   2.153   6.007 -1.0169 -0.0196 -1.3619
 2866SOL    HW220058   0.733   2.265   6.108 -1.8334  3.4344 -0.2499
 2867SOL     OW20059   0.754   4.521  16.653 -0.0475  0.5158  0.5763
 2867SOL    HW120060   0.661   4.497  16.657 -0.2483  0.9325 -1.2979
 2867SOL    HW220061   0.749   4.604  16.700  4.8572  1.5472 -0.7171
 2868SOL     OW20062   2.637   2.294   5.818  0.3691 -0.8863 -0.7660
 2868SOL    HW120063   2.644   2.216   5.763 -0.2146 -1.7791  0.4286
 2868SOL    HW220064   2.600   2.353   5.752  0.5050 -1.6580 -1.5320
 2869SOL     OW20065   0.245   3.755   3.060  0.0046  0.0821 -0.4300
 2869SOL    HW120066   0.297   3.679   3.034  0.0385  0.8839 -2.7270
 2869SOL    HW220067   0.180   3.742   2.991 -2.3962 -1.2313  2.0853
 2870SOL     OW20068   1.940   2.292   6.738  0.1774  0.6223 -0.3868
 2870SOL    HW120069   2.035   2.286   6.739  0.1537  0.5377  1.1920
 2870SOL    HW220070   1.909   2.201   6.741  0.8288  0.3494 -2.0532
 2871SOL     OW20071   2.485   3.522   3.900  0.4020  0.0105 -0.3589
 2871SOL    HW120072   2.408   3.520   3.842 -0.1979  3.0828  0.3384
 2871SOL    HW220073   2.492   3.428   3.915  0.0183  0.1056  0.3836
 2872SOL     OW20074   0.002   1.991  12.007  0.5568 -0.3711 -0.3641
 2872SOL    HW120075   0.046   1.950  11.933  0.6988 -0.6602 -0.1217
 2872SOL    HW220076   0.083   2.004  12.056  0.3108 -1.1664  0.2596
 2873SOL     OW20077   0.246   4.062  15.550  0.0718 -0.0718 -0.6032
 2873SOL    HW120078   0.336   4.078  15.580 -0.7745 -0.7561  2.3553
 2873SOL    HW220079   0.198   4.144  15.562  1.1000  0.4444  0.0507
 2874SOL     OW20080   0.221   1.826  11.947 -0.1416 -0.2109 -0.0989
 2874SOL    HW120081   0.240   1.740  11.909  1.7228  0.3079 -0.3684
 2874SOL    HW220082   0.239   1.818  12.041  1.8568 -0.5001 -0.4923
 2875SOL     OW20083   3.136   1.322  11.768  0.5381  0.2629  0.0593
 2875SOL    HW120084   3.198   1.393  11.752  1.6767 -0.0698  3.0252
 2875SOL    HW220085   3.050   1.359  11.750 -1.2135 -3.4696  0.7145
 2876SOL     OW20086   1.615   3.863   9.656  0.6063 -0.4337 -0.5750
 2876SOL    HW120087   1.705   3.861   9.689  0.2974 -1.1638  0.2117
 2876SOL    HW220088   1.618   3.951   9.617  0.6721  0.3462  1.1882
 2877SOL     OW20089   2.881   4.177  16.511 -0.0208  0.3964 -0.0563
 2877SOL    HW120090   2.924   4.125  16.442 -0.3558 -0.7249  0.5797
 2877SOL    HW220091   2.954   4.225  16.550 -0.0225 -0.4833  1.0275
 2878SOL     OW20092   2.605   2.167   7.354  0.3271  0.0102 -0.4851
 2878SOL    HW120093   2.690   2.155   7.395  1.2036  1.9904 -1.7108
 2878SOL    HW220094   2.548   2.134   7.423 -1.5425  1.7738 -1.1750
 2879SOL     OW20095   1.209   4.158   1.445 -0.6977  0.2194  0.7218
 2879SOL    HW120096   1.177   4.185   1.358  1.5551  1.8498  0.3905
 2879SOL    HW220097   1.159   4.077   1.454  0.6945 -0.7667 -0.2779
 2880SOL     OW20098   0.026   3.252  17.352 -0.5331  0.2390  0.1805
 2880SOL    HW120099   0.058   3.171  17.392  1.5581  2.2016  2.4138
 2880SOL    HW220100   0.023   3.217  17.262  0.4019  0.1650  0.1816
 2881SOL     OW20101   0.455   3.702   8.718 -0.1804  0.7135  0.1831
 2881SOL    HW120102   0.415   3.716   8.804  1.1244 -0.5425  0.9887
 2881SOL    HW220103   0.535   3.654   8.739 -1.1013 -0.0458  1.9745
 2882SOL     OW20104   4.528   3.668  14.182  0.1412  0.0171 -0.1359
 2882SOL    HW120105   4.613   3.624  14.178 -0.2447 -0.7099 -0.2905
 2882SOL    HW220106   4.528   3.700  14.272 -0.2680 -0.2032 -0.0573
 2883SOL     OW20107   2.529   4.326   0.796 -0.3023  0.1365  0.4169
 2883SOL    HW120108   2.559   4.331   0.887  2.1227  0.5062 -0.4127
 2883SOL    HW220109   2.602   4.358   0.743 -0.2508 -0.0916  0.3495
 2884SOL     OW20110   3.853   2.039  16.757 -0.2891  0.1327  0.6131
 2884SOL    HW120111   3.837   2.002  16.844 -2.5224 -0.3151  0.0336
 2884SOL    HW220112   3.782   2.001  16.705 -0.7454  1.6311  0.1446
 2885SOL     OW20113   3.451   0.825   0.590 -0.1678 -0.2702  0.3346
 2885SOL    HW120114   3.387   0.847   0.658  0.4681 -0.8109  1.1198
 2885SOL    HW220115   3.523   0.859   0.643  1.1170 -2.8305  0.2416
 2886SOL     OW20116   4.201   4.487   1.190 -0.5708  0.4269  0.2407
 2886SOL    HW120117   4.190   4.392   1.187  1.5423  0.2074 -0.3803
 2886SOL    HW220118   4.294   4.503   1.177 -0.3893 -0.9819 -0.2417
 2887SOL     OW20119   0.777   3.713   8.759  0.3144  0.0469  0.8311
 2887SOL    HW120120   0.789   3.634   8.812  1.5826  0.3036  0.9209
 2887SOL    HW220121   0.765   3.680   8.670  0.5877 -0.1940  0.8821
 2888SOL     OW20122   1.830   3.956   2.932 -0.1335  0.0346  0.1450
 2888SOL    HW120123   1.790   3.869   2.928  2.5508 -1.1167 -1.4180
 2888SOL    HW220124   1.914   3.915   2.952 -0.3211 -0.9854 -1.1078
 2889SOL     OW20125   0.705   0.141   8.491  0.7381  0.6378 -0.1637
 2889SOL    HW120126   0.732   0.117   8.580  0.4073  1.4760  0.1578
 2889SOL    HW220127   0.772   0.096   8.440  0.2697  1.2265 -1.3155
 2890SOL     OW20128   3.179   4.030   8.861 -0.0991  1.1406 -0.1597
 2890SOL    HW120129   3.129   3.950   8.843  1.3456 -0.0308  0.9901
 2890SOL    HW220130   3.121   4.084   8.914 -0.2724  0.5488  0.2519
 2891SOL     OW20131   1.954   1.584   5.816 -0.1747  0.0185  0.0295
 2891SOL    HW120132   2.038   1.545   5.840  0.3376  0.6493 -0.7356
 2891SOL    HW220133   1.982   1.615   5.730 -0.7883  1.5321  0.3821
 2892SOL     OW20134   0.589   0.107   3.144 -0.5216 -0.1220 -0.3400
 2892SOL    HW120135   0.666   0.124   3.197 -0.0513 -1.1192 -0.6976
 2892SOL    HW220136   0.605   0.022   3.102 -0.4247 -0.8118  1.0833
 2893SOL     OW20137   2.732   3.007   7.414 -0.4997  0.2522  0.2683
 2893SOL    HW120138   2.823   3.006   7.445 -1.0608  1.8213  1.9482
 2893SOL    HW220139   2.711   3.087   7.462 -2.2850 -0.6105  0.9220
 2894SOL     OW20140   0.721   4.070   1.556  0.2525  0.1884  0.1651
 2894SOL    HW120141   0.761   4.154   1.533  2.4073  0.1849  3.7525
 2894SOL    HW220142   0.733   4.074   1.651  0.7125 -0.5681  0.1398
 2895SOL     OW20143   4.100   3.641  12.696  0.2044 -0.1664 -0.2245
 2895SOL    HW120144   4.194   3.659  12.696  0.7169 -2.9808 -3.5945
 2895SOL    HW220145   4.103   3.568  12.757 -2.0781  0.3330  0.5058
 2896SOL     OW20146   1.888   2.205   0.299 -0.2801 -0.0862  0.6919
 2896SOL    HW120147   1.812   2.264   0.295  1.2344  1.8646  0.8602
 2896SOL    HW220148   1.922   2.235   0.384 -2.6890  0.4915  1.4777
 2897SOL     OW20149   1.458   3.884   7.725  0.0010 -0.4729  0.0134
 2897SOL    HW120150   1.490   3.970   7.700  0.6539 -1.0833 -1.2400
 2897SOL    HW220151   1.448   3.850   7.636  1.4496 -0.5090 -0.1441
 2898SOL     OW20152   4.333   2.425  11.440 -0.4131 -0.1542  0.3617
 2898SOL    HW120153   4.412   2.384  11.407 -1.9040 -2.2674 -0.5340
 2898SOL    HW220154   4.288   2.455  11.361  0.6676 -0.7546 -0.4824
 2899SOL     OW20155   3.835   1.761   6.143  0.6005  0.4697  0.3137
 2899SOL    HW120156   3.866   1.841   6.186 -4.2469  2.4289  0.1438
 2899SOL    HW220157   3.877   1.701   6.204 -0.7854 -0.6996  0.1205
 2900SOL     OW20158   0.212   3.274   9.482  0.1443 -0.1575 -0.6679
 2900SOL    HW120159   0.279   3.206   9.473 -0.9720 -1.7570  2.9463
 2900SOL    HW220160   0.261   3.335   9.536 -0.0351 -1.1125  0.5689
 2901SOL     OW20161   0.240   2.196  13.960 -0.0255 -0.2316  0.0071
 2901SOL    HW120162   0.149   2.171  13.977  0.1706 -1.8100 -1.2653
 2901SOL    HW220163   0.250   2.131  13.890  3.8619 -0.8372  1.1245
 2902SOL     OW20164   2.260   4.640   3.478 -0.1896  0.3783  0.2172
 2902SOL    HW120165   2.285   4.619   3.388 -0.1171 -1.3207  0.6261
 2902SOL    HW220166   2.331   4.601   3.529 -1.6453 -0.8270  1.3332
 2903SOL     OW20167   4.165   3.610  12.343  0.5170  0.1985 -0.0049
 2903SOL    HW120168   4.128   3.531  12.382 -1.2437  0.9044 -0.2540
 2903SOL    HW220169   4.202   3.646  12.424  1.7245  0.2897 -0.5920
 2904SOL     OW20170   0.750   2.139   9.027 -0.4122  0.1565 -0.0555
 2904SOL    HW120171   0.734   2.178   9.112 -2.9761  0.7353 -0.8015
 2904SOL    HW220172   0.738   2.212   8.967 -1.8258  1.3930  1.7339
 2905SOL     OW20173   2.727   1.100  13.183 -0.1362  0.0798  0.1319
 2905SOL    HW120174   2.680   1.133  13.260  1.0399  0.3714  0.7218
 2905SOL    HW220175   2.816   1.098  13.218 -0.0932  1.4736  0.1027
 2906SOL     OW20176   3.971   4.198   6.330  0.4566 -0.1122 -0.3079
 2906SOL    HW120177   3.985   4.230   6.420 -0.9149 -1.2559  0.3189
 2906SOL    HW220178   3.986   4.103   6.340  2.2717  0.2585  0.6092
 2907SOL     OW20179   0.069   2.109  13.172 -0.2208 -0.2361  0.4226
 2907SOL    HW120180   0.129   2.113  13.097  0.1012  1.0544  0.7479
 2907SOL    HW220181   4.717   2.056  13.146 -1.3190  1.9900 -0.9337
 2908SOL     OW20182   4.018   2.099   8.904  0.2022  0.4241  0.0275
 2908SOL    HW120183   4.092   2.156   8.923  0.2867  0.1617  0.4801
 2908SOL    HW220184   4.069   2.018   8.913 -0.2523 -0.1425 -2.3765
 2909SOL     OW20185   2.549   1.894   3.182  0.5438  0.1301  0.0567
 2909SOL    HW120186   2.573   1.957   3.114 -0.4721  0.7083  0.2301
 2909SOL    HW220187   2.577   1.814   3.138  0.8676 -0.1164  0.7024
 2910SOL     OW20188   3.843   1.073   4.973  0.7394 -0.1658  0.0530
 2910SOL    HW120189   3.766   1.109   5.018  0.4830 -1.0483  0.3306
 2910SOL    HW220190   3.849   1.134   4.899 -0.7873  0.5222  0.4892
 2911SOL     OW20191   2.932   2.296  11.825  0.1197 -0.0891  0.1261
 2911SOL    HW120192   2.850   2.329  11.789  0.4941  1.3417  0.5752
 2911SOL    HW220193   2.927   2.202  11.810  0.6807  0.1452 -1.5322
 2912SOL     OW20194   0.291   3.946   4.517 -0.2247 -0.5633 -0.5949
 2912SOL    HW120195   0.209   3.995   4.524 -0.3254 -0.9878  1.1583
 2912SOL    HW220196   0.262   3.908   4.435  0.4070 -2.1393 -0.1014
 2913SOL     OW20197   4.368   4.168  14.667 -0.2191 -0.7112  0.2928
 2913SOL    HW120198   4.295   4.119  14.706  0.7157 -3.2177 -1.1129
 2913SOL    HW220199   4.316   4.229  14.615 -1.7660 -1.1257  1.3413
 2914SOL     OW20200   2.233   1.825  17.061 -0.0513  0.3324  0.2312
 2914SOL    HW120201   2.295   1.834  16.989  1.1104 -1.2804  1.0377
 2914SOL    HW220202   2.154   1.784  17.027 -0.2926  2.0483 -1.3228
 2915SOL     OW20203   2.430   2.528  13.484 -0.1248 -0.1014  0.1150
 2915SOL    HW120204   2.417   2.467  13.412 -1.2557  0.5235 -0.2139
 2915SOL    HW220205   2.445   2.611  13.438  1.1152 -1.0391 -1.1805
 2916SOL     OW20206   0.452   2.255   5.201  0.0921  0.0714  0.3595
 2916SOL    HW120207   0.378   2.263   5.260 -1.3743 -0.8046 -1.3788
 2916SOL    HW220208   0.423   2.298   5.121 -1.3639  1.4370  1.6235
 2917SOL     OW20209   2.033   2.359   2.823 -0.5434 -0.2121  0.2560
 2917SOL    HW120210   2.078   2.358   2.739 -1.5487  0.8778 -0.2924
 2917SOL    HW220211   1.950   2.312   2.819 -0.9094  0.6334 -1.8942
 2918SOL     OW20212   1.767   3.473   6.971  0.1336 -0.7318 -0.5225
 2918SOL    HW120213   1.692   3.414   6.978 -0.1741 -0.2174  0.4693
 2918SOL    HW220214   1.795   3.459   6.880 -1.3787 -2.4675 -0.7238
 2919SOL     OW20215   1.166   2.855   8.007  0.1744  0.3693 -0.1248
 2919SOL    HW120216   1.235   2.896   8.058 -0.7858 -1.6653  2.7594
 2919SOL    HW220217   1.114   2.793   8.058 -2.0672  1.6310 -0.8754
 2920SOL     OW20218   1.785   1.683   3.692 -0.5648  0.8941  0.0555
 2920SOL    HW120219   1.777   1.675   3.597 -2.8960 -0.5965  0.3915
 2920SOL    HW220220   1.758   1.595   3.716  0.1502  0.6874  0.0862
 2921SOL     OW20221   2.836   1.728   6.937  0.1527  0.1864 -0.1679
 2921SOL    HW120222   2.801   1.654   6.888 -1.0648  0.2578  0.5901
 2921SOL    HW220223   2.900   1.690   6.997 -0.7486 -1.1832 -0.0701
 2922SOL     OW20224   2.404   0.524   7.153  0.2324 -0.0802 -0.2115
 2922SOL    HW120225   2.350   0.599   7.177  1.6091  0.8965 -0.1234
 2922SOL    HW220226   2.436   0.487   7.235  1.8768  0.4518 -0.6072
 2923SOL     OW20227   0.023   0.853  12.815  0.6034  0.4834  0.0147
 2923SOL    HW120228   0.094   0.889  12.868  0.0891  1.6717 -0.1073
 2923SOL    HW220229   4.722   0.777  12.869  0.1004  1.6252  1.4004
 2924SOL     OW20230   3.986   2.896   3.013  0.1169 -0.5837 -0.6806
 2924SOL    HW120231   3.908   2.906   2.959  0.7542 -0.3606 -1.5698
 2924SOL    HW220232   3.961   2.819   3.065 -2.0251  0.8070  0.3192
 2925SOL     OW20233   1.299   2.642   3.433 -0.4886  0.3307  0.0126
 2925SOL    HW120234   1.314   2.580   3.504 -0.6909 -1.9559 -1.9753
 2925SOL    HW220235   1.313   2.592   3.352 -1.0252  1.2004 -0.6179
 2926SOL     OW20236   1.945   4.403  13.319 -0.5832  0.3506  0.4703
 2926SOL    HW120237   1.963   4.333  13.256 -0.1476  1.3762 -0.5452
 2926SOL    HW220238   1.867   4.440  13.279 -0.8764  0.2294  0.9258
 2927SOL     OW20239   4.236   2.566   8.110  0.0585 -0.0451  0.2028
 2927SOL    HW120240   4.293   2.490   8.121  1.7213  0.9156 -1.9677
 2927SOL    HW220241   4.207   2.547   8.021  0.3541 -0.5000  0.2041
 2928SOL     OW20242   4.357   4.644  15.838 -0.2337  0.0215  0.3115
 2928SOL    HW120243   4.303   4.721  15.820 -0.8742 -1.1327 -2.8432
 2928SOL    HW220244   4.402   4.683  15.913  1.0954 -0.2710 -0.3468
 2929SOL     OW20245   0.201   0.816  12.201  0.8344 -0.5363 -0.0279
 2929SOL    HW120246   0.152   0.871  12.140 -0.5405 -0.6537  0.9778
 2929SOL    HW220247   0.245   0.750  12.147 -2.9637 -2.4331 -0.7847
 2930SOL     OW20248   4.460   2.551   3.064  0.2699 -0.0074 -0.5807
 2930SOL    HW120249   4.486   2.611   2.994  1.4184 -0.9440 -0.9626
 2930SOL    HW220250   4.517   2.476   3.048  0.3497 -0.0285 -0.1923
 2931SOL     OW20251   4.598   1.508  12.295 -0.1635 -0.0921 -0.1956
 2931SOL    HW120252   4.683   1.477  12.265 -0.2256 -0.2106 -0.2486
 2931SOL    HW220253   4.587   1.588  12.243 -1.4778  0.5719  1.0916
 2932SOL     OW20254   4.581   3.712   1.538  0.2328 -0.2105  0.3324
 2932SOL    HW120255   4.606   3.678   1.624 -1.2746 -0.0199  0.8419
 2932SOL    HW220256   4.652   3.773   1.517  0.6493  0.1494  2.8439
 2933SOL     OW20257   0.974   3.489   2.221 -0.3752  0.1249  0.3896
 2933SOL    HW120258   1.060   3.450   2.238 -0.3514 -0.0531 -0.1450
 2933SOL    HW220259   0.971   3.470   2.127  1.5881 -1.7861  0.7102
 2934SOL     OW20260   0.382   0.014   6.995  0.4557  0.1989 -0.2286
 2934SOL    HW120261   0.291   4.718   6.969  0.4456 -1.3207  0.9345
 2934SOL    HW220262   0.434   4.685   6.934  2.2649  1.8747 -0.0986
 2935SOL     OW20263   0.331   1.083   7.015 -0.6819 -0.6995 -0.1880
 2935SOL    HW120264   0.306   1.175   7.021  1.6818 -0.2275  2.3566
 2935SOL    HW220265   0.270   1.058   7.085  1.4346 -0.4102  1.7440
 2936SOL     OW20266   2.422   0.900  13.375 -0.7586 -0.2095  0.1071
 2936SOL    HW120267   2.433   0.939  13.288 -0.7048 -2.2098 -0.7779
 2936SOL    HW220268   2.510   0.870  13.398 -1.5695 -2.6058  0.0682
 2937SOL     OW20269   0.287   4.718  14.598 -0.1908 -0.2949  0.6329
 2937SOL    HW120270   0.268   0.072  14.544 -2.7239 -2.1734 -1.1943
 2937SOL    HW220271   0.310   0.041  14.678 -1.8756  2.3972 -0.4395
 2938SOL     OW20272   0.763   1.495   2.997 -0.3726  0.0617 -0.2315
 2938SOL    HW120273   0.707   1.509   2.920 -3.0690  0.7268  1.8266
 2938SOL    HW220274   0.846   1.506   2.950 -0.5931  0.4765 -0.5274
 2939SOL     OW20275   0.199   1.499   2.461  1.0936 -0.2050  0.0932
 2939SOL    HW120276   0.129   1.449   2.503 -0.7201  0.8985 -1.6479
 2939SOL    HW220277   0.230   1.553   2.533  3.5222  1.2484 -2.0483
 2940SOL     OW20278   2.689   3.730   2.465 -0.4137 -0.8397 -0.3075
 2940SOL    HW120279   2.741   3.660   2.426  0.8788 -0.3480  0.5107
 2940SOL    HW220280   2.660   3.776   2.387  1.3396  0.4401 -0.2202
 2941SOL     OW20281   2.742   3.315   6.366  0.2895  0.6525  0.1609
 2941SOL    HW120282   2.688   3.250   6.321  1.3282 -0.3158  0.3317
 2941SOL    HW220283   2.681   3.388   6.379 -1.2223 -0.5892  0.1445
 2942SOL     OW20284   0.217   0.758  10.155  0.0600 -0.0666 -0.7814
 2942SOL    HW120285   0.220   0.821  10.083 -0.2361  1.4602  0.5330
 2942SOL    HW220286   0.224   0.814  10.233 -0.3151  0.9603 -1.4836
 2943SOL     OW20287   2.789   2.443   2.007 -0.2174 -0.3460 -0.9640
 2943SOL    HW120288   2.796   2.509   1.938 -1.7966  0.7853 -0.0285
 2943SOL    HW220289   2.876   2.457   2.046 -0.5636 -0.8203 -0.0340
 2944SOL     OW20290   2.352   4.476   9.035 -0.5409  0.2690  0.1969
 2944SOL    HW120291   2.347   4.387   9.071  3.1830  0.2987  0.7958
 2944SOL    HW220292   2.268   4.480   8.990 -0.5744  0.8927  0.3176
 2945SOL     OW20293   0.515   3.245   5.845  0.0135 -0.3678  0.1442
 2945SOL    HW120294   0.468   3.309   5.899 -2.0779 -1.1101 -0.8254
 2945SOL    HW220295   0.476   3.255   5.759  3.1733 -1.1225 -1.3860
 2946SOL     OW20296   3.227   0.865   8.953  0.3558  0.0635  0.2591
 2946SOL    HW120297   3.160   0.811   8.911 -2.0036  0.8263  3.0677
 2946SOL    HW220298   3.243   0.818   9.035  0.2575 -0.3638  0.0349
 2947SOL     OW20299   3.049   2.333   7.374 -0.1305  0.1381  0.1499
 2947SOL    HW120300   2.955   2.336   7.359  0.2503 -0.0326 -2.1696
 2947SOL    HW220301   3.053   2.381   7.457  0.0010 -1.0626  0.8544
 2948SOL     OW20302   4.504   3.530   9.150  0.0476 -0.9143  0.0525
 2948SOL    HW120303   4.481   3.539   9.243  0.4755 -0.2061  0.0907
 2948SOL    HW220304   4.453   3.602   9.112  0.2086 -1.1667 -0.6436
 2949SOL     OW20305   2.205   4.617   4.299 -0.6790 -0.4468  0.6885
 2949SOL    HW120306   2.246   4.531   4.303 -1.3684 -0.7949  0.2273
 2949SOL    HW220307   2.231   4.647   4.386 -1.8351  0.5029  0.7090
 2950SOL     OW20308   3.411   1.909   7.320 -0.8595 -0.3810 -0.3221
 2950SOL    HW120309   3.387   1.903   7.228  1.1074 -0.5079 -0.8374
 2950SOL    HW220310   3.378   1.994   7.348 -0.0630 -0.0626 -0.3472
 2951SOL     OW20311   3.370   3.819   6.100  0.1447 -0.5462  0.1055
 2951SOL    HW120312   3.373   3.812   6.195 -1.7081 -0.7780  0.1508
 2951SOL    HW220313   3.280   3.848   6.082 -0.0567 -0.5051  1.2181
 2952SOL     OW20314   2.074   2.893   4.746 -0.1295  0.6701  0.8738
 2952SOL    HW120315   1.997   2.951   4.742 -1.9806 -1.9432 -1.1347
 2952SOL    HW220316   2.144   2.958   4.755  2.5721 -2.1904  0.5649
 2953SOL     OW20317   3.655   0.810   0.027 -0.3442  0.2684  0.3018
 2953SOL    HW120318   3.579   0.834   0.079 -0.2008  3.1007 -0.7757
 2953SOL    HW220319   3.718   0.869   0.069 -1.6304  1.1781  0.9593
 2954SOL     OW20320   0.709   0.034   2.519  0.2650  0.0750 -0.0769
 2954SOL    HW120321   0.778   4.714   2.469 -1.7354 -1.9841 -1.0583
 2954SOL    HW220322   0.753   0.117   2.540  0.6747 -0.2106  0.1902
 2955SOL     OW20323   2.392   3.757   7.019 -0.6378  0.9846 -0.0222
 2955SOL    HW120324   2.305   3.780   6.987 -1.0322  1.6303  1.4824
 2955SOL    HW220325   2.423   3.833   7.069  0.2725 -0.4190  1.5404
 2956SOL     OW20326   0.485   3.907   7.129  0.2764 -0.8655  0.7617
 2956SOL    HW120327   0.507   3.942   7.215 -1.0776  0.1425  0.6980
 2956SOL    HW220328   0.439   3.981   7.089  1.1514 -0.2647  0.8778
 2957SOL     OW20329   0.102   0.271   7.540  0.3540 -0.1315  0.1831
 2957SOL    HW120330   0.125   0.178   7.548  0.6210  0.0531  1.5183
 2957SOL    HW220331   0.042   0.266   7.465  0.4421 -2.5877  0.2796
 2958SOL     OW20332   0.924   3.873  14.462  0.1141  0.2602 -0.1798
 2958SOL    HW120333   0.844   3.872  14.410  1.4256 -2.0192 -2.1645
 2958SOL    HW220334   0.959   3.790  14.428  2.3832  0.6138  1.2901
 2959SOL     OW20335   4.624   3.859  14.643  0.3149 -0.9058  0.2743
 2959SOL    HW120336   4.563   3.866  14.717 -0.4858  0.4834 -0.5301
 2959SOL    HW220337   4.681   3.792  14.681  0.2097 -0.2455  1.6020
 2960SOL     OW20338   1.690   0.365  12.373 -0.0387  0.1777  0.0082
 2960SOL    HW120339   1.758   0.414  12.419 -1.7364  1.2653  1.3491
 2960SOL    HW220340   1.724   0.373  12.284  2.2153 -1.0779  0.7483
 2961SOL     OW20341   2.734   3.460   2.354 -0.0470  0.5140  0.0043
 2961SOL    HW120342   2.693   3.434   2.271 -0.9518  0.0704  0.5976
 2961SOL    HW220343   2.670   3.421   2.414  0.6882  0.6871  0.9018
 2962SOL     OW20344   3.698   4.228   7.590  0.0373 -0.1392 -0.2184
 2962SOL    HW120345   3.606   4.247   7.571  0.6516  2.4483 -0.5685
 2962SOL    HW220346   3.688   4.143   7.634  0.7768 -1.0278 -1.7846
 2963SOL     OW20347   4.164   1.244   6.375  0.0053 -0.1380 -0.3068
 2963SOL    HW120348   4.221   1.282   6.442  0.3760  0.3515 -0.9063
 2963SOL    HW220349   4.230   1.200   6.323  1.9243 -1.0985  2.9355
 2964SOL     OW20350   0.385   4.234   5.304  0.3661  0.2912 -0.7552
 2964SOL    HW120351   0.424   4.320   5.316  0.9241 -0.2244  1.0597
 2964SOL    HW220352   0.299   4.230   5.346 -0.1323 -0.8750 -1.8588
 2965SOL     OW20353   0.323   0.030   7.684 -0.3629  0.1062 -0.1169
 2965SOL    HW120354   0.311   4.686   7.751 -0.0483  1.4833  1.3240
 2965SOL    HW220355   0.239   0.023   7.640 -0.0269 -0.3520 -0.6824
 2966SOL     OW20356   4.521   1.999   0.028 -0.4759  0.6142 -0.1328
 2966SOL    HW120357   4.560   2.074   0.072  0.7717 -0.5350  0.7231
 2966SOL    HW220358   4.478   1.950   0.099  0.8387  0.6257  0.6773
 2967SOL     OW20359   3.051   0.340  13.471  0.5812 -0.2071  0.0525
 2967SOL    HW120360   3.121   0.403  13.452 -0.5444  0.7137 -1.0659
 2967SOL    HW220361   3.096   0.261  13.439 -0.4715 -0.5550 -0.5614
 2968SOL     OW20362   3.385   1.597   7.831 -0.1787 -0.6339 -0.3153
 2968SOL    HW120363   3.445   1.552   7.771  0.9924 -0.2295  0.5622
 2968SOL    HW220364   3.408   1.548   7.909  0.9914 -0.1519 -0.3523
 2969SOL     OW20365   2.392   4.548  16.684  0.4494  0.1892  0.0651
 2969SOL    HW120366   2.331   4.503  16.743 -0.2706  1.1029  0.0128
 2969SOL    HW220367   2.477   4.539  16.728 -0.4647 -1.1120  1.5400
 2970SOL     OW20368   2.084   1.874   9.324 -0.2282  0.3280  0.1230
 2970SOL    HW120369   2.002   1.825   9.325 -0.0301  0.0095  0.5403
 2970SOL    HW220370   2.033   1.954   9.313 -1.1020 -0.0372  1.4802
 2971SOL     OW20371   4.299   4.355   1.626 -0.0325  0.0903 -0.0668
 2971SOL    HW120372   4.333   4.416   1.561  0.6741  1.0522  1.1977
 2971SOL    HW220373   4.329   4.270   1.593  1.8598  1.1862 -1.1867
 2972SOL     OW20374   0.347   2.462  10.234 -0.0877 -0.2690  0.2976
 2972SOL    HW120375   0.375   2.392  10.175  1.3909 -1.5887  2.5691
 2972SOL    HW220376   0.420   2.523  10.229  1.1139 -1.9222 -2.2631
 2973SOL     OW20377   0.014   3.372  10.220 -0.0814 -0.8865  0.0972
 2973SOL    HW120378   0.065   3.301  10.259 -0.3705 -2.5661 -2.5957
 2973SOL    HW220379   4.714   3.330  10.137  2.1750 -2.5579  0.3369
 2974SOL     OW20380   0.355   4.623   9.088 -0.0841 -0.2322  0.1490
 2974SOL    HW120381   0.398   4.596   9.170  0.5539  0.5523  0.0748
 2974SOL    HW220382   0.408   4.567   9.031 -0.4620  1.0471 -1.4363
 2975SOL     OW20383   1.143   0.801   7.263  0.3413  0.5643 -0.7050
 2975SOL    HW120384   1.185   0.735   7.209 -3.4158 -0.6828 -2.0740
 2975SOL    HW220385   1.051   0.795   7.240  0.4048 -0.4289 -0.6837
 2976SOL     OW20386   4.311   3.711   1.530  0.5888 -0.1982 -0.0730
 2976SOL    HW120387   4.305   3.691   1.624 -0.7658 -1.1637 -0.3714
 2976SOL    HW220388   4.404   3.728   1.515 -0.1782  3.8035 -0.2140
 2977SOL     OW20389   4.091   1.099   4.639  0.0134  0.3035  0.2169
 2977SOL    HW120390   4.184   1.119   4.652  0.1763 -1.4296  1.6129
 2977SOL    HW220391   4.086   1.010   4.604  0.9161  1.6475 -3.3364
 2978SOL     OW20392   0.716   0.325   1.114 -0.1641 -0.1595  0.6854
 2978SOL    HW120393   0.679   0.412   1.130  1.9678  0.5974  1.4246
 2978SOL    HW220394   0.733   0.298   1.204  1.2370 -0.0849  0.4414
 2979SOL     OW20395   2.732   1.740  12.562 -0.2479  0.4083 -0.0060
 2979SOL    HW120396   2.718   1.654  12.600 -1.7714  0.4439 -0.4836
 2979SOL    HW220397   2.712   1.719  12.471  2.7263 -1.6170 -0.1751
 2980SOL     OW20398   3.289   1.126   9.033  0.3500  0.4772 -0.0619
 2980SOL    HW120399   3.268   1.039   9.000 -3.3397  1.2283  0.2433
 2980SOL    HW220400   3.348   1.165   8.969 -2.0802  0.5546 -2.2167
 2981SOL     OW20401   1.724   0.813   7.376  0.3231  1.1712 -0.1626
 2981SOL    HW120402   1.680   0.876   7.318  0.1043 -0.1186 -1.4028
 2981SOL    HW220403   1.658   0.743   7.373  0.7579  0.8248 -1.6090
 2982SOL     OW20404   0.344   4.225   7.266  0.0272  0.0513 -0.1684
 2982SOL    HW120405   0.302   4.182   7.341 -0.0699 -1.4089 -1.0469
 2982SOL    HW220406   0.435   4.198   7.274 -0.0273 -0.2444 -0.5305
 2983SOL     OW20407   1.774   3.527   4.931  0.0623 -0.0183  0.3777
 2983SOL    HW120408   1.848   3.535   4.871  1.3068  0.3880  1.9462
 2983SOL    HW220409   1.777   3.433   4.947 -0.5342 -0.2501 -0.9604
 2984SOL     OW20410   1.615   1.032   3.967 -0.1173 -0.5252  0.0926
 2984SOL    HW120411   1.636   1.120   3.997 -2.0359  0.3013 -0.9600
 2984SOL    HW220412   1.605   1.036   3.872  2.6626 -0.1012 -0.1713
 2985SOL     OW20413   1.899   0.828   0.971 -0.3210  0.3361 -0.2772
 2985SOL    HW120414   1.870   0.850   0.882  0.2103  1.4276 -0.1842
 2985SOL    HW220415   1.925   0.738   0.950 -0.9403 -0.0553  0.6717
 2986SOL     OW20416   1.933   0.350  11.788 -0.9233 -0.1133  0.0184
 2986SOL    HW120417   1.918   0.352  11.693 -1.2114  1.6293  0.1067
 2986SOL    HW220418   1.951   0.256  11.796  0.9359  0.2120 -0.1442
 2987SOL     OW20419   2.791   0.082  11.524  0.6465  0.0667  0.5813
 2987SOL    HW120420   2.715   0.141  11.519  1.4712  1.2322  1.8739
 2987SOL    HW220421   2.863   0.144  11.538 -1.0207  2.0470  0.3000
 2988SOL     OW20422   2.934   4.036  17.406  0.7080 -0.2255 -0.2570
 2988SOL    HW120423   2.963   3.956  17.450 -1.2960 -0.7256  0.1866
 2988SOL    HW220424   2.839   4.027  17.395  0.8531  0.1197 -1.7914
 2989SOL     OW20425   3.602   1.902   7.777  0.2880  0.3844  0.5436
 2989SOL    HW120426   3.627   1.930   7.865  0.6671 -2.7139  1.4436
 2989SOL    HW220427   3.628   1.981   7.731 -0.2682 -1.3725 -2.7723
 2990SOL     OW20428   1.235   0.157   0.662 -0.1350 -0.1097  0.2319
 2990SOL    HW120429   1.232   0.251   0.679  0.9458 -0.2497  1.1648
 2990SOL    HW220430   1.288   0.132   0.738 -2.7283 -4.6513  0.6071
 2991SOL     OW20431   1.533   3.326   4.184 -0.2312 -0.0513 -0.3175
 2991SOL    HW120432   1.563   3.384   4.254 -0.2351 -2.2878  1.5204
 2991SOL    HW220433   1.440   3.349   4.179 -0.8114 -2.2735  0.4322
 2992SOL     OW20434   4.432   3.753   3.647  0.2250  0.5301  0.2605
 2992SOL    HW120435   4.504   3.708   3.603  1.2625  1.9630  0.4899
 2992SOL    HW220436   4.438   3.844   3.619 -0.1674  0.8586  1.2574
 2993SOL     OW20437   2.306   2.242  13.422  0.4789 -0.1794 -0.3051
 2993SOL    HW120438   2.242   2.211  13.358  0.3614  1.4906 -1.0091
 2993SOL    HW220439   2.367   2.287  13.363  0.3442  0.3444 -0.0511
 2994SOL     OW20440   0.642   2.264  11.001  0.3827  0.6349 -0.0276
 2994SOL    HW120441   0.591   2.333  10.959  1.4222  1.4800  0.1007
 2994SOL    HW220442   0.578   2.214  11.051  1.9595 -2.1920 -0.8832
 2995SOL     OW20443   2.451   4.445  16.014  0.4330 -0.2553  0.0527
 2995SOL    HW120444   2.448   4.536  16.044 -1.0498 -0.8204  1.6370
 2995SOL    HW220445   2.363   4.412  16.032  0.4254 -0.1637  0.1887
 2996SOL     OW20446   1.881   0.705   3.342 -0.6832 -0.1181  0.1030
 2996SOL    HW120447   1.883   0.609   3.347  0.1364 -0.2570 -3.4554
 2996SOL    HW220448   1.972   0.716   3.316 -0.9974 -0.1883 -1.0321
 2997SOL     OW20449   1.817   2.244   4.017  0.1470 -0.1125 -0.2923
 2997SOL    HW120450   1.883   2.225   3.950  1.4989  0.1942  0.9522
 2997SOL    HW220451   1.783   2.156   4.032  1.7649 -0.8588 -0.9863
 2998SOL     OW20452   2.325   4.233   5.994  0.0572 -0.4781  0.1708
 2998SOL    HW120453   2.402   4.175   5.996 -0.8326 -1.6063  2.1745
 2998SOL    HW220454   2.267   4.172   5.948  0.0693 -0.8428  0.6367
 2999SOL     OW20455   0.162   1.102   5.614  0.1961 -0.4374  0.2012
 2999SOL    HW120456   0.198   1.176   5.663 -1.1760 -0.0979  0.6768
 2999SOL    HW220457   0.166   1.031   5.679 -2.7388 -0.9618 -0.2146
 3000SOL     OW20458   1.974   0.861   7.725  0.4471 -0.0501 -0.2370
 3000SOL    HW120459   1.952   0.948   7.758 -1.3739 -0.7165  0.3551
 3000SOL    HW220460   1.887   0.837   7.691  1.1157  0.4052 -2.2289
 3001SOL     OW20461   0.259   0.665   8.864  0.1625  0.2905 -0.0793
 3001SOL    HW120462   0.296   0.675   8.776 -0.2954  0.9097 -0.2069
 3001SOL    HW220463   0.321   0.707   8.924  1.3541  0.8987 -1.7528
 3002SOL     OW20464   3.983   4.481   3.634  0.1176 -0.2441 -0.2611
 3002SOL    HW120465   4.005   4.467   3.726 -0.7490  0.2715  0.0243
 3002SOL    HW220466   4.059   4.534   3.610  0.3094 -0.2633  0.3059
 3003SOL     OW20467   0.567   4.067  10.601  0.4495 -0.1544 -0.4671
 3003SOL    HW120468   0.525   4.004  10.660 -1.2081  2.0589  0.7261
 3003SOL    HW220469   0.506   4.052  10.528 -0.8859  1.5888  0.2738
 3004SOL     OW20470   0.383   2.151   8.949 -0.3634  0.5584 -0.3755
 3004SOL    HW120471   0.303   2.192   8.917 -0.6876  0.0354 -0.2298
 3004SOL    HW220472   0.378   2.058   8.925  2.9289  0.4459 -0.6201
 3005SOL     OW20473   3.698   2.462   1.945 -0.0983  0.1217 -0.5268
 3005SOL    HW120474   3.696   2.557   1.952  0.9186  0.3188 -2.7587
 3005SOL    HW220475   3.772   2.441   2.002  0.3043  0.4892 -0.9205
 3006SOL     OW20476   4.453   2.231   1.206 -0.1888  0.5249 -0.4305
 3006SOL    HW120477   4.532   2.224   1.152 -0.5552  1.3257 -1.0757
 3006SOL    HW220478   4.408   2.299   1.156 -0.2331  0.9377  0.1625
 3007SOL     OW20479   1.110   0.472  12.489 -0.2475 -0.1935  0.0657
 3007SOL    HW120480   1.165   0.401  12.524  0.6709 -0.3133 -1.6060
 3007SOL    HW220481   1.022   0.435  12.497 -0.2515 -0.3109 -0.4982
 3008SOL     OW20482   2.481   3.248   4.023 -0.2142 -0.0544  0.0824
 3008SOL    HW120483   2.553   3.269   4.083 -0.0142 -0.5285  0.0141
 3008SOL    HW220484   2.507   3.160   3.994 -0.1379 -0.7577  2.2298
 3009SOL     OW20485   3.580   3.204   7.406 -0.2449  0.3629  0.0194
 3009SOL    HW120486   3.498   3.254   7.400 -0.9611 -0.8362 -0.2254
 3009SOL    HW220487   3.553   3.160   7.487 -0.1109  1.1810  0.5089
 3010SOL     OW20488   3.254   0.393   3.964 -0.4045 -0.2816  0.3320
 3010SOL    HW120489   3.311   0.342   4.021  0.1250 -1.8517 -1.6087
 3010SOL    HW220490   3.272   0.476   4.007 -2.6511  0.9193 -1.0590
 3011SOL     OW20491   1.362   0.861   6.429  0.0439 -0.0041 -0.4461
 3011SOL    HW120492   1.307   0.791   6.463 -2.4833  0.4177 -3.5887
 3011SOL    HW220493   1.327   0.940   6.470 -0.2154  0.4861 -1.5893
 3012SOL     OW20494   0.828   2.406  17.299 -0.3052  0.5938  0.0454
 3012SOL    HW120495   0.852   2.360  17.379  0.0799 -0.5419 -0.7235
 3012SOL    HW220496   0.807   2.336  17.237 -2.8695  0.2121  1.3670
 3013SOL     OW20497   0.374   1.949   3.142 -0.3728  0.1327  0.2232
 3013SOL    HW120498   0.280   1.969   3.137  0.1208  2.2733 -0.2355
 3013SOL    HW220499   0.411   2.014   3.201  1.2818 -0.5069 -0.1043
 3014SOL     OW20500   0.233   3.117   4.923  0.3879 -0.2717  0.2347
 3014SOL    HW120501   0.206   3.172   4.996  0.6736 -0.1081  0.2162
 3014SOL    HW220502   0.328   3.131   4.929  0.4221 -0.7442  0.7626
 3015SOL     OW20503   4.143   1.075   0.602  0.1067 -0.9406  0.0782
 3015SOL    HW120504   4.168   0.987   0.633 -0.7739 -0.4112  2.3186
 3015SOL    HW220505   4.050   1.068   0.581  0.2656  1.0561 -1.2836
 3016SOL     OW20506   3.627   0.271   6.642  0.5991 -0.5356  0.5834
 3016SOL    HW120507   3.639   0.358   6.680  1.0648  0.6966 -2.4732
 3016SOL    HW220508   3.603   0.213   6.715 -0.9162 -1.0063 -0.2823
 3017SOL     OW20509   1.182   3.028   3.309 -0.1483 -0.1300 -0.2451
 3017SOL    HW120510   1.229   2.960   3.262  0.4454 -0.7207  1.2180
 3017SOL    HW220511   1.093   3.017   3.274 -0.1548 -0.1109 -0.2344
 3018SOL     OW20512   4.680   4.230  10.193  0.0746  0.2282 -0.0085
 3018SOL    HW120513   4.669   4.273  10.107 -2.5363  0.2257  0.3232
 3018SOL    HW220514   0.012   4.297  10.234  1.3500  0.1068 -1.5026
 3019SOL     OW20515   4.563   1.763  12.154 -0.0577  0.2838 -0.8781
 3019SOL    HW120516   4.598   1.760  12.065  0.5840  1.4309 -0.6638
 3019SOL    HW220517   4.626   1.820  12.199  1.1498 -1.0663 -0.8489
 3020SOL     OW20518   3.514   0.120  12.118  0.2335  0.0952  0.2630
 3020SOL    HW120519   3.451   0.067  12.166 -1.0483 -1.6463 -3.3944
 3020SOL    HW220520   3.581   0.059  12.088  0.3590  0.4162 -0.1045
 3021SOL     OW20521   4.691   2.965  17.465  0.2777  0.1230 -0.2647
 3021SOL    HW120522   4.682   2.871  17.444 -1.0590 -0.1370  1.4445
 3021SOL    HW220523   0.012   2.960  17.549 -2.4939  3.3413  1.3784
 3022SOL     OW20524   0.732   1.745   9.696  0.6291 -0.5236 -0.0465
 3022SOL    HW120525   0.786   1.674   9.733 -2.9680 -2.8859  0.6692
 3022SOL    HW220526   0.694   1.693   9.626  0.7559 -0.6565 -0.0175
 3023SOL     OW20527   3.370   2.587  15.016 -0.4473 -0.2200 -0.1298
 3023SOL    HW120528   3.439   2.546  14.964  0.2025  0.7776 -0.0432
 3023SOL    HW220529   3.311   2.511  15.023  0.7249 -1.3029 -1.9516
 3024SOL     OW20530   1.063   2.268   3.974  0.5567 -0.5641  0.1295
 3024SOL    HW120531   1.047   2.317   4.055  0.3139 -1.6915  0.7718
 3024SOL    HW220532   0.993   2.290   3.914 -0.1563 -0.1052  1.1301
 3025SOL     OW20533   0.201   4.011  12.120  0.3804 -0.3099 -0.0598
 3025SOL    HW120534   0.110   3.983  12.129  0.2117  0.4474  0.6020
 3025SOL    HW220535   0.255   3.932  12.124  2.8090  1.4103  1.0987
 3026SOL     OW20536   2.106   3.210   7.615 -0.7118 -0.1505 -0.2520
 3026SOL    HW120537   2.066   3.187   7.531  1.3000 -2.5620 -0.5297
 3026SOL    HW220538   2.073   3.142   7.673  0.3166 -1.7533 -1.5531
 3027SOL     OW20539   1.057   3.555  14.168  0.1053 -0.1994 -0.5649
 3027SOL    HW120540   1.049   3.599  14.252 -0.7649 -0.4382 -0.5280
 3027SOL    HW220541   0.987   3.594  14.117 -2.2683  0.2793  3.0975
 3028SOL     OW20542   1.579   1.125   6.690  0.0208  0.5156 -1.1534
 3028SOL    HW120543   1.569   1.123   6.595  1.4071 -1.9529 -1.2592
 3028SOL    HW220544   1.658   1.070   6.695 -1.3470 -1.4396 -0.8137
 3029SOL     OW20545   1.305   3.294   5.673 -0.2143  0.1643 -0.6493
 3029SOL    HW120546   1.369   3.364   5.678  0.1748 -0.1523 -1.1562
 3029SOL    HW220547   1.227   3.346   5.654 -0.0018  0.4521 -0.7366
 3030SOL     OW20548   4.203   2.085   1.229 -0.1322 -0.7730 -0.1668
 3030SOL    HW120549   4.165   2.053   1.311 -0.0304 -1.0163 -0.2133
 3030SOL    HW220550   4.273   2.137   1.267 -0.8603  0.2044 -0.1793
 3031SOL     OW20551   2.199   1.280   1.501 -0.9552  0.0424  0.2591
 3031SOL    HW120552   2.177   1.218   1.569 -1.8761 -3.3391 -3.1380
 3031SOL    HW220553   2.253   1.342   1.551 -1.2067  0.5688 -0.1158
 3032SOL     OW20554   1.421   3.834   8.399  0.4300 -0.3372 -0.0854
 3032SOL    HW120555   1.352   3.892   8.370 -0.5410 -1.3537  0.1873
 3032SOL    HW220556   1.494   3.865   8.346 -0.6461  0.9739 -0.7753
 3033SOL     OW20557   4.374   3.852  11.579  0.2448  0.0320 -0.1878
 3033SOL    HW120558   4.462   3.872  11.547 -0.7959  2.3405 -1.6577
 3033SOL    HW220559   4.360   3.781  11.516  1.8288 -0.9361  0.5458
 3034SOL     OW20560   0.075   4.488   3.944  0.0686 -0.2438 -0.0974
 3034SOL    HW120561   0.092   4.395   3.956  0.1417 -0.5503 -2.7512
 3034SOL    HW220562   0.039   4.491   3.856  0.6896  0.1267 -0.3402
 3035SOL     OW20563   0.424   0.189  16.597 -0.7180 -0.6165 -0.4249
 3035SOL    HW120564   0.470   0.253  16.542 -0.2210  0.2087  0.9541
 3035SOL    HW220565   0.397   0.121  16.536  1.4141 -1.8171 -0.0301
 3036SOL     OW20566   2.089   1.197  11.444  0.1143  0.6690  0.2404
 3036SOL    HW120567   2.025   1.198  11.373  0.8759  0.6328 -0.4464
 3036SOL    HW220568   2.146   1.124  11.420  1.3047  1.6454  0.0932
 3037SOL     OW20569   4.111   1.898   4.986 -0.4261 -0.0598  0.1267
 3037SOL    HW120570   4.042   1.957   5.016 -3.9291 -3.7492 -0.7402
 3037SOL    HW220571   4.144   1.962   4.923 -1.7360  0.7729  0.2721
 3038SOL     OW20572   0.341   3.439   7.307  0.2526  0.1269  0.0549
 3038SOL    HW120573   0.293   3.369   7.351  1.6056 -0.8625 -0.0151
 3038SOL    HW220574   0.387   3.468   7.386  1.1524  1.7801 -1.0874
 3039SOL     OW20575   3.470   0.531   4.198  0.2091  0.4616 -0.3648
 3039SOL    HW120576   3.422   0.455   4.230 -1.3907  1.9171  0.6780
 3039SOL    HW220577   3.557   0.492   4.191 -0.6273 -0.8589 -3.1589
 3040SOL     OW20578   0.285   0.246   4.021 -0.2159 -0.3982 -0.0142
 3040SOL    HW120579   0.270   0.294   3.940 -1.3698  0.2262  0.5784
 3040SOL    HW220580   0.256   0.156   4.004 -0.3741 -0.0907 -1.3877
 3041SOL     OW20581   4.173   4.247   4.929 -0.1532  0.0833 -0.3969
 3041SOL    HW120582   4.252   4.193   4.923  0.0210  0.0481  2.4454
 3041SOL    HW220583   4.109   4.205   4.871  0.2879  0.6467 -1.3012
 3042SOL     OW20584   4.159   4.012  14.764 -0.1511 -0.0850 -0.2712
 3042SOL    HW120585   4.110   4.046  14.689  1.4115  0.7503 -0.9255
 3042SOL    HW220586   4.092   3.979  14.823 -0.0623 -1.7320 -1.0757
 3043SOL     OW20587   2.887   0.481   4.683 -0.1979 -0.2013 -0.0010
 3043SOL    HW120588   2.845   0.421   4.621  0.4333 -1.0244  0.3769
 3043SOL    HW220589   2.812   0.531   4.714 -0.3032  0.4893 -1.3791
 3044SOL     OW20590   2.168   4.211   4.108 -0.1373  0.1133  0.1848
 3044SOL    HW120591   2.249   4.259   4.125  1.6472 -2.7496 -0.2242
 3044SOL    HW220592   2.131   4.284   4.059  1.0113  0.0016 -0.8432
 3045SOL     OW20593   0.812   1.355   9.961 -0.2798  0.5452  0.8321
 3045SOL    HW120594   0.850   1.290   9.902 -1.6034  1.4510 -1.0167
 3045SOL    HW220595   0.868   1.332  10.035  0.3566 -0.9903 -0.1252
 3046SOL     OW20596   1.838   4.017  11.889  1.1847  0.1533 -0.1756
 3046SOL    HW120597   1.753   4.025  11.846 -0.0157 -1.0574  1.9858
 3046SOL    HW220598   1.905   4.018  11.821  2.5015  1.4554  1.1452
 3047SOL     OW20599   0.956   0.021  12.126  0.9490 -0.2349 -0.5005
 3047SOL    HW120600   0.916   0.063  12.050 -2.9778 -0.0684  1.6791
 3047SOL    HW220601   0.887   0.006  12.190  3.2803 -1.7868  1.6926
 3048SOL     OW20602   3.845   1.331   6.336  0.8042 -0.1201 -0.2142
 3048SOL    HW120603   3.759   1.371   6.336  0.6847 -0.3688  1.3075
 3048SOL    HW220604   3.854   1.278   6.416  1.1970  1.4933  0.8056
 3049SOL     OW20605   3.386   2.911  11.891 -0.5103 -0.0584 -0.3983
 3049SOL    HW120606   3.405   2.844  11.825 -1.9919  0.7616 -1.6460
 3049SOL    HW220607   3.390   2.993  11.842 -0.1002  0.0230 -0.2258
 3050SOL     OW20608   0.605   2.765  15.681 -0.0500 -0.3307  0.1515
 3050SOL    HW120609   0.535   2.819  15.718 -0.1333 -0.6395  0.4496
 3050SOL    HW220610   0.566   2.722  15.605 -0.0656  0.0729 -0.0639
 3051SOL     OW20611   2.186   2.684   7.972  0.6554 -0.8901 -0.3770
 3051SOL    HW120612   2.281   2.678   7.958  0.6738  0.8966 -1.0521
 3051SOL    HW220613   2.180   2.696   8.067 -0.6242 -1.6415 -0.3702
 3052SOL     OW20614   1.421   2.005  12.402  0.4009  0.3261 -0.1325
 3052SOL    HW120615   1.398   2.026  12.492  0.2350  0.7635 -0.2772
 3052SOL    HW220616   1.453   2.084  12.357 -3.8118  2.3489  0.4792
 3053SOL     OW20617   1.919   1.028   8.030 -0.0495 -0.5042 -0.1045
 3053SOL    HW120618   1.825   1.007   8.027  0.4802 -3.2118  1.9188
 3053SOL    HW220619   1.933   1.046   7.937 -0.1413  0.4925  0.0706
 3054SOL     OW20620   3.601   1.035  10.075  0.4453 -0.5101  0.4403
 3054SOL    HW120621   3.690   1.013  10.046 -0.5782 -0.8466 -2.4175
 3054SOL    HW220622   3.600   1.131  10.069  0.3111 -0.5842 -0.5946
 3055SOL     OW20623   4.334   4.558  12.042  0.0162 -0.5157 -0.2154
 3055SOL    HW120624   4.376   4.554  11.955  0.8065 -2.1866  0.2337
 3055SOL    HW220625   4.407   4.565  12.104 -1.7629 -0.2192  1.8341
 3056SOL     OW20626   0.220   2.566   9.960 -0.2946  0.3800  0.1591
 3056SOL    HW120627   0.293   2.628   9.961 -0.1609  0.2068  1.1780
 3056SOL    HW220628   0.250   2.487  10.005 -2.0126 -0.4762 -0.1886
 3057SOL     OW20629   2.416   3.761  10.799 -0.5042 -0.0599 -0.0047
 3057SOL    HW120630   2.320   3.764  10.795 -0.4025  0.0571 -2.6302
 3057SOL    HW220631   2.428   3.836  10.741  1.2388  1.2165  2.0248
 3058SOL     OW20632   2.255   1.192   4.414 -0.0015  0.1143 -0.3073
 3058SOL    HW120633   2.299   1.277   4.425  0.3631 -0.1208  0.0324
 3058SOL    HW220634   2.201   1.180   4.493  0.1465  1.4042  0.0007
 3059SOL     OW20635   3.629   4.411   8.291 -0.0574 -0.2002  0.3424
 3059SOL    HW120636   3.671   4.487   8.331 -0.9145  0.9000 -0.8342
 3059SOL    HW220637   3.615   4.436   8.199  2.1128 -2.2784 -0.5397
 3060SOL     OW20638   2.927   2.961  10.539  0.2468 -0.0091 -0.4959
 3060SOL    HW120639   2.916   3.003  10.625 -1.5743  1.5594 -1.4914
 3060SOL    HW220640   3.014   2.921  10.537  0.3359  0.2544 -1.5628
 3061SOL     OW20641   1.860   2.223   4.808  0.2895 -0.1873 -0.1085
 3061SOL    HW120642   1.922   2.286   4.772  0.9466  0.2151  1.7742
 3061SOL    HW220643   1.855   2.150   4.746  1.9006 -1.0044  0.7396
 3062SOL     OW20644   3.031   2.719   5.327 -0.1727  0.0527  0.1620
 3062SOL    HW120645   2.998   2.727   5.237 -0.2650 -1.2840  0.0906
 3062SOL    HW220646   3.115   2.678   5.308  0.4509  0.7450  1.4512
 3063SOL     OW20647   4.649   1.162   2.953 -0.5799  0.0250 -0.0190
 3063SOL    HW120648   0.007   1.213   2.952 -0.9627  0.6411  0.5497
 3063SOL    HW220649   4.675   1.117   3.034  0.2494  0.4623 -0.0442
 3064SOL     OW20650   0.515   1.834  12.122 -0.0157 -0.1127  0.4464
 3064SOL    HW120651   0.591   1.889  12.139 -0.1468 -0.5791  2.5414
 3064SOL    HW220652   0.502   1.868  12.033 -1.0782 -0.3379  0.5210
 3065SOL     OW20653   2.675   3.145   8.635 -0.4252  0.6034 -0.0971
 3065SOL    HW120654   2.627   3.158   8.717  0.0195  0.4386  0.1921
 3065SOL    HW220655   2.764   3.135   8.671  0.1965  1.6108 -1.3475
 3066SOL     OW20656   2.973   3.233  15.146  0.4519 -0.3209 -0.0252
 3066SOL    HW120657   2.909   3.187  15.092  0.7685 -0.9007  0.0888
 3066SOL    HW220658   2.929   3.318  15.136 -0.7791 -1.0715 -1.0185
 3067SOL     OW20659   3.059   4.438  12.474 -0.2749  0.7943  0.8056
 3067SOL    HW120660   3.105   4.517  12.506  0.5521  1.0735 -1.0788
 3067SOL    HW220661   3.129   4.377  12.495 -1.5630 -0.9554 -0.0021
 3068SOL     OW20662   4.173   3.242  16.648  0.1491  0.0375  0.5240
 3068SOL    HW120663   4.258   3.270  16.612 -0.6383  1.1271 -0.5035
 3068SOL    HW220664   4.197   3.219  16.737  0.0907 -1.6728  0.0973
 3069SOL     OW20665   3.498   1.558   5.342  0.4195  0.4111 -0.2161
 3069SOL    HW120666   3.528   1.478   5.386  1.8897  0.4235 -1.1740
 3069SOL    HW220667   3.473   1.516   5.260 -0.4361  1.3859 -0.4505
 3070SOL     OW20668   2.005   3.742   5.570  0.5022 -0.4752  0.2141
 3070SOL    HW120669   2.017   3.790   5.652 -0.3668  0.2948 -0.1244
 3070SOL    HW220670   1.915   3.758   5.543  0.3935 -1.3198  0.0735
 3071SOL     OW20671   1.544   1.796   0.541  0.0931  0.1655  0.3472
 3071SOL    HW120672   1.594   1.765   0.617 -0.1962 -1.2863 -0.0489
 3071SOL    HW220673   1.614   1.823   0.481 -0.1838  1.9974  0.8647
 3072SOL     OW20674   0.978   0.503   3.638 -0.6410 -0.1695  0.8454
 3072SOL    HW120675   1.003   0.595   3.631  1.7141 -0.6875  2.2253
 3072SOL    HW220676   1.068   0.470   3.634 -0.9035 -0.6300 -0.9192
 3073SOL     OW20677   0.462   3.683   4.428  0.1235  0.2723  0.5261
 3073SOL    HW120678   0.444   3.690   4.334 -0.9698  1.6029  0.8449
 3073SOL    HW220679   0.368   3.675   4.446  0.5731 -1.0039  2.2794
 3074SOL     OW20680   1.611   3.751   4.957  0.0842  0.0076 -0.1934
 3074SOL    HW120681   1.665   3.672   4.956 -3.4703 -2.4156 -1.4442
 3074SOL    HW220682   1.531   3.713   4.994 -0.5967 -0.0958 -1.7904
 3075SOL     OW20683   2.343   1.303   7.027 -0.4925 -0.2701 -0.0893
 3075SOL    HW120684   2.385   1.293   6.941 -2.2351  0.0333 -0.9890
 3075SOL    HW220685   2.404   1.350   7.084  0.4236 -0.0571 -1.2470
 3076SOL     OW20686   2.449   2.517   8.609 -0.1313 -0.0522  0.0924
 3076SOL    HW120687   2.365   2.553   8.636  0.4411  0.6548  0.9289
 3076SOL    HW220688   2.438   2.430   8.646 -0.1365 -0.4120 -0.7604
 3077SOL     OW20689   4.647   1.326  11.186  1.0541 -0.2675 -0.4954
 3077SOL    HW120690   0.009   1.285  11.169 -1.0233 -3.9994 -1.8256
 3077SOL    HW220691   4.609   1.318  11.099  1.0798  0.1260 -0.5419
 3078SOL     OW20692   1.882   3.082   4.116 -0.0042  0.0230 -0.0275
 3078SOL    HW120693   1.842   3.033   4.188  0.1263  0.5315  0.3933
 3078SOL    HW220694   1.842   3.167   4.136 -1.7590 -1.2129  1.8191
 3079SOL     OW20695   1.924   4.067  11.202 -0.2415  0.2318 -0.1981
 3079SOL    HW120696   1.891   3.979  11.186  0.7545  0.0195 -1.0669
 3079SOL    HW220697   1.880   4.124  11.139 -3.0966 -0.3783  1.2151
 3080SOL     OW20698   3.797   0.416  11.535  0.8028  0.8267 -0.3993
 3080SOL    HW120699   3.715   0.447  11.498  0.8175  0.6503 -0.5776
 3080SOL    HW220700   3.782   0.326  11.507 -1.9988  1.5036 -1.0528
 3081SOL     OW20701   3.177   2.079   5.456  0.4268 -0.2014  0.0465
 3081SOL    HW120702   3.120   2.140   5.409  1.9130  1.4123  0.3499
 3081SOL    HW220703   3.214   2.022   5.389  2.2072  0.8675  0.1276
 3082SOL     OW20704   0.593   2.545   3.028  0.0187  0.0437  0.2963
 3082SOL    HW120705   0.631   2.556   3.115 -2.5260  2.6087  1.1183
 3082SOL    HW220706   0.633   2.469   2.986  0.7526  0.1654  0.7692
 3083SOL     OW20707   2.695   0.784   8.179 -0.7708 -0.3617  0.0194
 3083SOL    HW120708   2.628   0.739   8.126 -0.9144  1.9614 -1.7848
 3083SOL    HW220709   2.629   0.809   8.244 -1.6590 -0.3085 -0.8924
 3084SOL     OW20710   1.106   3.097  15.741  0.2046 -0.2115  0.0927
 3084SOL    HW120711   1.152   3.158  15.684 -0.9808  1.0642  0.5103
 3084SOL    HW220712   1.151   3.120  15.822 -0.1454 -1.1265  0.5493
 3085SOL     OW20713   0.667   1.621   6.141 -0.3630  0.6445 -0.7345
 3085SOL    HW120714   0.746   1.654   6.184  1.1347 -0.8371 -2.3462
 3085SOL    HW220715   0.630   1.558   6.202  0.1764  0.7733 -0.2730
 3086SOL     OW20716   2.519   0.692   7.993 -0.0842 -0.3612  0.3247
 3086SOL    HW120717   2.476   0.777   8.006 -3.4260 -1.8686 -0.9488
 3086SOL    HW220718   2.491   0.663   7.907  0.4114  1.5271 -0.4752
 3087SOL     OW20719   0.698   1.167  13.786 -0.2523 -0.3968  0.3482
 3087SOL    HW120720   0.718   1.238  13.726  1.9626  1.5467  3.3800
 3087SOL    HW220721   0.662   1.203  13.867  1.5527  0.2521  0.8470
 3088SOL     OW20722   0.594   4.120   8.151 -0.4051 -0.4451 -0.2892
 3088SOL    HW120723   0.596   4.148   8.242  2.4501 -1.6904  0.0455
 3088SOL    HW220724   0.645   4.039   8.157  1.5618  0.7788 -0.4432
 3089SOL     OW20725   0.146   0.280   7.979  0.2462  0.0598 -0.3221
 3089SOL    HW120726   0.211   0.341   8.014  1.0132 -0.0177 -1.5910
 3089SOL    HW220727   0.114   0.334   7.906  0.0748 -0.3479 -0.5467
 3090SOL     OW20728   0.912   2.168   8.412 -0.0389 -0.2571  1.0020
 3090SOL    HW120729   0.963   2.245   8.387 -1.0273 -0.3883 -1.4251
 3090SOL    HW220730   0.835   2.205   8.456 -0.7749  1.3456 -1.6105
 3091SOL     OW20731   1.114   2.437   4.901  0.7269 -0.2837  0.1192
 3091SOL    HW120732   1.195   2.468   4.861 -0.5023  2.1658 -0.4749
 3091SOL    HW220733   1.104   2.357   4.849 -0.0658  0.4071 -0.7901
 3092SOL     OW20734   0.969   0.470  14.538  0.3655 -0.0694  0.0300
 3092SOL    HW120735   0.892   0.524  14.520  0.5638  0.3593  0.4521
 3092SOL    HW220736   0.943   0.386  14.502 -1.8048  0.6522 -0.0628
 3093SOL     OW20737   0.337   2.142   0.305 -0.3063 -0.1358  0.6411
 3093SOL    HW120738   0.372   2.056   0.284  1.7734  0.8319  0.1514
 3093SOL    HW220739   0.409   2.185   0.352 -0.4495 -0.3267  1.0314
 3094SOL     OW20740   1.736   3.645   2.658 -0.2960 -0.2081 -0.3030
 3094SOL    HW120741   1.831   3.633   2.661 -0.3319 -0.4147  0.0290
 3094SOL    HW220742   1.716   3.578   2.593  0.0360  0.5727 -1.2151
 3095SOL     OW20743   4.416   1.456   4.090  0.4764 -0.7022  0.1128
 3095SOL    HW120744   4.456   1.384   4.139  1.0642 -0.0439  0.6155
 3095SOL    HW220745   4.336   1.475   4.139  0.9023  0.3636  0.3965
 3096SOL     OW20746   1.495   4.260   9.209  0.1989  0.2181 -0.1335
 3096SOL    HW120747   1.424   4.197   9.220  2.1400 -1.8868  0.4436
 3096SOL    HW220748   1.463   4.304   9.130  2.0821  2.9529  0.6190
 3097SOL     OW20749   0.234   1.907   6.748  0.3643 -0.5395  0.0880
 3097SOL    HW120750   0.232   1.942   6.659 -0.7140  0.2222  0.4123
 3097SOL    HW220751   0.266   1.986   6.791  2.6596 -2.2072  1.3938
 3098SOL     OW20752   4.386   0.334  16.045  0.2057 -1.1182  0.0231
 3098SOL    HW120753   4.314   0.326  15.984 -1.5264 -3.2955  2.3663
 3098SOL    HW220754   4.413   0.426  16.044 -2.7294 -0.2496  0.7149
 3099SOL     OW20755   4.256   1.755   0.632  0.0028  0.1534 -0.6537
 3099SOL    HW120756   4.188   1.693   0.659 -0.4170  2.3081  3.2807
 3099SOL    HW220757   4.242   1.751   0.537 -1.8410 -2.4062 -0.2985
 3100SOL     OW20758   4.528   3.198   2.803 -0.1023 -0.8868 -0.5112
 3100SOL    HW120759   4.548   3.248   2.724  1.5707  2.1171  1.8216
 3100SOL    HW220760   4.542   3.111   2.764  1.4126 -0.1121 -1.6853
 3101SOL     OW20761   3.613   2.097   1.092  0.0926 -0.0882  0.5204
 3101SOL    HW120762   3.667   2.055   1.025 -1.3114  1.7320 -1.7378
 3101SOL    HW220763   3.559   2.021   1.113  1.2580 -0.9445  0.4656
 3102SOL     OW20764   1.987   3.060   2.879  0.2979  0.0010  0.3890
 3102SOL    HW120765   1.937   3.043   2.959  0.0942 -0.4400  0.1710
 3102SOL    HW220766   2.044   2.983   2.881 -0.4655 -0.6055 -1.4606
 3103SOL     OW20767   1.447   2.958   8.010  0.4186 -0.2036  0.3060
 3103SOL    HW120768   1.445   2.864   7.992  1.3183 -0.2333  0.3385
 3103SOL    HW220769   1.535   2.987   7.986  1.5323 -0.9539  3.4640
 3104SOL     OW20770   1.325   2.814  15.842  0.4303  0.1766 -0.3087
 3104SOL    HW120771   1.318   2.720  15.858  1.5333 -0.0881 -1.3920
 3104SOL    HW220772   1.379   2.807  15.763 -0.4861  0.5319 -0.9713
 3105SOL     OW20773   0.378   0.348  16.299 -0.0346  0.4699 -0.1108
 3105SOL    HW120774   0.435   0.385  16.367 -1.2274 -1.3632  1.8945
 3105SOL    HW220775   0.432   0.284  16.253 -0.3553 -1.0380  1.5750
 3106SOL     OW20776   0.479   2.541  12.742 -0.3430 -0.4057 -0.0799
 3106SOL    HW120777   0.483   2.460  12.692  1.6357  1.1638 -2.4650
 3106SOL    HW220778   0.566   2.541  12.783 -0.2556 -1.1203 -0.2634
 3107SOL     OW20779   3.572   4.561   4.844  0.5873 -0.6940  0.1619
 3107SOL    HW120780   3.598   4.584   4.933  2.3857  1.2778 -0.8633
 3107SOL    HW220781   3.588   4.467   4.837  1.6719 -0.4971 -0.0711
 3108SOL     OW20782   3.331   2.706  13.788  0.0004  0.4841  0.2070
 3108SOL    HW120783   3.379   2.762  13.848  0.1268  0.2900  0.2860
 3108SOL    HW220784   3.333   2.624  13.838 -1.1532 -0.4276 -1.2435
 3109SOL     OW20785   4.018   2.926   6.111  0.3627  0.1460  0.1905
 3109SOL    HW120786   4.018   2.866   6.185 -0.1087 -0.0010  0.0696
 3109SOL    HW220787   4.112   2.929   6.092  0.8713  0.8291  2.8043
 3110SOL     OW20788   0.787   0.815   1.709  0.0359 -0.1991 -0.1876
 3110SOL    HW120789   0.859   0.878   1.712  0.2261 -0.4871  1.4738
 3110SOL    HW220790   0.728   0.863   1.651 -0.0825 -0.3334 -0.1790
 3111SOL     OW20791   1.154   0.055   2.541 -0.4972 -0.4593  0.0330
 3111SOL    HW120792   1.147   0.138   2.589  0.1461  0.3955 -1.3715
 3111SOL    HW220793   1.068   0.051   2.499 -2.6020  0.4139  4.2823
 3112SOL     OW20794   0.241   1.806  14.482  0.2721  0.0067  0.1409
 3112SOL    HW120795   0.168   1.802  14.544  1.5678 -3.0159  1.4638
 3112SOL    HW220796   0.287   1.723  14.496  0.3097 -0.1918 -1.1416
 3113SOL     OW20797   1.310   1.032   9.144 -0.2728 -0.1675  0.4693
 3113SOL    HW120798   1.395   0.999   9.176 -0.0663 -1.8800 -1.8474
 3113SOL    HW220799   1.258   0.955   9.168 -0.6751 -0.0340  0.0008
 3114SOL     OW20800   1.127   2.218   3.002 -0.3170  0.1055  0.2622
 3114SOL    HW120801   1.074   2.258   3.071 -0.3278 -0.1888  0.4255
 3114SOL    HW220802   1.059   2.198   2.937  0.1778  0.5111 -0.3877
 3115SOL     OW20803   3.918   3.789   5.486  0.1127  0.4059 -0.0491
 3115SOL    HW120804   3.884   3.701   5.470  1.6915 -0.5905  2.0139
 3115SOL    HW220805   3.852   3.832   5.433 -0.3874 -0.6790 -0.3121
 3116SOL     OW20806   0.179   1.593   2.228  0.1087 -0.1573 -0.0474
 3116SOL    HW120807   0.205   1.554   2.312 -0.2941 -2.1992 -0.8644
 3116SOL    HW220808   0.263   1.619   2.189 -0.2689 -0.5636 -1.1203
 3117SOL     OW20809   1.415   3.134   9.626  0.3910 -0.8030 -0.3629
 3117SOL    HW120810   1.468   3.068   9.671  0.1187 -1.4722 -1.0312
 3117SOL    HW220811   1.399   3.095   9.540 -0.9317  1.5177 -1.1917
 3118SOL     OW20812   2.604   0.528   2.377 -0.3014  0.2187  0.2312
 3118SOL    HW120813   2.624   0.578   2.298 -1.8068  0.3109 -0.0958
 3118SOL    HW220814   2.682   0.474   2.375 -0.6886 -0.3139 -0.7730
 3119SOL     OW20815   4.585   1.831   8.805 -0.0261  0.1398  0.2921
 3119SOL    HW120816   4.527   1.881   8.748 -0.5945 -2.8384 -1.7394
 3119SOL    HW220817   4.573   1.876   8.888  3.7921 -0.4531  1.1882
 3120SOL     OW20818   1.833   0.297   4.196 -0.8573  0.4663  0.1360
 3120SOL    HW120819   1.819   0.299   4.101 -0.9702 -0.8699  0.1157
 3120SOL    HW220820   1.801   0.381   4.229  0.4875 -0.7227  4.3551
 3121SOL     OW20821   2.130   1.943   4.163 -0.0544  0.0943  0.1611
 3121SOL    HW120822   2.185   2.015   4.132  1.4380 -1.2556 -0.3295
 3121SOL    HW220823   2.078   1.923   4.084 -0.6474 -2.5814  1.2452
 3122SOL     OW20824   3.906   4.041   3.663 -0.1126  0.0280  0.1863
 3122SOL    HW120825   3.900   3.983   3.587  1.9515  0.8918 -0.6450
 3122SOL    HW220826   3.875   4.124   3.626  0.5740 -0.9087 -2.4978
 3123SOL     OW20827   3.743   4.060  16.562  0.3438 -0.1074  0.2506
 3123SOL    HW120828   3.817   4.036  16.617  0.9053 -1.2922 -1.0192
 3123SOL    HW220829   3.694   3.978  16.559 -0.7270  0.6016 -1.4565
 3124SOL     OW20830   3.323   2.708   4.027 -0.1187 -0.2669  0.4019
 3124SOL    HW120831   3.317   2.739   3.937 -3.3900 -1.5478  0.2164
 3124SOL    HW220832   3.419   2.712   4.036 -0.1346 -1.6008  1.2097
 3125SOL     OW20833   3.470   4.519   5.292 -0.2325  0.1122  0.4305
 3125SOL    HW120834   3.443   4.516   5.384 -0.2580  0.5230  0.4344
 3125SOL    HW220835   3.390   4.528   5.239  1.1248 -0.4217 -1.7006
 3126SOL     OW20836   2.658   0.172   2.583  0.0163  0.6327  0.4314
 3126SOL    HW120837   2.705   0.242   2.628  1.2599 -0.1782  0.3989
 3126SOL    HW220838   2.643   0.195   2.492 -0.5177 -0.7165  0.1866
 3127SOL     OW20839   0.740   0.934   7.386  0.2052 -0.1270 -0.2477
 3127SOL    HW120840   0.793   1.010   7.363 -0.1459  1.2813  3.5316
 3127SOL    HW220841   0.790   0.868   7.338  1.1682  0.2732  0.2149
 3128SOL     OW20842   4.332   4.722   6.179 -0.5047  0.1055  0.9279
 3128SOL    HW120843   4.349   0.022   6.270  1.8019 -2.2454  1.0895
 3128SOL    HW220844   4.421   4.721   6.146 -1.3417  2.0999 -1.3825
 3129SOL     OW20845   3.335   0.492  15.229  0.2568 -0.5881 -0.1182
 3129SOL    HW120846   3.343   0.553  15.155 -1.0532  0.5925  0.7040
 3129SOL    HW220847   3.314   0.408  15.189 -4.6595  0.2624  0.7254
 3130SOL     OW20848   3.840   2.811   7.750 -0.2754  0.1174  0.1079
 3130SOL    HW120849   3.757   2.857   7.747  0.1006  0.8212  0.4973
 3130SOL    HW220850   3.903   2.883   7.749  0.5657 -0.6225 -1.0917
 3131SOL     OW20851   1.003   1.575   6.584 -0.1911  0.3904  0.2918
 3131SOL    HW120852   0.983   1.487   6.554  1.4296  0.8232 -2.0997
 3131SOL    HW220853   0.929   1.577   6.644 -0.2828  1.2920  0.1569
 3132SOL     OW20854   0.778   1.472  17.523 -0.2251 -0.6261 -0.0894
 3132SOL    HW120855   0.846   1.507  17.464  0.4593 -1.8694 -0.0267
 3132SOL    HW220856   0.829   1.414  17.579  0.1742  0.3180  0.5241
 3133SOL     OW20857   3.708   0.323   4.365  0.2159 -0.3240  0.4361
 3133SOL    HW120858   3.682   0.242   4.409  1.4332 -0.0415  1.6969
 3133SOL    HW220859   3.747   0.281   4.289  0.0949 -1.9252  1.2593
 3134SOL     OW20860   4.631   2.539   4.786  0.2013  0.0391 -0.6403
 3134SOL    HW120861   4.706   2.593   4.762  0.9100 -0.5366  0.2832
 3134SOL    HW220862   4.602   2.512   4.698  1.0825 -1.7485 -0.3757
 3135SOL     OW20863   2.011   3.935  14.838  0.5965 -0.0361  0.3214
 3135SOL    HW120864   1.932   3.882  14.838  1.5267 -1.4263 -0.2362
 3135SOL    HW220865   2.070   3.876  14.885 -1.4891  0.3846  3.4594
 3136SOL     OW20866   2.373   3.054   2.587 -0.5700  0.0083 -0.2391
 3136SOL    HW120867   2.333   3.128   2.541 -0.8355 -0.2611 -0.4364
 3136SOL    HW220868   2.464   3.058   2.557 -0.0241  0.4648  1.4962
 3137SOL     OW20869   1.153   3.051   1.723 -0.4912  0.6690  0.4087
 3137SOL    HW120870   1.220   3.119   1.721  0.2277 -0.0034  1.5664
 3137SOL    HW220871   1.187   2.998   1.650  0.9099 -2.5886  3.4210
 3138SOL     OW20872   1.703   4.222   6.154 -0.0268  0.1485  0.0505
 3138SOL    HW120873   1.722   4.163   6.081 -0.2523  1.8200 -1.3513
 3138SOL    HW220874   1.616   4.245   6.120  0.5501  0.7896 -0.9813
 3139SOL     OW20875   3.315   2.130   2.185  0.1222 -0.1124  0.2566
 3139SOL    HW120876   3.387   2.151   2.126 -0.4536  0.8191 -0.1174
 3139SOL    HW220877   3.245   2.121   2.121 -1.9108 -2.9895  2.8944
 3140SOL     OW20878   0.309   2.174   4.171  0.3688  0.3245  0.2917
 3140SOL    HW120879   0.372   2.141   4.235  2.5941  1.5005 -1.2736
 3140SOL    HW220880   0.369   2.231   4.122  1.1434 -0.9828 -0.2886
 3141SOL     OW20881   0.457   2.509   9.257  0.5968 -0.3686 -0.0548
 3141SOL    HW120882   0.490   2.528   9.345 -0.1216 -0.7874  0.3003
 3141SOL    HW220883   0.512   2.567   9.204  1.3674 -0.1322  1.0071
 3142SOL     OW20884   1.245   1.499   2.762 -0.2245  0.1292 -0.1516
 3142SOL    HW120885   1.324   1.532   2.805 -1.4923  0.9234  1.5783
 3142SOL    HW220886   1.249   1.557   2.685 -0.2150 -0.9034 -0.9380
 3143SOL     OW20887   4.499   2.836  14.818  0.0129  0.7418  0.2530
 3143SOL    HW120888   4.443   2.809  14.891 -0.0528 -0.0133 -0.0749
 3143SOL    HW220889   4.472   2.928  14.815 -0.6297  0.6010  1.4493
 3144SOL     OW20890   2.199   3.628   8.305  0.0565  0.6878 -0.8578
 3144SOL    HW120891   2.217   3.717   8.275 -2.9523  1.1922 -1.1958
 3144SOL    HW220892   2.184   3.582   8.222  1.9128 -0.0547 -0.7820
 3145SOL     OW20893   0.066   0.822   7.458  0.4165  0.0713  0.0692
 3145SOL    HW120894   0.094   0.744   7.506  0.2863 -1.5481 -2.5314
 3145SOL    HW220895   4.716   0.795   7.404  0.7409  0.3648 -0.5189
 3146SOL     OW20896   0.858   3.809  11.912 -0.3893  0.7289 -0.1408
 3146SOL    HW120897   0.872   3.843  12.000 -1.5927 -3.0083  1.5165
 3146SOL    HW220898   0.804   3.736  11.943 -0.7919  1.0006 -0.1983
 3147SOL     OW20899   3.713   3.195   6.325 -0.4255 -0.0022 -0.4719
 3147SOL    HW120900   3.733   3.173   6.234  0.2601 -0.7817 -0.1391
 3147SOL    HW220901   3.746   3.284   6.339  3.4514 -1.5560  0.2266
 3148SOL     OW20902   2.398   0.653   5.160 -0.1387  0.2880 -0.6651
 3148SOL    HW120903   2.377   0.691   5.245 -0.6552 -2.6527  0.5107
 3148SOL    HW220904   2.477   0.600   5.173 -0.3290 -0.2708 -1.8152
 3149SOL     OW20905   1.519   3.462   2.923 -0.0982  0.3376 -0.8093
 3149SOL    HW120906   1.464   3.387   2.901 -0.4411  0.8780 -1.8365
 3149SOL    HW220907   1.493   3.478   3.014 -0.0071  0.4143 -0.7971
 3150SOL     OW20908   0.731   1.940   5.922 -0.1812  0.1353 -0.3677
 3150SOL    HW120909   0.638   1.926   5.905  0.3105 -2.1635 -1.1550
 3150SOL    HW220910   0.771   1.859   5.892  0.0583 -0.3732  1.3348
 3151SOL     OW20911   1.894   1.812   2.587 -0.3161  0.1728 -0.6771
 3151SOL    HW120912   1.934   1.825   2.500 -0.0565 -2.5617 -0.9709
 3151SOL    HW220913   1.943   1.879   2.635 -1.5628  0.9692 -0.5192
 3152SOL     OW20914   2.839   2.873  15.771  0.1249  0.0414  0.2705
 3152SOL    HW120915   2.794   2.790  15.788 -1.3835  1.3677  2.8185
 3152SOL    HW220916   2.767   2.927  15.740  1.1517  0.7219 -0.9089
 3153SOL     OW20917   2.127   0.894   4.133 -0.0677 -0.1174  0.3950
 3153SOL    HW120918   2.100   0.924   4.220 -1.2711 -0.4995  0.1591
 3153SOL    HW220919   2.178   0.972   4.114 -1.3139  0.9243  1.3886
 3154SOL     OW20920   0.564   2.683   9.078  0.3450  0.5331 -0.3324
 3154SOL    HW120921   0.645   2.693   9.028  0.8971  0.0535  0.4624
 3154SOL    HW220922   0.512   2.662   9.001  0.8849  1.8136 -1.0416
 3155SOL     OW20923   4.535   2.062   8.270  0.0823  0.2447 -0.0717
 3155SOL    HW120924   4.574   2.149   8.266 -0.3191  0.1744 -4.7737
 3155SOL    HW220925   4.489   2.080   8.352  1.7654 -2.0939  1.4088
 3156SOL     OW20926   1.819   1.989   3.711 -0.3133  0.0672  0.5421
 3156SOL    HW120927   1.793   1.897   3.716  0.4677 -0.1794  0.1356
 3156SOL    HW220928   1.860   1.985   3.624  0.2782  0.7515  0.7884
 3157SOL     OW20929   2.528   1.657  14.456  0.5373 -0.0934 -0.7496
 3157SOL    HW120930   2.451   1.616  14.416  0.2720 -1.2818  0.9874
 3157SOL    HW220931   2.604   1.607  14.427  1.4249  0.2672  1.0075
 3158SOL     OW20932   2.912   1.819   5.935 -0.5759 -0.1969 -0.0764
 3158SOL    HW120933   2.996   1.860   5.952  0.3265 -1.8012 -0.6615
 3158SOL    HW220934   2.873   1.832   6.022  2.1159 -1.6168  1.3493
 3159SOL     OW20935   0.820   4.158   8.815 -0.2622 -0.1445  0.3982
 3159SOL    HW120936   0.834   4.129   8.724 -1.1976 -3.0621  1.1928
 3159SOL    HW220937   0.782   4.077   8.848  1.7799 -0.6025  1.6242
 3160SOL     OW20938   3.205   2.495  12.244  0.5564 -0.5416 -0.1315
 3160SOL    HW120939   3.167   2.460  12.164 -1.7434 -1.5386  1.4204
 3160SOL    HW220940   3.206   2.416  12.298 -2.7565 -1.3975 -1.3436
 3161SOL     OW20941   0.208   3.185   5.588 -0.2863  0.2898  0.0785
 3161SOL    HW120942   0.304   3.182   5.587 -0.3013 -0.4470  1.6401
 3161SOL    HW220943   0.199   3.171   5.682 -0.9416  0.7220  0.0771
 3162SOL     OW20944   4.446   1.998  17.021  0.2007 -0.5031  0.4433
 3162SOL    HW120945   4.480   1.909  17.021 -0.6465 -0.8294 -0.3601
 3162SOL    HW220946   4.352   1.983  17.035 -0.0037  1.1581  0.8942
 3163SOL     OW20947   1.279   0.254   8.368 -0.2799 -0.1592 -0.7587
 3163SOL    HW120948   1.249   0.334   8.326 -1.3017  0.0353  0.3442
 3163SOL    HW220949   1.366   0.285   8.391  1.1070 -2.7089 -2.5239
 3164SOL     OW20950   1.880   3.883   8.422 -0.0382  0.1526 -0.0094
 3164SOL    HW120951   1.886   3.792   8.392 -0.8742 -0.5321  1.8833
 3164SOL    HW220952   1.891   3.869   8.516 -2.3552 -1.6581  0.0085
 3165SOL     OW20953   3.572   0.505   5.962  0.4234 -0.4663  0.7714
 3165SOL    HW120954   3.596   0.557   6.039 -0.7956  0.1884  0.7156
 3165SOL    HW220955   3.487   0.469   5.988  0.5270 -1.5603 -0.4201
 3166SOL     OW20956   0.026   2.344   6.189 -0.3766 -0.0567 -0.2846
 3166SOL    HW120957   4.688   2.385   6.249 -2.1342 -0.9673 -1.4456
 3166SOL    HW220958   0.102   2.328   6.245 -0.0405 -1.1784 -1.0560
 3167SOL     OW20959   0.852   3.631   7.073  0.0982 -0.1894  0.0489
 3167SOL    HW120960   0.923   3.672   7.123 -1.0089  2.1178 -0.2406
 3167SOL    HW220961   0.895   3.548   7.054  2.0629  0.8096  0.1166
 3168SOL     OW20962   2.509   4.486   5.594  0.1374  0.5871  0.0792
 3168SOL    HW120963   2.536   4.479   5.685  0.6965 -3.2671 -0.3706
 3168SOL    HW220964   2.577   4.549   5.572 -0.8334  2.0744  1.3342
 3169SOL     OW20965   0.632   1.475   9.214  0.3329 -0.2115 -0.0628
 3169SOL    HW120966   0.539   1.455   9.204  0.9533 -3.6139  0.8241
 3169SOL    HW220967   0.646   1.533   9.139  2.8050 -0.9226 -0.1572
 3170SOL     OW20968   0.740   1.990   8.313 -0.5801 -0.4835  0.0920
 3170SOL    HW120969   0.655   2.030   8.290 -0.0792  1.3231  1.3507
 3170SOL    HW220970   0.779   2.067   8.355  0.8460 -0.2871 -1.6236
 3171SOL     OW20971   4.210   2.601   3.181  0.2950 -0.1796 -0.3461
 3171SOL    HW120972   4.301   2.596   3.153  0.6164  1.8268  0.3095
 3171SOL    HW220973   4.231   2.630   3.270 -0.1392 -0.5118 -0.1316
 3172SOL     OW20974   0.217   3.466   8.886  0.5422  0.0466 -0.2254
 3172SOL    HW120975   0.179   3.407   8.952 -1.5608  1.1092 -0.4709
 3172SOL    HW220976   0.204   3.551   8.927 -0.7445 -0.1593 -0.2038
 3173SOL     OW20977   0.556   1.405  12.888 -0.1307  0.1145 -0.0858
 3173SOL    HW120978   0.642   1.389  12.849  0.9593 -0.6227  2.6029
 3173SOL    HW220979   0.529   1.489  12.850  1.1457  0.4187 -0.3259
 3174SOL     OW20980   2.477   4.159   5.734  0.0606  0.2791  0.0525
 3174SOL    HW120981   2.436   4.239   5.698  1.1566  0.5928 -0.5127
 3174SOL    HW220982   2.454   4.084   5.680  3.0184 -0.7881  0.2702
 3175SOL     OW20983   2.154   2.681  17.465  0.2024 -0.7922 -0.2044
 3175SOL    HW120984   2.210   2.657  17.392 -0.4160 -0.4346 -0.7934
 3175SOL    HW220985   2.219   2.714  17.526  0.7935  3.1601 -2.9503
 3176SOL     OW20986   3.808   1.020  10.694 -0.3186 -0.1938 -0.0043
 3176SOL    HW120987   3.849   1.042  10.610 -0.1003  0.8091  0.3675
 3176SOL    HW220988   3.846   0.932  10.703  0.6724  0.3128  0.7492
 3177SOL     OW20989   3.822   4.214   8.622 -0.1231 -0.3531  0.1975
 3177SOL    HW120990   3.855   4.301   8.643  0.1860 -0.1939 -0.9320
 3177SOL    HW220991   3.905   4.166   8.620  1.8540  3.1509 -0.3823
 3178SOL     OW20992   0.757   1.127   7.728 -0.5007 -0.1490 -0.2278
 3178SOL    HW120993   0.804   1.184   7.667  0.0607 -1.5530 -1.1239
 3178SOL    HW220994   0.832   1.105   7.784 -1.2988 -2.0706  0.1084
 3179SOL     OW20995   0.905   3.451   3.611 -0.1010  0.5979  0.4774
 3179SOL    HW120996   0.824   3.421   3.571  0.2723 -1.0684  0.9744
 3179SOL    HW220997   0.969   3.447   3.540  1.2430 -2.6345  1.8959
 3180SOL     OW20998   4.082   1.824  11.649 -0.3268  0.2472 -0.6248
 3180SOL    HW120999   4.132   1.769  11.589 -2.1891 -0.4163 -1.5689
 3180SOL    HW221000   4.128   1.811  11.732  1.2696 -0.1772 -1.5894
 3181SOL     OW21001   2.072   3.737  11.484 -0.0801 -0.0067 -0.4154
 3181SOL    HW121002   2.013   3.752  11.558 -0.2493  1.2801 -0.8065
 3181SOL    HW221003   2.123   3.660  11.509 -0.1853  0.2333  0.5628
 3182SOL     OW21004   3.541   4.062  11.352  0.6919 -0.4201 -0.6157
 3182SOL    HW121005   3.633   4.036  11.363  0.5703 -0.2695  0.7613
 3182SOL    HW221006   3.514   4.060  11.444  1.2847  1.1605 -0.4018
 3183SOL     OW21007   0.055   0.570   8.454  0.0438 -0.3008 -0.1631
 3183SOL    HW121008   0.098   0.587   8.370 -0.4077 -0.4252 -0.4209
 3183SOL    HW221009   0.121   0.511   8.489 -0.1341 -1.4464 -1.7762
 3184SOL     OW21010   2.558   4.231   8.805 -0.5513 -0.5196 -0.1642
 3184SOL    HW121011   2.556   4.253   8.898 -3.1400  1.6288 -0.7227
 3184SOL    HW221012   2.475   4.265   8.770  0.2960  1.7686  0.0900
 3185SOL     OW21013   2.002   1.516   7.448 -0.2352 -0.0612  0.5256
 3185SOL    HW121014   1.983   1.466   7.368  3.1031 -1.1672  0.3876
 3185SOL    HW221015   2.083   1.557   7.418 -0.2780  0.0984  0.6320
 3186SOL     OW21016   3.320   2.520   2.237 -0.0154 -0.0431  0.0097
 3186SOL    HW121017   3.409   2.523   2.271 -0.4647 -0.9251  1.2433
 3186SOL    HW221018   3.341   2.468   2.159  2.2976  1.8061 -0.5925
 3187SOL     OW21019   3.590   0.198   9.023  0.1338 -0.0887  0.0024
 3187SOL    HW121020   3.655   0.127   9.021 -0.7565 -0.9445  1.0969
 3187SOL    HW221021   3.528   0.171   9.090 -0.8903  1.4435 -0.3341
 3188SOL     OW21022   2.066   1.356   9.870 -0.3031  0.0261  0.2434
 3188SOL    HW121023   2.149   1.368   9.916  0.4499 -0.2783 -1.0490
 3188SOL    HW221024   2.069   1.402   9.786  0.3397 -0.1374  0.1764
 3189SOL     OW21025   1.557   0.575   6.479 -0.0513  0.1339  0.4616
 3189SOL    HW121026   1.463   0.590   6.473  0.4359  2.5043 -1.0367
 3189SOL    HW221027   1.558   0.519   6.557  0.7780  0.6408  0.8182
 3190SOL     OW21028   1.162   3.979   1.199 -0.3876 -0.4490 -0.0677
 3190SOL    HW121029   1.098   3.951   1.134  2.3849 -0.9361 -2.5825
 3190SOL    HW221030   1.122   3.950   1.281 -0.9203  1.5443  0.3906
 3191SOL     OW21031   3.375   4.307   5.038  0.5501  0.2405 -0.1450
 3191SOL    HW121032   3.372   4.302   5.134 -2.6290 -2.8073 -0.3887
 3191SOL    HW221033   3.404   4.216   5.028 -0.5053 -0.1372  0.1562
 3192SOL     OW21034   2.613   0.535   8.405 -0.0523  0.1665 -0.3639
 3192SOL    HW121035   2.707   0.554   8.399 -0.0465 -0.6043 -2.4522
 3192SOL    HW221036   2.616   0.441   8.422 -0.9082  0.2759  0.3790
 3193SOL     OW21037   1.236   3.251   2.385  0.0137 -0.3187 -0.2702
 3193SOL    HW121038   1.209   3.197   2.310  0.8485 -0.5577 -0.3976
 3193SOL    HW221039   1.302   3.313   2.355 -0.1393 -0.2891 -0.5465
 3194SOL     OW21040   2.007   3.911   2.468  0.8375  0.1066  0.0569
 3194SOL    HW121041   1.955   3.890   2.390  3.1630  1.0203 -1.7303
 3194SOL    HW221042   2.098   3.911   2.439  0.8989 -1.1059  0.2739
 3195SOL     OW21043   0.844   3.906  10.391 -0.0696  0.4689  0.2997
 3195SOL    HW121044   0.761   3.864  10.372  0.8956 -0.9007 -0.8925
 3195SOL    HW221045   0.833   3.992  10.350  1.4195  0.1634 -0.7395
 3196SOL     OW21046   0.818   4.357   1.998  0.2317 -0.9979  0.0611
 3196SOL    HW121047   0.790   4.441   1.962  3.3591 -0.1766 -0.4293
 3196SOL    HW221048   0.750   4.299   1.963 -0.1566 -1.3818  1.4453
 3197SOL     OW21049   1.884   2.335   3.155  0.2552  0.4386 -0.0691
 3197SOL    HW121050   1.910   2.306   3.242 -0.9775  1.6211  0.7044
 3197SOL    HW221051   1.962   2.307   3.107  0.5187  0.7258  0.1879
 3198SOL     OW21052   0.478   0.451   2.380  0.0377 -0.1094 -0.1007
 3198SOL    HW121053   0.391   0.477   2.350  0.6684  2.1029  0.0023
 3198SOL    HW221054   0.468   0.356   2.374 -1.0458  0.0457 -0.7821
 3199SOL     OW21055   3.732   0.001  16.829 -0.2333  0.2943 -0.3619
 3199SOL    HW121056   3.772   4.670  16.761  0.5923  1.4587 -0.7936
 3199SOL    HW221057   3.780   4.682  16.901  1.1144  0.2513 -1.2931
 3200SOL     OW21058   2.430   1.242   4.850 -0.1000  0.0542 -0.2918
 3200SOL    HW121059   2.369   1.252   4.923 -1.0572  0.8519 -1.1877
 3200SOL    HW221060   2.431   1.330   4.812  1.9767  0.4143  0.6157
 3201SOL     OW21061   2.273   2.270   5.413 -0.3166 -0.3006  0.3789
 3201SOL    HW121062   2.303   2.344   5.465  0.3842 -0.1329 -0.2663
 3201SOL    HW221063   2.350   2.249   5.361  0.0811 -0.5451  1.0820
 3202SOL     OW21064   2.163   4.712   1.769  0.1343 -0.9779  0.0905
 3202SOL    HW121065   2.078   4.687   1.733  0.2280  1.2864 -1.7334
 3202SOL    HW221066   2.191   4.623   1.789  1.7657 -0.2250  1.1824
 3203SOL     OW21067   0.558   2.575   0.025 -0.0852 -0.4648  0.3110
 3203SOL    HW121068   0.528   2.493   0.064 -4.0781  1.2406  0.8075
 3203SOL    HW221069   0.561   2.563  17.625 -1.6988 -2.3203  0.4987
 3204SOL     OW21070   4.645   3.960  17.267  0.2639 -0.1531 -0.3543
 3204SOL    HW121071   4.689   4.001  17.192 -0.1019 -0.7663 -0.9029
 3204SOL    HW221072   4.586   4.030  17.294  0.3326  0.2238 -1.1794
 3205SOL     OW21073   4.405   2.689   9.022 -0.2118 -0.5812  0.2122
 3205SOL    HW121074   4.325   2.636   9.029 -0.3793  0.0518  3.0917
 3205SOL    HW221075   4.413   2.712   9.114  1.8224  0.6770 -0.2817
 3206SOL     OW21076   2.266   1.010   5.911  0.6611  0.1135  0.2114
 3206SOL    HW121077   2.323   0.990   5.985  0.8737 -0.2884 -0.0619
 3206SOL    HW221078   2.179   1.009   5.951  1.5201 -0.1369  2.0886
 3207SOL     OW21079   1.026   3.943   5.360 -0.0683  0.2330  0.2675
 3207SOL    HW121080   0.935   3.967   5.346 -0.0765 -1.2785 -2.2242
 3207SOL    HW221081   1.045   3.941   5.454  2.2553  0.0029 -0.2138
 3208SOL     OW21082   3.980   0.548   2.712 -0.3176 -0.0104 -0.2850
 3208SOL    HW121083   3.911   0.560   2.777 -0.2769  1.1693 -0.4745
 3208SOL    HW221084   4.026   0.477   2.758 -3.5758 -0.2562  2.6595
 3209SOL     OW21085   4.385   0.851   7.171 -0.0796 -0.2257  0.0652
 3209SOL    HW121086   4.469   0.898   7.167 -1.3380  1.8930 -1.5134
 3209SOL    HW221087   4.410   0.776   7.118 -0.7003 -0.5821  0.2887
 3210SOL     OW21088   2.794   2.791   1.327  0.3712 -0.5803  0.0737
 3210SOL    HW121089   2.778   2.740   1.406 -3.1708  0.9553  0.3859
 3210SOL    HW221090   2.702   2.807   1.305  0.5559 -0.6648 -0.7755
 3211SOL     OW21091   0.217   3.766   6.735 -0.4683  0.3388  0.2690
 3211SOL    HW121092   0.133   3.733   6.767  0.0125 -0.0459  1.1134
 3211SOL    HW221093   0.280   3.723   6.792 -0.1590  2.7521  1.7526
 3212SOL     OW21094   3.080   2.521   6.395  0.0257  0.3231  0.3963
 3212SOL    HW121095   3.014   2.584   6.425 -1.9199 -2.4689  2.0274
 3212SOL    HW221096   3.141   2.545   6.465 -1.7044  2.9243  1.0217
 3213SOL     OW21097   4.614   0.269   6.212 -0.0873  0.0958  0.0329
 3213SOL    HW121098   4.609   0.177   6.188 -1.1184  0.0101  0.5443
 3213SOL    HW221099   4.575   0.303   6.131 -0.5630  2.0649  1.0734
 3214SOL     OW21100   0.511   4.135  15.668  0.3481 -0.1173  0.5162
 3214SOL    HW121101   0.479   4.045  15.674  1.7992 -0.5843  1.3118
 3214SOL    HW221102   0.580   4.141  15.602  1.3220  1.0772  1.6332
 3215SOL     OW21103   1.406   1.577  17.207 -0.0606 -0.2289  0.0972
 3215SOL    HW121104   1.445   1.577  17.295 -0.6858 -0.4562  0.3723
 3215SOL    HW221105   1.441   1.654  17.162  0.5260 -0.6389 -0.1457
 3216SOL     OW21106   3.710   4.049   8.394 -0.2336  0.3080  0.0194
 3216SOL    HW121107   3.634   4.008   8.435  0.2342  1.6542  2.2283
 3216SOL    HW221108   3.730   4.109   8.467  1.8054 -0.6058  0.2072
 3217SOL     OW21109   0.751   3.163   3.450 -0.2920  0.1534 -0.1717
 3217SOL    HW121110   0.723   3.093   3.509  1.1199 -0.7595 -0.5944
 3217SOL    HW221111   0.820   3.119   3.401 -0.3771 -1.8019  1.4737
 3218SOL     OW21112   4.487   2.819   4.391 -0.1027  0.0248 -0.4433
 3218SOL    HW121113   4.436   2.841   4.313 -2.7991 -0.4675  1.1934
 3218SOL    HW221114   4.515   2.901   4.431 -2.2056  0.0963  0.8912
 3219SOL     OW21115   3.287   2.862   1.256 -0.5714 -0.2872  0.0511
 3219SOL    HW121116   3.225   2.921   1.213 -2.7372 -0.4437  2.9370
 3219SOL    HW221117   3.361   2.889   1.202 -0.4067 -0.7331  0.0489
 3220SOL     OW21118   1.135   3.458   3.917  0.4191  1.0453 -0.4436
 3220SOL    HW121119   1.210   3.450   3.858  0.5435  2.0068 -0.4101
 3220SOL    HW221120   1.180   3.457   4.001 -0.0657 -1.5452 -0.1968
 3221SOL     OW21121   0.349   4.065   2.396  0.1961 -0.2194  0.4099
 3221SOL    HW121122   0.296   4.140   2.424  1.1292 -0.1114  1.8710
 3221SOL    HW221123   0.436   4.094   2.425 -0.1633  1.3999 -0.0917
 3222SOL     OW21124   3.177   2.599   4.603 -0.2305  0.2989 -0.6024
 3222SOL    HW121125   3.094   2.631   4.641  0.9499 -1.1059  3.1617
 3222SOL    HW221126   3.225   2.571   4.681 -1.1529  1.3330  0.3548
 3223SOL     OW21127   4.387   3.575   5.656  0.0530 -0.4725  0.2606
 3223SOL    HW121128   4.467   3.600   5.609 -0.1031  0.0978  0.3053
 3223SOL    HW221129   4.321   3.600   5.591 -0.2518  0.9006  1.1099
 3224SOL     OW21130   2.690   0.789  15.897 -0.4044 -0.1363  0.2086
 3224SOL    HW121131   2.706   0.870  15.946 -0.5637  0.6462 -1.0253
 3224SOL    HW221132   2.621   0.825  15.842 -1.2477 -2.5854 -0.3120
 3225SOL     OW21133   3.013   1.844  10.429 -0.4328  0.4517 -0.0645
 3225SOL    HW121134   3.004   1.934  10.398 -2.9416  0.2344  0.0624
 3225SOL    HW221135   3.108   1.834  10.440 -0.6464 -1.0413  0.3622
 3226SOL     OW21136   1.527   1.924  17.363 -0.1710  0.5078 -0.3887
 3226SOL    HW121137   1.496   1.886  17.445  0.9903  1.7032  0.6010
 3226SOL    HW221138   1.621   1.927  17.382 -0.4077 -1.4572  1.1790
 3227SOL     OW21139   1.878   3.202  10.863  0.6098 -0.2536 -0.4330
 3227SOL    HW121140   1.788   3.171  10.869 -0.2327  2.4968  1.5827
 3227SOL    HW221141   1.864   3.297  10.859  1.0633 -0.1478  0.4318
 3228SOL     OW21142   3.897   1.708   7.499 -0.0937  0.1626 -0.6221
 3228SOL    HW121143   3.813   1.720   7.544 -0.2567  0.4603 -1.0152
 3228SOL    HW221144   3.918   1.801   7.495  3.9739 -0.7141  0.0935
 3229SOL     OW21145   0.368   0.707   4.396  0.3368 -0.0837  0.0668
 3229SOL    HW121146   0.423   0.737   4.324 -0.6788  1.0421 -0.2476
 3229SOL    HW221147   0.283   0.703   4.351 -0.5342 -1.6861  1.8910
 3230SOL     OW21148   2.723   3.651   9.274 -0.4254  0.0315 -0.3418
 3230SOL    HW121149   2.683   3.613   9.352  0.3446  0.8189  0.4406
 3230SOL    HW221150   2.787   3.585   9.246  0.3904 -0.5915  2.9878
 3231SOL     OW21151   3.383   4.460   0.558  0.3647 -0.5706  0.3026
 3231SOL    HW121152   3.436   4.508   0.622  0.0927 -1.7423  1.4127
 3231SOL    HW221153   3.295   4.465   0.595  0.2628  1.2458 -0.1601
 3232SOL     OW21154   0.076   0.975  16.859 -0.0216  0.0412 -0.3512
 3232SOL    HW121155   0.084   0.880  16.847  0.5150 -0.0553  0.7277
 3232SOL    HW221156   4.710   0.996  16.889 -1.0935  0.0331 -3.6019
 3233SOL     OW21157   2.198   1.618   7.964 -0.2451 -0.4510  0.0646
 3233SOL    HW121158   2.282   1.604   7.920 -0.5886  0.8839 -1.0100
 3233SOL    HW221159   2.234   1.664   8.040 -2.0879 -1.1541  1.3430
 3234SOL     OW21160   2.495   2.549  13.050  0.0753  0.5327  0.2060
 3234SOL    HW121161   2.460   2.637  13.061  1.5773  1.2899 -0.9989
 3234SOL    HW221162   2.589   2.569  13.044 -0.1294  1.9438  1.7119
 3235SOL     OW21163   2.099   1.127   4.685 -0.0098 -0.4369  0.2651
 3235SOL    HW121164   2.104   1.070   4.762  0.9054 -0.6340  0.0561
 3235SOL    HW221165   2.141   1.208   4.714  0.5039 -1.1238  1.4425
 3236SOL     OW21166   0.061   0.044   3.887 -0.6321 -0.3965  0.1530
 3236SOL    HW121167   0.074   4.680   3.851  1.6914 -0.5977  1.4507
 3236SOL    HW221168   0.016   0.032   3.971  0.7173 -1.6180  0.7003
 3237SOL     OW21169   2.482   2.396  14.727 -0.2710  0.2356  0.6513
 3237SOL    HW121170   2.475   2.484  14.764  0.6168  0.3557  0.5183
 3237SOL    HW221171   2.404   2.394  14.672 -1.1080 -0.5000  1.8501
 3238SOL     OW21172   1.198   0.683   2.737 -0.0802 -0.3341 -0.1893
 3238SOL    HW121173   1.141   0.758   2.717  1.9810  1.6831  1.5087
 3238SOL    HW221174   1.135   0.612   2.752  0.3857 -0.9169 -0.9815
 3239SOL     OW21175   0.060   2.360   3.527  0.7014  0.2441  0.0389
 3239SOL    HW121176   0.082   2.426   3.461 -0.5424  0.0743 -0.5601
 3239SOL    HW221177   4.690   2.344   3.512  0.0406  2.7441  1.4582
 3240SOL     OW21178   0.575   4.394   3.227  0.9735  0.5582  0.7328
 3240SOL    HW121179   0.582   4.442   3.309 -0.2250  0.6130  0.7941
 3240SOL    HW221180   0.570   4.467   3.166 -2.0537 -2.1151 -2.1784
 3241SOL     OW21181   4.492   1.432   4.930 -0.7696 -0.4503 -0.1499
 3241SOL    HW121182   4.410   1.388   4.912 -1.9497  0.9646  1.7532
 3241SOL    HW221183   4.547   1.369   4.976 -0.8987 -1.3641 -1.2471
 3242SOL     OW21184   3.195   0.081  14.356 -0.0532  0.2174  0.4601
 3242SOL    HW121185   3.159   0.114  14.439  0.5034 -0.0541  0.8069
 3242SOL    HW221186   3.283   0.118  14.348 -0.7313  2.0626  1.5794
 3243SOL     OW21187   3.048   3.280   2.312 -0.6270 -0.3367  0.1221
 3243SOL    HW121188   3.115   3.315   2.253  1.5761 -1.1686  2.1168
 3243SOL    HW221189   3.015   3.204   2.264 -1.2543 -0.4284  0.6994
 3244SOL     OW21190   3.941   3.579   3.638  0.2191  0.3962  0.3523
 3244SOL    HW121191   3.874   3.531   3.588  1.1011 -1.2480  0.7422
 3244SOL    HW221192   3.987   3.621   3.566 -0.0039  0.7112  0.3957
 3245SOL     OW21193   3.988   0.636   4.764  0.4582  0.4564  0.0631
 3245SOL    HW121194   4.013   0.601   4.678 -0.0133  1.0726 -0.3326
 3245SOL    HW221195   3.905   0.679   4.740 -0.1073 -0.8292 -0.2561
 3246SOL     OW21196   0.195   0.221   9.296 -0.0150 -0.2629  0.9157
 3246SOL    HW121197   0.155   0.196   9.379 -0.7964  1.1006  0.9441
 3246SOL    HW221198   0.284   0.242   9.323  1.0607 -2.9910 -0.5673
 3247SOL     OW21199   1.680   1.037   2.172  0.3993  0.1630  0.2758
 3247SOL    HW121200   1.753   1.001   2.222 -0.0135  0.4673  1.0978
 3247SOL    HW221201   1.623   1.091   2.227 -0.1510  0.1358 -0.2713
 3248SOL     OW21202   3.937   1.703  17.053  0.8226  0.0258 -0.3558
 3248SOL    HW121203   3.995   1.644  17.005  0.1001 -0.9701 -0.0067
 3248SOL    HW221204   3.964   1.691  17.144  0.3928  0.0395 -0.2260
 3249SOL     OW21205   1.863   1.694  16.077  0.0205  0.1767  0.3065
 3249SOL    HW121206   1.886   1.708  15.985 -1.9960  0.0420 -0.2030
 3249SOL    HW221207   1.768   1.682  16.079  0.0595  0.0426  1.3561
 3250SOL     OW21208   1.962   1.247   0.929  0.4694  0.2899  0.2729
 3250SOL    HW121209   1.894   1.315   0.930  0.8321  0.5975  2.7112
 3250SOL    HW221210   1.929   1.204   1.008 -2.1929  1.5801 -0.1160
 3251SOL     OW21211   0.095   2.525   5.790 -0.0853 -0.1382  0.0027
 3251SOL    HW121212   0.019   2.583   5.784 -0.9774 -1.3614 -0.7384
 3251SOL    HW221213   0.111   2.518   5.884 -1.8924  1.2750  0.4104
 3252SOL     OW21214   2.898   1.323   6.367  0.1183 -0.3476  0.0808
 3252SOL    HW121215   2.992   1.322   6.348  0.2118 -1.6572  0.5779
 3252SOL    HW221216   2.894   1.287   6.456 -2.4778  0.8690  0.4365
 3253SOL     OW21217   1.739   2.127   8.892  0.3059  0.6260 -0.0136
 3253SOL    HW121218   1.821   2.134   8.843 -0.2766  0.8154 -0.9479
 3253SOL    HW221219   1.752   2.199   8.953 -2.5656  1.2139 -0.0849
 3254SOL     OW21220   1.418   0.738   5.046 -0.4549 -0.4657  0.1643
 3254SOL    HW121221   1.332   0.747   5.086 -0.1852  2.4388  0.1247
 3254SOL    HW221222   1.471   0.725   5.125 -1.4646 -0.0308  0.9186
 3255SOL     OW21223   4.514   3.371  11.608 -0.2455 -0.2122 -0.1109
 3255SOL    HW121224   4.539   3.389  11.699  2.0224  0.7177 -0.9123
 3255SOL    HW221225   4.544   3.280  11.601  0.8667  0.1955 -0.7050
 3256SOL     OW21226   0.184   0.918   7.199  0.3273 -0.0542  0.6305
 3256SOL    HW121227   0.240   0.845   7.175  0.1347 -0.6763  2.0686
 3256SOL    HW221228   0.206   0.932   7.291  1.2473 -0.6380  0.4906
 3257SOL     OW21229   2.942   4.459   5.299  0.3205 -0.2059 -0.2003
 3257SOL    HW121230   2.933   4.552   5.281 -1.4956 -0.5150 -0.8423
 3257SOL    HW221231   3.012   4.453   5.364  0.2929 -0.5354 -0.2020
 3258SOL     OW21232   0.933   4.396   6.881  0.2714  0.2780  0.4329
 3258SOL    HW121233   0.977   4.332   6.937 -0.5911  1.2394  2.2214
 3258SOL    HW221234   0.848   4.398   6.926 -0.8459 -0.7737 -1.6503
 3259SOL     OW21235   3.176   0.901   7.334 -0.1169 -0.2506  0.2375
 3259SOL    HW121236   3.170   0.996   7.341  0.1762 -0.2983  1.1579
 3259SOL    HW221237   3.217   0.890   7.249  0.3394  0.0536  0.4179
 3260SOL     OW21238   0.388   1.759   2.472 -0.4514  0.0529 -0.3932
 3260SOL    HW121239   0.359   1.762   2.564 -0.2604 -1.3351 -0.2951
 3260SOL    HW221240   0.312   1.797   2.427 -1.3260 -2.2467 -0.8204
 3261SOL     OW21241   4.102   4.192   4.166  0.1445 -0.3417  0.2376
 3261SOL    HW121242   4.013   4.168   4.140 -0.1841  1.3587 -0.2571
 3261SOL    HW221243   4.103   4.286   4.149 -1.4466 -0.5642 -1.0176
 3262SOL     OW21244   0.558   3.008   4.950  0.1276  0.1461  0.5717
 3262SOL    HW121245   0.625   2.968   4.895  0.9241 -0.2401  1.8320
 3262SOL    HW221246   0.611   3.031   5.026 -1.3454 -0.2435  1.7305
 3263SOL     OW21247   1.745   2.269   0.788 -0.6842  0.0875 -0.3617
 3263SOL    HW121248   1.784   2.255   0.701  1.0734 -1.5680  0.6972
 3263SOL    HW221249   1.782   2.205   0.848  2.2080  1.1834 -1.0103
 3264SOL     OW21250   3.534   1.292   6.821  0.2080  0.5513 -0.4300
 3264SOL    HW121251   3.560   1.263   6.908  0.4072 -1.9603 -1.3451
 3264SOL    HW221252   3.577   1.233   6.760 -1.3372  1.2807 -2.2170
 3265SOL     OW21253   2.516   1.192  13.363 -0.4793 -0.1959 -0.0953
 3265SOL    HW121254   2.453   1.139  13.315 -0.5696  2.1921 -2.6099
 3265SOL    HW221255   2.496   1.156  13.449 -0.5707 -1.1204 -0.5088
 3266SOL     OW21256   1.836   2.987  14.204  0.0760 -0.0503 -0.1400
 3266SOL    HW121257   1.754   3.021  14.168 -1.2766 -0.1209  2.8673
 3266SOL    HW221258   1.888   3.067  14.211  0.4190 -0.3405  0.6683
 3267SOL     OW21259   1.542   1.994  12.090  0.0530  0.0018  0.5553
 3267SOL    HW121260   1.608   2.061  12.103 -0.1650  0.1014  1.1549
 3267SOL    HW221261   1.588   1.950  12.018 -2.9899 -0.7081 -0.9865
 3268SOL     OW21262   3.789   3.469   6.385 -0.0769 -0.2067  0.6219
 3268SOL    HW121263   3.800   3.454   6.479  2.4934 -0.7515  0.2501
 3268SOL    HW221264   3.876   3.499   6.356 -0.8453  0.6029 -0.8151
 3269SOL     OW21265   0.651   0.067   4.184  0.2753 -0.1017  0.0317
 3269SOL    HW121266   0.638   0.127   4.110  2.1348 -0.6637 -0.7442
 3269SOL    HW221267   0.725   0.108   4.230  0.2389 -0.6150  0.5535
 3270SOL     OW21268   2.230   3.262   4.127  0.1421  0.1519  0.3756
 3270SOL    HW121269   2.189   3.349   4.132 -1.0084 -0.1991 -2.6377
 3270SOL    HW221270   2.304   3.289   4.073 -0.4421 -0.5647 -0.8002
 3271SOL     OW21271   4.341   2.210   7.276  0.4944 -0.1619  0.3382
 3271SOL    HW121272   4.360   2.167   7.192  0.6742 -0.8271  0.7241
 3271SOL    HW221273   4.255   2.247   7.259  0.5234 -0.3468 -0.2033
 3272SOL     OW21274   3.436   2.876   4.301  0.4594 -0.4074  0.4085
 3272SOL    HW121275   3.468   2.920   4.222  2.5821  1.9166  2.5935
 3272SOL    HW221276   3.496   2.919   4.361 -0.5435  2.2405 -0.5123
 3273SOL     OW21277   3.243   0.493  16.563  0.1645  0.9074  0.1746
 3273SOL    HW121278   3.179   0.561  16.585 -0.2421  1.3360 -2.4341
 3273SOL    HW221279   3.199   0.409  16.567  2.3308 -0.2605 -0.7496
 3274SOL     OW21280   3.273   0.235   6.954 -0.1516 -0.3702  0.2542
 3274SOL    HW121281   3.262   0.222   7.048  0.0000 -0.3691  0.2729
 3274SOL    HW221282   3.200   0.297   6.951  1.0377  1.0330 -0.1231
 3275SOL     OW21283   1.869   2.533  10.276 -0.0406  0.3682 -0.3693
 3275SOL    HW121284   1.934   2.510  10.342 -0.5981  0.9582  0.3953
 3275SOL    HW221285   1.812   2.456  10.279  1.2571 -0.5650  0.7039
 3276SOL     OW21286   1.488   1.602  17.474  0.3646  0.4792 -0.3531
 3276SOL    HW121287   1.564   1.545  17.489 -1.6650 -2.4730 -1.2127
 3276SOL    HW221288   1.514   1.674  17.532  1.8641 -0.2590 -0.0987
 3277SOL     OW21289   2.478   0.812  15.693 -0.1043 -0.6275  0.2554
 3277SOL    HW121290   2.410   0.747  15.709 -1.2551  0.7693  1.0843
 3277SOL    HW221291   2.452   0.863  15.616 -0.8926 -0.4589  0.6315
 3278SOL     OW21292   1.100   0.467   7.019 -0.2600  0.0061  0.1623
 3278SOL    HW121293   1.035   0.496   7.083 -0.8130 -0.8941  0.0076
 3278SOL    HW221294   1.040   0.459   6.945 -0.7765  0.7438  0.4965
 3279SOL     OW21295   2.769   4.003   8.005 -0.1917 -0.2101 -0.0390
 3279SOL    HW121296   2.852   3.962   7.978  0.2246 -0.2590  1.3193
 3279SOL    HW221297   2.785   4.094   8.029 -0.7172 -0.4348  1.1167
 3280SOL     OW21298   0.011   3.064   5.467 -0.2015 -0.2687 -0.1583
 3280SOL    HW121299   4.679   3.131   5.507 -1.2635 -1.2469  0.0249
 3280SOL    HW221300   0.092   3.082   5.515 -0.1598  2.5856 -1.3192
 3281SOL     OW21301   1.399   1.689  14.310  0.2170 -0.3715  0.3781
 3281SOL    HW121302   1.436   1.602  14.321  0.0806 -0.6512 -1.4175
 3281SOL    HW221303   1.477   1.740  14.288 -1.0495  1.4128 -0.0408
 3282SOL     OW21304   0.669   2.134   7.496  0.1609  0.8076  0.3404
 3282SOL    HW121305   0.667   2.075   7.421 -0.7694  1.2222  0.0324
 3282SOL    HW221306   0.577   2.161   7.494 -0.6801 -2.3045 -2.1099
 3283SOL     OW21307   3.900   2.486   2.912 -0.1944  0.6446 -0.0955
 3283SOL    HW121308   3.928   2.403   2.949  0.2773  0.0544 -1.7785
 3283SOL    HW221309   3.915   2.544   2.987  1.7096 -1.4439  1.1641
 3284SOL     OW21310   2.846   1.739  16.121 -0.4578 -0.0408  0.4491
 3284SOL    HW121311   2.928   1.713  16.079  0.3456  2.3584  0.5327
 3284SOL    HW221312   2.783   1.674  16.090 -1.3387  0.5639  0.9782
 3285SOL     OW21313   2.375   1.620   8.181  0.7161  0.3591  0.1915
 3285SOL    HW121314   2.363   1.536   8.138  2.3199  0.4446 -0.4505
 3285SOL    HW221315   2.450   1.652   8.130 -0.3308 -0.9173 -2.1488
 3286SOL     OW21316   4.048   1.627   0.782 -0.2728  0.6008 -0.2099
 3286SOL    HW121317   4.058   1.532   0.791 -0.1867  0.6042 -0.2715
 3286SOL    HW221318   3.957   1.629   0.752  0.0815  1.2074 -1.2558
 3287SOL     OW21319   3.772   3.966  14.756  0.3936  0.6319  0.3681
 3287SOL    HW121320   3.701   3.940  14.698  1.3973  2.6862 -1.7701
 3287SOL    HW221321   3.817   4.038  14.713 -1.5137  1.5303 -0.0930
 3288SOL     OW21322   4.181   1.670   0.381 -0.3439  0.9950  0.6116
 3288SOL    HW121323   4.087   1.687   0.378 -0.1994  1.4174 -1.4712
 3288SOL    HW221324   4.209   1.632   0.297 -0.7004 -0.6908  1.2519
 3289SOL     OW21325   0.562   2.967   5.925  0.1561 -0.3509 -0.3045
 3289SOL    HW121326   0.589   2.937   5.838 -1.3974 -0.8016 -0.6193
 3289SOL    HW221327   0.510   3.045   5.908 -0.1093 -0.4079  0.2523
 3290SOL     OW21328   0.663   1.111  10.416  0.8158 -0.9404 -0.2133
 3290SOL    HW121329   0.635   1.031  10.460 -0.3343 -0.0668  0.6573
 3290SOL    HW221330   0.664   1.076  10.327 -0.6692 -1.0972 -0.1570
 3291SOL     OW21331   1.946   4.430  14.869 -0.4542  0.0267  0.3747
 3291SOL    HW121332   1.959   4.401  14.960  3.7278  1.0748  0.0768
 3291SOL    HW221333   2.032   4.463  14.846  0.8725 -2.2760  1.9791
 3292SOL     OW21334   1.294   3.330  16.253 -0.8878  0.1961  0.2122
 3292SOL    HW121335   1.346   3.282  16.318 -0.5895  1.6628  1.0481
 3292SOL    HW221336   1.300   3.275  16.174  0.4035  0.6344  0.0049
 3293SOL     OW21337   2.547   2.302  10.564  0.6096 -0.0818 -0.3025
 3293SOL    HW121338   2.489   2.373  10.593  0.7286 -0.0437 -0.1568
 3293SOL    HW221339   2.567   2.277  10.654  0.6769 -2.1994 -0.9101
 3294SOL     OW21340   1.132   1.279  10.533  0.3284 -0.6857  0.4552
 3294SOL    HW121341   1.160   1.201  10.580 -0.2484 -1.2934 -0.2041
 3294SOL    HW221342   1.182   1.347  10.577  0.4578 -2.5390  3.1464
 3295SOL     OW21343   4.456   1.452  11.952  0.6062  0.3018  0.2618
 3295SOL    HW121344   4.477   1.525  11.894  0.3123  0.6566  0.6025
 3295SOL    HW221345   4.543   1.413  11.967  0.3731 -0.5700 -0.6345
 3296SOL     OW21346   0.325   3.157   6.351  0.1732  0.2097  0.6391
 3296SOL    HW121347   0.286   3.077   6.316  2.1513  0.0558 -1.2296
 3296SOL    HW221348   0.390   3.120   6.411  1.2870  0.6381 -0.2976
 3297SOL     OW21349   4.216   1.682   2.741 -0.1527 -0.0011  0.1475
 3297SOL    HW121350   4.168   1.749   2.792  0.2860 -0.3598  1.0306
 3297SOL    HW221351   4.256   1.738   2.675 -0.7913  0.6446  0.3032
 3298SOL     OW21352   0.231   4.410   1.865 -0.2602  0.3938  0.1749
 3298SOL    HW121353   0.263   4.331   1.908 -1.4249 -1.0255 -1.5953
 3298SOL    HW221354   0.220   4.462   1.945 -0.1351  0.4239  0.1717
 3299SOL     OW21355   0.331   1.256  14.568  0.0885 -0.2324  0.6753
 3299SOL    HW121356   0.397   1.193  14.596 -0.1665 -0.4531  0.7845
 3299SOL    HW221357   0.295   1.229  14.484  0.9941  0.1436  0.1665
 3300SOL     OW21358   0.707   2.260   7.986  0.2764  0.1111  0.3347
 3300SOL    HW121359   0.656   2.179   7.981  1.3424 -0.5279 -0.2778
 3300SOL    HW221360   0.696   2.305   7.902 -2.0627 -0.0770  0.5431
 3301SOL     OW21361   0.868   2.301   3.790  0.5349 -0.3809  0.2327
 3301SOL    HW121362   0.867   2.259   3.704  1.0988 -0.8085  0.4384
 3301SOL    HW221363   0.811   2.377   3.775  0.2913 -0.4892  0.6285
 3302SOL     OW21364   1.108   2.692   6.233  0.2437  0.0412  0.3622
 3302SOL    HW121365   1.202   2.683   6.216  0.3684 -0.5133  1.3189
 3302SOL    HW221366   1.091   2.601   6.260  0.2423 -0.1315 -0.2388
 3303SOL     OW21367   1.503   4.617   5.336 -0.2015  0.6701 -0.0141
 3303SOL    HW121368   1.436   4.591   5.399  1.1711 -1.2550  0.6686
 3303SOL    HW221369   1.450   4.629   5.257  2.1734  1.6735 -1.4668
 3304SOL     OW21370   0.920   1.470  14.454 -0.0320  0.1519 -0.5941
 3304SOL    HW121371   0.942   1.543  14.512  1.4638  0.1219 -1.1120
 3304SOL    HW221372   1.001   1.463  14.403  0.7028  1.5393  0.3757
 3305SOL     OW21373   0.140   3.856   4.284  0.1464  0.4468  1.0977
 3305SOL    HW121374   0.107   3.779   4.331  0.5131 -1.1219 -1.1990
 3305SOL    HW221375   0.184   3.822   4.206 -1.0342 -0.2098  0.7105
 3306SOL     OW21376   3.211   2.239   6.669  0.0517  0.2130 -0.7010
 3306SOL    HW121377   3.149   2.311   6.668  0.3145  0.4380 -0.9359
 3306SOL    HW221378   3.169   2.174   6.613  1.0004 -1.2075  0.2342
 3307SOL     OW21379   2.218   3.764   3.224  0.2443  0.1309 -0.0400
 3307SOL    HW121380   2.312   3.747   3.236 -0.0860 -0.6847  1.3719
 3307SOL    HW221381   2.195   3.786   3.314 -0.9411 -1.8246  0.1358
 3308SOL     OW21382   0.646   3.409   8.948  0.3044 -0.5371 -0.1126
 3308SOL    HW121383   0.655   3.341   8.882 -0.4145 -0.5572 -0.1851
 3308SOL    HW221384   0.737   3.432   8.965  0.0009 -0.2743  1.2335
 3309SOL     OW21385   3.979   2.964   3.395  0.6396  0.6449  0.5568
 3309SOL    HW121386   3.928   2.949   3.316  2.3219  0.0442 -0.4119
 3309SOL    HW221387   3.921   3.023   3.443 -0.0111 -0.3985  1.0407
 3310SOL     OW21388   1.475   4.553  17.381 -0.1932  0.5574 -0.4590
 3310SOL    HW121389   1.409   4.554  17.311  0.2734  0.3306 -0.8989
 3310SOL    HW221390   1.420   4.596  17.447 -0.4289  0.3384 -0.5091
 3311SOL     OW21391   2.146   2.625   1.264  0.5140  0.3232 -0.1517
 3311SOL    HW121392   2.065   2.579   1.242  1.3053  0.2866 -3.1226
 3311SOL    HW221393   2.140   2.632   1.359 -0.2978 -0.8925 -0.1146
 3312SOL     OW21394   0.002   1.479   4.654 -0.0713  0.3368 -0.2757
 3312SOL    HW121395   0.037   1.390   4.648 -1.0940 -0.0743 -0.1898
 3312SOL    HW221396   4.631   1.469   4.638 -0.1496 -1.2450  1.1687
 3313SOL     OW21397   3.548   1.734   3.891  0.6647  0.5824  0.0986
 3313SOL    HW121398   3.574   1.823   3.870  1.2491  1.0771  2.8576
 3313SOL    HW221399   3.452   1.734   3.886  0.6973  1.1260 -0.4737
 3314SOL     OW21400   3.001   2.260   1.790 -0.4943 -0.6150  0.3277
 3314SOL    HW121401   2.939   2.309   1.737  1.1180 -1.4948 -2.3532
 3314SOL    HW221402   3.072   2.322   1.804 -0.1928 -0.9083  0.0977
 3315SOL     OW21403   1.633   1.591   1.818  0.1789  0.0510  0.2372
 3315SOL    HW121404   1.666   1.512   1.862  1.2632  0.6914  0.5702
 3315SOL    HW221405   1.541   1.568   1.807  0.9756 -1.8112 -2.3429
 3316SOL     OW21406   3.622   2.343   5.676  0.1691  0.0080  0.3410
 3316SOL    HW121407   3.571   2.267   5.705  1.7986 -0.9193  0.7948
 3316SOL    HW221408   3.710   2.305   5.682  1.0121  2.1023  1.2484
 3317SOL     OW21409   2.849   1.334   8.344 -0.1751  0.0249  0.1421
 3317SOL    HW121410   2.801   1.380   8.276  2.0088  3.1745  0.7137
 3317SOL    HW221411   2.791   1.275   8.392  0.2049 -0.5265 -0.0799
 3318SOL     OW21412   1.172   0.301  15.937  0.7388  0.0707 -0.3220
 3318SOL    HW121413   1.081   0.328  15.946  1.5563  2.2808  1.2041
 3318SOL    HW221414   1.199   0.386  15.901 -0.5192  1.1520  1.3070
 3319SOL     OW21415   1.170   1.952   7.858 -0.2731  0.1874 -0.1132
 3319SOL    HW121416   1.075   1.948   7.869 -0.5191  1.7629 -1.7364
 3319SOL    HW221417   1.184   2.046   7.858 -1.5409  0.3697 -0.3310
 3320SOL     OW21418   3.123   0.225   8.410 -0.5920  0.0510 -0.0680
 3320SOL    HW121419   3.109   0.146   8.463 -0.1795  1.0048  1.4345
 3320SOL    HW221420   3.085   0.197   8.326  1.6174 -0.4868 -0.8928
 3321SOL     OW21421   1.091   1.013   0.987 -1.0110 -0.2087 -0.2362
 3321SOL    HW121422   1.158   0.947   0.972 -2.0643 -1.0260 -1.4016
 3321SOL    HW221423   1.047   0.982   1.066  1.4349 -0.1254  1.1612
 3322SOL     OW21424   1.501   1.653   9.251 -0.1341 -0.3765 -0.5350
 3322SOL    HW121425   1.502   1.741   9.212  2.4176 -0.9534 -1.7802
 3322SOL    HW221426   1.494   1.601   9.171  3.8375 -0.6445 -0.6909
 3323SOL     OW21427   2.990   2.109   5.644  0.5097  0.0947  0.3825
 3323SOL    HW121428   2.923   2.042   5.647 -0.3230  0.7946 -2.2482
 3323SOL    HW221429   3.046   2.085   5.570  0.1710  1.1431 -0.2221
 3324SOL     OW21430   1.225   2.843   7.141  0.4453 -0.1505  0.0095
 3324SOL    HW121431   1.223   2.864   7.048 -0.0840 -0.4394 -0.0414
 3324SOL    HW221432   1.292   2.774   7.141 -0.7216 -1.2782 -1.3570
 3325SOL     OW21433   4.022   4.307   7.846  0.1175  0.5220 -0.1270
 3325SOL    HW121434   3.951   4.330   7.785  1.0564  1.0323 -1.0391
 3325SOL    HW221435   3.985   4.302   7.934 -1.6735  3.6936 -0.6845
 3326SOL     OW21436   3.111   3.806   4.551  0.1896  0.4487  0.5163
 3326SOL    HW121437   3.080   3.891   4.582  1.1751  0.9183  0.2185
 3326SOL    HW221438   3.171   3.832   4.481  0.2292 -4.1056 -1.1446
 3327SOL     OW21439   2.332   0.319  14.066  0.1214 -0.3270 -0.7970
 3327SOL    HW121440   2.405   0.275  14.023  1.8933  2.1048 -0.2620
 3327SOL    HW221441   2.356   0.303  14.157  0.5488  2.3951 -0.4482
 3328SOL     OW21442   1.529   4.012   8.962  0.4432  0.0403 -0.1818
 3328SOL    HW121443   1.609   4.063   8.945  1.1643 -0.8558  0.4928
 3328SOL    HW221444   1.515   3.964   8.881 -2.1983  0.1536  0.2219
 3329SOL     OW21445   0.132   2.568   3.908 -0.5989  0.4331  0.1994
 3329SOL    HW121446   0.080   2.505   3.956 -0.9935  1.1125  0.6608
 3329SOL    HW221447   0.145   2.528   3.822 -0.6370  0.9338 -0.0408
 3330SOL     OW21448   3.493   3.751  10.162 -0.0581  0.1254 -0.3021
 3330SOL    HW121449   3.584   3.781  10.160 -0.4053  1.0645 -2.0377
 3330SOL    HW221450   3.499   3.659  10.185  0.5649  0.1730 -0.2691
 3331SOL     OW21451   0.691   1.447   7.198  0.3183 -0.0819  0.0473
 3331SOL    HW121452   0.708   1.538   7.222 -1.5274  0.0008  0.9709
 3331SOL    HW221453   0.596   1.439   7.197  0.2984  0.3376 -1.2182
 3332SOL     OW21454   4.448   4.644   8.478 -0.2562 -0.0073  0.1908
 3332SOL    HW121455   4.417   4.587   8.408 -0.2434 -1.8045  1.6466
 3332SOL    HW221456   4.434   4.595   8.559 -1.4471  0.7882  0.4674
 3333SOL     OW21457   0.550   1.702   8.709 -0.0770 -0.0498  0.5067
 3333SOL    HW121458   0.572   1.626   8.763  2.5371  0.6611  0.4263
 3333SOL    HW221459   0.580   1.664   8.626  0.3485 -1.4975  1.3176
 3334SOL     OW21460   0.659   1.586   9.952 -0.7956  0.7217 -0.9837
 3334SOL    HW121461   0.590   1.567  10.015 -0.4768 -2.1105 -1.4821
 3334SOL    HW221462   0.716   1.511   9.935  0.6664  1.4659  0.7313
 3335SOL     OW21463   0.192   1.118   6.050 -0.3919 -0.2926  0.5049
 3335SOL    HW121464   0.215   1.060   5.978 -0.6693 -0.6238  0.6852
 3335SOL    HW221465   0.248   1.193   6.029 -0.9416 -0.4019 -1.3351
 3336SOL     OW21466   2.788   3.717   6.350 -0.8008 -0.2885 -0.2187
 3336SOL    HW121467   2.793   3.730   6.445 -1.6247 -1.0182 -0.0711
 3336SOL    HW221468   2.698   3.684   6.345 -0.9438 -0.1988  1.5571
 3337SOL     OW21469   3.518   4.337   9.095 -0.5467 -0.1034  0.1390
 3337SOL    HW121470   3.573   4.326   9.172  0.8186  1.9014 -0.5456
 3337SOL    HW221471   3.498   4.247   9.069  0.8459  0.0256 -1.3496
 3338SOL     OW21472   3.822   0.287   3.453  0.5883  0.0624 -0.2795
 3338SOL    HW121473   3.880   0.303   3.379 -0.9468  1.9469 -1.0730
 3338SOL    HW221474   3.864   0.202   3.469 -0.6701 -0.6200 -0.5814
 3339SOL     OW21475   4.548   1.122  11.347  0.0946 -0.6377 -0.0096
 3339SOL    HW121476   4.559   1.184  11.274 -1.2561  1.0879  1.2680
 3339SOL    HW221477   4.453   1.113  11.341  0.0281  0.3050 -0.4150
 3340SOL     OW21478   4.305   1.444   3.836  0.0885 -1.5067  0.2055
 3340SOL    HW121479   4.231   1.496   3.864  0.4324 -1.2646  0.6593
 3340SOL    HW221480   4.357   1.434   3.916 -1.3364 -0.2581  1.2835
 3341SOL     OW21481   1.127   0.682   1.606  0.1741 -0.1672 -0.5952
 3341SOL    HW121482   1.108   0.629   1.528  3.7953 -1.9714 -0.2366
 3341SOL    HW221483   1.057   0.747   1.604  0.9847  0.7034 -0.8227
 3342SOL     OW21484   0.309   1.714   3.296 -0.1566 -0.2648  0.0295
 3342SOL    HW121485   0.312   1.772   3.372  1.3592 -2.1216  1.3841
 3342SOL    HW221486   0.324   1.784   3.232  2.2482 -0.2793  0.5712
 3343SOL     OW21487   1.431   2.974  11.772  0.6907  0.0813  0.1173
 3343SOL    HW121488   1.437   2.944  11.681 -1.4199 -2.3878  0.8220
 3343SOL    HW221489   1.430   3.069  11.759 -0.9946  0.2015  1.2108
 3344SOL     OW21490   0.796   4.336  11.053  0.4166  0.9635  0.2255
 3344SOL    HW121491   0.723   4.324  11.114  1.4541 -1.5993  1.0033
 3344SOL    HW221492   0.755   4.366  10.972  0.0004  0.4631  0.2489
 3345SOL     OW21493   2.729   4.082  13.070  0.0946 -0.7470  0.4431
 3345SOL    HW121494   2.672   4.109  12.998  2.9346  0.8702 -1.1913
 3345SOL    HW221495   2.813   4.124  13.051 -2.1420  3.1344 -0.7593
 3346SOL     OW21496   1.004   4.421  12.934  0.1068  0.3772 -0.2805
 3346SOL    HW121497   1.061   4.396  12.861 -1.9834 -1.1364 -1.4039
 3346SOL    HW221498   0.928   4.449  12.883  0.0982 -2.2145 -1.7062
 3347SOL     OW21499   1.624   2.974   6.091  0.2063 -0.1810  0.5013
 3347SOL    HW121500   1.556   3.035   6.119  1.3257  0.0577  2.7510
 3347SOL    HW221501   1.565   2.903   6.068  0.2705 -0.2345  0.5018
 3348SOL     OW21502   3.616   2.923   6.194  0.7345  0.3120  0.0660
 3348SOL    HW121503   3.557   2.992   6.164  1.4288  1.1293  0.5501
 3348SOL    HW221504   3.657   2.908   6.109 -2.7823 -1.2791 -1.3225
 3349SOL     OW21505   1.495   3.596   1.620 -0.4094  0.3942  0.2739
 3349SOL    HW121506   1.419   3.548   1.588 -0.3571  1.3765 -1.3229
 3349SOL    HW221507   1.443   3.674   1.636 -1.0598  0.1319 -0.5666
 3350SOL     OW21508   4.257   2.939   2.178  0.2268  0.6220  0.2500
 3350SOL    HW121509   4.322   2.869   2.175 -0.9346 -0.4000 -0.9235
 3350SOL    HW221510   4.240   2.949   2.084  1.4635  2.8901  0.2840
 3351SOL     OW21511   3.370   2.298   5.447 -0.0139 -0.1527  0.1793
 3351SOL    HW121512   3.372   2.227   5.383 -1.2494 -1.1762  1.2669
 3351SOL    HW221513   3.346   2.250   5.526  3.4747  0.8072  1.8334
 3352SOL     OW21514   0.339   3.537   2.945  0.0520 -0.5487  0.0416
 3352SOL    HW121515   0.417   3.562   2.897 -1.0959  0.5112 -1.2695
 3352SOL    HW221516   0.314   3.454   2.904  1.2456 -0.9595  0.1507
 3353SOL     OW21517   4.505   3.936   6.404 -0.0773  0.1176  0.0864
 3353SOL    HW121518   4.584   3.931   6.458 -1.8302 -0.1163  2.6472
 3353SOL    HW221519   4.543   3.914   6.319  1.9014 -0.2247  1.0707
 3354SOL     OW21520   2.867   1.346   5.271  0.3295  0.0521 -0.4072
 3354SOL    HW121521   2.896   1.283   5.205 -0.4642 -1.8855  1.0920
 3354SOL    HW221522   2.935   1.414   5.269 -1.0090  1.4426  1.6510
 3355SOL     OW21523   2.475   0.894   1.655  0.6831  0.1147 -0.3483
 3355SOL    HW121524   2.540   0.838   1.615 -0.6739 -0.3919 -1.8334
 3355SOL    HW221525   2.393   0.861   1.618  1.8508 -1.7264 -1.2253
 3356SOL     OW21526   2.931   1.128  13.369  0.1342  0.1560  0.1323
 3356SOL    HW121527   2.906   1.050  13.417 -0.5844 -0.0163 -0.5272
 3356SOL    HW221528   2.948   1.190  13.440  0.3824 -1.4363  1.4626
 3357SOL     OW21529   0.909   2.346   5.323  0.3172  0.6913 -0.1510
 3357SOL    HW121530   0.935   2.433   5.352 -0.8705  1.6279 -1.9401
 3357SOL    HW221531   0.819   2.333   5.353  0.4553 -2.1006 -0.8979
 3358SOL     OW21532   3.888   1.006   3.415  0.1303 -0.0609  0.2483
 3358SOL    HW121533   3.880   0.957   3.334 -0.1734 -2.0951  1.4972
 3358SOL    HW221534   3.936   0.944   3.469  0.6652  0.6197  0.5521
 3359SOL     OW21535   2.088   0.466   6.274  0.3393 -0.5492 -0.2286
 3359SOL    HW121536   2.039   0.547   6.257  1.1270  0.2121  1.1911
 3359SOL    HW221537   2.095   0.462   6.369  1.0067 -1.2377 -0.3119
 3360SOL     OW21538   0.607   3.406   5.583  0.5631 -0.4858  0.3210
 3360SOL    HW121539   0.605   3.499   5.609  0.4529 -0.9993  2.1623
 3360SOL    HW221540   0.654   3.411   5.500  0.4402  0.4374  0.3003
 3361SOL     OW21541   4.241   2.606   2.281 -0.1147 -0.1043  0.4041
 3361SOL    HW121542   4.314   2.633   2.225  0.1619 -1.1943  0.2267
 3361SOL    HW221543   4.223   2.517   2.250 -0.7437  0.7214 -1.5928
 3362SOL     OW21544   1.569   3.503  12.085 -0.4075  0.0702 -0.3402
 3362SOL    HW121545   1.475   3.506  12.101 -0.2505 -3.5619  1.1132
 3362SOL    HW221546   1.580   3.565  12.013 -2.2467  0.4867 -0.2751
 3363SOL     OW21547   1.099   1.831   4.593 -0.1262  0.5752  0.3524
 3363SOL    HW121548   1.105   1.738   4.574 -0.7360  0.4271  0.8545
 3363SOL    HW221549   1.160   1.870   4.531 -0.5308  1.9494  0.8195
 3364SOL     OW21550   0.842   3.635  14.025 -0.9417  0.0800  0.8702
 3364SOL    HW121551   0.799   3.563  13.978  0.5881 -0.8521  0.9138
 3364SOL    HW221552   0.806   3.712  13.979 -1.2540 -2.6974 -3.5244
 3365SOL     OW21553   3.867   0.037   5.765 -0.1539  1.0580 -0.6213
 3365SOL    HW121554   3.888   4.720   5.849 -2.7916  0.3173 -0.3177
 3365SOL    HW221555   3.829   0.121   5.792 -2.0965  0.5158 -1.7153
 3366SOL     OW21556   0.837   3.918   9.301  0.1204 -0.2534 -0.6669
 3366SOL    HW121557   0.842   3.844   9.241 -3.3577 -1.2715  0.3107
 3366SOL    HW221558   0.890   3.892   9.376  0.3890  1.3569 -0.2914
 3367SOL     OW21559   1.337   1.104   0.116  0.3601 -0.4864 -0.0064
 3367SOL    HW121560   1.323   1.191   0.079 -0.1333 -0.9271 -0.8746
 3367SOL    HW221561   1.425   1.110   0.154 -0.8685  2.0040  2.4378
 3368SOL     OW21562   4.553   4.451   6.258  0.2578  0.7224  0.9535
 3368SOL    HW121563   4.626   4.484   6.310  0.3504  2.4179 -0.2479
 3368SOL    HW221564   4.544   4.362   6.292  2.8940  0.5771  1.2063
 3369SOL     OW21565   3.324   0.322   1.491  0.3274 -0.1527  0.4927
 3369SOL    HW121566   3.399   0.343   1.546  0.1713  1.6080  0.0132
 3369SOL    HW221567   3.313   0.407   1.450 -1.2775  0.3621  2.0498
 3370SOL     OW21568   3.106   0.976   5.435 -0.2180  0.4710 -0.1482
 3370SOL    HW121569   3.103   0.887   5.470 -1.4240  0.3540 -0.5522
 3370SOL    HW221570   3.018   1.003   5.462 -1.5503 -2.6788 -1.2787
 3371SOL     OW21571   0.868   2.934   4.556  0.4705 -0.2729  0.2248
 3371SOL    HW121572   0.939   2.992   4.527  0.3926 -0.0216  0.5368
 3371SOL    HW221573   0.898   2.846   4.531 -0.6175 -0.9831  1.4519
 3372SOL     OW21574   4.224   1.554   7.780  0.5250  0.1721 -0.1201
 3372SOL    HW121575   4.256   1.644   7.768 -1.4830  0.7664 -0.9502
 3372SOL    HW221576   4.132   1.574   7.799  0.8250  1.3999  0.0652
 3373SOL     OW21577   1.072   0.451   5.525 -0.2892  0.0357  0.1153
 3373SOL    HW121578   1.150   0.395   5.527 -0.2178  0.0946 -0.8426
 3373SOL    HW221579   1.099   0.528   5.575 -2.0992 -0.5922  2.0550
 3374SOL     OW21580   0.281   3.042  10.354  0.0535 -0.3050  0.3266
 3374SOL    HW121581   0.254   2.984  10.282  2.6295 -1.3050  0.1851
 3374SOL    HW221582   0.376   3.034  10.346  0.1326  1.4707 -0.4470
 3375SOL     OW21583   3.190   1.811   6.767 -0.2664  0.0089 -0.1787
 3375SOL    HW121584   3.272   1.845   6.730 -1.0404  0.1377 -1.7749
 3375SOL    HW221585   3.220   1.721   6.780 -2.3276 -0.6095  0.2475
 3376SOL     OW21586   4.535   4.460   7.276 -0.1678  0.1301  0.0323
 3376SOL    HW121587   4.566   4.500   7.195  1.1423 -0.7180  0.1253
 3376SOL    HW221588   4.524   4.369   7.248 -0.6727 -0.1124  1.0216
 3377SOL     OW21589   1.584   2.113   6.891 -0.6376  0.2423  0.3440
 3377SOL    HW121590   1.564   2.092   6.982  1.3149 -0.3133  0.6294
 3377SOL    HW221591   1.611   2.032   6.847 -1.5711  0.3180 -0.3837
 3378SOL     OW21592   3.150   4.104   2.694 -0.5723 -0.0227 -0.1952
 3378SOL    HW121593   3.184   4.122   2.782  1.4634 -0.3125 -0.9209
 3378SOL    HW221594   3.075   4.163   2.690 -0.9095 -0.3907  0.6477
 3379SOL     OW21595   2.789   2.968   6.606  0.7576 -0.4084 -0.0686
 3379SOL    HW121596   2.747   3.015   6.534  4.7106  0.5646 -1.7301
 3379SOL    HW221597   2.787   3.030   6.679  3.9404 -0.1465 -0.2066
 3380SOL     OW21598   0.582   3.806  10.379 -0.3723  0.3907  0.1813
 3380SOL    HW121599   0.511   3.870  10.375  0.7027  1.3431 -3.1557
 3380SOL    HW221600   0.568   3.784  10.471  1.0541  0.2915  0.3758
 3381SOL     OW21601   1.394   0.255   6.517 -0.3856  0.1582 -0.1710
 3381SOL    HW121602   1.380   0.182   6.578 -1.7056  1.8352  1.5400
 3381SOL    HW221603   1.489   0.262   6.518 -0.4905  1.5174 -0.3949
 3382SOL     OW21604   1.146   0.379  10.102  0.6166  0.5153 -0.2268
 3382SOL    HW121605   1.221   0.367  10.159 -0.0530 -2.6697 -0.0243
 3382SOL    HW221606   1.185   0.386  10.015  0.2857  1.7847 -0.2709
 3383SOL     OW21607   1.444   0.417  13.486 -1.0548  0.6907  0.0058
 3383SOL    HW121608   1.373   0.481  13.481 -1.3323  0.6203  3.0277
 3383SOL    HW221609   1.387   0.340  13.493  1.2330 -1.3157 -3.8313
 3384SOL     OW21610   1.215   1.827   2.102 -0.1756  0.0153  0.0660
 3384SOL    HW121611   1.194   1.745   2.146  0.2378 -0.8452 -1.3255
 3384SOL    HW221612   1.127   1.849   2.071  0.0580 -0.2034 -0.7586
 3385SOL     OW21613   1.011   4.627   8.826 -0.2911 -0.0544  0.0980
 3385SOL    HW121614   1.028   4.627   8.732  0.0719  0.2852  0.1639
 3385SOL    HW221615   0.924   4.588   8.828  0.3523 -1.4477  0.4779
 3386SOL     OW21616   1.704   2.913  15.025  0.3660 -0.2685  0.1828
 3386SOL    HW121617   1.766   2.981  15.051 -0.2625 -0.1172  1.2937
 3386SOL    HW221618   1.620   2.952  15.049 -0.6460 -2.0443 -0.4637
 3387SOL     OW21619   2.467   3.543   6.624 -0.2584 -0.4618  0.2040
 3387SOL    HW121620   2.432   3.632   6.620 -1.5549 -0.8814  2.1330
 3387SOL    HW221621   2.525   3.549   6.700  0.2638  1.4979 -0.3484
 3388SOL     OW21622   1.511   4.372   3.545  0.4982 -0.2787 -0.3043
 3388SOL    HW121623   1.444   4.402   3.606  0.0354 -1.9445  0.0004
 3388SOL    HW221624   1.562   4.317   3.604 -0.9501 -0.2982  0.9202
 3389SOL     OW21625   2.199   2.849   3.709  0.0034  0.2709 -0.3355
 3389SOL    HW121626   2.285   2.886   3.728 -1.1167  2.3777  0.6015
 3389SOL    HW221627   2.151   2.884   3.783 -0.0614 -1.5958  0.5179
 3390SOL     OW21628   0.697   2.945   6.850  0.2905  0.0344 -0.4346
 3390SOL    HW121629   0.713   3.003   6.776  0.5059 -1.6496 -1.6836
 3390SOL    HW221630   0.783   2.932   6.890 -1.2046 -4.2325  1.3494
 3391SOL     OW21631   1.749   4.663   2.885 -0.4353  0.6481  0.3146
 3391SOL    HW121632   1.816   4.707   2.938 -1.0233 -0.0696  1.6595
 3391SOL    HW221633   1.779   4.573   2.882 -0.4469  0.6921 -0.8697
 3392SOL     OW21634   3.518   2.536   0.202  0.1996 -0.4725  0.4563
 3392SOL    HW121635   3.557   2.623   0.193 -1.3920  0.2187  0.3117
 3392SOL    HW221636   3.571   2.497   0.271  0.2353  2.3949  2.0852
 3393SOL     OW21637   0.338   4.197   8.572 -0.1748  0.3806 -0.3437
 3393SOL    HW121638   0.338   4.212   8.477 -0.0004  0.5252 -0.3217
 3393SOL    HW221639   0.257   4.241   8.597 -0.7693 -1.0489  0.2322
 3394SOL     OW21640   3.543   4.552   6.065 -0.4648  0.3120 -0.0666
 3394SOL    HW121641   3.523   4.542   5.972  0.0036  1.5128 -0.2996
 3394SOL    HW221642   3.630   4.512   6.065 -0.8400 -0.4934  0.1674
 3395SOL     OW21643   1.905   1.440   8.056  0.6183  0.1543 -0.0379
 3395SOL    HW121644   1.877   1.521   8.098  0.6133 -0.5264  1.2687
 3395SOL    HW221645   1.821   1.395   8.050  0.5253  0.3759 -0.4235
 3396SOL     OW21646   0.795   4.020   3.255  0.3174  0.0021 -0.1018
 3396SOL    HW121647   0.711   4.040   3.214  1.0209 -0.6404 -1.8315
 3396SOL    HW221648   0.844   4.057   3.182  0.2139  1.0097  0.3512
 3397SOL     OW21649   1.925   2.839  17.103  0.4376  0.1863  0.2398
 3397SOL    HW121650   1.836   2.809  17.121  0.4140 -0.1913 -0.4771
 3397SOL    HW221651   1.978   2.770  17.142  0.8282 -0.8770 -2.1319
 3398SOL     OW21652   4.327   2.477   6.880 -0.1943 -0.3792  0.0475
 3398SOL    HW121653   4.274   2.447   6.953 -0.7921 -0.7758 -0.5517
 3398SOL    HW221654   4.316   2.572   6.878 -0.0781 -0.3656  0.0298
 3399SOL     OW21655   0.852   3.873  12.184 -0.1606  0.5221 -0.4861
 3399SOL    HW121656   0.802   3.840  12.259  0.5695 -1.8003 -1.0401
 3399SOL    HW221657   0.825   3.965  12.178  0.4227  0.6443 -1.1665
 3400SOL     OW21658   3.318   3.337   4.145  0.1234  0.4491 -0.8287
 3400SOL    HW121659   3.340   3.371   4.058  1.7389  1.6572  0.0638
 3400SOL    HW221660   3.297   3.414   4.198  2.1538  0.2889  0.2109
 3401SOL     OW21661   2.703   3.911  14.585  0.0125  0.4677  0.1177
 3401SOL    HW121662   2.622   3.931  14.539  0.1978 -2.0384 -1.3334
 3401SOL    HW221663   2.767   3.976  14.555  0.6789 -0.2237  0.0240
 3402SOL     OW21664   1.960   2.082   8.744  0.2611  0.5814  0.5537
 3402SOL    HW121665   2.035   2.065   8.800 -0.4204 -0.2541  1.2222
 3402SOL    HW221666   2.008   2.114   8.668  0.3205 -0.6881  0.0578
 3403SOL     OW21667   0.697   1.002   8.947 -0.6811  0.0021  0.6526
 3403SOL    HW121668   0.650   0.922   8.972  0.0169 -0.9062 -0.9957
 3403SOL    HW221669   0.773   0.975   8.897 -0.8210 -1.6314  1.3305
 3404SOL     OW21670   1.265   1.495   5.885 -0.0196  0.3505  0.1434
 3404SOL    HW121671   1.204   1.521   5.954 -2.2336 -0.1086 -1.6573
 3404SOL    HW221672   1.197   1.470   5.822  1.3294 -0.0030 -1.1545
 3405SOL     OW21673   2.367   0.434   3.178  0.2758  0.6796  0.1060
 3405SOL    HW121674   2.399   0.377   3.108 -1.0001 -1.2835  1.1404
 3405SOL    HW221675   2.448   0.483   3.195 -0.6938  2.2155  0.2859
 3406SOL     OW21676   0.599   2.831  11.323 -0.6056  0.0365 -0.2404
 3406SOL    HW121677   0.519   2.884  11.329 -0.7036 -0.0488 -0.7737
 3406SOL    HW221678   0.585   2.775  11.400 -0.4749 -0.6707 -0.7372
 3407SOL     OW21679   0.582   4.132   6.100 -0.2000  0.2647  0.4761
 3407SOL    HW121680   0.544   4.219   6.119  2.1582  1.3094  0.3425
 3407SOL    HW221681   0.500   4.091   6.073  1.8988 -3.2328 -0.4767
 3408SOL     OW21682   3.320   2.815  13.554 -0.2959  0.5475  0.3669
 3408SOL    HW121683   3.401   2.862  13.570 -1.0214  1.1879  2.1544
 3408SOL    HW221684   3.316   2.779  13.643 -0.0373 -1.3115 -0.3686
 3409SOL     OW21685   3.049   0.611  16.231 -0.4022  0.2119  0.6122
 3409SOL    HW121686   3.071   0.551  16.160 -0.4753 -0.4678  1.1616
 3409SOL    HW221687   2.960   0.586  16.254 -0.5495  2.8259  2.8935
 3410SOL     OW21688   3.150   0.038   4.302 -0.0094  0.3527 -0.3446
 3410SOL    HW121689   3.188   4.701   4.366 -2.9831  0.8499  1.8784
 3410SOL    HW221690   3.178   4.712   4.224 -1.0830 -2.2063  0.9003
 3411SOL     OW21691   4.407   1.433   6.836  0.6887  0.0353 -0.6653
 3411SOL    HW121692   4.476   1.492   6.867 -1.0974  0.5590  2.2912
 3411SOL    HW221693   4.449   1.347   6.841  0.0529 -0.0760  2.7389
 3412SOL     OW21694   3.439   0.692  15.009  0.4884  0.2594  0.4663
 3412SOL    HW121695   3.423   0.785  15.020  0.7905  0.6048 -1.9648
 3412SOL    HW221696   3.511   0.678  15.071  0.3047  0.6537  0.7709
 3413SOL     OW21697   3.543   1.419  16.937  0.1037  0.8686  0.0748
 3413SOL    HW121698   3.593   1.464  17.005  1.9516  2.5487 -2.3530
 3413SOL    HW221699   3.598   1.341  16.926 -0.2312  0.5364  0.8213
 3414SOL     OW21700   3.731   2.411   0.705 -0.1405  0.1021  0.4033
 3414SOL    HW121701   3.785   2.476   0.750  2.1399 -1.9981  0.7533
 3414SOL    HW221702   3.718   2.340   0.769  1.4882  1.7682  2.5755
 3415SOL     OW21703   1.307   3.203   6.997  0.4717 -0.3120 -0.1288
 3415SOL    HW121704   1.305   3.109   6.978  0.8212 -0.2109 -0.6741
 3415SOL    HW221705   1.215   3.222   6.978 -0.1595 -1.8707  1.3225
 3416SOL     OW21706   1.140   1.607   5.208 -0.1923  0.4601  0.0137
 3416SOL    HW121707   1.055   1.634   5.243 -0.3866 -1.8821  1.3555
 3416SOL    HW221708   1.196   1.680   5.236  0.9386  0.3615 -2.0055
 3417SOL     OW21709   2.049   1.649   3.384  0.0858 -0.4908 -0.5221
 3417SOL    HW121710   2.085   1.687   3.304 -3.8669  3.8832 -0.2506
 3417SOL    HW221711   2.102   1.570   3.394  2.0207  0.9827  0.9644
 3418SOL     OW21712   2.112   0.090  10.251  0.0771  0.3958  0.2363
 3418SOL    HW121713   2.082   0.161  10.309 -1.3127 -0.7380  0.9003
 3418SOL    HW221714   2.113   0.126  10.163 -0.8129 -0.5378 -0.1569
 3419SOL     OW21715   0.863   0.691   2.426  0.1158 -0.0848 -0.0591
 3419SOL    HW121716   0.782   0.720   2.384 -0.6695 -0.7504  1.0094
 3419SOL    HW221717   0.831   0.702   2.516  1.1854 -2.0971  0.5533
 3420SOL     OW21718   1.160   2.829   9.855 -0.0705  0.0601  0.3500
 3420SOL    HW121719   1.137   2.922   9.858  1.7280  0.5764 -1.6171
 3420SOL    HW221720   1.170   2.819   9.760 -0.8588  2.7749 -0.0237
 3421SOL     OW21721   0.187   1.587  11.438 -0.6816  0.1379  0.6091
 3421SOL    HW121722   0.270   1.626  11.408 -1.1104  1.0274  0.5925
 3421SOL    HW221723   0.137   1.599  11.357 -1.3696  0.1476  1.0383
 3422SOL     OW21724   3.678   4.354  17.132 -0.6763  0.5899 -0.8817
 3422SOL    HW121725   3.722   4.406  17.064 -1.0257 -0.8848 -2.2433
 3422SOL    HW221726   3.593   4.346  17.088 -1.3225  0.9948  0.3007
 3423SOL     OW21727   0.496   0.270  14.917  0.1464  0.4999 -0.3786
 3423SOL    HW121728   0.579   0.245  14.958 -0.4263 -2.9251 -1.2714
 3423SOL    HW221729   0.486   0.343  14.977  0.4106  1.5200 -1.5835
 3424SOL     OW21730   2.447   1.415   4.455 -0.2382 -0.0371  0.2703
 3424SOL    HW121731   2.419   1.496   4.497 -1.6155  0.3208 -1.3612
 3424SOL    HW221732   2.473   1.439   4.365 -2.1356 -0.7706 -0.4729
 3425SOL     OW21733   2.906   0.922   8.081 -0.4671 -0.0913  0.4157
 3425SOL    HW121734   2.844   0.852   8.103 -1.3279  1.2356  2.2509
 3425SOL    HW221735   2.848   0.981   8.033  2.5005  2.4340 -0.0402
 3426SOL     OW21736   3.258   0.988   2.495 -0.1235 -0.2602  0.0485
 3426SOL    HW121737   3.340   1.005   2.447  0.9663 -2.4434  1.1395
 3426SOL    HW221738   3.247   0.896   2.472 -0.4381 -0.4096  0.8028
 3427SOL     OW21739   1.345   2.175  12.053  0.4734  0.1075 -0.1454
 3427SOL    HW121740   1.340   2.205  12.144  0.6067  0.7056 -0.3396
 3427SOL    HW221741   1.428   2.129  12.066 -0.0147 -0.3071  1.5300
 3428SOL     OW21742   2.450   1.883   4.864  0.0188 -0.0146 -0.0223
 3428SOL    HW121743   2.426   1.805   4.913  0.5137 -0.9976 -1.3540
 3428SOL    HW221744   2.529   1.853   4.819  1.2183  1.0316  1.3952
 3429SOL     OW21745   4.615   2.351   9.022  0.2038 -0.0498 -0.1848
 3429SOL    HW121746   4.656   2.287   9.081  0.8478 -0.3295 -0.9380
 3429SOL    HW221747   4.532   2.357   9.069  0.5391  2.5566  0.0316
 3430SOL     OW21748   2.183   0.259   1.727 -0.2678  0.2113  0.2711
 3430SOL    HW121749   2.165   0.167   1.746 -2.4354  0.3726 -0.9734
 3430SOL    HW221750   2.095   0.286   1.700 -0.7199  0.0982  1.6134
 3431SOL     OW21751   1.247   1.678   7.932  0.8244  0.4061 -0.5621
 3431SOL    HW121752   1.232   1.624   7.855 -0.3022 -1.0651  0.6916
 3431SOL    HW221753   1.214   1.765   7.911 -0.5771 -0.3132 -1.3350
 3432SOL     OW21754   3.047   3.579   2.890  0.2987  0.6571 -0.0837
 3432SOL    HW121755   3.109   3.651   2.901 -0.4034  1.3693 -0.8504
 3432SOL    HW221756   3.019   3.600   2.801 -1.1474  0.9965  0.4485
 3433SOL     OW21757   1.141   1.414   0.292 -0.3031 -0.6387  0.3633
 3433SOL    HW121758   1.192   1.382   0.218 -0.9862 -1.3414  0.1942
 3433SOL    HW221759   1.166   1.355   0.363 -2.3836 -0.9265  0.8573
 3434SOL     OW21760   2.223   0.170   8.267 -0.0103 -0.2724 -0.5999
 3434SOL    HW121761   2.292   0.180   8.332 -0.4774  1.1808 -0.3254
 3434SOL    HW221762   2.200   0.261   8.246 -1.0668 -0.1966  0.8694
 3435SOL     OW21763   0.039   4.542   6.421 -0.2443 -0.0557 -0.6416
 3435SOL    HW121764   0.007   4.606   6.484  0.1308 -0.0448 -0.4641
 3435SOL    HW221765   0.124   4.518   6.458 -0.0228 -0.5378 -1.4542
 3436SOL     OW21766   3.455   4.635   3.862 -0.4047 -0.2233 -0.0200
 3436SOL    HW121767   3.509   4.624   3.940  0.4158 -1.3512 -0.7657
 3436SOL    HW221768   3.433   0.005   3.851 -0.7354 -0.1846  0.8949
 3437SOL     OW21769   4.100   0.409   6.969  0.6774 -0.2799  0.4082
 3437SOL    HW121770   4.140   0.372   6.890  3.6758  2.3378  0.6776
 3437SOL    HW221771   4.011   0.429   6.941  0.8949  0.4371  0.2174
 3438SOL     OW21772   0.572   2.993   6.209 -0.2011 -0.5916 -0.3992
 3438SOL    HW121773   0.588   2.999   6.114 -0.0118  0.3474 -0.3034
 3438SOL    HW221774   0.625   3.067   6.238 -0.7132 -0.2775 -0.2626
 3439SOL     OW21775   2.000   3.587  17.593 -1.0020 -0.1964 -0.1199
 3439SOL    HW121776   2.038   3.535  17.522 -0.6943  1.0898 -0.8903
 3439SOL    HW221777   2.030   3.675  17.571 -1.7658  0.4317  1.2972
 3440SOL     OW21778   4.673   3.008   7.118 -0.1713 -0.2382 -0.0437
 3440SOL    HW121779   0.005   3.045   7.048  0.6653  0.8967  1.2192
 3440SOL    HW221780   4.683   2.914   7.103 -0.9904 -0.4085  0.5019
 3441SOL     OW21781   3.959   1.998   7.580 -0.2100 -0.2899 -0.4036
 3441SOL    HW121782   4.017   1.990   7.505 -0.2897  0.6139 -0.5617
 3441SOL    HW221783   3.951   2.093   7.578 -1.0462 -0.3606 -0.5898
 3442SOL     OW21784   2.417   3.913   9.145 -0.2294  0.7581 -0.3246
 3442SOL    HW121785   2.482   3.915   9.076 -0.5112 -0.6290 -0.6384
 3442SOL    HW221786   2.366   3.835   9.124  0.3448  0.0647  0.8219
 3443SOL     OW21787   1.105   0.262   4.329  0.0009 -0.5520 -0.0062
 3443SOL    HW121788   1.134   0.338   4.278 -3.1289  0.2215 -0.6048
 3443SOL    HW221789   1.086   0.294   4.417  0.5591 -1.1072  0.3210
 3444SOL     OW21790   3.015   3.524   6.377 -0.5645  1.0998 -0.1531
 3444SOL    HW121791   2.939   3.564   6.335 -0.2918 -1.7143 -3.2707
 3444SOL    HW221792   2.978   3.445   6.416  0.3860 -0.3312 -2.1161
 3445SOL     OW21793   0.568   3.275   2.754 -0.5422 -0.1645 -0.2590
 3445SOL    HW121794   0.497   3.215   2.732 -1.0508  0.5460 -0.5903
 3445SOL    HW221795   0.549   3.300   2.844  1.9757 -0.6813  0.4096
 3446SOL     OW21796   2.635   1.160   9.569  0.4888  0.1089  0.0716
 3446SOL    HW121797   2.616   1.169   9.476 -1.3236  0.7372  0.4970
 3446SOL    HW221798   2.617   1.249   9.600 -2.2793 -0.0049 -1.1824
 3447SOL     OW21799   3.630   2.304   6.887 -0.3173  0.1841  0.2463
 3447SOL    HW121800   3.664   2.384   6.846 -0.7496 -0.4340 -1.3247
 3447SOL    HW221801   3.538   2.330   6.889 -0.9829 -2.1190 -0.0680
 3448SOL     OW21802   1.432   1.862   7.358 -0.0830  0.7213 -0.2119
 3448SOL    HW121803   1.368   1.808   7.406 -0.7906  0.2447 -1.7020
 3448SOL    HW221804   1.509   1.829   7.404 -1.0685 -1.2169  0.0387
 3449SOL     OW21805   4.120   1.875   8.029  0.1553 -0.5282 -0.1276
 3449SOL    HW121806   4.034   1.832   8.032 -0.1135 -0.0910 -1.5739
 3449SOL    HW221807   4.183   1.808   8.055  1.1143 -0.1455 -1.4595
 3450SOL     OW21808   0.262   4.089   9.395  0.2850  0.4664  0.0723
 3450SOL    HW121809   0.209   4.146   9.341 -0.2539  0.9245  1.0908
 3450SOL    HW221810   0.344   4.139   9.404 -0.5068  1.7523  0.0539
 3451SOL     OW21811   3.406   0.154   1.743 -0.7015 -0.4080  0.3740
 3451SOL    HW121812   3.465   0.212   1.791  1.6597 -1.2558 -1.5045
 3451SOL    HW221813   3.461   0.077   1.756 -1.2098 -0.9042 -0.3723
 3452SOL     OW21814   2.347   0.236   5.584 -0.3199 -0.5756 -0.2056
 3452SOL    HW121815   2.403   0.303   5.545 -0.7849 -0.3797 -0.5366
 3452SOL    HW221816   2.351   0.175   5.510 -0.4385 -0.4766 -0.2922
 3453SOL     OW21817   0.126   3.722   7.102 -0.6675 -0.0666 -0.0883
 3453SOL    HW121818   0.217   3.731   7.075 -0.6067  3.3348  1.2509
 3453SOL    HW221819   0.096   3.688   7.018  0.0804  0.1990 -0.4669
 3454SOL     OW21820   3.257   0.915   3.130  0.1494 -0.2295 -0.0580
 3454SOL    HW121821   3.285   0.907   3.221  1.1516 -5.1078 -0.8241
 3454SOL    HW221822   3.162   0.916   3.145  0.1748 -2.5793  0.1488
 3455SOL     OW21823   2.741   0.249  15.770  0.4563 -0.0309  0.2180
 3455SOL    HW121824   2.683   0.198  15.713 -0.3819  0.8308  0.2944
 3455SOL    HW221825   2.777   0.186  15.832 -0.3255 -0.7205 -0.0177
 3456SOL     OW21826   4.433   1.177   2.078  0.2329  0.3736 -1.1744
 3456SOL    HW121827   4.487   1.136   2.145 -0.8897  0.6964 -0.0909
 3456SOL    HW221828   4.359   1.118   2.093  0.3453  0.1593 -1.4493
 3457SOL     OW21829   1.729   3.114   0.971 -0.1564  0.1065  0.1890
 3457SOL    HW121830   1.635   3.096   0.965 -0.7193  2.7834  0.8093
 3457SOL    HW221831   1.753   3.074   0.888 -1.8434 -1.2926  0.3888
 3458SOL     OW21832   3.408   0.931   6.476 -0.0541  0.2512 -0.5121
 3458SOL    HW121833   3.503   0.934   6.463 -0.1650 -0.2087 -1.3875
 3458SOL    HW221834   3.381   1.020   6.499 -1.5804  0.2783 -2.3986
 3459SOL     OW21835   3.355   0.470   7.915 -1.1287 -0.0560  0.4959
 3459SOL    HW121836   3.336   0.462   8.009  2.3387 -1.0013  1.1318
 3459SOL    HW221837   3.401   0.553   7.924  1.4934 -1.5584  1.1950
 3460SOL     OW21838   4.613   0.397   1.495 -0.1035  0.1217  0.2588
 3460SOL    HW121839   4.701   0.390   1.533 -0.7513 -0.1804  1.7281
 3460SOL    HW221840   4.564   0.333   1.547  0.2561 -2.0522 -2.1100
 3461SOL     OW21841   3.804   1.388   5.984  0.0580 -0.0012 -0.4575
 3461SOL    HW121842   3.735   1.454   5.973 -0.8997 -0.9394 -0.0456
 3461SOL    HW221843   3.874   1.431   5.934 -1.1214 -0.5619 -2.6007
 3462SOL     OW21844   0.161   0.677   7.772 -0.3645 -0.0814  0.3857
 3462SOL    HW121845   0.217   0.645   7.842  1.5306 -1.4907 -1.7632
 3462SOL    HW221846   0.149   0.593   7.728  0.6127  0.0112 -0.0550
 3463SOL     OW21847   0.503   0.800   2.917  0.0571 -0.6864 -0.0250
 3463SOL    HW121848   0.437   0.808   2.847 -1.0755  3.0202  1.4851
 3463SOL    HW221849   0.470   0.857   2.986  0.5883  1.4645 -1.5761
 3464SOL     OW21850   2.503   4.025  13.887  0.3447 -0.1120 -0.1353
 3464SOL    HW121851   2.543   4.075  13.816 -0.1864  1.0257  0.3736
 3464SOL    HW221852   2.426   4.078  13.907  0.1146 -0.5127  0.0407
 3465SOL     OW21853   4.702   0.762   6.740 -0.0829 -0.4430 -0.5458
 3465SOL    HW121854   4.684   0.691   6.801  0.4252  1.2600  1.5522
 3465SOL    HW221855   4.614   0.777   6.706 -0.2911 -2.3193 -0.8241
 3466SOL     OW21856   2.402   0.916  11.460 -0.1853  0.3605 -0.1318
 3466SOL    HW121857   2.442   0.834  11.490  1.0616  1.1564  0.4106
 3466SOL    HW221858   2.417   0.968  11.539 -0.7515  2.1272 -1.1807
 3467SOL     OW21859   1.294   1.297   9.218 -0.6787  0.4106 -0.1122
 3467SOL    HW121860   1.277   1.347   9.139  0.1304  1.3083  0.2774
 3467SOL    HW221861   1.308   1.209   9.181 -0.8792  0.9793 -1.5197
 3468SOL     OW21862   4.445   0.887   6.012 -0.6237 -0.6392  0.5815
 3468SOL    HW121863   4.426   0.813   5.955  1.0183 -0.4861 -0.1823
 3468SOL    HW221864   4.371   0.946   5.999 -1.1768 -1.0177  2.0097
 3469SOL     OW21865   4.512   0.679   4.485  0.5803 -0.2872 -0.0013
 3469SOL    HW121866   4.464   0.761   4.495 -0.8053 -0.9161 -1.4367
 3469SOL    HW221867   4.449   0.632   4.430 -0.9637  1.1325  0.5472
 3470SOL     OW21868   1.751   1.621   0.287  0.6214 -0.1560  0.0626
 3470SOL    HW121869   1.738   1.708   0.325 -1.8394 -0.2571 -0.5692
 3470SOL    HW221870   1.846   1.617   0.290  0.5818  0.0441  1.8064
 3471SOL     OW21871   1.051   4.273   5.617  0.3207 -0.5138  0.2115
 3471SOL    HW121872   1.025   4.361   5.645  1.2154 -0.7272  1.7201
 3471SOL    HW221873   1.081   4.238   5.701  0.8184  0.7676  0.5708
 3472SOL     OW21874   3.974   3.109  13.992  0.5892  0.2622 -0.1518
 3472SOL    HW121875   4.009   3.087  13.905 -2.7595 -0.8502 -1.2123
 3472SOL    HW221876   3.892   3.062  14.001  1.2180 -0.5989  1.0850
 3473SOL     OW21877   1.139   4.634   7.941  0.0665  0.0059  0.1306
 3473SOL    HW121878   1.045   4.618   7.927  0.0482  0.9532 -0.8256
 3473SOL    HW221879   1.137   4.667   8.031 -1.5588  2.7484 -0.9056
 3474SOL     OW21880   3.804   0.959   8.145 -0.0047 -0.0094  0.0631
 3474SOL    HW121881   3.742   0.913   8.201  0.8927 -0.4745  0.6731
 3474SOL    HW221882   3.888   0.921   8.172 -0.0137 -0.3020 -0.3240
 3475SOL     OW21883   0.136   1.509  12.174 -0.2425  0.5987  0.0440
 3475SOL    HW121884   0.213   1.455  12.155 -1.0895 -0.0629 -1.4901
 3475SOL    HW221885   0.188   1.572  12.224  0.8048  1.3388 -1.9817
 3476SOL     OW21886   4.462   4.171   1.872  0.3098 -0.4997 -0.0051
 3476SOL    HW121887   4.442   4.097   1.815  0.7442  0.6779 -1.6803
 3476SOL    HW221888   4.537   4.206   1.825  1.5131  0.8488  2.9110
 3477SOL     OW21889   1.721   2.297   5.050 -0.0239  0.1817 -0.1461
 3477SOL    HW121890   1.717   2.393   5.055  0.1158  0.1591  0.4363
 3477SOL    HW221891   1.774   2.281   4.972  0.6518 -2.3054  0.8306
 3478SOL     OW21892   3.657   2.987   5.798 -0.0414  0.1286 -0.2376
 3478SOL    HW121893   3.594   3.034   5.852 -0.3999  0.9646 -1.3782
 3478SOL    HW221894   3.713   2.937   5.858  0.6163 -0.7719 -1.5915
 3479SOL     OW21895   1.977   3.113   8.671  0.1845  0.2546 -0.2884
 3479SOL    HW121896   2.008   3.195   8.709  2.0768 -0.2874 -0.6635
 3479SOL    HW221897   2.035   3.044   8.705 -0.1266  0.4737  0.6973
 3480SOL     OW21898   3.012   1.155   5.133 -0.2291  0.1241  0.2264
 3480SOL    HW121899   2.942   1.157   5.068 -0.1992 -2.5784  0.1317
 3480SOL    HW221900   3.073   1.096   5.088  1.4036  0.8320  1.5010
 3481SOL     OW21901   3.025   2.977   5.408 -0.0296 -0.0914 -0.0435
 3481SOL    HW121902   3.047   2.885   5.391  0.3310  0.0976 -0.5878
 3481SOL    HW221903   3.053   2.987   5.499 -0.8134 -4.3321  0.6858
 3482SOL     OW21904   4.553   3.172   7.296 -0.3689  0.3271  0.0503
 3482SOL    HW121905   4.577   3.087   7.259  1.6968  1.1314 -0.4971
 3482SOL    HW221906   4.604   3.232   7.241  2.7153 -1.2752  1.1316
 3483SOL     OW21907   3.396   1.562   6.139  0.0719 -0.1689  0.3614
 3483SOL    HW121908   3.467   1.609   6.095  0.3443 -1.7782 -0.9131
 3483SOL    HW221909   3.334   1.586   6.069  0.0114 -0.6953  0.2381
 3484SOL     OW21910   2.839   2.939   3.592 -0.2909  0.0584 -0.3911
 3484SOL    HW121911   2.795   2.880   3.653 -0.3346  0.2642 -0.2228
 3484SOL    HW221912   2.890   2.875   3.543  0.7181  1.1561 -0.7866
 3485SOL     OW21913   0.503   2.529   7.767 -0.2758 -0.3291  0.1301
 3485SOL    HW121914   0.440   2.497   7.703  1.7847  1.8139 -2.9906
 3485SOL    HW221915   0.586   2.483   7.751  0.3410  1.2969 -1.4627
 3486SOL     OW21916   1.227   4.567   2.935 -0.0503 -0.4676  0.0543
 3486SOL    HW121917   1.304   4.538   2.983  0.1934  0.0382 -0.0234
 3486SOL    HW221918   1.244   4.518   2.854 -0.2145 -1.1259  0.4232
 3487SOL     OW21919   4.396   0.344  10.571 -0.1492  0.5211  0.1362
 3487SOL    HW121920   4.489   0.346  10.592  0.1638 -0.1561 -1.1978
 3487SOL    HW221921   4.365   0.395  10.646 -1.4616  0.5276 -0.4050
 3488SOL     OW21922   0.903   1.968  13.197  0.0496  0.3757 -0.4038
 3488SOL    HW121923   0.875   1.900  13.258 -1.5518  1.6756  0.3331
 3488SOL    HW221924   0.846   1.953  13.122 -0.5013 -1.5413  0.3994
 3489SOL     OW21925   4.533   0.570   2.211 -0.0872 -0.6278 -0.2613
 3489SOL    HW121926   4.627   0.579   2.231 -1.0633  0.6379  3.8729
 3489SOL    HW221927   4.497   0.539   2.295 -0.9600 -0.2024 -0.4930
 3490SOL     OW21928   1.037   2.337   9.690 -0.1340 -0.4834  0.3411
 3490SOL    HW121929   1.057   2.418   9.737 -0.4328 -1.0977  1.5211
 3490SOL    HW221930   1.120   2.327   9.644  1.5870 -0.2867  3.4391
 3491SOL     OW21931   2.165   4.615   8.256  0.0177 -0.2480 -0.0979
 3491SOL    HW121932   2.120   4.581   8.179  0.8859  1.1689 -1.2240
 3491SOL    HW221933   2.156   4.710   8.246  1.1253 -0.0779  0.5682
 3492SOL     OW21934   2.077   3.814   2.999 -0.0087  0.6763 -0.9248
 3492SOL    HW121935   2.111   3.749   2.938  1.3541 -0.1874  0.7464
 3492SOL    HW221936   2.108   3.779   3.083  1.0293  0.8833 -1.2170
 3493SOL     OW21937   2.659   3.158   5.884 -0.2177 -0.5056 -0.3098
 3493SOL    HW121938   2.688   3.069   5.866 -1.5587 -1.0361  0.1183
 3493SOL    HW221939   2.730   3.222   5.888 -0.6749 -0.0571  0.6240
 3494SOL     OW21940   2.532   1.876   3.448  0.5908 -0.1986 -0.5204
 3494SOL    HW121941   2.542   1.782   3.467  0.5048  0.1147  1.0441
 3494SOL    HW221942   2.531   1.878   3.352 -3.7719  3.1286 -0.3611
 3495SOL     OW21943   1.123   2.194   9.310  0.1975 -0.5848  0.4525
 3495SOL    HW121944   1.163   2.161   9.230  0.5174 -0.2754  0.4788
 3495SOL    HW221945   1.188   2.161   9.373  0.1298  0.3556  1.0241
 3496SOL     OW21946   3.120   2.307  10.901 -0.2563  0.7073 -0.2462
 3496SOL    HW121947   3.042   2.253  10.917 -0.3437  1.1020  0.6459
 3496SOL    HW221948   3.155   2.249  10.834 -1.4823  0.1781 -0.4245
 3497SOL     OW21949   3.488   4.702  14.398  0.1751  0.4346 -0.9774
 3497SOL    HW121950   3.578   4.701  14.363  1.0086  2.0523  1.1171
 3497SOL    HW221951   3.472   0.073  14.398 -0.0878  0.3880  1.5568
 3498SOL     OW21952   3.608   0.021   2.053  0.0700  0.0290 -0.7188
 3498SOL    HW121953   3.679   4.680   2.051 -0.2068 -0.1464 -3.8181
 3498SOL    HW221954   3.574   0.026   1.964 -4.4138  3.4884  1.1610
 3499SOL     OW21955   0.180   1.067  12.921  0.4111  0.8773 -0.6362
 3499SOL    HW121956   0.221   1.086  12.836  3.2522  0.9828  0.7592
 3499SOL    HW221957   0.103   1.124  12.918 -0.1555  0.1193 -0.7496
 3500SOL     OW21958   1.775   0.549   3.767 -0.0195 -0.2543  0.5145
 3500SOL    HW121959   1.763   0.608   3.692 -0.1680 -3.5920 -2.0704
 3500SOL    HW221960   1.729   0.602   3.833  1.0226  1.5869 -0.2302
 3501SOL     OW21961   3.475   3.782   5.219 -0.5721  0.4717 -0.2375
 3501SOL    HW121962   3.486   3.793   5.314  1.5300  0.6704 -0.4996
 3501SOL    HW221963   3.437   3.694   5.216  1.4435 -0.3694 -1.4078
 3502SOL     OW21964   4.096   0.209   9.401  0.3994 -0.1276  0.0045
 3502SOL    HW121965   4.152   0.286   9.391  0.2746 -0.1221 -0.6995
 3502SOL    HW221966   4.028   0.220   9.334  0.1775  0.2538  0.2946
 3503SOL     OW21967   0.297   0.179  14.791  0.1029 -0.0937 -0.4505
 3503SOL    HW121968   0.242   0.232  14.733 -0.6750  0.4775  0.8310
 3503SOL    HW221969   0.359   0.242  14.830  1.0487 -0.2666 -1.6453
 3504SOL     OW21970   2.826   3.430   4.341 -0.7527 -0.5400  0.4641
 3504SOL    HW121971   2.812   3.415   4.434 -0.8318  2.6573  0.9719
 3504SOL    HW221972   2.778   3.513   4.338  2.7662  1.4039 -2.3012
 3505SOL     OW21973   4.368   1.342   6.556 -0.0159  0.5227 -0.3666
 3505SOL    HW121974   4.359   1.354   6.650 -5.9535 -0.2808 -0.8145
 3505SOL    HW221975   4.437   1.399   6.522  1.5338 -1.2131 -0.1250
 3506SOL     OW21976   2.703   1.505   0.191 -0.4383 -0.4255 -0.0515
 3506SOL    HW121977   2.751   1.423   0.181 -0.5971 -0.7248  1.6522
 3506SOL    HW221978   2.634   1.487   0.126  0.5220 -0.2732 -1.1071
 3507SOL     OW21979   2.369   2.918   9.475  0.0492  0.0508  1.0677
 3507SOL    HW121980   2.358   2.825   9.454  2.0682  0.4595 -1.8684
 3507SOL    HW221981   2.404   2.918   9.564  1.9951  0.0904  0.3150
 3508SOL     OW21982   3.868   3.777   5.820 -0.3829 -0.0291 -0.6467
 3508SOL    HW121983   3.930   3.838   5.779  0.2980 -0.8847 -0.8945
 3508SOL    HW221984   3.875   3.819   5.906 -1.4893  0.6403 -0.8856
 3509SOL     OW21985   1.845   1.012   0.731 -0.4938  0.5766 -0.2051
 3509SOL    HW121986   1.915   0.969   0.682  0.1481 -0.5662  1.7265
 3509SOL    HW221987   1.894   1.091   0.756  1.3792 -1.0453  1.2093
 3510SOL     OW21988   0.511   0.255   5.082  0.6835 -0.0654 -0.2708
 3510SOL    HW121989   0.482   0.184   5.025 -1.9068 -1.0858  2.3151
 3510SOL    HW221990   0.602   0.240   5.109 -0.0590 -1.6357  1.3390
 3511SOL     OW21991   3.668   3.736  12.712 -0.1207 -0.3368  0.0787
 3511SOL    HW121992   3.706   3.703  12.631 -0.0245 -0.2814  0.1004
 3511SOL    HW221993   3.646   3.654  12.755 -1.4651 -0.6403 -1.2136
 3512SOL     OW21994   3.292   2.202   4.776  0.2760 -1.0410  0.2975
 3512SOL    HW121995   3.234   2.128   4.792 -0.5992 -1.0183 -2.7845
 3512SOL    HW221996   3.376   2.169   4.809  0.9957  2.6755  2.1218
 3513SOL     OW21997   0.684   1.338   8.667 -0.5644 -0.7077 -0.3557
 3513SOL    HW121998   0.762   1.289   8.692  1.9701  2.8748 -1.2616
 3513SOL    HW221999   0.708   1.377   8.583 -0.7510  0.0172 -0.0757
 3514SOL     OW22000   1.588   4.481  14.189  0.1476  0.3577  0.7226
 3514SOL    HW122001   1.660   4.535  14.156 -0.6205 -0.7059 -2.6590
 3514SOL    HW222002   1.621   4.398  14.154 -1.0824  0.5018 -0.7409
 3515SOL     OW22003   0.759   4.097  14.210  0.2073 -0.0797  0.0582
 3515SOL    HW122004   0.667   4.103  14.185  0.2800 -1.3027 -0.4891
 3515SOL    HW222005   0.768   4.004  14.226  0.9039 -0.0386 -0.1063
 3516SOL     OW22006   3.089   2.160   2.070  0.0051  0.2177 -0.3897
 3516SOL    HW122007   3.085   2.228   2.138  0.0048 -0.5976  0.4269
 3516SOL    HW222008   3.048   2.210   2.000 -0.5313  1.1173  0.5654
 3517SOL     OW22009   0.374   1.749   1.686 -0.2373  0.4338 -0.3033
 3517SOL    HW122010   0.302   1.808   1.666 -1.1610  0.1606  2.1260
 3517SOL    HW222011   0.335   1.666   1.658 -1.3309  0.5169  0.9726
 3518SOL     OW22012   3.174   1.770  13.608 -0.6928 -0.4271 -0.4297
 3518SOL    HW122013   3.114   1.704  13.573  1.4611 -2.8251  0.3985
 3518SOL    HW222014   3.251   1.715  13.620 -0.0778  0.8042  1.2410
 3519SOL     OW22015   3.931   1.558   0.248 -0.4991  0.7485  0.6164
 3519SOL    HW122016   3.947   1.510   0.166 -0.5429 -0.7005  1.4542
 3519SOL    HW222017   3.925   1.648   0.216 -0.6102  1.1455  1.7646
 3520SOL     OW22018   3.894   1.289  10.624  0.0786 -0.1806  0.3325
 3520SOL    HW122019   3.828   1.235  10.668  1.5269 -2.0070  0.2581
 3520SOL    HW222020   3.850   1.365  10.586  2.4588  1.3152  0.6335
 3521SOL     OW22021   0.881   3.606   7.858 -0.3016 -0.1346 -0.0920
 3521SOL    HW122022   0.966   3.585   7.897  0.6520  3.3281 -0.3008
 3521SOL    HW222023   0.899   3.582   7.768  0.0619  1.2037 -0.3848
 3522SOL     OW22024   1.096   0.163   6.763  0.0473  0.2741 -0.6467
 3522SOL    HW122025   1.110   0.120   6.679 -0.7674  0.9437 -1.1206
 3522SOL    HW222026   1.171   0.139   6.819 -0.1218 -1.2401 -1.0656
 3523SOL     OW22027   0.577   0.632   4.946  0.5067 -0.0430 -0.4238
 3523SOL    HW122028   0.652   0.580   4.972 -0.4512 -1.2772 -0.1426
 3523SOL    HW222029   0.624   0.693   4.889 -1.3141  1.8053  0.0431
 3524SOL     OW22030   2.200   1.562  10.194  0.6171  0.6025 -0.2141
 3524SOL    HW122031   2.250   1.629  10.240 -0.1001  0.2966  1.0334
 3524SOL    HW222032   2.174   1.510  10.270  2.0666 -1.4439 -1.1263
 3525SOL     OW22033   1.371   0.197   4.824 -0.6893  0.3676  0.1141
 3525SOL    HW122034   1.282   0.163   4.829  1.2622 -4.8327 -0.0163
 3525SOL    HW222035   1.399   0.124   4.768  0.1572  0.8895 -0.1414
 3526SOL     OW22036   3.878   2.799   3.870  0.7672 -0.1806 -0.1228
 3526SOL    HW122037   3.950   2.850   3.910 -0.8611  1.4854  0.6847
 3526SOL    HW222038   3.927   2.727   3.830  2.4918  0.9567 -0.0926
 3527SOL     OW22039   2.323   2.605  16.374 -0.2279  0.1713 -0.2064
 3527SOL    HW122040   2.381   2.678  16.352  1.4244 -1.0626  0.0144
 3527SOL    HW222041   2.344   2.607  16.467 -1.7825  0.7335  0.1389
 3528SOL     OW22042   0.810   4.003   7.814  0.1827 -0.4099 -0.1960
 3528SOL    HW122043   0.717   3.978   7.821  0.8423 -3.5286 -2.4621
 3528SOL    HW222044   0.840   3.981   7.726  0.4585 -2.2434  0.3468
 3529SOL     OW22045   1.803   0.134   4.421 -0.2416 -0.5308  0.3717
 3529SOL    HW122046   1.804   0.192   4.345  0.3096 -1.1417 -0.0890
 3529SOL    HW222047   1.870   0.159   4.485 -0.8295 -0.1266  0.8250
 3530SOL     OW22048   4.414   4.589   4.794  0.1474 -0.3567 -0.4096
 3530SOL    HW122049   4.346   4.632   4.847  0.3198  0.2466 -0.6780
 3530SOL    HW222050   4.445   4.667   4.748 -0.4936 -1.5813 -2.9328
 3531SOL     OW22051   2.698   3.245   7.525  0.0925  0.7933  0.6166
 3531SOL    HW122052   2.768   3.308   7.511 -1.9793  3.0635  0.5984
 3531SOL    HW222053   2.680   3.268   7.616  0.3060 -0.4164  0.9694
 3532SOL     OW22054   2.544   2.127   6.620  0.1948 -0.3279 -0.4123
 3532SOL    HW122055   2.609   2.187   6.584 -0.3368  0.5594  0.1159
 3532SOL    HW222056   2.588   2.071   6.685  1.6285 -0.9094 -1.8908
 3533SOL     OW22057   3.890   0.551  13.964  0.4588  0.6224  0.0523
 3533SOL    HW122058   3.834   0.523  13.893 -0.3654  1.7900  0.2418
 3533SOL    HW222059   3.852   0.637  13.981  1.9920  1.6716 -1.9379
 3534SOL     OW22060   3.823   1.682   6.570  1.2239  0.5891  0.2838
 3534SOL    HW122061   3.860   1.768   6.590  0.6550  0.6211  1.1670
 3534SOL    HW222062   3.863   1.669   6.483  1.1719  1.0600  0.1899
 3535SOL     OW22063   1.969   1.402  11.727 -0.1250  0.2305  0.0048
 3535SOL    HW122064   1.914   1.480  11.717  1.2701  1.0753 -1.1172
 3535SOL    HW222065   2.045   1.419  11.673 -0.4047  2.1167  0.1892
 3536SOL     OW22066   4.395   4.108   1.510 -0.1407  0.0682  0.6377
 3536SOL    HW122067   4.411   4.043   1.442  0.7426  0.0265  0.8817
 3536SOL    HW222068   4.366   4.046   1.578 -2.0333 -0.7095 -0.8746
 3537SOL     OW22069   2.199   0.006   2.184 -0.4142  1.0195 -0.4783
 3537SOL    HW122070   2.290   0.002   2.154 -0.6586  0.4530 -1.1522
 3537SOL    HW222071   2.166   4.641   2.165  2.9472 -0.1438 -0.8949
 3538SOL     OW22072   2.613   4.232   9.339 -0.0803  0.4816 -0.7702
 3538SOL    HW122073   2.697   4.216   9.381  0.7553  0.8551 -2.2779
 3538SOL    HW222074   2.576   4.153   9.377  1.5773 -0.3904 -0.9910
 3539SOL     OW22075   3.288   4.693   4.088  0.1269  0.2862 -0.2009
 3539SOL    HW122076   3.316   4.665   4.000 -2.0430  1.3520 -1.2145
 3539SOL    HW222077   3.359   0.033   4.097  0.3867  0.0002 -0.2550
 3540SOL     OW22078   2.681   2.039  17.082  0.1605  0.5133  0.1845
 3540SOL    HW122079   2.646   2.112  17.031  0.9484  0.9437  0.2598
 3540SOL    HW222080   2.726   1.986  17.016 -0.1786  0.9507 -0.4076
 3541SOL     OW22081   4.245   3.466   0.075 -0.0673  0.0310 -0.3400
 3541SOL    HW122082   4.334   3.455   0.041  0.1966  0.8787  0.0656
 3541SOL    HW222083   4.219   3.374   0.073 -0.6848  0.2256 -1.2919
 3542SOL     OW22084   3.452   3.433   3.350  0.5295 -0.0547 -0.1664
 3542SOL    HW122085   3.409   3.362   3.303 -0.5603  0.9775 -0.7422
 3542SOL    HW222086   3.499   3.380   3.414  0.4343  2.2224  1.8063
 3543SOL     OW22087   3.250   0.414   2.490 -0.1770 -0.2277  0.3250
 3543SOL    HW122088   3.208   0.394   2.406  1.0535  0.2144 -0.3950
 3543SOL    HW222089   3.334   0.373   2.472  0.3193  0.8525  0.1684
 3544SOL     OW22090   0.334   4.115   3.022  0.2179  0.4150 -0.0892
 3544SOL    HW122091   0.291   4.196   3.048  0.7468  0.6707 -0.0145
 3544SOL    HW222092   0.259   4.067   2.986  0.3145  1.1757 -1.3339
 3545SOL     OW22093   1.240   3.854   9.376  0.3776 -0.0303  0.3821
 3545SOL    HW122094   1.163   3.835   9.430 -0.6100 -1.3338 -1.4880
 3545SOL    HW222095   1.298   3.800   9.430  0.7981 -0.0613 -0.0994
 3546SOL     OW22096   3.986   0.982   7.903  0.0399 -0.3819 -0.3358
 3546SOL    HW122097   3.900   0.983   7.863  0.1306  0.4512 -0.5001
 3546SOL    HW222098   3.971   0.964   7.996 -4.2507 -0.5866 -1.1118
 3547SOL     OW22099   1.384   3.592   6.946  0.2107 -0.3964 -0.0432
 3547SOL    HW122100   1.321   3.639   6.892 -1.8530 -1.8211  1.1042
 3547SOL    HW222101   1.332   3.537   7.005 -1.1767  2.4131  1.3411
 3548SOL     OW22102   1.006   4.149   9.989  0.4459  0.2532  0.5944
 3548SOL    HW122103   1.061   4.073  10.008  1.6717  0.7383 -1.1428
 3548SOL    HW222104   0.917   4.113   9.994  0.8473 -0.5508  2.0498
 3549SOL     OW22105   3.895   3.393   7.069  0.1894 -0.2972 -0.5599
 3549SOL    HW122106   3.956   3.431   7.132 -1.8669 -0.7512  1.7431
 3549SOL    HW222107   3.930   3.305   7.055 -0.0692 -0.5069  0.0941
 3550SOL     OW22108   0.676   2.649   5.567 -0.4506  0.0339  0.2024
 3550SOL    HW122109   0.647   2.625   5.655 -1.7291 -3.8570 -1.2774
 3550SOL    HW222110   0.617   2.601   5.509  1.4955 -1.1019 -0.8676
 3551SOL     OW22111   3.950   1.600   8.768 -0.0057 -0.2018  0.2376
 3551SOL    HW122112   3.961   1.617   8.861 -2.6599  1.9124  0.1602
 3551SOL    HW222113   3.861   1.566   8.764 -0.1683  0.2267  0.2050
 3552SOL     OW22114   1.341   3.959  14.828 -0.4623 -0.2691  0.7091
 3552SOL    HW122115   1.307   3.869  14.831  0.2480 -0.4643  3.1043
 3552SOL    HW222116   1.257   4.003  14.830 -0.7070 -0.6484 -1.2804
 3553SOL     OW22117   3.375   1.219   2.743 -0.1628  0.3263 -0.4547
 3553SOL    HW122118   3.363   1.194   2.651  1.6431 -2.8239  0.1767
 3553SOL    HW222119   3.422   1.141   2.772  1.1718  0.3611 -2.5391
 3554SOL     OW22120   4.149   4.637   2.143 -0.0295  0.4374 -0.3746
 3554SOL    HW122121   4.071   4.669   2.189  0.1808  0.8966 -0.3408
 3554SOL    HW222122   4.124   4.551   2.110  2.3400 -0.8580  1.1586
 3555SOL     OW22123   0.924   1.030   5.626  0.0953 -0.3931 -0.1133
 3555SOL    HW122124   1.011   1.050   5.591  1.6713 -3.3511  2.1337
 3555SOL    HW222125   0.943   0.992   5.712 -1.0740 -2.1638 -0.6406
 3556SOL     OW22126   3.228   0.401   7.566  0.5894  0.2565 -0.1597
 3556SOL    HW122127   3.159   0.411   7.630  0.0371 -1.9265 -0.3983
 3556SOL    HW222128   3.209   0.471   7.504  0.4520  1.6552  1.4574
 3557SOL     OW22129   1.525   1.129   4.395  0.2796  0.0823  0.7953
 3557SOL    HW122130   1.596   1.080   4.353  0.6952  0.2495  1.3013
 3557SOL    HW222131   1.535   1.101   4.486 -0.5082 -2.5967  0.0607
 3558SOL     OW22132   0.475   2.414   7.258 -0.5634  0.9647  0.8110
 3558SOL    HW122133   0.552   2.470   7.268  0.8753 -1.0425  0.8075
 3558SOL    HW222134   0.402   2.475   7.267 -0.4376  1.2392  0.0175
 3559SOL     OW22135   3.973   4.547   4.395  0.2020  0.2364  0.1671
 3559SOL    HW122136   3.952   4.467   4.444 -0.9960  0.7519  0.5058
 3559SOL    HW222137   4.067   4.542   4.410  0.3623 -0.4334 -1.0435
 3560SOL     OW22138   1.862   2.971   3.736 -0.1648  0.1202  0.6406
 3560SOL    HW122139   1.882   3.056   3.696  2.2536 -0.6535  0.1947
 3560SOL    HW222140   1.927   2.950   3.803  0.2086  0.6158  0.4328
 3561SOL     OW22141   1.696   1.089  13.772 -0.2027  0.0449  0.2410
 3561SOL    HW122142   1.643   1.009  13.769  0.1465 -0.1768 -0.0110
 3561SOL    HW222143   1.751   1.077  13.694  0.1342  1.7508  0.2281
 3562SOL     OW22144   2.749   3.163   7.171  0.3665  0.6021 -0.4976
 3562SOL    HW122145   2.670   3.211   7.146 -0.5203 -0.3419  0.4929
 3562SOL    HW222146   2.731   3.120   7.255 -0.9246 -0.9578 -1.5631
 3563SOL     OW22147   0.488   1.655  17.591 -0.3962 -0.1024 -0.3650
 3563SOL    HW122148   0.399   1.679  17.565  0.2059  0.9112 -1.4952
 3563SOL    HW222149   0.463   1.621  17.677 -1.0755  1.2713 -0.0289
 3564SOL     OW22150   1.740   3.602   7.669 -0.1089  0.0836 -0.2204
 3564SOL    HW122151   1.673   3.583   7.604  0.6729 -0.1060 -0.9628
 3564SOL    HW222152   1.712   3.562   7.751 -0.0745 -2.0651 -1.2667
 3565SOL     OW22153   1.809   2.683   2.715 -0.5625  0.2634  0.2375
 3565SOL    HW122154   1.778   2.595   2.692  1.1798 -0.2555 -0.1285
 3565SOL    HW222155   1.896   2.666   2.750 -0.9775 -2.0822  0.1081
 3566SOL     OW22156   4.265   4.358   1.911 -0.0999 -0.1423 -0.3377
 3566SOL    HW122157   4.249   4.345   1.817  0.0848  1.8279 -0.6435
 3566SOL    HW222158   4.340   4.299   1.919  0.9593  1.0195 -1.7952
 3567SOL     OW22159   2.378   0.306  12.096 -0.3001 -0.1106 -0.3494
 3567SOL    HW122160   2.315   0.372  12.124  2.4230  2.6728 -0.8215
 3567SOL    HW222161   2.457   0.336  12.141 -0.6209 -1.1013  0.8763
 3568SOL     OW22162   0.586   3.675   7.867  0.5126  0.7338  0.2492
 3568SOL    HW122163   0.556   3.628   7.945  0.1965 -0.8695 -0.8464
 3568SOL    HW222164   0.680   3.660   7.882 -0.0021 -2.2320  0.6005
 3569SOL     OW22165   2.412   3.214   3.661  0.3608 -0.1858 -0.2887
 3569SOL    HW122166   2.506   3.208   3.640  0.4717  0.0531  0.1413
 3569SOL    HW222167   2.396   3.134   3.712  3.0116 -0.8721 -0.5013
 3570SOL     OW22168   0.963   1.063   2.932  0.2540  0.3124 -0.4653
 3570SOL    HW122169   0.900   0.997   2.904  1.1058 -1.0396  0.7917
 3570SOL    HW222170   0.914   1.141   2.908  1.7653  1.9050  1.6284
 3571SOL     OW22171   1.960   3.361   7.167  0.0143 -0.4861 -0.4737
 3571SOL    HW122172   1.871   3.330   7.184  0.2154 -1.0561 -0.4609
 3571SOL    HW222173   1.939   3.429   7.103  0.5311  1.2746  1.2538
 3572SOL     OW22174   4.636   3.986   4.091  0.1365 -0.1633  0.0007
 3572SOL    HW122175   4.558   3.944   4.054  0.0921 -0.1998  0.1362
 3572SOL    HW222176   4.715   3.934   4.077 -0.7749 -0.7147 -3.2224
 3573SOL     OW22177   2.773   3.222  14.965 -0.6663 -0.2821  0.1949
 3573SOL    HW122178   2.835   3.192  14.898  0.5512  1.4130  0.5651
 3573SOL    HW222179   2.718   3.278  14.910  0.5652  2.4250  1.7118
 3574SOL     OW22180   0.733   3.488   6.640  0.6678  0.8833  0.0271
 3574SOL    HW122181   0.723   3.582   6.654 -2.1610  0.2309  2.4444
 3574SOL    HW222182   0.828   3.478   6.639  0.7207  1.3048  0.6763
 3575SOL     OW22183   0.654   4.035   4.796 -0.3953 -0.1864  0.2756
 3575SOL    HW122184   0.583   3.981   4.763  1.7150 -1.0610 -2.8481
 3575SOL    HW222185   0.598   4.104   4.833 -2.0041 -1.2346 -0.2283
 3576SOL     OW22186   0.076   2.947   0.011  0.0410 -0.2382  0.5220
 3576SOL    HW122187   0.054   3.033   0.046  0.4365  0.0479  0.0660
 3576SOL    HW222188   0.092   2.899   0.092 -0.7772  0.9884  1.4138
 3577SOL     OW22189   3.854   1.558   2.404 -0.1752 -0.1557  0.0207
 3577SOL    HW122190   3.872   1.651   2.396  0.4789 -0.1871  1.1103
 3577SOL    HW222191   3.838   1.537   2.312 -0.2917  0.0237  0.0007
 3578SOL     OW22192   3.365   2.886   5.298 -0.0763  0.3027 -0.3156
 3578SOL    HW122193   3.291   2.895   5.359  0.6816  0.6438  0.5416
 3578SOL    HW222194   3.437   2.921   5.349 -3.3663  2.5253  2.8565
 3579SOL     OW22195   2.963   4.077  10.921 -0.4431  0.6254  0.1541
 3579SOL    HW122196   2.945   4.166  10.892  0.9206  0.4271 -1.2956
 3579SOL    HW222197   3.034   4.057  10.860 -0.0976  0.2956  0.6553
 3580SOL     OW22198   2.351   1.227  10.664 -0.3461  0.1031  0.7844
 3580SOL    HW122199   2.378   1.319  10.668  0.1165 -0.0755  1.8601
 3580SOL    HW222200   2.392   1.185  10.740 -0.8543  0.2696  1.1452
 3581SOL     OW22201   2.200   2.212   4.304 -0.3041 -0.1299 -0.0506
 3581SOL    HW122202   2.286   2.182   4.333 -1.1843  0.0284  2.7364
 3581SOL    HW222203   2.231   2.221   4.214 -0.4927  0.1197 -0.0909
 3582SOL     OW22204   0.945   2.316   3.230  0.6802  0.3048 -0.2356
 3582SOL    HW122205   0.917   2.405   3.210 -1.0317 -0.2007 -0.0578
 3582SOL    HW222206   0.868   2.268   3.200 -0.2300  1.0235  0.9474
 3583SOL     OW22207   4.564   3.541  10.574  0.5618  0.4481 -0.9628
 3583SOL    HW122208   4.545   3.536  10.480  3.9549 -0.2824 -1.6133
 3583SOL    HW222209   4.657   3.563  10.578  0.3094  1.6956 -1.7406
 3584SOL     OW22210   1.673   1.066   0.934 -0.1040  0.9289 -0.3663
 3584SOL    HW122211   1.719   1.041   0.855  0.2186  1.8583 -0.4758
 3584SOL    HW222212   1.740   1.099   0.993 -0.0192 -0.6016  0.3729
 3585SOL     OW22213   3.387   4.448   2.919  0.4104  0.4974 -0.4478
 3585SOL    HW122214   3.423   4.369   2.959 -0.8135 -0.4526 -1.2410
 3585SOL    HW222215   3.364   4.429   2.828  0.2308  0.2725 -0.3546
 3586SOL     OW22216   3.647   0.587   8.470  0.0021  0.3722 -0.4631
 3586SOL    HW122217   3.729   0.568   8.425  0.2582  0.6861 -0.1286
 3586SOL    HW222218   3.683   0.573   8.557 -2.3335 -0.5015  0.3531
 3587SOL     OW22219   1.417   1.774   4.565 -0.5266  0.2352  0.4586
 3587SOL    HW122220   1.370   1.823   4.498 -0.4860  0.5288  0.6414
 3587SOL    HW222221   1.425   1.682   4.543  1.1274  0.1127  1.5452
 3588SOL     OW22222   0.577   2.741  10.460 -0.2209 -0.5628  0.0716
 3588SOL    HW122223   0.646   2.674  10.460 -0.3570 -0.6995  0.7590
 3588SOL    HW222224   0.618   2.803  10.399 -1.4918  0.7354  0.5413
 3589SOL     OW22225   0.542   0.587   8.937  0.5590  0.5330  0.2311
 3589SOL    HW122226   0.598   0.534   8.994  0.3704  0.2522  0.1561
 3589SOL    HW222227   0.485   0.626   9.003 -1.9467  1.2040 -2.3058
 3590SOL     OW22228   2.847   1.849   6.212  0.3599  0.4502  0.1065
 3590SOL    HW122229   2.765   1.844   6.262  0.6971 -0.9930  0.5090
 3590SOL    HW222230   2.907   1.845   6.286  0.1624 -1.9026  0.1212
 3591SOL     OW22231   2.716   1.814   3.927 -0.3838  0.0249 -0.2549
 3591SOL    HW122232   2.654   1.811   3.854 -2.4080 -0.2483  1.4735
 3591SOL    HW222233   2.669   1.882   3.977  0.7272  1.2000 -0.8111
 3592SOL     OW22234   3.468   2.883   1.046 -0.1374 -0.5756  0.2371
 3592SOL    HW122235   3.533   2.953   1.048 -2.6499  1.7146  2.1135
 3592SOL    HW222236   3.528   2.809   1.043  1.4019  0.6658  0.4749
 3593SOL     OW22237   4.009   2.428   1.839  0.3114 -0.3694 -0.2950
 3593SOL    HW122238   4.094   2.435   1.795  0.7819 -1.8756  0.3603
 3593SOL    HW222239   3.941   2.462   1.782  0.0665  0.0955  0.2753
 3594SOL     OW22240   1.953   3.303  15.525 -0.2067 -0.2664  0.0042
 3594SOL    HW122241   1.920   3.215  15.506 -0.3051 -0.3159  0.4193
 3594SOL    HW222242   1.968   3.345  15.440 -3.1811 -2.0881 -1.4222
 3595SOL     OW22243   0.553   4.457   2.455 -0.3149 -0.3563  0.4563
 3595SOL    HW122244   0.599   4.453   2.539 -1.1110 -2.8613  0.7636
 3595SOL    HW222245   0.474   4.506   2.476  0.3717  0.6170  0.7760
 3596SOL     OW22246   4.025   3.288   7.419  0.2359  0.1293 -0.2901
 3596SOL    HW122247   4.084   3.220   7.387 -0.2116  0.5429 -1.9730
 3596SOL    HW222248   4.035   3.275   7.514 -0.4829  1.7828  0.0109
 3597SOL     OW22249   2.222   2.467   5.171  0.0486 -0.0553  0.0694
 3597SOL    HW122250   2.290   2.402   5.191  0.4472  0.4067  0.1919
 3597SOL    HW222251   2.160   2.404   5.134 -1.1209  0.3477  1.3390
 3598SOL     OW22252   4.304   0.633  16.268  0.1250  0.7134  0.2564
 3598SOL    HW122253   4.393   0.613  16.296 -0.2410 -4.3194 -2.1073
 3598SOL    HW222254   4.308   0.603  16.177 -2.7901 -2.1388  1.0452
 3599SOL     OW22255   1.567   3.775  10.403  0.0467  0.3336 -0.2093
 3599SOL    HW122256   1.661   3.777  10.417 -0.5080  0.2384  3.5981
 3599SOL    HW222257   1.533   3.775  10.493  0.4562  0.0762 -0.0540
 3600SOL     OW22258   2.302   1.241  15.669  0.0629  0.2114 -0.2465
 3600SOL    HW122259   2.216   1.248  15.710  0.0886 -0.4216 -0.0884
 3600SOL    HW222260   2.281   1.248  15.576  0.3020  0.6877 -0.2646
 3601SOL     OW22261   1.814   2.762   3.328 -0.6552  0.4852  0.4289
 3601SOL    HW122262   1.812   2.715   3.245  3.0419 -0.8919  1.1023
 3601SOL    HW222263   1.804   2.854   3.302 -0.3522  0.8559  1.6455
 3602SOL     OW22264   1.729   1.581  12.429  0.1647 -0.2691  0.1657
 3602SOL    HW122265   1.785   1.517  12.385 -0.3798 -0.4603 -0.2523
 3602SOL    HW222266   1.711   1.644  12.359 -0.7075 -1.9533 -1.1594
 3603SOL     OW22267   1.728   4.214   7.876  0.1413  0.3977  0.0112
 3603SOL    HW122268   1.657   4.172   7.828  1.1069 -1.6818  0.4141
 3603SOL    HW222269   1.695   4.304   7.866 -1.7952 -0.3406 -0.2789
 3604SOL     OW22270   3.407   4.198   2.206 -0.4517  0.1030 -0.3605
 3604SOL    HW122271   3.384   4.130   2.143 -0.1429 -0.0761 -0.2786
 3604SOL    HW222272   3.376   4.149   2.282  0.6323  0.0356  0.0324
 3605SOL     OW22273   0.636   1.850   3.292  0.1294 -0.0806  0.4059
 3605SOL    HW122274   0.624   1.854   3.387 -1.3252  1.0448  0.1784
 3605SOL    HW222275   0.575   1.917   3.262 -1.0495 -0.1914  2.5390
 3606SOL     OW22276   3.845   3.516  17.012 -0.4363 -0.1038 -0.1465
 3606SOL    HW122277   3.907   3.445  16.999 -2.5148 -2.2553  1.7104
 3606SOL    HW222278   3.831   3.504  17.106  0.7610 -0.5867 -0.0332
 3607SOL     OW22279   3.955   0.249   9.806 -0.2685  0.2012 -0.4512
 3607SOL    HW122280   3.871   0.210   9.782  1.1772 -1.4334 -2.9073
 3607SOL    HW222281   4.010   0.192   9.752 -0.2379 -1.0560  0.9271
 3608SOL     OW22282   3.005   1.985   3.076  0.0025  0.0572  0.3359
 3608SOL    HW122283   3.073   1.965   3.141  0.4572 -0.3306 -0.2551
 3608SOL    HW222284   3.002   2.080   3.075  2.7454  0.1084 -2.9068
 3609SOL     OW22285   2.994   0.934  15.951 -0.4586  0.0386  0.2767
 3609SOL    HW122286   2.970   0.845  15.924  0.0946  0.0571 -0.2697
 3609SOL    HW222287   2.909   0.953  15.993 -0.9447  1.9257 -1.5521
 3610SOL     OW22288   3.274   2.294   1.551 -0.7243  0.0563 -0.6543
 3610SOL    HW122289   3.204   2.311   1.489  1.2793 -1.2416 -3.2614
 3610SOL    HW222290   3.348   2.271   1.495  1.8000  2.0672  1.8446
 3611SOL     OW22291   3.038   0.887  14.986 -0.5960 -0.1255  0.1118
 3611SOL    HW122292   3.040   0.934  15.069 -0.0640  1.1417 -0.6082
 3611SOL    HW222293   3.091   0.950  14.938 -2.9274  0.3224 -1.8900
 3612SOL     OW22294   4.389   1.618   3.138 -0.5539  0.6953  0.2176
 3612SOL    HW122295   4.317   1.639   3.197  0.2187 -1.0675  1.7579
 3612SOL    HW222296   4.393   1.523   3.149 -0.6900  0.7247  0.5183
 3613SOL     OW22297   4.612   2.055   8.960 -0.6187  0.2625  0.0803
 3613SOL    HW122298   4.683   2.068   8.898  1.3023 -1.0206  2.0504
 3613SOL    HW222299   4.640   2.105   9.037  0.2609 -1.4293  0.8667
 3614SOL     OW22300   3.014   0.046   5.920 -0.0911 -0.8909  0.1076
 3614SOL    HW122301   3.013   0.057   5.824 -1.0921  1.0699  0.3403
 3614SOL    HW222302   3.101   0.010   5.937  0.7319  0.3218 -1.4756
 3615SOL     OW22303   4.703   0.578   7.326 -0.5652  0.1265  0.4876
 3615SOL    HW122304   0.015   0.611   7.243 -0.1316 -0.2973  0.5044
 3615SOL    HW222305   4.718   0.483   7.320  4.5522  0.8980  0.7217
 3616SOL     OW22306   2.960   4.325   2.629  0.1376  0.2948  0.3663
 3616SOL    HW122307   2.989   4.362   2.546  1.8965  0.9307  1.2729
 3616SOL    HW222308   2.866   4.344   2.629  0.1144  0.1828 -1.2499
 3617SOL     OW22309   0.391   1.262   2.591  0.5457  0.2900  0.1811
 3617SOL    HW122310   0.403   1.355   2.610  0.4278  0.2260  0.5533
 3617SOL    HW222311   0.302   1.254   2.623  0.7869 -1.5907  0.3971
 3618SOL     OW22312   4.024   0.486   4.496  0.2261 -0.1317 -0.3275
 3618SOL    HW122313   4.000   0.422   4.429 -0.6785 -0.4448  0.3042
 3618SOL    HW222314   4.118   0.465   4.493  0.4855  0.6214  2.3324
 3619SOL     OW22315   2.184   4.003   6.626  0.5512  0.7210 -0.0382
 3619SOL    HW122316   2.213   4.078   6.574  1.1829  0.9357  0.6221
 3619SOL    HW222317   2.094   4.001   6.594  0.6651  1.4332 -0.3953
 3620SOL     OW22318   1.851   1.998   9.265 -0.0482  0.1790 -0.9236
 3620SOL    HW122319   1.847   2.093   9.259 -1.3158  0.0662 -1.8529
 3620SOL    HW222320   1.792   1.969   9.195 -1.8651  0.4309  0.5039
 3621SOL     OW22321   1.600   0.176  13.478 -0.0638  0.5896  0.5395
 3621SOL    HW122322   1.638   0.217  13.400  1.2423  2.5811  2.2117
 3621SOL    HW222323   1.506   0.185  13.463 -0.1115 -0.5927  0.0930
 3622SOL     OW22324   1.481   2.818   3.618 -0.1477  0.1185 -0.1312
 3622SOL    HW122325   1.401   2.863   3.644  0.8388  2.7877 -1.7684
 3622SOL    HW222326   1.450   2.753   3.555  0.5956  1.0886 -1.4913
 3623SOL     OW22327   3.221   3.023   5.063  0.0648 -0.0817  0.2195
 3623SOL    HW122328   3.243   2.983   5.148 -0.0902 -1.1141 -0.2267
 3623SOL    HW222329   3.220   2.944   5.009  0.8208 -0.1427  0.2859
 3624SOL     OW22330   1.881   4.676   3.791  0.1399  0.4732  0.6696
 3624SOL    HW122331   1.970   4.651   3.767  0.2066  2.4019 -1.0974
 3624SOL    HW222332   1.851   4.722   3.713 -1.0377 -0.7328  0.4113
 3625SOL     OW22333   4.555   4.422   8.992 -0.3684  0.5957 -0.0869
 3625SOL    HW122334   4.542   4.506   9.035  0.8868  1.7560 -2.0016
 3625SOL    HW222335   4.645   4.399   9.015 -0.3296  0.1379 -0.6787
 3626SOL     OW22336   3.833   1.029   9.129 -0.1384  0.3744 -0.4046
 3626SOL    HW122337   3.841   0.998   9.039  0.4657  0.3941 -0.3548
 3626SOL    HW222338   3.925   1.019   9.152 -0.1347 -0.0087 -0.5810
 3627SOL     OW22339   1.879   1.235   6.262 -0.0819  0.1977  0.0451
 3627SOL    HW122340   1.955   1.293   6.263  0.3409 -0.3780  0.7730
 3627SOL    HW222341   1.927   1.152   6.270 -1.1216 -0.2149  1.9742
 3628SOL     OW22342   4.316   2.687  11.639 -0.0373  0.7230  0.3626
 3628SOL    HW122343   4.407   2.658  11.636 -0.0728  0.7784 -1.7739
 3628SOL    HW222344   4.292   2.704  11.547  0.1635 -1.7952 -0.1503
 3629SOL     OW22345   4.672   0.753   6.124  0.0071 -0.8373  0.5452
 3629SOL    HW122346   4.586   0.790   6.105  0.2818  0.5222  1.9129
 3629SOL    HW222347   4.653   0.717   6.210 -2.7066  0.0914  0.3453
 3630SOL     OW22348   0.280   0.267  13.314 -0.1319  0.5927 -0.2277
 3630SOL    HW122349   0.198   0.220  13.302 -0.0946  0.5450 -0.2903
 3630SOL    HW222350   0.289   0.324  13.238  1.0840 -0.0606 -0.5720
 3631SOL     OW22351   1.693   0.731   0.470 -0.7291 -0.0492  0.2525
 3631SOL    HW122352   1.747   0.771   0.538  0.9852 -1.1998 -0.4424
 3631SOL    HW222353   1.756   0.669   0.432 -0.3277  0.6096 -0.1633
 3632SOL     OW22354   1.061   3.706   6.181 -0.0877  0.7809  0.0321
 3632SOL    HW122355   1.126   3.728   6.248  1.5023 -2.2029 -0.5662
 3632SOL    HW222356   1.002   3.649   6.230  0.6472  0.2779  0.3227
 3633SOL     OW22357   3.817   1.535   4.484 -0.8352  0.3493  0.6347
 3633SOL    HW122358   3.876   1.466   4.514  0.2299  1.5628  1.3519
 3633SOL    HW222359   3.738   1.486   4.463 -1.3849  1.2932  0.4912
 3634SOL     OW22360   4.356   2.339   9.401 -0.1238  0.2355 -0.1745
 3634SOL    HW122361   4.298   2.327   9.476  0.3564 -2.3746 -0.2200
 3634SOL    HW222362   4.388   2.427   9.423 -0.2064 -0.5066  2.9075
 3635SOL     OW22363   2.378   1.900   8.715 -0.8658  0.2798 -0.4206
 3635SOL    HW122364   2.386   1.925   8.807 -0.6237  1.2627 -0.7095
 3635SOL    HW222365   2.425   1.817   8.714  1.2476  1.5018 -1.2177
 3636SOL     OW22366   2.214   2.471   6.515  0.3943 -0.2594 -0.3094
 3636SOL    HW122367   2.235   2.506   6.601  4.3254  0.7422 -1.6776
 3636SOL    HW222368   2.145   2.536   6.499  0.3040 -0.5632 -1.1388
 3637SOL     OW22369   0.834   3.306   5.790 -0.0994 -0.3075  0.2535
 3637SOL    HW122370   0.858   3.395   5.816 -0.9593  0.0063 -0.0365
 3637SOL    HW222371   0.739   3.308   5.799 -0.3688 -0.6803 -2.6243
 3638SOL     OW22372   3.891   0.694   2.262  0.1010 -0.2885  0.2302
 3638SOL    HW122373   3.916   0.709   2.354  1.7469 -1.5472 -0.0186
 3638SOL    HW222374   3.959   0.745   2.219  0.8787 -1.1885  0.4016
 3639SOL     OW22375   0.107   2.144   8.633 -0.0453 -0.8493  0.6029
 3639SOL    HW122376   0.043   2.213   8.615 -0.8000 -1.6124  0.3713
 3639SOL    HW222377   0.131   2.152   8.725  0.2806 -2.1310  0.6281
 3640SOL     OW22378   0.959   2.723   5.591  0.2181  0.2648  0.3107
 3640SOL    HW122379   0.981   2.693   5.679  1.8667  0.5287 -0.0193
 3640SOL    HW222380   0.864   2.708   5.590  0.3207 -0.4069  0.9011
 3641SOL     OW22381   3.251   2.602   0.284  0.9352 -0.3753  0.4656
 3641SOL    HW122382   3.189   2.582   0.355 -0.7786  2.3374 -0.2499
 3641SOL    HW222383   3.326   2.550   0.310  0.8678  0.1642  1.7850
 3642SOL     OW22384   2.966   0.691   6.920  0.7327  0.1528 -0.6899
 3642SOL    HW122385   3.034   0.758   6.914  0.9531  0.0097  0.2800
 3642SOL    HW222386   2.911   0.715   6.845  1.6987  1.7625 -0.8851
 3643SOL     OW22387   1.159   1.103   5.528  0.3633  0.0613 -0.8082
 3643SOL    HW122388   1.252   1.079   5.521  1.0233  1.6698  2.5389
 3643SOL    HW222389   1.169   1.198   5.524  0.7094 -0.0048 -1.6829
 3644SOL     OW22390   1.878   3.082   4.757  0.0046 -0.1106 -0.1074
 3644SOL    HW122391   1.807   3.086   4.693 -0.3734  3.6723  0.5658
 3644SOL    HW222392   1.951   3.118   4.708 -0.8956  0.1808 -1.2550
 3645SOL     OW22393   3.104   1.358   6.101  0.2239 -0.1060  0.0029
 3645SOL    HW122394   3.174   1.398   6.049  0.1650  0.8421  0.6492
 3645SOL    HW222395   3.066   1.440   6.134 -1.3909 -0.6322 -0.5878
 3646SOL     OW22396   2.686   2.146   8.597 -0.0619 -0.1921 -0.8830
 3646SOL    HW122397   2.758   2.167   8.538  0.2734  0.4795 -0.2452
 3646SOL    HW222398   2.638   2.094   8.533  1.2840 -1.5908 -0.7435
 3647SOL     OW22399   1.111   1.367   6.247 -0.5695 -0.2745 -0.4053
 3647SOL    HW122400   1.202   1.395   6.247 -0.5866 -0.2268 -1.2420
 3647SOL    HW222401   1.068   1.428   6.187 -2.0297 -1.0545 -0.1645
 3648SOL     OW22402   3.407   2.319   0.082 -0.0687  0.2239 -0.7820
 3648SOL    HW122403   3.475   2.379   0.113  1.5645 -2.8052  1.5649
 3648SOL    HW222404   3.366   2.362   0.007 -1.0543  1.5991  0.5406
 3649SOL     OW22405   1.156   4.140   5.826  0.2450 -0.1847 -0.3277
 3649SOL    HW122406   1.128   4.145   5.918  0.6464 -1.8192 -0.1176
 3649SOL    HW222407   1.245   4.175   5.829 -0.7494  2.3151  0.5188
 3650SOL     OW22408   1.342   0.601  12.501  0.4444  0.1976  0.0754
 3650SOL    HW122409   1.317   0.689  12.470  2.3080 -0.2331 -2.6433
 3650SOL    HW222410   1.263   0.547  12.497  0.9284 -0.5362  0.6170
 3651SOL     OW22411   1.674   2.698  13.557  0.0789  0.1148  0.1191
 3651SOL    HW122412   1.620   2.651  13.493 -0.7765  2.7097 -1.0673
 3651SOL    HW222413   1.682   2.786  13.520  0.5541  0.2631  0.5771
 3652SOL     OW22414   3.104   1.206   3.305  0.6394 -0.8017 -0.3613
 3652SOL    HW122415   3.012   1.190   3.327  0.4237 -0.9340 -1.3945
 3652SOL    HW222416   3.130   1.126   3.261 -0.8592 -0.3000 -2.1213
 3653SOL     OW22417   0.582   2.773  14.789  0.7962  0.4106 -0.0048
 3653SOL    HW122418   0.544   2.726  14.715  1.9375 -0.3873 -0.0894
 3653SOL    HW222419   0.651   2.719  14.828  1.2031  1.8146  1.2042
 3654SOL     OW22420   2.778   1.421   3.680  0.2295 -0.3945  0.0060
 3654SOL    HW122421   2.870   1.410   3.656  0.7949 -0.3613  2.1622
 3654SOL    HW222422   2.742   1.348   3.630 -2.4566  0.8714  0.0721
 3655SOL     OW22423   0.997   1.859  14.304  0.2533  0.6345 -0.3047
 3655SOL    HW122424   1.038   1.827  14.385  0.4654 -0.4636 -0.8555
 3655SOL    HW222425   1.032   1.794  14.244  0.4449  1.2554 -0.8601
 3656SOL     OW22426   4.285   3.110   7.892 -0.4102 -0.0117  0.2309
 3656SOL    HW122427   4.366   3.059   7.893 -0.1988  0.3201  0.0948
 3656SOL    HW222428   4.298   3.177   7.959 -1.4239  0.2901  0.1274
 3657SOL     OW22429   4.508   0.534  16.806  0.0970 -0.2609  0.0451
 3657SOL    HW122430   4.560   0.461  16.773  0.2849  0.0706 -0.3953
 3657SOL    HW222431   4.419   0.506  16.786  0.3339 -0.8758 -0.1331
 3658SOL     OW22432   3.871   3.101  16.243 -0.0384 -0.8363 -0.0550
 3658SOL    HW122433   3.827   3.179  16.210  1.3837  1.3807  3.2964
 3658SOL    HW222434   3.934   3.141  16.302  0.6659 -1.7784 -0.1771
 3659SOL     OW22435   0.847   2.248   7.301  0.0137 -0.2352  0.1395
 3659SOL    HW122436   0.753   2.230   7.298  0.0265 -0.0070 -1.2982
 3659SOL    HW222437   0.856   2.298   7.221  1.1745  0.0903  0.4777
 3660SOL     OW22438   2.083   2.694   6.445 -0.3570  0.3275  0.0391
 3660SOL    HW122439   2.140   2.734   6.380 -1.9979  1.3487 -0.7968
 3660SOL    HW222440   2.086   2.757   6.518  1.6002  0.9788 -0.6276
 3661SOL     OW22441   1.950   0.550   9.346 -0.1361  0.2328  0.5475
 3661SOL    HW122442   2.034   0.505   9.354 -0.6274 -0.8591 -0.3643
 3661SOL    HW222443   1.890   0.481   9.374  1.3490 -0.2728  2.4679
 3662SOL     OW22444   0.960   3.985   3.552 -0.3765  0.2067  0.4495
 3662SOL    HW122445   0.968   4.009   3.645  0.3528 -1.2874  0.7740
 3662SOL    HW222446   0.982   4.067   3.507 -0.2327 -0.1641 -0.1586
 3663SOL     OW22447   0.443   3.676   7.642 -0.4263 -0.3250 -0.9414
 3663SOL    HW122448   0.407   3.589   7.661 -0.7271 -0.3771 -1.7528
 3663SOL    HW222449   0.497   3.691   7.720 -3.8992 -0.2304  1.4613
 3664SOL     OW22450   1.354   0.414   1.699 -0.0156 -0.0032  0.2007
 3664SOL    HW122451   1.406   0.487   1.733  2.4824 -1.9085  0.4398
 3664SOL    HW222452   1.268   0.458   1.699 -0.4589 -0.8921  1.6460
 3665SOL     OW22453   2.018   1.607   0.279 -0.2687 -0.7615 -0.5901
 3665SOL    HW122454   2.081   1.559   0.224 -1.1342 -1.4773 -0.9534
 3665SOL    HW222455   2.021   1.551   0.357 -0.8996 -0.9705 -0.7225
 3666SOL     OW22456   1.188   0.194   5.157 -0.1888 -0.4093  0.0622
 3666SOL    HW122457   1.105   0.200   5.205  0.6385 -2.0009  1.6701
 3666SOL    HW222458   1.213   0.287   5.155 -2.6944  0.2340 -1.7642
 3667SOL     OW22459   3.743   0.016   6.574 -0.4634 -0.1794  0.1692
 3667SOL    HW122460   3.685   0.087   6.546 -1.2828 -1.0094 -0.2236
 3667SOL    HW222461   3.788   0.063   6.645 -0.6081 -1.5929  1.1889
 3668SOL     OW22462   1.515   4.575  16.364  0.2338 -0.0937  0.8329
 3668SOL    HW122463   1.444   4.538  16.311  1.4717 -0.0999 -0.8196
 3668SOL    HW222464   1.495   4.535  16.449 -0.3596 -0.8044  0.3669
 3669SOL     OW22465   0.339   0.071   5.006  0.1867 -0.1559  0.6653
 3669SOL    HW122466   0.370   4.703   5.006 -0.1492 -0.2696  0.6125
 3669SOL    HW222467   0.290   0.059   4.925  1.0280  2.0980 -0.1789
 3670SOL     OW22468   0.204   1.306   7.119  0.3011  0.1813 -0.4352
 3670SOL    HW122469   0.156   1.346   7.191 -2.0246 -3.0953 -0.1584
 3670SOL    HW222470   0.177   1.362   7.047  1.6735  1.1230 -0.2219
 3671SOL     OW22471   4.296   4.572   0.902 -0.7509  0.3446 -0.2788
 3671SOL    HW122472   4.355   4.609   0.967 -0.4768  0.6836 -0.7311
 3671SOL    HW222473   4.208   4.559   0.939 -1.3282 -1.8185 -2.4540
 3672SOL     OW22474   2.565   2.938   0.026  0.1113  0.0454 -0.0197
 3672SOL    HW122475   2.561   2.977   0.113  1.9529  0.5276 -0.1567
 3672SOL    HW222476   2.644   2.988   0.007  1.2133 -1.7197 -0.0464
 3673SOL     OW22477   1.691   1.269   5.171  0.0072  0.1680  0.0638
 3673SOL    HW122478   1.765   1.275   5.232  0.6862  2.4720 -0.9598
 3673SOL    HW222479   1.618   1.262   5.231  0.7474 -2.0276  0.7146
 3674SOL     OW22480   2.277   3.327   0.723  0.2264 -0.0370 -0.1392
 3674SOL    HW122481   2.322   3.261   0.670  2.2187 -0.2111  1.7646
 3674SOL    HW222482   2.193   3.281   0.728  0.4334 -0.7628 -3.1016
 3675SOL     OW22483   4.390   3.435  11.372  0.8119 -0.5491  0.3659
 3675SOL    HW122484   4.417   3.395  11.455 -0.8863  0.3648  1.3517
 3675SOL    HW222485   4.337   3.510  11.397  0.7244 -0.8275  1.0222
 3676SOL     OW22486   0.362   3.538   8.255  0.1235  0.1004 -0.0758
 3676SOL    HW122487   0.357   3.534   8.159  2.1920 -0.0707 -0.1761
 3676SOL    HW222488   0.408   3.621   8.266  0.9732 -0.1886 -1.3447
 3677SOL     OW22489   0.641   3.640   0.576 -0.0478 -0.7450 -0.9235
 3677SOL    HW122490   0.672   3.556   0.610  0.3601  1.0486  3.1183
 3677SOL    HW222491   0.727   3.672   0.546  0.0281  0.4178  0.5234
 3678SOL     OW22492   1.050   2.315   6.016 -0.4753 -0.0290 -0.6866
 3678SOL    HW122493   1.115   2.248   6.037 -0.1460  0.1798 -1.0490
 3678SOL    HW222494   0.983   2.252   5.988  0.9293 -1.3895 -0.9495
 3679SOL     OW22495   4.266   4.013   6.249 -0.2157 -0.0621  0.2464
 3679SOL    HW122496   4.342   3.969   6.288 -1.8019 -1.5073  1.7407
 3679SOL    HW222497   4.303   4.100   6.237  0.3379 -0.2096  0.8708
 3680SOL     OW22498   2.648   1.980   6.797 -0.5298 -0.1439 -0.8302
 3680SOL    HW122499   2.741   1.994   6.777 -0.3337 -1.3353 -0.7226
 3680SOL    HW222500   2.639   1.998   6.890  3.7172  1.9342 -0.7957
 3681SOL     OW22501   0.044   0.074   1.016  0.0242  0.1930  0.2698
 3681SOL    HW122502   0.087   4.715   0.990  2.6498  1.3491  0.9791
 3681SOL    HW222503   0.103   0.105   1.084 -2.1177  0.6480  1.9173
 3682SOL     OW22504   2.207   1.463   0.163 -0.3713  0.1885 -0.2969
 3682SOL    HW122505   2.242   1.388   0.211  0.6822  1.4443  0.8982
 3682SOL    HW222506   2.251   1.455   0.078 -0.4937 -1.3483 -0.2151
 3683SOL     OW22507   1.891   0.083   7.906  0.1472 -0.2666  0.6074
 3683SOL    HW122508   1.804   0.063   7.874 -0.1221  2.7488 -0.5862
 3683SOL    HW222509   1.874   0.171   7.941  0.0149 -0.0218 -0.0823
 3684SOL     OW22510   3.515   2.382   6.535  0.2713  0.2497 -0.3648
 3684SOL    HW122511   3.599   2.366   6.492  0.1963  0.1974 -0.4927
 3684SOL    HW222512   3.462   2.421   6.465 -0.1344  0.5445  0.1077
 3685SOL     OW22513   1.750   0.850   5.002  0.2853 -0.2370  0.1237
 3685SOL    HW122514   1.679   0.875   5.060  0.2044  1.6694 -0.7682
 3685SOL    HW222515   1.702   0.794   4.942 -1.1646  0.7264  0.3854
 3686SOL     OW22516   3.329   2.783   3.375  0.0418 -0.2549  0.5944
 3686SOL    HW122517   3.278   2.829   3.308  1.1488  0.2014  0.0784
 3686SOL    HW222518   3.281   2.700   3.376 -0.0255 -0.1897  2.3374
 3687SOL     OW22519   1.457   4.236   5.786 -0.1570  0.4142 -0.2271
 3687SOL    HW122520   1.476   4.321   5.745  0.3719  0.4862  0.1681
 3687SOL    HW222521   1.463   4.186   5.705  0.4166 -1.1521  0.7821
 3688SOL     OW22522   3.611   4.607   9.153 -0.2028 -0.0188  0.3984
 3688SOL    HW122523   3.606   4.589   9.247  0.3906  0.8432  0.5986
 3688SOL    HW222524   3.560   4.533   9.123  1.9436 -1.2402 -0.2381
 3689SOL     OW22525   4.063   1.645   4.563 -0.2718 -0.8102 -0.2128
 3689SOL    HW122526   4.044   1.701   4.638  3.0373 -1.1226  0.8358
 3689SOL    HW222527   3.977   1.603   4.550 -0.8492 -0.3706  2.1212
 3690SOL     OW22528   4.454   3.092   0.946 -0.3676 -0.4967  0.1627
 3690SOL    HW122529   4.374   3.091   0.999 -1.3579  0.3297 -1.2931
 3690SOL    HW222530   4.519   3.066   1.010  0.4258 -0.5945 -0.6901
 3691SOL     OW22531   3.120   2.666   2.366  0.4313 -0.5964  0.4789
 3691SOL    HW122532   3.181   2.731   2.402 -2.5319  1.4314  1.7986
 3691SOL    HW222533   3.177   2.589   2.355  0.2484 -0.8750  1.4892
 3692SOL     OW22534   1.382   3.436   3.776 -0.2754  0.1347  0.1244
 3692SOL    HW122535   1.372   3.431   3.681 -0.2844  1.3490  0.0633
 3692SOL    HW222536   1.465   3.483   3.784 -0.3285  0.3310 -0.5477
 3693SOL     OW22537   2.664   4.556   5.818  0.1242 -0.1021 -0.0894
 3693SOL    HW122538   2.735   4.492   5.811 -0.7715 -0.7531 -3.0658
 3693SOL    HW222539   2.690   4.588   5.905  0.4369  1.9668 -0.9569
 3694SOL     OW22540   3.093   0.585   8.946 -0.2608  0.5551 -0.3845
 3694SOL    HW122541   3.059   0.602   9.034 -1.6559 -2.0335 -0.4384
 3694SOL    HW222542   3.012   0.582   8.894 -0.2223  0.2914 -0.4287
 3695SOL     OW22543   1.657   4.536   4.150 -1.0457 -0.2165  0.0568
 3695SOL    HW122544   1.735   4.591   4.162 -1.5217  0.2278  1.0870
 3695SOL    HW222545   1.593   4.593   4.110 -1.3816 -0.4995  0.1933
 3696SOL     OW22546   1.445   2.535   7.196  0.4423  0.5764 -0.1639
 3696SOL    HW122547   1.375   2.491   7.244  1.0479  1.1152  1.1990
 3696SOL    HW222548   1.422   2.488   7.116  3.5538  0.7310 -1.1591
 3697SOL     OW22549   0.047   3.007  14.158  0.0785 -0.4640  0.2274
 3697SOL    HW122550   0.138   2.980  14.175 -0.6734 -1.7736  2.1702
 3697SOL    HW222551   4.716   3.008  14.236 -0.4004 -1.2194 -0.0910
 3698SOL     OW22552   2.023   4.124  11.685 -0.0972  0.0084 -0.0372
 3698SOL    HW122553   2.102   4.120  11.738  0.2929 -0.9760 -0.7066
 3698SOL    HW222554   2.067   4.128  11.600 -1.1339  2.1501 -0.4923
 3699SOL     OW22555   4.327   2.664   3.431 -0.2779 -0.2381  0.1015
 3699SOL    HW122556   4.310   2.758   3.434  1.9408  0.1292  1.2298
 3699SOL    HW222557   4.352   2.641   3.520  1.8787 -6.4509 -2.0356
 3700SOL     OW22558   0.972   1.324   6.475  0.0387 -0.1097 -0.0137
 3700SOL    HW122559   0.889   1.282   6.453  0.5933 -0.3180 -1.7074
 3700SOL    HW222560   1.008   1.337   6.387  0.0174 -0.9453 -0.1512
 3701SOL     OW22561   0.807   3.210   4.100  0.4338 -0.0818  0.3271
 3701SOL    HW122562   0.862   3.134   4.121  1.1588  1.0566  2.5502
 3701SOL    HW222563   0.806   3.253   4.186  0.1579 -0.0803  0.3200
 3702SOL     OW22564   1.501   1.834  17.675  0.2486  0.1122  0.2566
 3702SOL    HW122565   1.525   1.922   0.008  1.7882 -1.0119  2.4526
 3702SOL    HW222566   1.407   1.844  17.663  0.1873  0.2127  0.8275
 3703SOL     OW22567   2.711   3.749   3.328 -0.5464  0.0942 -0.0206
 3703SOL    HW122568   2.631   3.732   3.279  0.2036 -2.5264 -0.3098
 3703SOL    HW222569   2.699   3.844   3.334 -2.3755 -0.0349 -1.6793
 3704SOL     OW22570   4.500   0.726   1.015 -0.2676  0.2333 -0.5871
 3704SOL    HW122571   4.538   0.639   1.002  0.2689  0.7522 -2.5322
 3704SOL    HW222572   4.527   0.773   0.936 -0.4672 -0.7875 -1.2533
 3705SOL     OW22573   1.201   0.446   7.886  0.4114  0.3427 -0.3462
 3705SOL    HW122574   1.218   0.453   7.792 -0.8186 -1.7143 -0.7090
 3705SOL    HW222575   1.258   0.372   7.908 -0.1792 -0.0184 -0.0416
 3706SOL     OW22576   1.465   2.356   5.654 -0.0548  0.2259 -0.1985
 3706SOL    HW122577   1.481   2.427   5.716  0.9474  0.2668 -0.5019
 3706SOL    HW222578   1.371   2.363   5.639  0.0794  1.0067 -0.6647
 3707SOL     OW22579   3.480   3.221   5.135 -0.0829  0.1765  0.2418
 3707SOL    HW122580   3.420   3.289   5.105 -0.3548  0.0863  0.5789
 3707SOL    HW222581   3.420   3.146   5.132 -0.2103  0.3269 -1.0193
 3708SOL     OW22582   0.919   4.223   2.218 -0.1276  0.1590 -0.0828
 3708SOL    HW122583   1.013   4.223   2.200  0.4106  1.2060  2.6785
 3708SOL    HW222584   0.897   4.278   2.143 -0.5354  0.1825  0.0523
 3709SOL     OW22585   1.393   1.714   2.592 -0.0197 -0.4147  0.4527
 3709SOL    HW122586   1.485   1.735   2.604 -0.0027 -0.4191  0.3260
 3709SOL    HW222587   1.344   1.786   2.631 -0.3169  0.5746 -1.7494
 3710SOL     OW22588   4.675   3.386   7.150  0.4206  0.2429 -0.1729
 3710SOL    HW122589   0.039   3.360   7.118 -0.4588  0.0598 -2.3940
 3710SOL    HW222590   4.697   3.449   7.219  2.2665 -0.4214 -0.1436
 3711SOL     OW22591   1.772   3.579   0.954 -0.2431  0.0648 -0.2952
 3711SOL    HW122592   1.751   3.532   0.873  3.2962 -1.3894 -0.3686
 3711SOL    HW222593   1.857   3.622   0.949 -0.3373  0.3241  0.2852
 3712SOL     OW22594   2.600   0.451  15.266  0.4206  0.2322  0.1766
 3712SOL    HW122595   2.543   0.505  15.212 -1.3143 -0.9208  0.8682
 3712SOL    HW222596   2.575   0.471  15.357 -0.7362 -0.4710  0.0138
 3713SOL     OW22597   2.271   0.284   6.838  0.0090 -0.2769 -0.1204
 3713SOL    HW122598   2.280   0.203   6.788  1.6190  0.7072 -1.4337
 3713SOL    HW222599   2.300   0.348   6.773  0.3080  0.3663  0.6444
 3714SOL     OW22600   4.558   0.390   0.612  0.1445  0.0235  0.4248
 3714SOL    HW122601   4.505   0.380   0.533  1.7019  1.0346 -0.7483
 3714SOL    HW222602   4.553   0.306   0.659  0.1397  1.0180  2.2182
 3715SOL     OW22603   1.489   0.893  15.630 -0.2112  0.7055  0.0169
 3715SOL    HW122604   1.464   0.908  15.721 -2.6497  0.8941 -0.6903
 3715SOL    HW222605   1.523   0.804  15.637  1.8413  1.5617  0.8309
 3716SOL     OW22606   3.605   0.967   9.294  0.2389  0.0440 -0.4992
 3716SOL    HW122607   3.666   1.003   9.230  0.5093  0.0733 -0.2239
 3716SOL    HW222608   3.668   0.904   9.329  0.7690  0.5263 -0.6007
 3717SOL     OW22609   4.142   2.292   2.274  0.4358 -0.0584 -0.1161
 3717SOL    HW122610   4.124   2.323   2.186 -2.3818 -0.3088  0.3881
 3717SOL    HW222611   4.057   2.251   2.286  1.0706 -1.6298 -1.1374
 3718SOL     OW22612   3.577   0.381   6.943  0.4490 -0.0160  0.0728
 3718SOL    HW122613   3.482   0.373   6.948  0.4806 -1.7939 -2.1148
 3718SOL    HW222614   3.610   0.302   6.988  1.3024 -1.1891 -2.5817
 3719SOL     OW22615   2.617   1.477  12.634  0.4433 -0.2732 -0.7802
 3719SOL    HW122616   2.593   1.392  12.599  0.4524 -0.7691  0.4246
 3719SOL    HW222617   2.578   1.474  12.722 -0.2091  1.1797 -1.0021
 3720SOL     OW22618   4.043   3.527   8.271 -0.0828  0.4524  0.2529
 3720SOL    HW122619   3.965   3.474   8.255 -0.4630  1.3858 -0.9624
 3720SOL    HW222620   3.992   3.607   8.283  0.0342  0.1365  2.7808
 3721SOL     OW22621   4.652   2.956   1.080 -0.1024 -0.0590  0.3464
 3721SOL    HW122622   4.664   2.978   1.173  1.0843 -0.1189  0.2079
 3721SOL    HW222623   4.604   2.875   1.097 -1.0658  0.4083 -0.1503
 3722SOL     OW22624   4.281   4.691   5.765  0.0160 -0.5189  0.7614
 3722SOL    HW122625   4.241   0.036   5.711 -1.0431 -1.0379  0.8943
 3722SOL    HW222626   4.278   4.628   5.693 -2.7044  1.6621 -1.0697
 3723SOL     OW22627   0.905   1.392   4.862 -0.0288  0.4312  0.3735
 3723SOL    HW122628   0.993   1.396   4.900 -0.6617 -2.6995  2.1880
 3723SOL    HW222629   0.848   1.405   4.937  2.3759 -0.5750  2.3636
 3724SOL     OW22630   4.606   3.955   7.082  0.4386 -0.2915  0.0904
 3724SOL    HW122631   4.651   3.870   7.082 -0.0274 -0.5321 -2.1372
 3724SOL    HW222632   4.603   3.965   7.177 -1.1450 -0.4337  0.0581
 3725SOL     OW22633   1.328   1.617   1.207 -0.3231  0.5230  0.5521
 3725SOL    HW122634   1.258   1.623   1.141 -0.0241  0.1406  0.1963
 3725SOL    HW222635   1.279   1.654   1.280  0.2794  1.4591  0.4832
 3726SOL     OW22636   2.223   2.681  11.016  0.2320 -0.0180 -0.2519
 3726SOL    HW122637   2.273   2.603  11.040  1.0676  0.6789  0.2977
 3726SOL    HW222638   2.169   2.678  11.095  1.2829 -1.3930  0.4123
 3727SOL     OW22639   0.618   1.833   6.378 -0.7137  0.4093  0.4642
 3727SOL    HW122640   0.592   1.925   6.379 -2.7758 -0.1863  1.3962
 3727SOL    HW222641   0.708   1.837   6.410 -0.6364  0.5797  0.2282
 3728SOL     OW22642   0.700   3.808  14.241 -0.2026  0.3024  0.1507
 3728SOL    HW122643   0.613   3.787  14.207 -0.3927 -1.0310  1.4705
 3728SOL    HW222644   0.735   3.726  14.205  0.7092  0.0527  1.6065
 3729SOL     OW22645   1.914   0.197   7.316 -0.0048  0.3872  0.3119
 3729SOL    HW122646   1.870   0.168   7.396 -1.1531 -1.6180 -1.0216
 3729SOL    HW222647   1.991   0.141   7.306 -0.2436  0.4036 -1.6612
 3730SOL     OW22648   4.012   0.354   3.284 -0.7393  0.4915  0.2436
 3730SOL    HW122649   4.106   0.364   3.300 -0.3686 -1.7872 -0.4157
 3730SOL    HW222650   4.002   0.435   3.234  0.4438  0.4339 -0.0762
 3731SOL     OW22651   3.507   2.331   1.751  0.4580  0.2289 -0.4707
 3731SOL    HW122652   3.571   2.384   1.798 -1.0533  0.3553  1.4415
 3731SOL    HW222653   3.561   2.309   1.674 -0.1333  1.3815 -1.2172
 3732SOL     OW22654   2.212   3.157  16.304  0.5662  0.2913 -0.1338
 3732SOL    HW122655   2.276   3.089  16.329  0.3389  0.8373  2.0006
 3732SOL    HW222656   2.174   3.135  16.220  0.3185 -0.3263  0.1413
 3733SOL     OW22657   2.259   0.558   1.782 -0.1282  0.3190 -0.3008
 3733SOL    HW122658   2.239   0.471   1.749  2.3425  0.1207 -1.2847
 3733SOL    HW222659   2.244   0.555   1.877 -0.2426 -0.9879 -0.3662
 3734SOL     OW22660   3.780   1.444   7.376  0.1700 -0.0103 -0.2497
 3734SOL    HW122661   3.801   1.531   7.411 -1.0193  0.0719  0.2652
 3734SOL    HW222662   3.824   1.440   7.291  0.1830  0.5039 -0.2670
 3735SOL     OW22663   2.327   3.540   2.394 -0.5279 -0.2000 -0.4469
 3735SOL    HW122664   2.257   3.499   2.343 -0.9713  1.8128 -1.4785
 3735SOL    HW222665   2.375   3.592   2.329  0.2680 -0.2648  0.0922
 3736SOL     OW22666   1.253   0.009   1.871  0.0923 -0.0687  0.4394
 3736SOL    HW122667   1.290   0.088   1.911  2.8793 -1.5737  0.8336
 3736SOL    HW222668   1.332   4.684   1.845  1.9128  2.7233  0.8235
 3737SOL     OW22669   3.329   2.516   8.380  0.2125 -0.1679 -0.2720
 3737SOL    HW122670   3.235   2.535   8.390  0.7725  2.1091  0.6648
 3737SOL    HW222671   3.360   2.607   8.382  1.5027 -0.6440  0.8356
 3738SOL     OW22672   0.577   1.379   7.742 -0.1777  0.6172  0.1610
 3738SOL    HW122673   0.613   1.330   7.668  0.2409  0.9616  0.1392
 3738SOL    HW222674   0.655   1.395   7.795 -0.1197 -0.0125  0.2682
 3739SOL     OW22675   4.422   3.508  13.747  0.2332 -0.5358 -0.0913
 3739SOL    HW122676   4.470   3.491  13.829 -0.1436  0.5684  0.3632
 3739SOL    HW222677   4.357   3.571  13.777  2.2574  1.1116  0.8421
 3740SOL     OW22678   3.190   1.859  16.867  0.2930  0.0729 -0.2937
 3740SOL    HW122679   3.227   1.859  16.779 -0.0126  3.4935 -0.4169
 3740SOL    HW222680   3.269   1.835  16.916 -0.1006  1.0171  0.8087
 3741SOL     OW22681   4.085   3.811   8.722 -0.2005 -0.3185  0.2569
 3741SOL    HW122682   3.992   3.796   8.707  0.0246 -1.0707 -0.4463
 3741SOL    HW222683   4.070   3.851   8.807  2.4374 -1.4852  1.2919
 3742SOL     OW22684   4.427   3.510   6.752 -0.0975  0.5047  0.2629
 3742SOL    HW122685   4.423   3.434   6.811 -0.0450  1.3784  1.3754
 3742SOL    HW222686   4.460   3.470   6.671  0.5095  0.6838  0.4255
 3743SOL     OW22687   0.445   0.546   6.841 -0.0948 -0.0933 -0.2511
 3743SOL    HW122688   0.397   0.620   6.878  0.0360 -0.1879  0.1001
 3743SOL    HW222689   0.538   0.569   6.847 -0.4352  1.2921 -0.1936
 3744SOL     OW22690   4.018   3.581  12.135  0.4696  0.4289  0.3711
 3744SOL    HW122691   4.067   3.658  12.106 -0.6010  0.4611 -1.3560
 3744SOL    HW222692   4.027   3.590  12.230  0.5755  1.8844  0.2225
 3745SOL     OW22693   3.850   4.341   7.399  0.1943  0.1275  0.4461
 3745SOL    HW122694   3.785   4.387   7.346 -0.9081  0.9508  2.5422
 3745SOL    HW222695   3.794   4.307   7.468 -2.2004  1.2233 -0.9691
 3746SOL     OW22696   3.021   4.111  15.947 -0.3193 -0.6094 -0.0922
 3746SOL    HW122697   2.994   4.201  15.929  0.4212 -0.0184  1.7437
 3746SOL    HW222698   2.943   4.069  15.912  0.2634 -1.5877 -0.2003
 3747SOL     OW22699   3.968   0.401  16.590 -0.4318 -0.2658 -0.2500
 3747SOL    HW122700   3.892   0.459  16.595 -0.8406 -0.6649 -1.8436
 3747SOL    HW222701   3.998   0.413  16.500  0.1034  1.8682  0.2089
 3748SOL     OW22702   3.325   3.829   6.879 -0.3521 -0.0366 -0.8056
 3748SOL    HW122703   3.417   3.807   6.867  0.1804  1.8250 -0.1357
 3748SOL    HW222704   3.292   3.747   6.917 -0.0315  0.3817  0.3522
 3749SOL     OW22705   0.074   4.304   6.954 -0.2369  0.4945 -0.2256
 3749SOL    HW122706   0.051   4.228   7.008 -2.6041  0.1361 -1.7370
 3749SOL    HW222707   0.137   4.344   7.014  0.6019 -0.2988 -0.5688
 3750SOL     OW22708   0.817   3.854   0.267 -0.2247 -0.0476  0.2663
 3750SOL    HW122709   0.730   3.879   0.236  0.4196 -1.0698 -2.3435
 3750SOL    HW222710   0.861   3.938   0.258  0.2130 -0.5238 -1.9512
 3751SOL     OW22711   2.619   1.329   7.588 -0.1395  0.8666 -0.4416
 3751SOL    HW122712   2.628   1.237   7.610 -0.0909  0.0097 -4.0244
 3751SOL    HW222713   2.526   1.342   7.567 -0.6191 -1.0310  0.4360
 3752SOL     OW22714   0.066   4.481   5.654 -0.1395  0.3463  0.4430
 3752SOL    HW122715   4.708   4.516   5.618  0.2832 -1.4564 -2.2590
 3752SOL    HW222716   0.091   4.568   5.685  2.1626 -0.1253 -0.0758
 3753SOL     OW22717   4.121   2.573   2.700 -0.5438  0.2319  0.0524
 3753SOL    HW122718   4.044   2.550   2.752  0.7418  0.2438  1.9646
 3753SOL    HW222719   4.108   2.667   2.688  1.3379  0.7974  2.4336
 3754SOL     OW22720   3.482   2.159  14.474  0.4425 -0.1057  0.3800
 3754SOL    HW122721   3.459   2.232  14.416  0.7766  0.8083  1.3865
 3754SOL    HW222722   3.474   2.086  14.413  2.9790 -0.5435  0.5682
 3755SOL     OW22723   1.208   2.390   5.631 -0.1019  1.0111  0.7825
 3755SOL    HW122724   1.155   2.317   5.600  1.4154  0.3803 -0.3017
 3755SOL    HW222725   1.135   2.450   5.647 -0.4877  0.8148 -0.2847
 3756SOL     OW22726   1.934   1.223  13.526 -0.2380  0.2560  0.6253
 3756SOL    HW122727   2.018   1.260  13.553 -0.4694  1.8388 -0.8046
 3756SOL    HW222728   1.953   1.132  13.546 -0.5734  0.3734  1.5038
 3757SOL     OW22729   3.981   2.115  17.287 -0.2689 -0.5519 -0.6108
 3757SOL    HW122730   3.935   2.164  17.354  0.5693 -0.5428 -0.0395
 3757SOL    HW222731   3.907   2.071  17.245  0.9919 -0.8559 -2.5510
 3758SOL     OW22732   1.869   1.991   5.492  0.1178  0.2834 -0.3194
 3758SOL    HW122733   1.851   2.081   5.519 -0.0524  0.8265 -2.2396
 3758SOL    HW222734   1.940   2.017   5.434  1.9694 -3.4711  0.2366
 3759SOL     OW22735   0.470   2.776   0.756 -0.0580 -0.8260  0.0769
 3759SOL    HW122736   0.399   2.745   0.812 -0.4481  0.3174  0.2042
 3759SOL    HW222737   0.482   2.866   0.785  2.9378 -0.5119 -2.2145
 3760SOL     OW22738   2.806   1.290  10.001 -0.2375  0.2312 -0.2956
 3760SOL    HW122739   2.798   1.225   9.932 -1.7898  1.4241 -1.2461
 3760SOL    HW222740   2.877   1.342   9.962  1.4167 -1.2438  0.7417
 3761SOL     OW22741   1.888   4.385  11.051  0.0142  0.2412  0.2325
 3761SOL    HW122742   1.800   4.355  11.075 -1.1942  2.5971 -1.2773
 3761SOL    HW222743   1.879   4.384  10.956  2.9412 -0.6224 -0.0184
 3762SOL     OW22744   2.338   4.074   1.307  0.0814 -0.1351 -0.2175
 3762SOL    HW122745   2.268   4.010   1.292  0.5164 -0.9653  1.2379
 3762SOL    HW222746   2.306   4.147   1.254  0.5739  1.1054  1.1839
 3763SOL     OW22747   0.561   0.387   7.119  0.2024 -0.8022  0.2236
 3763SOL    HW122748   0.527   0.412   7.033 -0.6915 -1.7976  0.2760
 3763SOL    HW222749   0.482   0.377   7.172  0.1986 -3.6091 -0.3065
 3764SOL     OW22750   2.887   3.581   8.642  0.2732  0.0326 -0.2051
 3764SOL    HW122751   2.813   3.552   8.696  0.5103 -0.3811 -0.1058
 3764SOL    HW222752   2.838   3.651   8.598  2.9139  0.9294 -1.6977
 3765SOL     OW22753   0.781   2.772   8.851 -0.0860  0.1379 -0.0850
 3765SOL    HW122754   0.699   2.811   8.822 -1.1542  0.2909  3.0972
 3765SOL    HW222755   0.817   2.838   8.911 -1.8230  0.8082  0.2170
 3766SOL     OW22756   0.201   4.653   3.158 -0.0517  0.4402 -0.3971
 3766SOL    HW122757   0.142   0.001   3.184  0.5478  0.7054  0.2358
 3766SOL    HW222758   0.267   4.711   3.121  0.9330 -0.6120 -0.2891
 3767SOL     OW22759   4.701   1.421   2.584 -0.3061  0.3527  0.1678
 3767SOL    HW122760   4.683   1.514   2.601  0.2716  0.6660 -0.9118
 3767SOL    HW222761   4.619   1.378   2.608  1.0178 -1.8044  0.8324
 3768SOL     OW22762   0.895   1.347   4.010  0.2498  0.2448  0.5153
 3768SOL    HW122763   0.974   1.345   3.957  0.5202 -1.9379  1.0014
 3768SOL    HW222764   0.857   1.433   3.993  0.4347  0.1620 -0.2913
 3769SOL     OW22765   0.658   0.293  10.116 -0.3451 -0.6050  0.5845
 3769SOL    HW122766   0.625   0.236  10.185 -1.4552 -2.1016 -1.2034
 3769SOL    HW222767   0.746   0.257  10.109  1.2899  3.6013 -0.7591
 3770SOL     OW22768   1.077   2.375  16.327  0.3450 -0.0038 -0.6215
 3770SOL    HW122769   1.147   2.329  16.279  1.0479 -1.3362  1.6990
 3770SOL    HW222770   1.079   2.452  16.270  1.5417 -0.2822 -0.9671
 3771SOL     OW22771   2.464   0.203   2.769  0.2077  0.2862 -0.7207
 3771SOL    HW122772   2.533   0.215   2.835  0.5825 -1.5736 -0.7720
 3771SOL    HW222773   2.524   0.188   2.697 -0.8693 -0.2424 -1.5071
 3772SOL     OW22774   2.555   4.215   3.899  0.8984 -0.2447 -0.4140
 3772SOL    HW122775   2.588   4.262   3.976 -0.9956  1.5015 -0.6853
 3772SOL    HW222776   2.638   4.197   3.854  0.4616  0.8720 -1.6454
 3773SOL     OW22777   0.022   2.001   5.267  0.2437  0.3226  0.2531
 3773SOL    HW122778   0.048   1.963   5.183 -1.3519  1.7079 -0.8324
 3773SOL    HW222779   4.703   2.083   5.244 -2.1293 -1.1685 -0.7518
 3774SOL     OW22780   3.939   1.403   0.482 -0.0081  0.1472 -0.3434
 3774SOL    HW122781   3.934   1.446   0.397 -0.7495  2.0261  0.6496
 3774SOL    HW222782   3.974   1.476   0.532  0.1547 -1.1813  1.4912
 3775SOL     OW22783   0.680   4.554  13.256 -0.3147 -0.2950  0.4296
 3775SOL    HW122784   0.646   4.598  13.334 -0.9378  1.7152 -0.9739
 3775SOL    HW222785   0.716   4.474  13.294  2.4060 -0.0632 -1.6369
 3776SOL     OW22786   4.637   2.958  16.261 -0.3421  0.3099 -0.1060
 3776SOL    HW122787   4.709   2.991  16.207 -0.9183  1.4181 -0.2093
 3776SOL    HW222788   4.674   2.887  16.313 -0.6757 -0.1721 -0.5163
 3777SOL     OW22789   0.149   1.680   4.192 -0.0545  0.2873  0.0487
 3777SOL    HW122790   0.218   1.741   4.167 -1.0248  1.2574 -0.2634
 3777SOL    HW222791   0.123   1.710   4.279 -2.2750 -0.7384 -0.2611
 3778SOL     OW22792   2.502   0.308  13.769  0.7126 -0.5207  0.1234
 3778SOL    HW122793   2.438   0.264  13.713 -0.3081 -1.7050  2.2309
 3778SOL    HW222794   2.510   0.238  13.833  3.7016 -1.6377 -1.4918
 3779SOL     OW22795   1.594   0.947   5.203  0.4152  0.4861 -0.1586
 3779SOL    HW122796   1.550   1.006   5.264  0.1147  0.0742  0.0204
 3779SOL    HW222797   1.652   0.911   5.270 -0.4608 -1.7845 -0.6305
 3780SOL     OW22798   1.220   2.401  10.004  0.8146  0.6046  0.4805
 3780SOL    HW122799   1.147   2.376   9.947  2.0990 -0.6687 -0.6262
 3780SOL    HW222800   1.263   2.316  10.020 -0.3727  0.0260  0.6240
 3781SOL     OW22801   0.809   2.594  14.603  0.0528 -0.4179 -0.0822
 3781SOL    HW122802   0.807   2.679  14.647  2.5687 -0.4372  0.0613
 3781SOL    HW222803   0.724   2.553  14.620  1.1119 -2.0457  1.3569
 3782SOL     OW22804   0.496   0.950   1.979  0.4647 -0.0124 -0.2283
 3782SOL    HW122805   0.432   1.021   1.985  1.0272  0.4448  0.3842
 3782SOL    HW222806   0.575   0.985   2.020  0.1872  1.3374 -0.8411
 3783SOL     OW22807   1.575   3.035   7.061  0.3926 -0.7048 -0.2649
 3783SOL    HW122808   1.547   3.055   6.972 -1.3513 -0.4836  0.3187
 3783SOL    HW222809   1.573   2.939   7.064 -0.2965 -0.5955  2.8130
 3784SOL     OW22810   4.289   0.089  14.901  0.5030 -0.0131  0.5248
 3784SOL    HW122811   4.193   0.085  14.905  0.5100 -1.8586 -1.2963
 3784SOL    HW222812   4.297   0.179  14.933  1.8820  0.7517 -1.9271
 3785SOL     OW22813   3.019   0.951   2.922  0.5665 -0.0405 -0.5556
 3785SOL    HW122814   2.990   1.031   2.966  0.5236 -0.4328  0.1377
 3785SOL    HW222815   3.014   0.992   2.836 -1.8406 -2.5647 -1.6209
 3786SOL     OW22816   4.159   2.895   3.680 -0.2058 -0.1340 -0.1195
 3786SOL    HW122817   4.109   2.970   3.647 -2.6630 -1.1451  1.2894
 3786SOL    HW222818   4.162   2.908   3.775 -1.6051  1.2289 -0.2741
 3787SOL     OW22819   2.376   3.788   1.378  0.0249  0.1130  1.1792
 3787SOL    HW122820   2.353   3.728   1.307 -2.8405  0.7816  1.5541
 3787SOL    HW222821   2.469   3.809   1.364 -0.4756  0.6654 -1.2604
 3788SOL     OW22822   4.094   1.285   7.294  0.1666 -0.4345  0.2920
 3788SOL    HW122823   4.163   1.324   7.241 -0.2948 -2.6484 -1.9460
 3788SOL    HW222824   4.135   1.282   7.381  0.4676 -0.8950  0.1374
 3789SOL     OW22825   3.678   2.114   2.443 -0.6208 -0.2067  0.0235
 3789SOL    HW122826   3.668   2.125   2.537 -2.3391  2.0092 -0.4217
 3789SOL    HW222827   3.706   2.201   2.414 -4.4370  0.0078 -2.9337
 3790SOL     OW22828   2.835   2.556  16.650 -0.2356 -0.4075  0.2521
 3790SOL    HW122829   2.791   2.582  16.731 -1.8066 -0.1109 -0.6940
 3790SOL    HW222830   2.928   2.556  16.671 -0.1231  1.7702 -0.2850
 3791SOL     OW22831   4.547   3.165  10.368 -0.4133 -0.6261 -0.1941
 3791SOL    HW122832   4.611   3.093  10.372  1.0603  0.7102  0.4265
 3791SOL    HW222833   4.607   3.226  10.325  0.1081 -3.1867 -3.1730
 3792SOL     OW22834   3.961   2.576   0.780 -0.5927 -0.1138  0.6041
 3792SOL    HW122835   4.012   2.541   0.852 -0.5783  0.7913  1.0318
 3792SOL    HW222836   3.934   2.659   0.819 -1.0208  0.0547 -0.0443
 3793SOL     OW22837   0.568   0.287   6.075  0.9623  0.8726  0.0094
 3793SOL    HW122838   0.525   0.367   6.044 -1.3745 -0.5018 -0.3677
 3793SOL    HW222839   0.563   0.233   5.996 -1.8357 -0.8430  1.3780
 3794SOL     OW22840   2.193   0.554   2.036 -0.0241 -0.1967 -0.2046
 3794SOL    HW122841   2.102   0.544   2.064  0.4216  0.9372  1.6383
 3794SOL    HW222842   2.234   0.486   2.090 -0.8527 -1.2552 -0.9188
 3795SOL     OW22843   1.529   4.608   2.690  0.1230  1.0274  0.6074
 3795SOL    HW122844   1.606   4.616   2.633 -0.8191  0.3464 -0.7711
 3795SOL    HW222845   1.577   4.615   2.772  0.4124 -0.1197  0.5350
 3796SOL     OW22846   2.001   2.016   5.060 -0.7133 -0.0639  0.3428
 3796SOL    HW122847   1.906   2.005   5.065 -0.6644  0.0699  1.5812
 3796SOL    HW222848   2.016   1.964   4.981 -0.4809  0.6290 -0.0672
 3797SOL     OW22849   3.789   3.924   9.474  0.4276 -0.5480  0.3750
 3797SOL    HW122850   3.698   3.953   9.479  1.1354  1.7602 -0.0980
 3797SOL    HW222851   3.840   4.001   9.451 -1.9545  1.0818  0.5443
 3798SOL     OW22852   3.841   4.353   9.079  0.0645  0.1978  0.5655
 3798SOL    HW122853   3.794   4.300   9.015 -0.9478  0.1992  1.3082
 3798SOL    HW222854   3.887   4.284   9.128 -0.1889  0.4745  1.1913
 3799SOL     OW22855   4.196   4.674   3.644  0.0465 -0.0005 -0.3287
 3799SOL    HW122856   4.246   4.599   3.613  2.5664  0.7538  1.9259
 3799SOL    HW222857   4.254   0.024   3.623 -0.5821  0.8403  0.8568
 3800SOL     OW22858   4.226   3.826  15.212  0.3725 -0.4733 -0.5006
 3800SOL    HW122859   4.317   3.855  15.209  0.0161  0.7976  1.2769
 3800SOL    HW222860   4.230   3.731  15.198 -0.1579 -0.7296  1.0286
 3801SOL     OW22861   4.265   1.791  10.058 -0.2825 -0.2268 -0.4673
 3801SOL    HW122862   4.353   1.799  10.022  0.3282 -1.9910  0.6197
 3801SOL    HW222863   4.265   1.867  10.117 -1.3073 -0.1032 -0.6113
 3802SOL     OW22864   2.048   3.799   4.766 -0.0497 -0.0631  0.9530
 3802SOL    HW122865   2.061   3.894   4.774 -0.1491  0.0048  0.3505
 3802SOL    HW222866   2.128   3.781   4.716 -1.2201  1.6110 -1.5134
 3803SOL     OW22867   0.094   4.388   2.335 -0.0527  0.3945 -0.1147
 3803SOL    HW122868   0.091   4.293   2.319 -0.1276  0.5241 -0.8690
 3803SOL    HW222869   0.135   4.387   2.421  1.7498  1.8132 -0.9671
 3804SOL     OW22870   1.263   3.422  12.076  1.3673 -0.1545  0.1593
 3804SOL    HW122871   1.210   3.372  12.014  2.0413  0.1481 -0.6480
 3804SOL    HW222872   1.317   3.349  12.105  1.5020 -0.2735 -0.3890
 3805SOL     OW22873   4.517   3.004   3.554  0.5037 -0.0104 -0.5840
 3805SOL    HW122874   4.547   3.047   3.474  1.2884  0.3498 -0.0915
 3805SOL    HW222875   4.455   2.944   3.512  1.7224 -0.3910 -1.8253
 3806SOL     OW22876   1.804   0.966   1.466 -0.1315  0.1328  0.6673
 3806SOL    HW122877   1.831   1.052   1.497 -0.4881  0.7691 -0.7914
 3806SOL    HW222878   1.889   0.922   1.470 -0.6786 -0.9190  0.8243
 3807SOL     OW22879   1.647   4.373   9.737  0.0240  0.0106 -0.8482
 3807SOL    HW122880   1.707   4.316   9.785  0.0234  1.0283  0.3591
 3807SOL    HW222881   1.601   4.413   9.811  3.1386  1.6693  0.1814
 3808SOL     OW22882   0.442   2.355   6.096 -0.5242  0.0544 -0.2356
 3808SOL    HW122883   0.413   2.266   6.118  1.5721 -0.8192 -1.0842
 3808SOL    HW222884   0.528   2.335   6.059 -1.2247  1.0326 -2.3756
 3809SOL     OW22885   1.051   3.868   3.284 -0.5149 -0.4264  0.4580
 3809SOL    HW122886   0.989   3.938   3.262 -0.7286 -0.0899  2.1267
 3809SOL    HW222887   1.120   3.914   3.331  0.0499 -0.9277  0.1242
 3810SOL     OW22888   3.811   1.357   5.114 -0.6698 -0.7285 -0.1149
 3810SOL    HW122889   3.758   1.414   5.058  0.3643  1.5164  1.1887
 3810SOL    HW222890   3.741   1.297   5.141  0.5050 -1.1024  2.0731
 3811SOL     OW22891   0.053   1.907  11.295 -0.5942 -0.5071 -0.1133
 3811SOL    HW122892   4.704   1.918  11.233 -0.4726 -3.1054 -0.7005
 3811SOL    HW222893   0.053   1.812  11.297 -1.2258 -0.5192 -0.6488
 3812SOL     OW22894   0.731   0.055   6.166  0.6382 -0.0265  0.8390
 3812SOL    HW122895   0.773   0.011   6.239 -0.3532 -2.5526 -0.0796
 3812SOL    HW222896   0.638   0.035   6.182  0.2269  0.2541 -1.1554
 3813SOL     OW22897   0.311   0.558   9.563 -0.2863 -0.9430  0.5142
 3813SOL    HW122898   0.227   0.515   9.578 -1.5424  1.2911 -0.1012
 3813SOL    HW222899   0.353   0.479   9.528  2.0184 -0.4172  2.1186
 3814SOL     OW22900   1.252   3.854   6.383  0.4079  0.1938 -0.4646
 3814SOL    HW122901   1.306   3.914   6.435  0.0052 -1.1202  1.4780
 3814SOL    HW222902   1.172   3.906   6.378  0.0129 -0.3296  0.4105
 3815SOL     OW22903   1.981   1.378   7.215 -0.7603 -0.0368 -0.1326
 3815SOL    HW122904   2.045   1.317   7.178  0.1160  1.2064 -0.6778
 3815SOL    HW222905   1.969   1.449   7.151  1.2148 -0.4785 -1.0063
 3816SOL     OW22906   0.089   0.024   8.860  0.2415  0.0763  0.4861
 3816SOL    HW122907   0.092   0.005   8.954 -5.3796 -0.2381  0.6346
 3816SOL    HW222908   0.029   4.675   8.839  0.3288  0.3269 -0.5878
 3817SOL     OW22909   4.606   0.055  13.660  0.5046  0.1746 -0.1032
 3817SOL    HW122910   4.637   0.140  13.691  1.8290  0.6769 -2.8483
 3817SOL    HW222911   4.556   0.062  13.579  1.4262 -1.1408 -0.7808
 3818SOL     OW22912   1.244   0.508  13.223 -0.4971 -0.5714 -0.0663
 3818SOL    HW122913   1.226   0.549  13.308 -0.5568 -0.9739  0.1213
 3818SOL    HW222914   1.195   0.425  13.224 -3.5350  1.2129 -0.9451
 3819SOL     OW22915   2.199   3.840   4.407  0.5691  0.3912 -0.0003
 3819SOL    HW122916   2.288   3.839   4.373  1.2493 -2.1932  1.8045
 3819SOL    HW222917   2.221   3.882   4.491  2.0852  1.5379 -0.9803
 3820SOL     OW22918   1.435   2.294   9.287 -0.5038  0.3529  0.2174
 3820SOL    HW122919   1.485   2.360   9.335 -1.1843  0.9449  0.0956
 3820SOL    HW222920   1.497   2.222   9.305  0.2507  1.0209  0.2922
 3821SOL     OW22921   4.603   1.741   5.697 -0.1550  0.0030  0.2460
 3821SOL    HW122922   4.673   1.680   5.721  0.5237  1.2545  1.3936
 3821SOL    HW222923   4.604   1.803   5.770  0.2135  1.4546 -1.0010
 3822SOL     OW22924   4.610   0.308   3.115  0.1717  0.0700 -0.5695
 3822SOL    HW122925   4.614   0.377   3.049  1.4817  0.6450  0.0979
 3822SOL    HW222926   4.650   0.233   3.071  1.3271 -0.3310  1.1328
 3823SOL     OW22927   1.786   4.289   6.670 -0.6702  0.7798 -0.4800
 3823SOL    HW122928   1.822   4.281   6.582  1.9106  2.4169  0.4354
 3823SOL    HW222929   1.786   4.384   6.670  2.7161  0.7593  0.6939
 3824SOL     OW22930   1.877   4.339  14.139  0.1363  1.1845  0.2857
 3824SOL    HW122931   1.873   4.433  14.121 -0.5491  0.9050 -1.0149
 3824SOL    HW222932   1.800   4.317  14.086  0.5116 -0.4450  0.3967
 3825SOL     OW22933   4.710   3.994   6.563 -0.2164  0.1062 -0.2410
 3825SOL    HW122934   0.072   3.969   6.527  0.4317  0.0670  1.3604
 3825SOL    HW222935   0.007   4.077   6.606 -3.0777  0.3096  0.7079
 3826SOL     OW22936   2.315   1.242   1.086 -0.1664 -0.5808  0.6497
 3826SOL    HW122937   2.284   1.194   1.164 -0.5374 -1.0828  0.1932
 3826SOL    HW222938   2.280   1.329   1.109 -0.4692 -0.7816  0.9512
 3827SOL     OW22939   0.084   1.094   2.384  0.7252  0.0031 -0.1050
 3827SOL    HW122940   0.117   1.114   2.472 -0.3604  1.1860  0.0322
 3827SOL    HW222941   0.149   1.026   2.365 -0.8223 -2.0658  1.9204
 3828SOL     OW22942   2.830   2.756   2.056 -0.0720  0.0644  0.0611
 3828SOL    HW122943   2.832   2.709   1.972  0.6945  2.0602 -1.0461
 3828SOL    HW222944   2.911   2.807   2.062  0.4831 -0.7632 -0.4434
 3829SOL     OW22945   3.689   0.460   3.640 -0.3242 -0.1414  0.1179
 3829SOL    HW122946   3.742   0.399   3.590  0.1207 -0.6072  1.1630
 3829SOL    HW222947   3.750   0.534   3.635 -0.1202 -0.2907  0.4208
 3830SOL     OW22948   1.391   4.378   4.079  0.0379  0.0493  0.3422
 3830SOL    HW122949   1.354   4.291   4.062 -0.0013 -0.0353  0.8790
 3830SOL    HW222950   1.377   4.376   4.173 -1.0175  0.3233  0.1924
 3831SOL     OW22951   3.498   0.436   8.736  0.0497 -0.4841 -0.2379
 3831SOL    HW122952   3.471   0.503   8.673  2.3220  1.3246  0.7256
 3831SOL    HW222953   3.444   0.443   8.814 -0.9812  1.3261 -1.1106
 3832SOL     OW22954   1.318   3.487   3.493 -0.0512 -0.0935  0.6917
 3832SOL    HW122955   1.240   3.512   3.442  1.4501  3.0479 -0.1114
 3832SOL    HW222956   1.355   3.569   3.525 -0.0780 -0.1142  0.7759
 3833SOL     OW22957   1.429   4.305   6.068 -0.4295 -0.1026  0.0235
 3833SOL    HW122958   1.423   4.275   5.977  0.9110 -0.2566 -0.0144
 3833SOL    HW222959   1.433   4.399   6.053 -0.8542 -0.0731  0.1034
 3834SOL     OW22960   2.285   1.613  13.660 -0.7073  0.1739 -0.2440
 3834SOL    HW122961   2.245   1.696  13.685  0.5392  0.2508  1.5399
 3834SOL    HW222962   2.325   1.602  13.747  0.4561  0.6806 -0.7152
 3835SOL     OW22963   1.057   0.044   2.997 -0.1160  0.3012  0.3723
 3835SOL    HW122964   1.115   0.120   2.988  0.0799  0.2755  1.3908
 3835SOL    HW222965   1.115   4.700   2.962  0.1648 -0.1149  1.6435
 3836SOL     OW22966   3.556   4.266   2.601  0.1996 -0.3756  0.0797
 3836SOL    HW122967   3.637   4.226   2.568  0.3544  0.9792 -1.1686
 3836SOL    HW222968   3.601   4.335   2.651 -1.2329 -0.6340  1.7124
 3837SOL     OW22969   2.881   3.800   6.133  0.4268  0.0267  0.1736
 3837SOL    HW122970   2.860   3.758   6.216 -1.0738  1.2450  0.4144
 3837SOL    HW222971   2.886   3.727   6.071  0.1401  0.5775 -0.5053
 3838SOL     OW22972   0.096   4.370   9.036 -0.3976  0.1953 -0.1186
 3838SOL    HW122973   0.162   4.438   9.024 -2.2618  2.4706  2.4541
 3838SOL    HW222974   0.153   4.295   9.052  1.3533  1.5873  0.2576
 3839SOL     OW22975   1.072   0.459   8.139  0.6599 -0.0745  0.1281
 3839SOL    HW122976   1.109   0.441   8.053  0.7245  1.0253 -0.0833
 3839SOL    HW222977   1.009   0.522   8.105  0.8694 -0.5608 -1.1414
 3840SOL     OW22978   3.961   0.678   7.857  0.2381  0.2430  0.1759
 3840SOL    HW122979   4.048   0.709   7.832  0.7984  0.7196  2.8054
 3840SOL    HW222980   3.948   0.699   7.949 -1.5492 -1.5723  0.3470
 3841SOL     OW22981   1.894   2.401   3.655  0.1443  0.2960  0.1273
 3841SOL    HW122982   1.979   2.369   3.686  0.7058  0.5781 -1.1409
 3841SOL    HW222983   1.897   2.495   3.670 -0.7873  0.2816  0.3687
 3842SOL     OW22984   1.530   0.462   0.975 -0.0107  0.3153 -0.0478
 3842SOL    HW122985   1.486   0.396   1.028  1.4493 -0.4215  0.2397
 3842SOL    HW222986   1.458   0.525   0.966 -2.1553 -2.3715 -1.3794
 3843SOL     OW22987   1.052   2.761   3.330 -0.1036 -0.5146  0.1810
 3843SOL    HW122988   1.144   2.737   3.336 -0.0795 -0.7739 -1.1912
 3843SOL    HW222989   1.030   2.749   3.422 -0.8054 -0.9634 -0.0420
 3844SOL     OW22990   2.096   2.479  10.446 -0.1491  0.2257 -0.0884
 3844SOL    HW122991   2.017   2.435  10.478 -1.0306  0.9952 -1.2212
 3844SOL    HW222992   2.146   2.474  10.527  0.1759 -0.0067 -0.3031
 3845SOL     OW22993   3.761   2.538   6.013 -0.2424 -0.4051 -0.2361
 3845SOL    HW122994   3.779   2.509   5.923 -0.2792 -2.8315  0.5250
 3845SOL    HW222995   3.769   2.452   6.054  3.5351 -0.3509 -0.7999
 3846SOL     OW22996   2.587   0.204   8.236 -0.2941  0.3106  0.7694
 3846SOL    HW122997   2.574   0.234   8.326  0.9760 -2.1061  1.7434
 3846SOL    HW222998   2.518   0.138   8.242  0.3113 -0.5949 -2.0639
 3847SOL     OW22999   3.167   2.784   4.943 -0.3020 -0.3479  0.5281
 3847SOL    HW123000   3.246   2.749   4.902  0.4431  0.1399  1.5619
 3847SOL    HW223001   3.124   2.819   4.865 -0.0039 -1.0213  0.0606
 3848SOL     OW23002   0.729   2.608  12.965 -0.0564  0.1102 -0.0116
 3848SOL    HW123003   0.720   2.513  12.959 -2.0448  0.3316 -0.6241
 3848SOL    HW223004   0.806   2.619  12.909  1.2957 -3.1887  1.2020
 3849SOL     OW23005   0.939   2.182   8.795 -0.1151  0.6078 -0.3999
 3849SOL    HW123006   0.845   2.168   8.802  0.0077 -0.9752 -2.0343
 3849SOL    HW223007   0.969   2.225   8.875  0.2125 -4.4032  2.1658
 3850SOL     OW23008   3.497   1.296   1.287  0.3549 -0.2684 -0.0483
 3850SOL    HW123009   3.511   1.313   1.194 -0.1347  3.0556  0.4853
 3850SOL    HW223010   3.569   1.345   1.327  0.4329 -0.1434 -0.3401
 3851SOL     OW23011   3.472   4.662   9.980 -0.1814  0.4100  0.1534
 3851SOL    HW123012   3.414   4.608  10.033  0.8170 -0.6366  0.1747
 3851SOL    HW223013   3.454   0.026  10.016  1.6499  0.8743 -0.0596
 3852SOL     OW23014   1.700   4.488   4.751  0.3135 -0.5208 -0.6656
 3852SOL    HW123015   1.771   4.437   4.790  0.7094 -0.0796 -0.8110
 3852SOL    HW223016   1.744   4.533   4.679  0.1163 -1.7454 -1.5576
 3853SOL     OW23017   4.074   4.230  14.155 -0.6253  0.3986 -0.8876
 3853SOL    HW123018   4.000   4.253  14.099 -1.3830  2.7422  1.1341
 3853SOL    HW223019   4.099   4.318  14.181  0.2214 -0.6568  1.8461
 3854SOL     OW23020   1.787   2.904   2.531 -0.3743 -0.1080  0.0739
 3854SOL    HW123021   1.876   2.941   2.530 -0.0571 -0.8671 -0.7798
 3854SOL    HW223022   1.810   2.833   2.591 -0.9542 -0.0690  0.3319
 3855SOL     OW23023   3.896   1.906   3.489 -0.3946 -0.3295 -0.2350
 3855SOL    HW123024   3.901   1.867   3.402  2.8233 -1.2263  0.3925
 3855SOL    HW223025   3.812   1.953   3.478 -1.6631 -2.3700  0.8602
 3856SOL     OW23026   2.874   0.320   6.302 -0.6851 -0.1167 -0.2476
 3856SOL    HW123027   2.825   0.376   6.362  0.1040  2.8807 -2.3587
 3856SOL    HW223028   2.938   0.288   6.365  0.5449  1.1684 -0.8421
 3857SOL     OW23029   4.138   4.524  11.458 -0.1687  0.1757 -0.3011
 3857SOL    HW123030   4.195   4.551  11.386  1.7080  0.4359  1.2875
 3857SOL    HW223031   4.195   4.472  11.515  0.8454 -0.3178 -1.7490
 3858SOL     OW23032   2.695   3.164   3.572 -0.0321  0.1221 -0.0093
 3858SOL    HW123033   2.750   3.092   3.604 -1.5516 -0.7303  0.6463
 3858SOL    HW223034   2.696   3.164   3.476 -2.3277 -3.0330 -0.0397
 3859SOL     OW23035   2.836   0.331   4.235  0.5723 -0.3756  0.0342
 3859SOL    HW123036   2.757   0.386   4.234 -0.4000 -1.7598  0.8607
 3859SOL    HW223037   2.791   0.255   4.199 -0.6978 -0.4768  1.8049
 3860SOL     OW23038   4.492   2.679   2.825 -0.3731  0.0035  0.6220
 3860SOL    HW123039   4.471   2.599   2.777  0.2674  1.5012 -2.1303
 3860SOL    HW223040   4.416   2.734   2.808 -0.4298 -0.5451 -0.8879
 3861SOL     OW23041   3.094   3.238  13.295 -0.3132  0.2950  0.1679
 3861SOL    HW123042   3.117   3.322  13.336  0.4015 -0.1939  0.7753
 3861SOL    HW223043   3.154   3.186  13.348 -0.0465  0.8237  0.3839
 3862SOL     OW23044   1.365   1.397  10.195  0.4478 -0.2037 -0.2926
 3862SOL    HW123045   1.365   1.431  10.284  0.2292 -0.1065 -0.3294
 3862SOL    HW223046   1.325   1.312  10.209 -0.3061  0.3020  0.6418
 3863SOL     OW23047   4.244   1.229   2.938 -0.1986 -0.1924 -0.2303
 3863SOL    HW123048   4.315   1.207   2.998  0.5570 -0.5679 -1.2584
 3863SOL    HW223049   4.304   1.268   2.874  0.6980  0.5838  1.0791
 3864SOL     OW23050   1.346   2.495   6.952 -0.1593 -0.0806  0.2059
 3864SOL    HW123051   1.345   2.429   6.882 -1.2063  0.5065 -0.3310
 3864SOL    HW223052   1.419   2.550   6.924 -0.5756 -0.6744 -2.0648
 3865SOL     OW23053   1.085   2.539   3.645 -0.3296  0.1715 -0.1224
 3865SOL    HW123054   1.009   2.586   3.613 -1.0983 -1.4597 -0.7179
 3865SOL    HW223055   1.100   2.490   3.564  1.1131  0.0186  0.2391
 3866SOL     OW23056   3.705   3.800   3.142 -0.1371 -0.3127  0.4578
 3866SOL    HW123057   3.706   3.718   3.191  1.3841 -0.5290  0.0634
 3866SOL    HW223058   3.611   3.814   3.133 -0.0929 -0.0946  0.3555
 3867SOL     OW23059   0.941   0.377   5.301 -0.0231  0.2248  0.1250
 3867SOL    HW123060   0.889   0.451   5.331 -3.2631 -1.6999 -0.8406
 3867SOL    HW223061   0.995   0.389   5.379 -0.8588 -0.4121  0.7938
 3868SOL     OW23062   0.869   4.615   7.856  0.0078  0.1250 -0.3438
 3868SOL    HW123063   0.775   4.596   7.861  0.1678 -0.4447  0.4268
 3868SOL    HW223064   0.869   4.710   7.842 -1.3629  0.3538  1.1985
 3869SOL     OW23065   1.119   4.017  11.150  0.6593 -0.0376  0.2900
 3869SOL    HW123066   1.135   4.110  11.133 -1.6963  0.1101 -1.1724
 3869SOL    HW223067   1.059   3.996  11.079  1.5036 -2.3617  0.2690
 3870SOL     OW23068   1.199   3.473   2.708 -0.2700  0.1370  0.0555
 3870SOL    HW123069   1.142   3.485   2.632  2.1143 -1.0871 -1.9399
 3870SOL    HW223070   1.150   3.514   2.779  0.9539 -2.4974  2.3958
 3871SOL     OW23071   3.089   1.712  15.993  0.3248  0.4863 -0.5176
 3871SOL    HW123072   3.174   1.708  16.037  0.2213  2.0103 -0.1642
 3871SOL    HW223073   3.094   1.628  15.948  1.6604  0.7247 -0.8081
 3872SOL     OW23074   0.793   1.738  13.642 -0.2449 -0.0335 -0.3621
 3872SOL    HW123075   0.709   1.707  13.677 -0.8068  1.0906 -0.7152
 3872SOL    HW223076   0.840   1.789  13.708 -1.7458 -0.2626  0.8902
 3873SOL     OW23077   3.781   0.404   2.215  0.3604  0.4524  0.0783
 3873SOL    HW123078   3.819   0.491   2.229  2.2301 -0.1562 -1.1812
 3873SOL    HW223079   3.818   0.360   2.292 -2.8015 -1.3620  0.5478
 3874SOL     OW23080   0.727   2.901   4.785  0.5487 -0.2318 -0.1511
 3874SOL    HW123081   0.701   2.809   4.779  2.0637 -0.5860 -1.5824
 3874SOL    HW223082   0.783   2.909   4.707 -0.4702 -0.7279 -0.9275
 3875SOL     OW23083   2.814   0.812   6.714 -0.6826 -0.8322 -0.1757
 3875SOL    HW123084   2.769   0.895   6.700  1.3479  0.2674 -0.1877
 3875SOL    HW223085   2.803   0.784   6.623 -0.1305  0.0380 -0.5041
 3876SOL     OW23086   4.634   0.348   2.435  0.1970 -0.7081 -0.4067
 3876SOL    HW123087   4.671   0.321   2.519  0.1708  0.5483  0.0189
 3876SOL    HW223088   4.596   0.270   2.394 -0.1419 -0.5417 -0.4087
 3877SOL     OW23089   3.951   0.204   2.991 -0.6220  0.2211  0.1009
 3877SOL    HW123090   3.942   0.238   3.080 -1.0154 -2.4910  1.0703
 3877SOL    HW223091   3.859   0.219   2.967 -0.9492 -0.6735  0.7978
 3878SOL     OW23092   3.622   2.410  14.026  0.4734  0.7996 -0.4500
 3878SOL    HW123093   3.639   2.317  14.042 -1.2174  0.4737 -0.6408
 3878SOL    HW223094   3.709   2.439  13.999  1.4391  1.1371  3.0007
 3879SOL     OW23095   4.230   2.900   6.677 -0.2373  0.1355  0.0200
 3879SOL    HW123096   4.153   2.951   6.704  0.1596  0.6337  0.1982
 3879SOL    HW223097   4.285   2.971   6.644 -1.6906 -0.1592 -3.0282
 3880SOL     OW23098   1.746   2.195   1.251  0.1438  0.6150  0.8642
 3880SOL    HW123099   1.724   2.275   1.298  2.9085  2.2008 -0.5427
 3880SOL    HW223100   1.826   2.167   1.296  1.4688  0.4880 -1.5403
 3881SOL     OW23101   2.938   1.794   1.306  1.0094 -0.0169 -0.2721
 3881SOL    HW123102   3.007   1.858   1.286  1.7024 -0.4308  0.7879
 3881SOL    HW223103   2.919   1.794   1.400 -0.9639  1.3701 -0.6872
 3882SOL     OW23104   3.457   4.302   3.924 -0.6271  0.0221  0.1217
 3882SOL    HW123105   3.467   4.340   3.837 -2.5864 -1.7005 -0.8627
 3882SOL    HW223106   3.526   4.351   3.969 -1.5128  1.1692  0.2368
 3883SOL     OW23107   4.538   3.937   8.080 -0.3106 -0.0331 -0.2697
 3883SOL    HW123108   4.570   3.925   8.170  0.6478 -0.7406 -0.6969
 3883SOL    HW223109   4.587   4.012   8.048  1.4231 -0.6705  0.8934
 3884SOL     OW23110   3.667   4.171   5.025  0.5310  0.5088 -0.6536
 3884SOL    HW123111   3.635   4.081   5.035 -1.3295  0.8680 -3.3095
 3884SOL    HW223112   3.687   4.190   5.117 -3.1520  2.0988 -0.1795
 3885SOL     OW23113   0.175   4.089   3.619  0.4011 -0.5616 -0.2672
 3885SOL    HW123114   0.120   4.081   3.541 -1.5583 -0.8534  1.1605
 3885SOL    HW223115   0.201   4.178   3.594  2.1974 -0.6297  1.3676
 3886SOL     OW23116   0.771   4.598   1.855 -0.2567 -0.1804 -1.0606
 3886SOL    HW123117   0.697   4.658   1.864  1.0838  1.5257 -1.4887
 3886SOL    HW223118   0.835   4.669   1.855 -1.1233  0.6099  1.8217
 3887SOL     OW23119   4.490   0.682   1.565  0.4424  0.4593 -0.3616
 3887SOL    HW123120   4.505   0.626   1.490 -0.6930  1.1679 -1.1106
 3887SOL    HW223121   4.574   0.727   1.578  0.6601 -0.3435  1.0673
 3888SOL     OW23122   1.250   0.603  10.293 -0.7285  0.6316 -0.0957
 3888SOL    HW123123   1.170   0.550  10.290 -0.9774  0.9320  1.1553
 3888SOL    HW223124   1.258   0.631  10.384  0.1325  0.2395 -0.0507
 3889SOL     OW23125   3.934   3.240   0.515  0.4101 -0.1256  0.3225
 3889SOL    HW123126   4.021   3.262   0.549  1.0830 -0.6655 -1.0716
 3889SOL    HW223127   3.942   3.145   0.507  3.2376  0.2757 -1.7627
 3890SOL     OW23128   1.787   4.456   2.106 -0.2042 -0.2901 -0.1339
 3890SOL    HW123129   1.788   4.545   2.141  0.7946 -0.5519  0.4889
 3890SOL    HW223130   1.760   4.418   2.190 -0.8908 -0.6954 -0.5323
 3891SOL     OW23131   4.154   1.914   2.895  0.1523  0.3293 -0.2520
 3891SOL    HW123132   4.185   1.905   2.985  0.4903  0.5403 -0.3495
 3891SOL    HW223133   4.061   1.913   2.918  0.2770  1.3468  0.2524
 3892SOL     OW23134   4.651   0.972   4.330  0.2477  0.2742  0.3495
 3892SOL    HW123135   4.649   1.063   4.298  0.5766  0.3447  0.5285
 3892SOL    HW223136   4.620   0.982   4.420 -1.7398 -0.9182 -0.2209
 3893SOL     OW23137   2.556   3.147   8.165 -1.1914 -0.5655 -0.1078
 3893SOL    HW123138   2.558   3.239   8.191 -0.7079 -0.5885 -0.0591
 3893SOL    HW223139   2.602   3.108   8.240 -1.8790  1.4273  1.3378
 3894SOL     OW23140   2.283   2.478   3.644  0.6698 -0.7891 -0.6653
 3894SOL    HW123141   2.277   2.533   3.723 -2.6702  1.8271 -2.7367
 3894SOL    HW223142   2.234   2.539   3.589 -0.1519  0.5978  1.6160
 3895SOL     OW23143   1.396   4.441   3.787  0.2851  0.6811  0.0277
 3895SOL    HW123144   1.488   4.463   3.802 -0.0021  2.4047 -0.6977
 3895SOL    HW223145   1.374   4.421   3.878  0.4999 -0.3535 -0.1404
 3896SOL     OW23146   2.524   0.154   7.106 -0.3391 -0.5791 -0.0542
 3896SOL    HW123147   2.431   0.175   7.108 -0.4386 -1.0681  0.5658
 3896SOL    HW223148   2.542   0.125   7.016  3.0673 -0.9851  0.7218
 3897SOL     OW23149   0.839   2.076  12.861  0.7379  0.4913  1.2474
 3897SOL    HW123150   0.871   2.118  12.781 -2.8392 -1.7377 -1.3058
 3897SOL    HW223151   0.887   1.995  12.878  0.5999  0.1962  0.1934
 3898SOL     OW23152   3.082   2.540  16.766 -0.1859  0.1145 -0.6226
 3898SOL    HW123153   3.136   2.618  16.754 -0.8120  0.5311 -0.6999
 3898SOL    HW223154   3.158   2.487  16.789 -0.1583  0.2838 -0.3119
 3899SOL     OW23155   0.568   0.570   3.061  0.3114 -0.2187 -0.1610
 3899SOL    HW123156   0.534   0.629   2.994 -1.3071 -1.4878 -0.4563
 3899SOL    HW223157   0.643   0.530   3.016  1.8445  0.2510  1.9253
 3900SOL     OW23158   3.137   3.948   9.803 -0.0562  0.4668 -0.7632
 3900SOL    HW123159   3.095   3.978   9.884 -0.0338  0.9515 -0.9286
 3900SOL    HW223160   3.147   3.854   9.817  0.3483  0.7708  0.9697
 3901SOL     OW23161   3.863   1.393   5.552  0.3136 -0.0498  0.3519
 3901SOL    HW123162   3.818   1.477   5.559  0.9685  0.4099 -1.0086
 3901SOL    HW223163   3.912   1.406   5.472  0.5459  2.0535  0.8291
 3902SOL     OW23164   0.528   0.822   9.328 -0.1172 -0.0159 -0.6123
 3902SOL    HW123165   0.466   0.841   9.399  0.6113  0.1188 -0.0125
 3902SOL    HW223166   0.609   0.849   9.373 -1.0015  2.1223 -0.3151
 3903SOL     OW23167   4.088   4.100  17.309  0.1621 -0.1499  0.2399
 3903SOL    HW123168   4.050   4.177  17.350 -0.8149  0.4538 -1.8123
 3903SOL    HW223169   4.155   4.063  17.367  0.3377  0.1773  0.2440
 3904SOL     OW23170   0.620   0.989  16.437  0.6856 -0.3220  0.0630
 3904SOL    HW123171   0.604   1.022  16.526 -1.1268 -0.0292 -0.3874
 3904SOL    HW223172   0.570   1.050  16.383  1.7807  1.3683  0.9407
 3905SOL     OW23173   2.466   0.999  13.113 -0.4598  0.7920  0.3125
 3905SOL    HW123174   2.464   0.977  13.020 -0.1642 -0.1547  0.5333
 3905SOL    HW223175   2.553   1.034  13.132 -0.1677  0.0584  0.3325
 3906SOL     OW23176   4.139   0.350   8.773 -0.5507 -0.1151  0.1154
 3906SOL    HW123177   4.088   0.385   8.846 -0.1387 -0.0517  0.3747
 3906SOL    HW223178   4.222   0.386   8.805 -0.5472 -0.1140  0.1050
 3907SOL     OW23179   2.906   3.777   4.914  0.7438  0.0144 -0.4824
 3907SOL    HW123180   2.825   3.819   4.886  1.0047 -0.3338 -1.7836
 3907SOL    HW223181   2.885   3.683   4.912  3.0905 -0.5327  0.4811
 3908SOL     OW23182   1.867   4.108   1.897  0.4275 -0.1432 -0.1450
 3908SOL    HW123183   1.804   4.117   1.968 -0.1149  0.3233 -0.6950
 3908SOL    HW223184   1.934   4.057   1.942  1.5538  2.0832  0.7137
 3909SOL     OW23185   0.708   2.370   7.718 -0.2670 -0.3999  0.2700
 3909SOL    HW123186   0.689   2.281   7.691 -0.8155 -0.6592  1.4697
 3909SOL    HW223187   0.763   2.402   7.647  0.3113 -0.6215  0.6179
 3910SOL     OW23188   3.218   1.486   1.629  0.0465 -0.0515 -0.5557
 3910SOL    HW123189   3.123   1.486   1.644  0.3246  1.5661  1.2347
 3910SOL    HW223190   3.207   1.505   1.535 -1.9344  0.2642 -0.2599
 3911SOL     OW23191   0.018   0.604   9.411  0.3691  0.2111 -0.1030
 3911SOL    HW123192   4.706   0.534   9.465 -0.8199  0.1988 -0.8793
 3911SOL    HW223193   0.012   0.560   9.326  2.0751 -1.7453  0.7988
 3912SOL     OW23194   4.714   2.584  14.361 -0.2998 -0.0177 -0.0736
 3912SOL    HW123195   4.619   2.599  14.352 -0.3036  0.3612  0.6113
 3912SOL    HW223196   0.021   2.667  14.397  0.9626 -0.0832 -0.9728
 3913SOL     OW23197   1.690   1.383   4.450  0.4842  0.6010  0.0383
 3913SOL    HW123198   1.633   1.308   4.433  0.5255  0.5648  0.0605
 3913SOL    HW223199   1.766   1.325   4.462  1.6763  2.3572  0.9354
 3914SOL     OW23200   0.641   2.888   2.518  0.0602 -0.4388 -0.2361
 3914SOL    HW123201   0.613   2.808   2.563  0.6977 -0.6949 -0.3033
 3914SOL    HW223202   0.664   2.854   2.431  0.1121 -0.7750 -0.0937
 3915SOL     OW23203   2.714   0.489  13.817  0.5519  0.6911  0.4377
 3915SOL    HW123204   2.796   0.442  13.836  0.0641 -0.9695 -1.5292
 3915SOL    HW223205   2.656   0.421  13.782  0.7247  0.2798  0.9487
 3916SOL     OW23206   2.095   2.329   3.382 -0.0836 -0.1066  0.0406
 3916SOL    HW123207   2.105   2.420   3.353  4.3671  0.1265  2.3071
 3916SOL    HW223208   2.181   2.292   3.362  1.0981  1.9708  1.2372
 3917SOL     OW23209   2.415   1.731  17.647 -0.0729 -0.7740 -0.0290
 3917SOL    HW123210   2.366   1.812  17.660 -0.1377 -0.9134  0.6043
 3917SOL    HW223211   2.493   1.746   0.007 -0.0351 -0.3451 -0.2006
 3918SOL     OW23212   2.784   1.558   6.333 -0.1991  0.1694 -0.3594
 3918SOL    HW123213   2.812   1.590   6.419  1.6657 -1.2750 -0.4517
 3918SOL    HW223214   2.791   1.464   6.345 -1.5247  0.4167  2.4238
 3919SOL     OW23215   4.492   1.100   3.444 -0.1315 -0.0728 -0.5018
 3919SOL    HW123216   4.525   1.183   3.410 -0.3406  0.4341  0.5473
 3919SOL    HW223217   4.571   1.050   3.463  1.2710  1.9831 -0.9719
 3920SOL     OW23218   0.943   1.623   6.957  0.7342  0.2373 -0.1287
 3920SOL    HW123219   0.912   1.533   6.941 -0.9639  0.5820  1.2064
 3920SOL    HW223220   0.931   1.658   6.869  0.1595 -0.0389 -0.1605
 3921SOL     OW23221   3.918   4.647   4.872 -0.8287  0.2559 -0.4446
 3921SOL    HW123222   3.909   4.628   4.965  0.1416 -1.0610 -0.6183
 3921SOL    HW223223   3.843   4.601   4.835 -3.7698  0.8477  4.7674
 3922SOL     OW23224   1.365   3.513   6.468  0.8459  0.4149  0.7579
 3922SOL    HW123225   1.382   3.574   6.397  0.8401  1.4772  1.6652
 3922SOL    HW223226   1.418   3.554   6.537  0.6564  0.9488  0.5845
 3923SOL     OW23227   2.457   0.896   3.348 -0.3238  0.1814  0.6238
 3923SOL    HW123228   2.363   0.907   3.364 -0.4210 -2.2208  1.6463
 3923SOL    HW223229   2.505   0.878   3.429 -3.0303 -2.7607  1.6027
 3924SOL     OW23230   3.802   3.633   7.973 -1.1120  0.5870 -0.1339
 3924SOL    HW123231   3.784   3.681   8.054  1.8198 -1.6496  1.8400
 3924SOL    HW223232   3.726   3.652   7.917 -0.7593  1.4183 -0.3316
 3925SOL     OW23233   0.330   4.385   0.539 -0.0748 -0.1195  0.5632
 3925SOL    HW123234   0.307   4.381   0.446 -1.0179  0.7690  0.7561
 3925SOL    HW223235   0.398   4.450   0.517  1.1688 -1.3078  0.9316
 3926SOL     OW23236   3.386   3.756   9.714 -0.2309 -0.2974 -0.2086
 3926SOL    HW123237   3.459   3.772   9.774  0.3939  1.2681 -1.4002
 3926SOL    HW223238   3.328   3.727   9.784 -0.3228 -0.1034 -0.2046
 3927SOL     OW23239   3.311   3.417   5.024 -0.7143 -0.1029 -0.2749
 3927SOL    HW123240   3.348   3.491   4.976  0.8353 -0.9584 -0.3760
 3927SOL    HW223241   3.256   3.377   4.956 -1.5118  0.2738  0.1519
 3928SOL     OW23242   0.171   0.721   8.171 -0.0230  0.5402 -0.3999
 3928SOL    HW123243   0.114   0.647   8.150 -0.1835  0.9061 -1.2647
 3928SOL    HW223244   0.224   0.738   8.093  0.5804 -0.1834 -0.1422
 3929SOL     OW23245   0.360   1.908   4.967 -0.1539  0.0563 -0.0250
 3929SOL    HW123246   0.397   1.989   4.933 -2.6520  0.9384 -0.6155
 3929SOL    HW223247   0.360   1.857   4.886  1.1417  0.6060 -0.3864
 3930SOL     OW23248   4.296   4.057  15.030  1.3304  0.3066  0.4236
 3930SOL    HW123249   4.331   4.146  15.023  0.8894  0.3185 -1.6750
 3930SOL    HW223250   4.280   4.026  14.941 -2.0621 -0.9584  1.4645
 3931SOL     OW23251   1.327   4.330   6.940  0.1024 -0.8874  0.3866
 3931SOL    HW123252   1.416   4.356   6.913 -0.5210  0.6482 -0.1737
 3931SOL    HW223253   1.293   4.419   6.950  0.4081 -0.5171 -1.9047
 3932SOL     OW23254   4.700   3.330   2.983 -0.1905 -0.5161 -0.1326
 3932SOL    HW123255   0.051   3.355   2.928  1.1642  0.7943  2.3270
 3932SOL    HW223256   4.634   3.291   2.925 -0.4941 -1.0280  0.5576
 3933SOL     OW23257   4.722   2.705   9.904 -0.6303 -0.3489 -0.1494
 3933SOL    HW123258   0.018   2.755   9.824 -0.4810 -1.0660 -0.5656
 3933SOL    HW223259   0.081   2.658   9.919 -0.9158 -0.5316  0.8303
 3934SOL     OW23260   2.821   2.413   2.654 -0.2966  0.3088 -0.3971
 3934SOL    HW123261   2.884   2.481   2.630 -2.3100  2.7276  1.1121
 3934SOL    HW223262   2.764   2.417   2.577 -1.3770 -0.9769  0.3230
 3935SOL     OW23263   4.674   2.079  11.494  0.1016 -0.2587 -0.0245
 3935SOL    HW123264   0.039   2.116  11.492  0.2600 -0.5342  1.7553
 3935SOL    HW223265   4.695   1.992  11.459 -0.0371 -0.7349  1.0681
 3936SOL     OW23266   0.385   1.556   8.320  0.3428  0.1841  0.0290
 3936SOL    HW123267   0.388   1.461   8.327  0.1155  0.2209  0.5727
 3936SOL    HW223268   0.466   1.577   8.365  0.8662 -2.2898  0.2062
 3937SOL     OW23269   2.298   0.035   4.522  0.4967 -0.9004 -0.0016
 3937SOL    HW123270   2.330   0.118   4.489 -1.1635  0.1146  0.9587
 3937SOL    HW223271   2.324   0.048   4.613  0.6381  0.7814 -0.2877
 3938SOL     OW23272   3.032   2.087   6.540  0.3487 -0.3450  0.7490
 3938SOL    HW123273   2.961   2.074   6.603  1.6776  2.6982  2.9377
 3938SOL    HW223274   3.023   1.999   6.505 -0.0992  0.8060 -1.9822
 3939SOL     OW23275   1.895   3.596  13.381 -0.4079 -0.1451  0.2230
 3939SOL    HW123276   1.932   3.636  13.302  1.2938 -2.3555 -0.0805
 3939SOL    HW223277   1.969   3.557  13.428 -0.7769 -1.4003 -0.2435
 3940SOL     OW23278   3.000   2.434   6.741 -0.1327 -0.0333  0.2702
 3940SOL    HW123279   2.906   2.429   6.757 -0.1269 -2.2947 -0.4405
 3940SOL    HW223280   3.014   2.488   6.819 -0.8391  0.3930  0.0951
 3941SOL     OW23281   3.877   1.983  11.660 -0.3363 -0.0996 -0.2324
 3941SOL    HW123282   3.959   1.935  11.652 -1.5875 -2.1624 -0.8307
 3941SOL    HW223283   3.837   1.958  11.743 -3.0284  0.7542 -1.2756
 3942SOL     OW23284   1.264   1.921   4.388  0.2512  0.3553  0.0063
 3942SOL    HW123285   1.303   1.869   4.318 -0.2033 -0.7447  0.5776
 3942SOL    HW223286   1.229   1.999   4.346 -2.4340  0.1632  1.9044
 3943SOL     OW23287   0.211   3.119   4.655 -0.3260 -0.1386 -0.4558
 3943SOL    HW123288   0.224   3.208   4.623 -0.4320  0.2671  0.6186
 3943SOL    HW223289   0.220   3.135   4.749  0.1478  0.7630 -0.6617
 3944SOL     OW23290   0.399   4.147  15.312  0.6560  0.5514 -0.4525
 3944SOL    HW123291   0.341   4.208  15.356  2.0150  1.5273 -0.0009
 3944SOL    HW223292   0.463   4.212  15.283  2.9854 -1.1733  0.7410
 3945SOL     OW23293   2.470   3.607   8.479 -0.2948  0.4354 -0.2093
 3945SOL    HW123294   2.399   3.581   8.420 -1.2377 -0.9633  1.5183
 3945SOL    HW223295   2.454   3.701   8.486  1.3876  0.7713 -0.9863
 3946SOL     OW23296   1.828   1.051  14.820 -0.0939  0.3293 -0.2619
 3946SOL    HW123297   1.892   1.027  14.753  0.7832  0.4791  0.5296
 3946SOL    HW223298   1.821   0.964  14.861 -0.1096 -0.2396 -1.4871
 3947SOL     OW23299   4.474   2.714   2.451 -0.3155 -0.1213 -0.4010
 3947SOL    HW123300   4.396   2.659   2.447 -0.4123 -0.0544  0.7106
 3947SOL    HW223301   4.490   2.718   2.357 -1.1924  3.1543 -0.3942
 3948SOL     OW23302   2.367   1.690   8.437  0.2089 -0.4003 -0.6059
 3948SOL    HW123303   2.360   1.677   8.342 -0.4818  2.8807 -0.9871
 3948SOL    HW223304   2.327   1.776   8.447 -1.7128 -1.4612  0.7726
 3949SOL     OW23305   4.577   2.139   6.782  0.5318  0.1671 -0.6887
 3949SOL    HW123306   4.488   2.112   6.759  0.5073 -0.4204  0.1303
 3949SOL    HW223307   4.594   2.158   6.689  3.6335  1.9392  0.2241
 3950SOL     OW23308   3.948   0.028   2.305 -0.0223  0.5638 -0.2809
 3950SOL    HW123309   3.946   0.111   2.353  0.4211 -1.6161  3.5525
 3950SOL    HW223310   3.897   4.696   2.364 -0.8485  1.7374  0.1200
 3951SOL     OW23311   3.100   1.169  14.419  0.0209  0.1947  0.0193
 3951SOL    HW123312   3.140   1.254  14.401  2.5021 -1.3377 -1.6005
 3951SOL    HW223313   3.133   1.115  14.347  0.4386  0.1853  0.2145
 3952SOL     OW23314   1.521   0.320   4.323  0.3294 -0.5756 -0.2375
 3952SOL    HW123315   1.580   0.395   4.334  1.8309 -1.8466  0.2969
 3952SOL    HW223316   1.576   0.256   4.368  0.1778 -0.3578  0.2586
 3953SOL     OW23317   3.629   2.756  13.863 -0.2128 -0.1448 -0.0449
 3953SOL    HW123318   3.644   2.668  13.829 -0.1024 -1.2264  2.8239
 3953SOL    HW223319   3.611   2.811  13.786  0.4904 -0.4074 -0.3929
 3954SOL     OW23320   3.177   1.980   6.225  0.3937 -0.7079 -0.0039
 3954SOL    HW123321   3.245   1.991   6.293 -0.0804 -1.1047  0.5259
 3954SOL    HW223322   3.129   2.063   6.226 -1.0876 -1.5826  0.1131
 3955SOL     OW23323   1.671   3.697   4.126  0.4663  0.3698 -0.7619
 3955SOL    HW123324   1.713   3.681   4.211 -2.8959  0.5544  0.9735
 3955SOL    HW223325   1.622   3.615   4.113  1.4229  0.0516 -2.3678
 3956SOL     OW23326   3.673   3.650   6.201  0.0183 -0.3030  0.4045
 3956SOL    HW123327   3.707   3.629   6.288  1.3148  0.8925  0.1832
 3956SOL    HW223328   3.627   3.567   6.189 -1.5598  0.7139 -0.5854
 3957SOL     OW23329   3.309   1.538   2.975 -0.5091 -0.4892 -0.3309
 3957SOL    HW123330   3.356   1.492   2.905  0.8186 -0.7360  0.7247
 3957SOL    HW223331   3.369   1.543   3.049 -0.3964  0.1169 -0.4677
 3958SOL     OW23332   1.858   2.564  11.193  0.2469 -0.1946 -0.0227
 3958SOL    HW123333   1.935   2.596  11.240 -1.0809 -0.0616  2.0889
 3958SOL    HW223334   1.903   2.531  11.116  1.9208  0.3051  0.7278
 3959SOL     OW23335   3.426   0.735   2.729 -0.3929 -0.0985  0.0928
 3959SOL    HW123336   3.376   0.758   2.651  0.7369  2.2964  0.0554
 3959SOL    HW223337   3.361   0.679   2.770 -1.0968  1.9714  1.8303
 3960SOL     OW23338   0.538   4.589   0.567 -0.1613 -0.0178 -0.0935
 3960SOL    HW123339   0.567   4.679   0.552  0.7568  0.0832  2.2925
 3960SOL    HW223340   0.602   4.565   0.634  0.2875 -1.2147 -0.9689
 3961SOL     OW23341   3.478   2.706  17.243  0.0674  0.2793  0.5712
 3961SOL    HW123342   3.515   2.703  17.155 -2.0810  0.7261 -0.3460
 3961SOL    HW223343   3.394   2.663  17.228  0.0092 -0.3353  2.6331
 3962SOL     OW23344   3.730   0.668   7.328  0.0411  0.1796  0.0855
 3962SOL    HW123345   3.724   0.763   7.327 -0.3326  0.1474 -1.4310
 3962SOL    HW223346   3.668   0.648   7.257 -1.0311  2.6510  0.3543
 3963SOL     OW23347   4.427   3.263   8.102 -0.3115 -0.0527  0.2983
 3963SOL    HW123348   4.390   3.261   8.190 -1.1125 -0.8776 -0.0472
 3963SOL    HW223349   4.520   3.254   8.125  0.1153  0.5888 -1.1450
 3964SOL     OW23350   2.721   3.907   8.269 -0.1495  0.4077 -0.2214
 3964SOL    HW123351   2.679   3.989   8.295  1.4579  1.1953 -0.1459
 3964SOL    HW223352   2.721   3.919   8.174 -3.3116  1.4838 -0.0687
 3965SOL     OW23353   2.848   2.416   1.666  0.2775  0.6738  0.3058
 3965SOL    HW123354   2.827   2.509   1.662  0.0052  0.6407  1.1222
 3965SOL    HW223355   2.838   2.389   1.575  2.0279  3.0831 -0.6061
 3966SOL     OW23356   0.796   2.022  13.468 -0.3074  0.2489 -0.1780
 3966SOL    HW123357   0.713   2.066  13.450 -1.1148 -1.1962 -0.0249
 3966SOL    HW223358   0.763   1.936  13.496  2.9956 -1.0499 -0.3484
 3967SOL     OW23359   0.451   3.208   7.183  0.0347 -0.4569  0.0347
 3967SOL    HW123360   0.362   3.174   7.192  0.1413 -1.2301 -1.7351
 3967SOL    HW223361   0.428   3.297   7.209  1.2838 -0.6992  1.9592
 3968SOL     OW23362   4.692   2.222  17.186  0.1020 -0.2082 -0.2929
 3968SOL    HW123363   4.616   2.164  17.183 -0.3510  0.4850 -2.3326
 3968SOL    HW223364   0.046   2.165  17.193 -0.3957 -0.9520 -0.9926
 3969SOL     OW23365   0.997   2.954   3.725 -0.5077 -0.0347 -0.3384
 3969SOL    HW123366   1.016   3.044   3.751 -0.1933  0.2045 -1.3989
 3969SOL    HW223367   0.903   2.948   3.743 -0.9324  0.0164 -2.4330
 3970SOL     OW23368   3.598   4.062   1.884  0.2182 -0.0510 -0.0313
 3970SOL    HW123369   3.636   4.144   1.855 -1.4176 -0.5049 -3.3853
 3970SOL    HW223370   3.625   4.056   1.976  0.6633 -1.8045 -0.2787
 3971SOL     OW23371   0.110   1.070   7.564 -0.3034 -0.2882  0.2808
 3971SOL    HW123372   0.063   1.079   7.648 -0.8608 -1.1746  0.0636
 3971SOL    HW223373   0.087   0.980   7.544 -1.5423 -0.0285  0.4654
 3972SOL     OW23374   1.026   0.309  17.423 -0.0663  0.1960 -0.0179
 3972SOL    HW123375   1.084   0.341  17.354 -0.1022  0.9637  0.3057
 3972SOL    HW223376   1.044   0.215  17.417 -1.2578 -0.1210  1.3658
 3973SOL     OW23377   1.413   3.597   4.588 -0.3846 -0.2476 -0.0190
 3973SOL    HW123378   1.435   3.690   4.602 -0.0373 -0.2025 -0.8585
 3973SOL    HW223379   1.318   3.601   4.580 -0.4548 -0.4276  0.7061
 3974SOL     OW23380   3.927   3.194   6.120  0.2641  0.0711 -0.1192
 3974SOL    HW123381   3.934   3.217   6.028  1.0063  0.6841  0.0924
 3974SOL    HW223382   3.941   3.100   6.118  0.1361  0.0621 -0.6286
 3975SOL     OW23383   2.265   2.069   8.527  0.3108  0.1489  0.0919
 3975SOL    HW123384   2.313   2.032   8.601 -0.3877  0.0415  0.4950
 3975SOL    HW223385   2.337   2.098   8.472  0.6513 -2.0543 -0.6043
 3976SOL     OW23386   0.298   0.809   5.627  0.3108  0.1319  0.1167
 3976SOL    HW123387   0.283   0.804   5.532 -0.8514  0.0914  0.2994
 3976SOL    HW223388   0.390   0.783   5.633 -0.3265 -1.2979  3.3284
 3977SOL     OW23389   4.591   2.327   8.614  0.0552 -0.1949  0.3480
 3977SOL    HW123390   4.549   2.357   8.533  1.6061  0.2341 -0.2785
 3977SOL    HW223391   4.641   2.407   8.630 -2.0913  1.4311 -1.0154
 3978SOL     OW23392   2.043   3.192   0.736  0.0822  0.2089 -0.6633
 3978SOL    HW123393   1.951   3.191   0.711 -0.4759 -0.1974  1.3979
 3978SOL    HW223394   2.042   3.141   0.817  2.1424 -0.1237 -0.8364
 3979SOL     OW23395   0.269   4.345   6.091 -0.2560 -0.9372  0.1614
 3979SOL    HW123396   0.290   4.257   6.122  0.9252 -0.4122  0.8813
 3979SOL    HW223397   0.192   4.334   6.036  0.4478  0.8208 -1.1773
 3980SOL     OW23398   3.096   0.634   4.786 -0.1315 -0.1192 -0.0864
 3980SOL    HW123399   3.178   0.617   4.739  0.6528  0.2063  1.1583
 3980SOL    HW223400   3.025   0.574   4.763 -1.7782  1.3159  1.2147
 3981SOL     OW23401   4.500   4.582  13.824 -0.2182 -0.1798 -1.1196
 3981SOL    HW123402   4.496   4.633  13.905 -0.8705  1.2449 -2.0454
 3981SOL    HW223403   4.515   4.655  13.764  2.6480  2.3959  2.6617
 3982SOL     OW23404   4.335   0.219   8.984  0.5191  0.1388  0.1302
 3982SOL    HW123405   4.388   0.273   8.925 -0.8024 -0.6445 -1.7816
 3982SOL    HW223406   4.270   0.280   9.019  1.7832  0.7131  1.4679
 3983SOL     OW23407   4.662   3.437   7.546 -0.5531 -0.0183 -0.5610
 3983SOL    HW123408   4.672   3.483   7.463  0.4131  1.0551  0.1492
 3983SOL    HW223409   4.595   3.498   7.576 -1.1418  0.3038 -2.5383
 3984SOL     OW23410   0.716   2.401   2.737 -0.2989 -0.4934  0.7009
 3984SOL    HW123411   0.706   2.456   2.660  0.3050 -2.0575 -0.4766
 3984SOL    HW223412   0.810   2.415   2.748 -0.1683  0.0446 -1.1758
 3985SOL     OW23413   0.879   1.983   4.629 -0.3876  0.3537 -0.6650
 3985SOL    HW123414   0.950   1.919   4.635 -1.0484 -0.6401 -3.6931
 3985SOL    HW223415   0.911   2.049   4.567  0.4114  1.1841  0.6278
 3986SOL     OW23416   1.343   0.264   1.965  0.1883  0.5926  0.2568
 3986SOL    HW123417   1.348   0.292   1.873  0.1740 -1.3200 -0.3286
 3986SOL    HW223418   1.269   0.317   1.994 -1.5130 -1.5476 -0.1333
 3987SOL     OW23419   1.548   0.849  13.761  0.1381  0.0554 -0.1279
 3987SOL    HW123420   1.526   0.765  13.722 -0.8187  1.2875 -2.2171
 3987SOL    HW223421   1.545   0.820  13.852 -1.4936  0.5982 -0.0057
 3988SOL     OW23422   3.948   1.473   3.298 -0.1744 -0.1105 -0.0772
 3988SOL    HW123423   3.892   1.402   3.330 -2.7059  2.4248  1.1093
 3988SOL    HW223424   4.015   1.414   3.262 -1.5266 -2.3429  1.0763
 3989SOL     OW23425   2.779   3.500   2.955 -0.4051  0.0410  0.0995
 3989SOL    HW123426   2.871   3.515   2.932 -0.5617  0.0232 -0.5105
 3989SOL    HW223427   2.784   3.521   3.049  0.2268 -0.7900  0.2583
 3990SOL     OW23428   0.903   2.873   6.257  0.0307  0.0551 -0.6231
 3990SOL    HW123429   0.971   2.819   6.218 -0.5467 -1.3422  0.2902
 3990SOL    HW223430   0.904   2.949   6.199 -0.0890  0.0971 -0.5712
 3991SOL     OW23431   2.582   2.130   4.787 -0.0576 -0.4252 -0.2687
 3991SOL    HW123432   2.532   2.048   4.781  0.4904 -0.6973 -1.0833
 3991SOL    HW223433   2.635   2.130   4.707 -0.7165  2.4543 -0.6938
 3992SOL     OW23434   0.223   3.390   3.207 -0.4090 -0.1561  0.3345
 3992SOL    HW123435   0.296   3.447   3.183 -0.0886 -1.9565 -2.9888
 3992SOL    HW223436   0.168   3.403   3.130 -2.3751 -2.9428  1.2794
 3993SOL     OW23437   3.978   3.035   7.780  0.0223 -0.0031 -0.4497
 3993SOL    HW123438   4.047   3.091   7.744  1.3547 -2.1318 -1.2312
 3993SOL    HW223439   3.901   3.091   7.781  0.7553  0.9841  2.3910
 3994SOL     OW23440   1.162   2.201   8.634 -0.0391 -0.4354  0.3157
 3994SOL    HW123441   1.094   2.174   8.696 -1.3104  1.7033 -0.1311
 3994SOL    HW223442   1.110   2.253   8.573  0.2701  1.5750  1.7730
 3995SOL     OW23443   4.416   4.434   2.907 -0.1837 -0.6439  0.0756
 3995SOL    HW123444   4.411   4.426   2.811  2.4083  2.5666 -0.2999
 3995SOL    HW223445   4.409   4.529   2.918  0.3707 -0.5960 -0.0067
 3996SOL     OW23446   1.835   4.580   1.446  0.9081  0.0714 -0.3387
 3996SOL    HW123447   1.912   4.585   1.389 -0.4195 -1.7825 -2.3304
 3996SOL    HW223448   1.762   4.626   1.405 -1.2309 -2.6014  0.4850
 3997SOL     OW23449   4.556   2.931   2.666  0.1730 -0.0634 -0.3457
 3997SOL    HW123450   4.576   2.839   2.684  0.3146 -0.0043 -0.2022
 3997SOL    HW223451   4.570   2.927   2.572 -0.6611  0.7761 -0.5068
 3998SOL     OW23452   2.463   1.523   1.233  0.1265 -0.6133  0.0413
 3998SOL    HW123453   2.386   1.469   1.253 -1.6971  2.9487  2.5470
 3998SOL    HW223454   2.440   1.614   1.249  2.8054  0.2882 -1.2787
 3999SOL     OW23455   1.591   3.826   0.352 -0.3697  0.0145 -0.4371
 3999SOL    HW123456   1.505   3.793   0.326 -1.3135  1.1900  1.1381
 3999SOL    HW223457   1.639   3.822   0.270 -1.0025 -0.4460 -0.7854
 4000SOL     OW23458   1.291   1.877   3.435  0.0482 -0.5469  0.0374
 4000SOL    HW123459   1.292   1.889   3.530 -1.7187 -2.7423  0.3202
 4000SOL    HW223460   1.213   1.923   3.405  2.3389  2.1440 -1.8036
 4001SOL     OW23461   2.874   3.149  16.536 -0.3314 -0.1707  0.5207
 4001SOL    HW123462   2.927   3.212  16.487 -2.6823 -0.3020 -2.2042
 4001SOL    HW223463   2.936   3.083  16.566 -0.5392 -0.1973  0.8989
 4002SOL     OW23464   4.358   1.378  14.098 -0.1967 -0.5063  0.0535
 4002SOL    HW123465   4.283   1.331  14.064  1.4510 -3.1476  0.0621
 4002SOL    HW223466   4.398   1.303  14.143  1.2459  0.3184  0.1702
 4003SOL     OW23467   0.530   3.790   5.880  0.3160  0.2408  0.0634
 4003SOL    HW123468   0.524   3.795   5.976  1.6841  1.9900  0.0509
 4003SOL    HW223469   0.602   3.852   5.874 -0.3364  0.9979  0.0382
 4004SOL     OW23470   0.873   3.191   0.620 -0.1384  0.3098 -0.7912
 4004SOL    HW123471   0.829   3.138   0.553  0.0618  0.5273 -1.0924
 4004SOL    HW223472   0.900   3.115   0.673 -0.3663  1.7818  1.4255
 4005SOL     OW23473   1.074   0.161   4.859  0.0861  0.6189  0.3571
 4005SOL    HW123474   1.076   0.118   4.945 -1.8132  0.8934  0.5277
 4005SOL    HW223475   1.063   0.255   4.869 -1.4462  0.6344 -1.6083
 4006SOL     OW23476   3.169   1.294  10.452 -0.5882  0.4595  0.0015
 4006SOL    HW123477   3.130   1.239  10.385 -0.3999 -0.4464  0.6331
 4006SOL    HW223478   3.234   1.340  10.399  0.1075 -2.1419 -1.4031
 4007SOL     OW23479   4.644   0.650  15.308 -0.1742  0.5046 -0.0879
 4007SOL    HW123480   4.641   0.685  15.397  1.0639  0.0809  0.1124
 4007SOL    HW223481   0.010   0.665  15.277 -0.1095  1.5825  0.6214
 4008SOL     OW23482   4.486   1.044   2.550 -0.6617  0.0604 -0.5050
 4008SOL    HW123483   4.396   1.017   2.570 -1.1830 -1.0751 -4.2928
 4008SOL    HW223484   4.516   0.962   2.513  0.2732 -0.0260  0.4577
 4009SOL     OW23485   2.679   1.922   6.418 -0.4217 -0.0773  0.4080
 4009SOL    HW123486   2.587   1.945   6.405 -0.2641 -0.1562 -0.9249
 4009SOL    HW223487   2.696   1.964   6.502 -1.9710  1.1116  0.1340
 4010SOL     OW23488   0.519   0.687  10.237  0.2969  0.0177 -0.3733
 4010SOL    HW123489   0.443   0.733  10.272 -0.2359 -0.8822 -0.3453
 4010SOL    HW223490   0.517   0.701  10.142 -0.4843  1.1575 -0.1893
 4011SOL     OW23491   3.502   0.466  17.556  0.2643  0.4176  0.3678
 4011SOL    HW123492   3.541   0.379  17.552 -0.6677  0.0138 -0.0145
 4011SOL    HW223493   3.426   0.470  17.614 -0.2300  1.3828 -0.3518
 4012SOL     OW23494   1.470   2.952  11.148 -0.4932  0.1431 -0.3796
 4012SOL    HW123495   1.413   2.978  11.220  2.2937 -0.2495  1.9815
 4012SOL    HW223496   1.496   3.029  11.096 -1.3272  0.9938  0.4775
 4013SOL     OW23497   0.777   3.019   5.138  0.2475  0.7630 -0.1385
 4013SOL    HW123498   0.865   3.024   5.103  0.3171  0.2706 -0.0373
 4013SOL    HW223499   0.787   3.025   5.233  0.0336  1.7149 -0.1771
 4014SOL     OW23500   0.222   1.583   9.383  0.2673 -0.2718 -0.7526
 4014SOL    HW123501   0.197   1.612   9.295  0.8251  0.0250 -0.8098
 4014SOL    HW223502   0.260   1.664   9.417 -3.4462  1.4908 -0.7662
 4015SOL     OW23503   0.463   0.837   3.313  0.0360  0.3982  0.0213
 4015SOL    HW123504   0.505   0.902   3.369 -1.9778  0.4082  1.5286
 4015SOL    HW223505   0.461   0.884   3.230  0.0833 -0.8124 -0.6661
 4016SOL     OW23506   0.151   1.585   1.880 -0.5392 -0.4849  0.4947
 4016SOL    HW123507   0.172   1.550   1.793  2.5709  0.2565  0.9385
 4016SOL    HW223508   0.179   1.676   1.876 -1.6736 -0.0728  2.3610
 4017SOL     OW23509   1.347   2.804   3.888 -0.3416 -0.2598  0.5068
 4017SOL    HW123510   1.409   2.864   3.846 -0.3693  0.2380  1.1769
 4017SOL    HW223511   1.265   2.840   3.856 -0.4448  1.2295  2.4335
 4018SOL     OW23512   3.938   4.236   4.726 -0.3619 -0.1676 -0.3100
 4018SOL    HW123513   3.929   4.239   4.631 -0.5441 -1.1450 -0.3251
 4018SOL    HW223514   3.908   4.147   4.743 -0.6826 -0.1660 -0.8729
 4019SOL     OW23515   2.571   1.306  16.028 -0.3518 -0.2168 -0.4052
 4019SOL    HW123516   2.543   1.361  15.955 -1.3137  0.4767  0.4911
 4019SOL    HW223517   2.489   1.293  16.076  0.4515 -0.6087  0.8702
 4020SOL     OW23518   0.143   1.700   4.602  0.1180 -0.1782  0.2770
 4020SOL    HW123519   0.094   1.619   4.616  0.1700 -0.0790  1.0607
 4020SOL    HW223520   0.221   1.659   4.565 -0.2861 -0.8663  0.1900
 4021SOL     OW23521   2.106   3.322   5.737 -0.2185 -0.0680 -0.7096
 4021SOL    HW123522   2.055   3.382   5.792 -0.7940 -2.1388  1.0659
 4021SOL    HW223523   2.109   3.360   5.650 -0.0913  1.5335  0.0072
 4022SOL     OW23524   0.521   3.888   0.567  0.2440  0.0528  0.0954
 4022SOL    HW123525   0.565   3.803   0.567 -1.3055 -0.7734  3.5512
 4022SOL    HW223526   0.431   3.862   0.587  0.1794  1.2702  1.3506
 4023SOL     OW23527   1.903   4.380   7.211 -0.2963 -0.2510 -0.0907
 4023SOL    HW123528   1.881   4.363   7.303  2.7293  0.3456  0.7553
 4023SOL    HW223529   1.998   4.392   7.214 -0.6461  2.0063  1.7154
 4024SOL     OW23530   0.035   0.664  16.846 -0.1808  0.1819  0.3212
 4024SOL    HW123531   4.684   0.612  16.816  1.3768  0.4695 -3.9860
 4024SOL    HW223532   0.035   0.634  16.937  0.6545  1.1784  0.6524
 4025SOL     OW23533   2.472   3.980   2.776  0.0110  0.0692 -0.5569
 4025SOL    HW123534   2.517   3.901   2.808  0.9456  0.9575  0.3483
 4025SOL    HW223535   2.550   4.032   2.756 -0.7370  1.3454 -0.1708
 4026SOL     OW23536   4.592   2.475   4.202  0.1266  0.2520 -0.1139
 4026SOL    HW123537   4.674   2.441   4.165  1.0011  0.8683  1.2429
 4026SOL    HW223538   4.610   2.569   4.199 -1.3941  0.5964  1.4443
 4027SOL     OW23539   3.728   3.997   6.666 -0.2556  0.3803 -0.0561
 4027SOL    HW123540   3.823   4.006   6.665 -0.1431 -0.3734  1.8321
 4027SOL    HW223541   3.708   3.957   6.582  2.9676  0.2203 -0.7248
 4028SOL     OW23542   2.933   3.387   4.601  0.0738  0.3189 -0.0788
 4028SOL    HW123543   3.011   3.368   4.548 -0.9092 -2.2462 -0.5840
 4028SOL    HW223544   2.917   3.479   4.578 -0.5117  0.3464  0.4435
 4029SOL     OW23545   0.418   4.507  12.498 -0.4173  0.2924  0.2616
 4029SOL    HW123546   0.475   4.463  12.436  0.8595  2.0530  0.1756
 4029SOL    HW223547   0.458   4.594  12.496 -0.9745  0.5878  1.6881
 4030SOL     OW23548   4.677   1.083   1.043  0.0987 -0.1146 -0.1343
 4030SOL    HW123549   4.609   1.016   1.054 -0.5734  0.4256 -1.0384
 4030SOL    HW223550   0.022   1.031   1.001 -1.0109 -0.5341 -1.4214
 4031SOL     OW23551   3.448   0.355   6.432  0.6154  0.2651  0.2419
 4031SOL    HW123552   3.388   0.292   6.472  0.3741  0.7111  0.5838
 4031SOL    HW223553   3.529   0.333   6.478  0.7782 -0.8152 -0.5564
 4032SOL     OW23554   2.231   2.955   7.847 -0.0145 -0.3128  0.0103
 4032SOL    HW123555   2.228   2.860   7.861  1.6898  0.0613  2.9455
 4032SOL    HW223556   2.140   2.978   7.830  0.7506  3.2238  0.7861
 4033SOL     OW23557   2.350   2.212  14.880  0.5261  0.0077  0.4508
 4033SOL    HW123558   2.418   2.270  14.847 -1.3276  1.3755 -0.9676
 4033SOL    HW223559   2.353   2.149  14.808  0.0209 -1.1837  1.4737
 4034SOL     OW23560   4.217   0.705   3.244  0.5069  0.2005 -0.9516
 4034SOL    HW123561   4.236   0.790   3.202  2.0733 -0.2422 -1.1132
 4034SOL    HW223562   4.165   0.669   3.172  0.9503  1.4551 -1.9049
 4035SOL     OW23563   1.275   4.134   4.424  0.2553  0.4268 -0.4960
 4035SOL    HW123564   1.186   4.131   4.457  0.5472 -2.9080 -0.0315
 4035SOL    HW223565   1.261   4.073   4.351 -2.6932 -0.2336  0.6253
 4036SOL     OW23566   1.553   1.773   7.938 -0.3283  0.3381 -0.7043
 4036SOL    HW123567   1.476   1.807   7.984 -0.3699 -1.1347  0.3000
 4036SOL    HW223568   1.615   1.845   7.935 -1.5216  1.2815 -3.2764
 4037SOL     OW23569   4.632   0.981   7.115 -0.0863 -0.4861  0.3070
 4037SOL    HW123570   4.711   0.963   7.166 -0.1535 -0.4980  0.4063
 4037SOL    HW223571   4.674   1.005   7.032 -0.2307  1.4902  0.8079
 4038SOL     OW23572   4.259   0.619   9.507  0.0594  0.2621 -0.1118
 4038SOL    HW123573   4.179   0.647   9.550 -0.9147 -3.1018  0.2901
 4038SOL    HW223574   4.308   0.596   9.587 -1.4949  0.9983  1.0405
 4039SOL     OW23575   4.493   0.629   4.757  0.1851  0.0199  0.1538
 4039SOL    HW123576   4.575   0.669   4.783  0.3866 -1.9308  2.4355
 4039SOL    HW223577   4.493   0.624   4.661  1.0568 -0.3133  0.1744
 4040SOL     OW23578   4.376   1.217   4.655 -0.2700  0.0495 -0.7161
 4040SOL    HW123579   4.325   1.271   4.595  1.6625  1.1609 -1.3893
 4040SOL    HW223580   4.343   1.252   4.738  3.2758  3.4489 -0.7079
 4041SOL     OW23581   2.101   1.227   7.002  0.1458  0.5288 -0.0670
 4041SOL    HW123582   2.103   1.176   6.921 -0.9676  0.2199  0.1020
 4041SOL    HW223583   2.190   1.263   6.994  0.8190 -1.7766 -2.9691
 4042SOL     OW23584   1.489   1.025   7.968 -0.1877  0.6035 -1.2726
 4042SOL    HW123585   1.577   1.000   7.941 -0.3310 -1.0388 -0.2118
 4042SOL    HW223586   1.472   0.962   8.039  1.5310 -1.6357 -2.8539
 4043SOL     OW23587   1.814   3.043   6.535  0.1002  0.3108  0.1180
 4043SOL    HW123588   1.852   2.956   6.547  0.5766  0.4393 -0.4642
 4043SOL    HW223589   1.722   3.020   6.549  0.0972 -0.1869 -0.7069
 4044SOL     OW23590   3.672   3.012   5.107 -0.3910  0.2167 -0.2751
 4044SOL    HW123591   3.602   3.066   5.144 -2.2428 -1.8031 -0.8801
 4044SOL    HW223592   3.730   3.082   5.076  0.3375  0.4261  1.5929
 4045SOL     OW23593   0.055   3.598   6.895  0.0468  0.7539  0.1101
 4045SOL    HW123594   4.684   3.606   6.908 -0.0218 -1.5665  1.1048
 4045SOL    HW223595   0.074   3.521   6.842 -0.5913  0.6191  0.0822
 4046SOL     OW23596   4.287   0.101  13.098  0.4553  0.4076 -0.4117
 4046SOL    HW123597   4.367   0.134  13.139  2.2441 -3.0698 -1.0982
 4046SOL    HW223598   4.238   0.058  13.168  0.6963 -1.6442 -1.5101
 4047SOL     OW23599   1.486   3.813   7.082  0.0358  0.6779  0.1390
 4047SOL    HW123600   1.579   3.820   7.061 -0.5244  0.9480 -2.3380
 4047SOL    HW223601   1.450   3.739   7.033  2.0667 -1.2888  1.6657
 4048SOL     OW23602   1.087   2.733   4.602  0.1051  0.2296 -0.0345
 4048SOL    HW123603   1.117   2.740   4.693 -0.0587 -1.6603  0.1587
 4048SOL    HW223604   1.109   2.819   4.569 -0.5425  0.9961  1.4978
 4049SOL     OW23605   4.224   2.914  17.286 -0.2223 -0.2815  0.3070
 4049SOL    HW123606   4.305   2.962  17.299  0.1741 -0.6578 -0.7900
 4049SOL    HW223607   4.260   2.830  17.258 -0.3245 -0.5149  0.8860
 4050SOL     OW23608   2.993   1.462   3.472  0.4107 -0.1004 -0.0693
 4050SOL    HW123609   2.908   1.473   3.429 -0.0898  2.1481  1.5105
 4050SOL    HW223610   3.022   1.374   3.447  0.5532 -0.1572  0.3043
 4051SOL     OW23611   0.158   1.184   0.610  0.1529  0.6984 -0.5722
 4051SOL    HW123612   0.147   1.233   0.691  2.3140 -1.6925  1.1885
 4051SOL    HW223613   0.075   1.136   0.615  0.2029  0.7800  0.8566
 4052SOL     OW23614   1.184   3.301   6.395 -0.5544  0.4418  0.1246
 4052SOL    HW123615   1.246   3.370   6.417  0.0502  0.7054 -2.3564
 4052SOL    HW223616   1.246   3.229   6.407 -1.8812 -0.5619  0.9782
 4053SOL     OW23617   2.666   2.069   1.437 -0.5595 -0.6024  0.4217
 4053SOL    HW123618   2.580   2.045   1.470 -0.3232 -0.0081  1.4749
 4053SOL    HW223619   2.704   2.089   1.523  0.4744  0.8918 -0.3654
 4054SOL     OW23620   3.824   4.429  10.753  0.3798 -0.4795 -0.1938
 4054SOL    HW123621   3.844   4.350  10.702 -2.1552 -0.0537 -1.8303
 4054SOL    HW223622   3.892   4.490  10.722  0.9826  0.7179  3.5481
 4055SOL     OW23623   3.785   2.364   5.214  0.4412 -0.7145 -0.3609
 4055SOL    HW123624   3.835   2.325   5.286 -0.8047  0.7245  1.2993
 4055SOL    HW223625   3.728   2.407   5.278  3.0660  0.9690  0.8365
 4056SOL     OW23626   0.289   2.601   6.448 -0.1209  0.3872 -0.2398
 4056SOL    HW123627   0.268   2.587   6.356  0.0922 -1.1134 -0.0551
 4056SOL    HW223628   0.384   2.615   6.453  0.3131 -3.1434  1.3071
 4057SOL     OW23629   4.274   3.577   8.120 -0.2507  0.2858  0.1761
 4057SOL    HW123630   4.311   3.653   8.166 -0.1129  0.3108  0.0256
 4057SOL    HW223631   4.209   3.549   8.184 -0.6631  0.9511  0.0533
 4058SOL     OW23632   4.138   2.761  10.535  0.4033  0.9468 -0.0311
 4058SOL    HW123633   4.142   2.667  10.552  1.2666  0.8596 -0.7224
 4058SOL    HW223634   4.148   2.808  10.618 -1.7297 -1.7136  1.6973
 4059SOL     OW23635   3.529   3.861  16.327 -0.1080  0.1629  0.1565
 4059SOL    HW123636   3.537   3.864  16.423 -0.2610 -0.7277  0.2000
 4059SOL    HW223637   3.531   3.953  16.303 -0.3732  0.3002  0.6508
 4060SOL     OW23638   2.233   0.078  16.383 -0.1190 -0.0805  0.2270
 4060SOL    HW123639   2.270   0.112  16.464 -1.8487  0.9886  0.5519
 4060SOL    HW223640   2.155   0.037  16.420 -0.0417 -0.6528 -0.2266
 4061SOL     OW23641   1.040   3.915   1.418 -0.0847 -0.5623  0.3992
 4061SOL    HW123642   1.066   3.836   1.465 -0.1134 -1.7500 -1.6037
 4061SOL    HW223643   0.947   3.924   1.437 -0.1614 -0.5595  0.0256
 4062SOL     OW23644   3.768   3.081   5.411 -0.9974  0.0915 -0.0303
 4062SOL    HW123645   3.722   3.019   5.468  0.3354 -0.3170  0.6101
 4062SOL    HW223646   3.832   3.101   5.479 -1.1931  1.0534 -0.1243
 4063SOL     OW23647   0.590   4.239  12.749 -0.4529 -0.9183 -0.1228
 4063SOL    HW123648   0.513   4.281  12.787  0.5385  1.1182 -0.3716
 4063SOL    HW223649   0.589   4.269  12.658 -0.2258 -2.4071 -0.6176
 4064SOL     OW23650   1.187   0.114   7.527 -0.3412  0.9440  0.2072
 4064SOL    HW123651   1.215   0.089   7.616 -1.4570  1.1975  0.6336
 4064SOL    HW223652   1.261   0.169   7.504  0.1321  0.7757  1.3020
 4065SOL     OW23653   4.265   3.877   3.342  0.0722 -0.1596 -0.8489
 4065SOL    HW123654   4.295   3.904   3.429 -0.3661 -0.7567 -0.5016
 4065SOL    HW223655   4.331   3.902   3.278  1.8308  0.3921  1.1875
 4066SOL     OW23656   4.017   1.246   2.578 -0.1067 -0.2657  0.0737
 4066SOL    HW123657   4.043   1.332   2.610 -2.2952  0.5392 -0.3426
 4066SOL    HW223658   4.084   1.220   2.514  2.1280  1.4704  1.7105
 4067SOL     OW23659   2.300   1.263   2.239 -0.7780  0.4598 -0.1712
 4067SOL    HW123660   2.218   1.231   2.277  1.0251 -0.5031  2.9905
 4067SOL    HW223661   2.361   1.239   2.309 -0.7583  0.8883 -0.0414
 4068SOL     OW23662   4.404   4.493   0.656 -0.0474 -0.5038  0.1007
 4068SOL    HW123663   4.388   4.537   0.739  1.1147  0.7900 -0.3544
 4068SOL    HW223664   4.386   4.407   0.694 -1.0318 -1.1422 -1.7835
 4069SOL     OW23665   2.884   3.594   0.934  0.0370 -0.0618  0.0237
 4069SOL    HW123666   2.966   3.545   0.930  0.5361  1.0024 -2.7376
 4069SOL    HW223667   2.833   3.529   0.885 -1.6175  1.7417 -0.6214
 4070SOL     OW23668   2.173   1.311  15.423 -0.0150 -0.6990 -0.6682
 4070SOL    HW123669   2.078   1.298  15.422 -0.1115 -0.1638  2.6874
 4070SOL    HW223670   2.180   1.336  15.330 -3.6215 -1.0489 -1.0391
 4071SOL     OW23671   2.690   0.852  11.316 -0.5028  0.3730 -0.4241
 4071SOL    HW123672   2.709   0.933  11.364  0.6041  0.1042 -0.4283
 4071SOL    HW223673   2.621   0.814  11.371  0.4509  0.3650  0.7610
 4072SOL     OW23674   2.582   2.759   8.620  0.1997  0.0141  0.4569
 4072SOL    HW123675   2.536   2.798   8.546 -1.3995  0.9504  1.9804
 4072SOL    HW223676   2.513   2.696   8.639  0.6994 -0.8456 -0.5778
 4073SOL     OW23677   2.065   0.600  10.045  0.4085  0.6343 -0.1831
 4073SOL    HW123678   2.094   0.687  10.072  0.2325  0.8178 -0.5846
 4073SOL    HW223679   2.112   0.551  10.112 -2.9198  0.7364  2.2837
 4074SOL     OW23680   2.241   1.654  14.706 -0.0606 -0.3553 -0.4301
 4074SOL    HW123681   2.261   1.650  14.799  1.2377 -1.6013 -0.7808
 4074SOL    HW223682   2.325   1.693  14.684  0.4308 -1.0727  0.1737
 4075SOL     OW23683   1.498   2.899   0.541  0.2982  0.4018 -0.4057
 4075SOL    HW123684   1.416   2.946   0.526 -0.0334  0.1007  0.4634
 4075SOL    HW223685   1.485   2.826   0.480  0.9211  0.4176 -0.5558
 4076SOL     OW23686   0.757   3.935  17.620 -0.1819 -0.5359 -0.1458
 4076SOL    HW123687   0.687   3.958  17.681 -1.5275 -1.1836 -1.4069
 4076SOL    HW223688   0.721   3.853  17.585  0.8899 -1.0484 -0.0289
 4077SOL     OW23689   2.266   2.549  13.755 -0.4395 -0.6603  0.3175
 4077SOL    HW123690   2.293   2.460  13.736  1.9377  0.4444 -1.4561
 4077SOL    HW223691   2.336   2.601  13.715 -0.4920 -1.3218 -0.6219
 4078SOL     OW23692   3.075   4.000  10.523 -0.3447 -0.1463  0.4419
 4078SOL    HW123693   2.993   4.035  10.556  0.4307  0.2744  1.9247
 4078SOL    HW223694   3.089   3.933  10.589  1.7692  0.6525  0.8409
 4079SOL     OW23695   0.389   3.243  13.189  0.1332  0.2515  0.2701
 4079SOL    HW123696   0.322   3.285  13.134 -0.4717 -0.3787  0.5242
 4079SOL    HW223697   0.343   3.159  13.195 -1.4057  1.3001  3.3202
 4080SOL     OW23698   2.055   1.643   1.355  0.0286  0.3945  0.6864
 4080SOL    HW123699   1.972   1.606   1.327 -0.0149  0.2039  1.0543
 4080SOL    HW223700   2.042   1.625   1.449  0.1955 -1.2969  0.3959
 4081SOL     OW23701   2.580   0.040   6.877  0.0279  0.2991  0.4988
 4081SOL    HW123702   2.555   0.041   6.785  0.7349  1.5146  0.3122
 4081SOL    HW223703   2.616   4.676   6.896  0.7838  1.1578  2.9485
 4082SOL     OW23704   1.563   2.066   4.569  0.0953  0.2307  0.3674
 4082SOL    HW123705   1.573   2.053   4.475  1.6361  1.6915  0.3148
 4082SOL    HW223706   1.474   2.032   4.580 -0.1176  0.4321 -0.8057
 4083SOL     OW23707   2.701   2.215  16.711  0.0924  0.2718  0.2265
 4083SOL    HW123708   2.633   2.256  16.658 -0.8867 -0.0556  1.2296
 4083SOL    HW223709   2.690   2.124  16.683 -0.5643  0.1123  1.0038
 4084SOL     OW23710   4.700   2.180   9.210  0.0230 -0.2983 -0.2134
 4084SOL    HW123711   0.059   2.221   9.238  0.0565 -0.9431  0.6328
 4084SOL    HW223712   4.670   2.152   9.297  0.1268 -1.4781 -0.5556
 4085SOL     OW23713   0.304   2.747   5.231  0.5087 -0.0219 -0.1756
 4085SOL    HW123714   0.237   2.681   5.247 -0.5525  0.9178 -0.7465
 4085SOL    HW223715   0.290   2.745   5.137 -0.4347  0.4164 -0.0476
 4086SOL     OW23716   3.119   1.383   6.720  0.5151 -0.0922  0.4390
 4086SOL    HW123717   3.097   1.310   6.778  0.3138 -0.7388 -0.4515
 4086SOL    HW223718   3.190   1.423   6.770  2.2114 -2.7810  0.2068
 4087SOL     OW23719   0.798   0.222   5.110  0.4812  0.3335  0.7534
 4087SOL    HW123720   0.846   0.254   5.186  0.5749 -0.6505  1.1080
 4087SOL    HW223721   0.807   0.307   5.067  0.2366  1.2769  2.5681
 4088SOL     OW23722   1.777   0.294   5.097 -0.3080  0.0717 -0.3291
 4088SOL    HW123723   1.683   0.280   5.112  0.4260 -4.5893 -0.2322
 4088SOL    HW223724   1.794   0.378   5.141  0.6247  0.7823 -2.0438
 4089SOL     OW23725   1.394   0.605   3.252 -0.3312  0.0631 -0.5118
 4089SOL    HW123726   1.360   0.660   3.180  3.9688  1.4047 -1.5173
 4089SOL    HW223727   1.466   0.557   3.211  0.1135  1.2431 -1.1393
 4090SOL     OW23728   2.376   0.875  12.861  0.1102  0.6771 -0.0194
 4090SOL    HW123729   2.337   0.857  12.776  3.8040 -2.1649 -1.1129
 4090SOL    HW223730   2.294   0.892  12.908  0.4428 -0.7191  1.0765
 4091SOL     OW23731   2.754   2.573   5.139 -0.1302  0.1446 -0.0378
 4091SOL    HW123732   2.688   2.619   5.191 -0.0578  1.9284 -1.5736
 4091SOL    HW223733   2.815   2.640   5.111 -0.9551  1.2550  0.8350
 4092SOL     OW23734   2.630   1.624  10.039  0.4276 -0.2725  0.1719
 4092SOL    HW123735   2.604   1.532  10.051 -0.2217 -0.3126 -1.6654
 4092SOL    HW223736   2.557   1.653   9.985  1.6651  0.0956 -1.3086
 4093SOL     OW23737   2.156   2.135   4.663  0.5238  0.2333 -0.0568
 4093SOL    HW123738   2.231   2.146   4.605  0.2596  0.8740 -0.2770
 4093SOL    HW223739   2.179   2.198   4.731  5.4264 -0.0209 -1.5333
 4094SOL     OW23740   3.883   4.294   4.469  0.2478 -0.0758  0.2669
 4094SOL    HW123741   3.923   4.219   4.425 -0.8829 -0.8197  0.5187
 4094SOL    HW223742   3.805   4.301   4.413 -0.3242  0.6721  1.1600
 4095SOL     OW23743   0.811   2.502   9.625 -0.1738  0.3729 -0.0914
 4095SOL    HW123744   0.890   2.514   9.573 -1.2079  1.4475 -1.4321
 4095SOL    HW223745   0.820   2.416   9.666  2.6092  1.2337  1.0823
 4096SOL     OW23746   0.754   4.085   6.339 -0.2189 -0.2549  0.4495
 4096SOL    HW123747   0.677   4.109   6.288 -0.8296  0.3388  1.6385
 4096SOL    HW223748   0.711   4.077   6.425  1.3895 -0.0208  1.2770
 4097SOL     OW23749   1.127   0.683   4.066 -0.4530  0.2217 -0.1632
 4097SOL    HW123750   1.040   0.692   4.104  0.6790  1.1147  2.2177
 4097SOL    HW223751   1.173   0.641   4.139 -0.6270  1.2195  0.5191
 4098SOL     OW23752   3.308   3.837   4.864 -0.0768  0.1013 -1.1861
 4098SOL    HW123753   3.213   3.836   4.852  0.1048  0.5329 -2.7087
 4098SOL    HW223754   3.338   3.904   4.802 -0.1029  0.4479 -0.8265
 4099SOL     OW23755   1.435   3.919   4.629  0.3863 -0.0264 -0.2433
 4099SOL    HW123756   1.467   3.912   4.539  2.1147 -2.4854  0.5330
 4099SOL    HW223757   1.493   3.985   4.666 -0.4745  0.0885  0.8922
 4100SOL     OW23758   2.276   4.453   5.035  0.1434 -0.1438  0.2264
 4100SOL    HW123759   2.344   4.451   4.967 -0.8857  2.1273 -0.8793
 4100SOL    HW223760   2.265   4.546   5.056  0.2549 -0.2488  0.7391
 4101SOL     OW23761   2.713   1.161   3.976 -0.4252  0.7395 -0.3506
 4101SOL    HW123762   2.796   1.178   3.931  1.4376  0.0613  2.8642
 4101SOL    HW223763   2.667   1.118   3.904  2.0609  0.8127 -2.0141
 4102SOL     OW23764   2.677   1.074   7.146 -0.1616  0.1598 -0.7898
 4102SOL    HW123765   2.659   1.155   7.194 -1.3857 -0.7884  0.3665
 4102SOL    HW223766   2.675   1.009   7.217  1.5605 -0.1060 -0.9730
 4103SOL     OW23767   1.610   2.814   8.733  0.1644 -0.7703 -0.3695
 4103SOL    HW123768   1.541   2.747   8.728  0.3708 -1.1611  2.2466
 4103SOL    HW223769   1.620   2.837   8.640  1.4672  0.2399  0.0373
 4104SOL     OW23770   4.152   4.266   9.007 -0.6369 -0.0835 -0.0485
 4104SOL    HW123771   4.243   4.253   9.033 -1.5277 -0.4642  2.8380
 4104SOL    HW223772   4.109   4.291   9.089  2.0682  1.2903  0.9614
 4105SOL     OW23773   0.440   3.427  10.464  0.2247 -0.8423  0.4529
 4105SOL    HW123774   0.370   3.469  10.414  2.8389  1.7085 -1.0526
 4105SOL    HW223775   0.390   3.354  10.501 -1.3811  0.7661  1.4382
 4106SOL     OW23776   0.144   0.601  14.549  0.7902 -0.0930  0.5502
 4106SOL    HW123777   0.066   0.575  14.500  0.5349 -0.8442  1.3533
 4106SOL    HW223778   0.206   0.626  14.481  0.6038 -2.2880 -0.4274
 4107SOL     OW23779   3.931   2.970  16.863 -0.4830  0.0779 -0.1873
 4107SOL    HW123780   3.951   3.026  16.789 -0.8307  2.1364  1.2903
 4107SOL    HW223781   3.976   3.012  16.936 -1.0165  2.1512 -1.0695
 4108SOL     OW23782   1.904   0.267   5.647 -0.4765 -0.2062 -0.0077
 4108SOL    HW123783   1.916   0.173   5.644  1.5171 -0.0301  2.2745
 4108SOL    HW223784   1.886   0.278   5.554  2.2225 -1.1292 -0.6396
 4109SOL     OW23785   3.955   1.399  17.460  0.2148  0.0402 -0.0735
 4109SOL    HW123786   3.869   1.360  17.473 -0.8546  1.8906 -1.6650
 4109SOL    HW223787   3.964   1.436  17.548 -0.6672 -1.3705  0.5947
 4110SOL     OW23788   3.924   0.374   7.970  0.3255 -0.0523 -0.7901
 4110SOL    HW123789   3.842   0.409   7.935 -1.2678 -1.6543  1.2767
 4110SOL    HW223790   3.982   0.379   7.895  0.0929 -1.1036 -1.0348
 4111SOL     OW23791   3.251   3.551   6.959  0.6022 -0.7071 -0.4442
 4111SOL    HW123792   3.267   3.498   6.880  1.4548 -0.1413 -0.6459
 4111SOL    HW223793   3.177   3.501   6.994  1.2435 -0.6898  0.9200
 4112SOL     OW23794   4.086   0.991  14.839 -0.5444  0.0706 -0.1255
 4112SOL    HW123795   4.151   0.996  14.909  0.7934  0.4507 -1.3920
 4112SOL    HW223796   4.009   0.958  14.885  1.3862 -3.1725  0.8021
 4113SOL     OW23797   0.218   2.113  11.353 -0.1382  0.3114  0.2565
 4113SOL    HW123798   0.160   2.039  11.334 -0.2181  0.0169  1.6429
 4113SOL    HW223799   0.298   2.065  11.371  0.1065  0.0567 -1.5452
 4114SOL     OW23800   3.363   4.184  15.984 -0.3562 -0.0301 -0.3362
 4114SOL    HW123801   3.450   4.157  16.014 -0.2940  2.3544  1.6981
 4114SOL    HW223802   3.388   4.198  15.893 -1.9219 -0.1580 -0.7796
 4115SOL     OW23803   3.593   1.082   6.114 -0.4652 -0.4491 -0.4273
 4115SOL    HW123804   3.535   1.148   6.152 -1.4067 -1.4250 -0.1781
 4115SOL    HW223805   3.676   1.130   6.114  0.2356 -1.6281  2.0879
 4116SOL     OW23806   3.830   4.565   9.453 -0.6151  0.2268  0.0291
 4116SOL    HW123807   3.747   4.522   9.432 -0.9456  1.0480 -0.3474
 4116SOL    HW223808   3.846   4.593   9.363  0.4152 -1.6239 -0.3806
 4117SOL     OW23809   2.540   1.447   7.136 -0.0880 -0.3540 -0.1502
 4117SOL    HW123810   2.624   1.433   7.092  0.3342  0.2111  0.4787
 4117SOL    HW223811   2.526   1.541   7.129 -2.0498 -0.6511 -0.3021
 4118SOL     OW23812   0.455   0.407   4.516  0.2126  0.1931 -0.1117
 4118SOL    HW123813   0.402   0.367   4.447 -0.2441  0.3513  0.1404
 4118SOL    HW223814   0.423   0.497   4.516  0.9789  0.4657  0.9895
 4119SOL     OW23815   3.674   2.025   5.207  0.0811 -0.3055 -0.0663
 4119SOL    HW123816   3.745   2.017   5.272 -1.4821  1.0933  1.8036
 4119SOL    HW223817   3.622   1.951   5.238 -2.1942  1.3993  0.1764
 4120SOL     OW23818   3.850   0.084  13.455  0.9687 -0.3818  0.4018
 4120SOL    HW123819   3.893   0.022  13.514  1.2439 -1.4824 -0.9512
 4120SOL    HW223820   3.796   0.025  13.403  1.8478 -0.4259 -0.4492
 4121SOL     OW23821   3.432   0.850   7.497  0.2088 -0.2296 -0.6518
 4121SOL    HW123822   3.351   0.854   7.446 -0.6021 -0.1776  0.6653
 4121SOL    HW223823   3.431   0.757   7.521  1.5432 -0.4679 -1.5213
 4122SOL     OW23824   1.405   2.327   6.233 -0.0137 -0.6299 -0.1123
 4122SOL    HW123825   1.431   2.266   6.302  0.0555  0.1049  0.5115
 4122SOL    HW223826   1.357   2.261   6.183  2.6667 -2.4811 -0.2598
 4123SOL     OW23827   2.498   1.400  15.785 -0.3531 -0.1246 -0.3806
 4123SOL    HW123828   2.502   1.485  15.741  0.2123 -0.1255 -0.3241
 4123SOL    HW223829   2.415   1.361  15.756 -0.1268 -1.2225  0.4495
 4124SOL     OW23830   1.958   2.620   1.714  0.0890 -0.5631 -0.2445
 4124SOL    HW123831   1.939   2.560   1.786 -0.9010  0.2863  0.1922
 4124SOL    HW223832   1.868   2.638   1.686  0.1377 -1.8066 -1.2183
 4125SOL     OW23833   2.387   1.569  15.552  0.2978  0.3094  0.6395
 4125SOL    HW123834   2.412   1.519  15.475  0.4137  1.1647  0.1279
 4125SOL    HW223835   2.293   1.552  15.562  0.4053 -0.6386 -0.0197
 4126SOL     OW23836   4.330   4.440   6.976  0.1938 -1.0213  0.0667
 4126SOL    HW123837   4.310   4.389   7.054 -1.6699 -1.9354 -1.0047
 4126SOL    HW223838   4.422   4.464   6.981 -0.0509  0.0035 -0.1255
 4127SOL     OW23839   3.177   0.222   3.206 -0.6573 -0.1109 -0.4647
 4127SOL    HW123840   3.116   0.149   3.213  0.8190 -1.6088 -3.3202
 4127SOL    HW223841   3.254   0.180   3.166  1.5699  1.1074  2.5695
 4128SOL     OW23842   1.851   1.922   8.020  0.1543 -0.3682 -0.5718
 4128SOL    HW123843   1.771   1.930   8.071  0.2486 -0.5963 -0.3906
 4128SOL    HW223844   1.910   1.971   8.077 -1.3645  1.6142 -0.6899
 4129SOL     OW23845   3.580   3.781   6.867  0.0394  0.5565 -0.3811
 4129SOL    HW123846   3.629   3.842   6.811  2.2789 -0.3464  0.6031
 4129SOL    HW223847   3.650   3.718   6.881 -0.4056 -0.0867 -1.1098
 4130SOL     OW23848   4.135   3.062   0.742  0.0482  0.1033  0.0295
 4130SOL    HW123849   4.117   3.032   0.832  0.0219  1.4559  0.4735
 4130SOL    HW223850   4.116   3.155   0.756 -1.1150  0.2795 -2.6839
 4131SOL     OW23851   3.181   2.890   4.426 -0.0124  0.0183 -0.1057
 4131SOL    HW123852   3.088   2.882   4.403 -0.1237  0.2334  0.2761
 4131SOL    HW223853   3.216   2.929   4.346 -2.0751  0.1141 -0.9518
 4132SOL     OW23854   0.396   0.361  13.758 -0.3031 -0.2067  0.1817
 4132SOL    HW123855   0.456   0.409  13.815 -1.9955  1.4071  0.5792
 4132SOL    HW223856   0.353   0.435  13.715 -0.8238  0.7478  2.3659
 4133SOL     OW23857   2.836   4.282  12.029 -0.0302  0.3584 -0.1031
 4133SOL    HW123858   2.887   4.218  11.979  1.0081  1.0509  0.0624
 4133SOL    HW223859   2.898   4.348  12.061  0.5378 -0.4469  0.4622
 4134SOL     OW23860   1.734   4.345   1.592 -0.2029 -0.0720 -0.1258
 4134SOL    HW123861   1.722   4.431   1.551  0.6656  0.3314  0.4529
 4134SOL    HW223862   1.663   4.293   1.556  0.7472 -1.7757  0.4905
 4135SOL     OW23863   3.851   4.549   2.462  0.0035  0.3650 -0.2133
 4135SOL    HW123864   3.761   4.524   2.479  0.1271 -1.6191 -2.4186
 4135SOL    HW223865   3.873   4.472   2.410 -2.4012 -1.8992  2.1647
 4136SOL     OW23866   3.042   2.902   1.409  0.2528 -0.0827  0.1418
 4136SOL    HW123867   2.995   2.822   1.385  0.6464 -0.8564  1.9587
 4136SOL    HW223868   3.131   2.888   1.378  0.0455 -1.6151  0.2301
 4137SOL     OW23869   0.953   0.117   1.865 -0.3743 -0.0313 -0.7361
 4137SOL    HW123870   0.951   0.094   1.958  1.8503  0.1637 -0.6550
 4137SOL    HW223871   1.047   0.102   1.855 -0.5273 -1.2007 -0.4333
 4138SOL     OW23872   0.072   2.942   5.218 -0.3489  0.1895 -0.4400
 4138SOL    HW123873   0.117   2.875   5.269  0.1121  1.1327  0.4019
 4138SOL    HW223874   0.035   3.007   5.278 -2.5536 -0.5850 -0.9652
 4139SOL     OW23875   1.207   1.252   0.722 -0.0166  0.4129  0.2070
 4139SOL    HW123876   1.127   1.215   0.760  0.6681  0.1065  1.3606
 4139SOL    HW223877   1.267   1.247   0.797  1.3328  0.4801 -0.8579
 4140SOL     OW23878   0.453   0.162   9.202 -0.1675 -0.3341  0.2265
 4140SOL    HW123879   0.431   0.180   9.111 -0.8671 -0.1879  0.4291
 4140SOL    HW223880   0.414   0.075   9.213 -1.8316  0.4691  0.6033
 4141SOL     OW23881   2.496   0.181   3.371  0.3651  0.5241  0.0130
 4141SOL    HW123882   2.588   0.194   3.348 -0.0556  1.4933 -1.1677
 4141SOL    HW223883   2.465   0.134   3.293  0.6121 -0.1374  0.3180
 4142SOL     OW23884   4.653   0.817   7.837  0.4245 -0.4836 -0.0032
 4142SOL    HW123885   0.016   0.780   7.816  0.4578 -0.6123  0.3639
 4142SOL    HW223886   4.607   0.741   7.873 -0.5307  0.6806  1.2385
 4143SOL     OW23887   1.258   2.256   3.779 -0.4926  0.0687 -0.3336
 4143SOL    HW123888   1.284   2.346   3.759  2.5508 -0.8422 -0.4476
 4143SOL    HW223889   1.179   2.272   3.830 -0.2375 -3.2968  1.0924
 4144SOL     OW23890   1.283   4.181   5.509 -1.2104  0.5390 -0.3877
 4144SOL    HW123891   1.200   4.215   5.542 -0.8126  2.0745 -0.9332
 4144SOL    HW223892   1.259   4.162   5.419 -1.0009  1.2836 -0.6055
 4145SOL     OW23893   1.578   1.381  12.038  0.2051  0.4945  0.9181
 4145SOL    HW123894   1.669   1.356  12.025 -1.1906 -3.4869 -1.0984
 4145SOL    HW223895   1.571   1.462  11.988  1.0557  0.1884  0.3046
 4146SOL     OW23896   3.240   3.518   7.776 -0.4017  0.3307 -0.4577
 4146SOL    HW123897   3.204   3.463   7.706 -0.6266 -0.2928  0.1490
 4146SOL    HW223898   3.167   3.579   7.790  0.0499  0.6089  0.6804
 4147SOL     OW23899   1.121   0.104   9.889  0.2550 -0.5754  0.2772
 4147SOL    HW123900   1.162   0.020   9.909  1.6556 -0.0803 -0.5246
 4147SOL    HW223901   1.190   0.170   9.880 -2.5196  1.9174 -2.5859
 4148SOL     OW23902   4.466   0.443   0.361 -0.1210 -0.6246 -0.3093
 4148SOL    HW123903   4.410   0.379   0.316 -1.4759 -0.1177  0.6357
 4148SOL    HW223904   4.555   0.422   0.333 -0.0715  0.7954 -1.2260
 4149SOL     OW23905   4.646   3.448   8.350  0.0243  0.0225  0.6695
 4149SOL    HW123906   4.659   3.486   8.437 -0.3265  0.4545  0.5363
 4149SOL    HW223907   4.637   3.529   8.299  1.9449 -0.5422 -0.5534
 4150SOL     OW23908   1.432   1.152   8.799 -0.0243  0.8192 -0.0968
 4150SOL    HW123909   1.408   1.064   8.828  0.6664  0.3022 -1.1002
 4150SOL    HW223910   1.527   1.139   8.796 -0.2619 -0.2071 -3.3522
 4151SOL     OW23911   1.551   3.950   2.304 -0.1744 -0.3787 -0.1336
 4151SOL    HW123912   1.477   3.988   2.351 -2.4739 -1.6933 -2.6849
 4151SOL    HW223913   1.589   3.891   2.369  2.4728 -0.6137 -1.8775
 4152SOL     OW23914   1.721   2.714   1.231 -0.4120 -0.1177  0.3006
 4152SOL    HW123915   1.753   2.710   1.141 -3.6369  0.6498 -0.9041
 4152SOL    HW223916   1.735   2.808   1.242 -0.0499 -0.3713  1.9018
 4153SOL     OW23917   0.219   0.236  14.513  0.4952 -0.1624  0.0453
 4153SOL    HW123918   0.256   0.266  14.430  0.9586 -0.1117  0.2731
 4153SOL    HW223919   0.136   0.285  14.513  0.6584  0.1161 -0.1193
 4154SOL     OW23920   3.857   3.157   3.551 -0.5927 -0.3580 -0.3349
 4154SOL    HW123921   3.923   3.224   3.570 -2.4201  1.4805 -0.4565
 4154SOL    HW223922   3.815   3.157   3.637 -0.5406  1.3693 -0.2936
 4155SOL     OW23923   3.907   4.634  10.504 -0.2954 -0.4863  0.6271
 4155SOL    HW123924   3.816   4.615  10.530 -0.1984 -1.5206  0.2020
 4155SOL    HW223925   3.913   4.576  10.429 -0.3462  1.9021 -1.2092
 4156SOL     OW23926   4.009   1.620  17.301 -0.5310 -0.5309  0.2673
 4156SOL    HW123927   4.081   1.678  17.329 -1.9301 -0.0103  2.7846
 4156SOL    HW223928   4.027   1.552  17.366  0.1790 -0.6571 -0.0598
 4157SOL     OW23929   0.182   1.433   7.444 -0.2342 -0.5654 -0.2876
 4157SOL    HW123930   0.213   1.385   7.521  1.9847  1.6024  0.1641
 4157SOL    HW223931   0.182   1.522   7.477 -0.1828  0.7489 -3.7917
 4158SOL     OW23932   2.346   1.737   2.938 -0.0812 -0.1645  0.1929
 4158SOL    HW123933   2.388   1.778   2.862 -1.9431  1.9141  0.2857
 4158SOL    HW223934   2.318   1.652   2.903 -1.5162 -0.1099  1.2050
 4159SOL     OW23935   2.749   3.993   7.403  0.0066 -0.3143 -0.7780
 4159SOL    HW123936   2.792   4.063   7.452  3.1076 -1.0968 -2.4067
 4159SOL    HW223937   2.657   4.016   7.414  0.1224 -1.2781  2.3369
 4160SOL     OW23938   3.721   3.161   8.780  0.0659  0.2332 -0.3965
 4160SOL    HW123939   3.759   3.236   8.735  2.3617 -1.4023 -1.2183
 4160SOL    HW223940   3.797   3.105   8.797 -0.4157 -0.4530 -0.4965
 4161SOL     OW23941   2.287   4.214  11.779 -0.6166  0.7632  0.1298
 4161SOL    HW123942   2.370   4.196  11.824 -0.6042 -1.3565 -0.7777
 4161SOL    HW223943   2.331   4.249  11.701 -3.1678  0.5473 -1.4113
 4162SOL     OW23944   2.487   0.278   6.357 -0.3422 -0.1619  0.3386
 4162SOL    HW123945   2.419   0.210   6.359 -0.7285  0.1781 -1.8254
 4162SOL    HW223946   2.555   0.212   6.341  0.1912  0.1176  1.4347
 4163SOL     OW23947   1.910   3.401   9.000 -0.1427  0.0125 -0.1028
 4163SOL    HW123948   1.824   3.380   8.963 -0.2737  0.3428  0.0134
 4163SOL    HW223949   1.942   3.313   9.021  1.9445  1.3832  2.5342
 4164SOL     OW23950   4.090   0.381   7.755  0.3957  0.0085 -0.1822
 4164SOL    HW123951   4.163   0.320   7.760 -0.8790 -1.7801 -3.4678
 4164SOL    HW223952   4.061   0.348   7.670 -2.3182  0.6531  0.5022
 4165SOL     OW23953   0.657   0.497  13.162  0.3176 -0.5583  0.3805
 4165SOL    HW123954   0.609   0.435  13.105 -0.2510  1.2483 -1.1140
 4165SOL    HW223955   0.652   0.577  13.110 -0.0280  0.7364  2.4600
 4166SOL     OW23956   1.447   2.228   2.661 -0.5345 -0.4721  0.5117
 4166SOL    HW123957   1.386   2.246   2.590 -0.3801 -0.2573  0.4343
 4166SOL    HW223958   1.525   2.266   2.621 -2.5092  1.6453 -1.3245
 4167SOL     OW23959   2.758   0.931   3.062  0.0993  0.4354  0.1481
 4167SOL    HW123960   2.669   0.905   3.038  0.8884 -1.3589 -0.8148
 4167SOL    HW223961   2.799   0.945   2.976  0.7123 -0.6945  0.2575
 4168SOL     OW23962   3.690   2.503   3.163 -0.1408  0.0711 -0.0480
 4168SOL    HW123963   3.777   2.543   3.158 -0.4146  0.8757  1.4914
 4168SOL    HW223964   3.642   2.585   3.154 -0.1977 -0.0707 -1.0700
 4169SOL     OW23965   0.892   1.166   4.272 -0.1706  0.3927 -0.1635
 4169SOL    HW123966   0.904   1.073   4.253  1.0386  0.9417 -2.0126
 4169SOL    HW223967   0.881   1.210   4.188  1.6011 -0.8184 -1.0444
 4170SOL     OW23968   4.409   3.033   3.815  0.3960  0.2179  0.2566
 4170SOL    HW123969   4.448   3.020   3.729  0.7626  2.0309  0.1341
 4170SOL    HW223970   4.336   3.093   3.800  0.7009  0.1990 -1.2542
 4171SOL     OW23971   1.338   1.358   8.429  0.0217  0.4370  0.0190
 4171SOL    HW123972   1.395   1.382   8.502  0.1873  0.8024 -0.2292
 4171SOL    HW223973   1.254   1.338   8.471 -1.5809  3.8730 -1.5946
 4172SOL     OW23974   2.969   1.036   7.096 -0.6367  0.0772 -0.8695
 4172SOL    HW123975   2.878   1.035   7.126 -0.6701  1.0761 -0.9391
 4172SOL    HW223976   3.020   1.071   7.168 -1.4397 -1.7221  0.5736
 4173SOL     OW23977   1.209   1.133   6.515 -0.2703 -0.7406  0.6439
 4173SOL    HW123978   1.132   1.189   6.514 -0.3038 -0.7994  0.1498
 4173SOL    HW223979   1.229   1.149   6.607  1.3004  0.5933  0.0579
 4174SOL     OW23980   3.747   3.928  10.172  0.1939 -0.5610  0.1147
 4174SOL    HW123981   3.807   3.861  10.140  1.6165  1.1934 -0.8696
 4174SOL    HW223982   3.791   3.992  10.118  0.6371  0.2931  1.4972
 4175SOL     OW23983   0.926   4.111   3.036 -0.1887  0.4732  0.3289
 4175SOL    HW123984   0.870   4.177   2.995  0.7566  1.8923  1.2887
 4175SOL    HW223985   0.957   4.050   2.969  0.7090 -1.6617  2.6665
 4176SOL     OW23986   1.371   4.571   5.956  0.6617 -0.5787  0.0107
 4176SOL    HW123987   1.366   4.609   5.868 -1.6695  1.1615  0.8672
 4176SOL    HW223988   1.296   4.513   5.968  1.6487 -1.6374  0.9511
 4177SOL     OW23989   1.779   2.477   7.795 -0.1442  0.7151  0.3946
 4177SOL    HW123990   1.698   2.433   7.771 -0.3759  0.7969  1.0321
 4177SOL    HW223991   1.759   2.564   7.759 -0.4811  0.2246 -0.5936
 4178SOL     OW23992   3.889   0.888   9.974 -0.8113 -0.8468  0.0999
 4178SOL    HW123993   3.847   0.844   9.900 -2.4028  2.5906 -1.0611
 4178SOL    HW223994   3.884   0.974   9.933 -5.4901 -1.1644 -0.0549
 4179SOL     OW23995   2.987   4.325   4.701  0.0091 -0.0594 -0.0728
 4179SOL    HW123996   3.068   4.347   4.746 -1.3581  0.5405  2.1013
 4179SOL    HW223997   2.959   4.411   4.669  0.0312  0.0332  0.1572
 4180SOL     OW23998   0.752   3.234   9.225  0.1559 -0.6412  0.1409
 4180SOL    HW123999   0.787   3.145   9.218  0.4166 -0.5119 -0.1846
 4180SOL    HW224000   0.677   3.228   9.165 -0.0898  1.2527  0.2451
 4181SOL     OW24001   1.995   4.129   8.658  0.3265 -0.2247 -0.0118
 4181SOL    HW124002   1.963   4.217   8.679  1.9033 -0.0470  1.6858
 4181SOL    HW224003   1.923   4.068   8.671 -0.8641  1.3040  0.4975
 4182SOL     OW24004   2.438   2.054   7.527  0.0589  0.2246 -0.5457
 4182SOL    HW124005   2.436   1.966   7.564  0.7376 -0.1454 -1.3728
 4182SOL    HW224006   2.357   2.092   7.560 -0.1968  0.2555 -1.1965
 4183SOL     OW24007   0.937   3.346   0.896 -0.3190 -0.2724  0.0164
 4183SOL    HW124008   0.921   3.263   0.851 -1.9365 -0.0120  0.1200
 4183SOL    HW224009   0.869   3.406   0.867  1.6182  1.8340 -0.1540
 4184SOL     OW24010   0.923   3.739  16.582  0.1873 -0.4546 -0.0657
 4184SOL    HW124011   0.973   3.718  16.661 -0.4161  0.4044  0.5505
 4184SOL    HW224012   0.904   3.651  16.550  0.9291 -0.4946 -0.4038
 4185SOL     OW24013   0.471   2.028  11.361 -0.5334 -0.2689 -0.0379
 4185SOL    HW124014   0.501   1.939  11.343  1.1295  0.2419  0.2431
 4185SOL    HW224015   0.550   2.074  11.388 -0.7046 -0.0535  0.1036
 4186SOL     OW24016   2.624   2.004   2.938  0.1243  0.4087 -0.0035
 4186SOL    HW124017   2.555   1.981   2.876 -0.8061 -1.9179  1.9132
 4186SOL    HW224018   2.599   2.096   2.943 -1.2058  0.0984 -1.0847
 4187SOL     OW24019   2.667   3.200  17.681 -0.3424 -0.0944 -0.1919
 4187SOL    HW124020   2.579   3.232   0.005 -0.4739  0.4534 -1.7599
 4187SOL    HW224021   2.687   3.179   0.078  1.3907  0.0875 -0.5245
 4188SOL     OW24022   4.211   2.992   4.437  0.3359 -0.6571 -0.0261
 4188SOL    HW124023   4.256   2.938   4.372 -0.0235 -0.9101 -0.0666
 4188SOL    HW224024   4.230   2.945   4.518  2.0915  1.1865  0.6389
 4189SOL     OW24025   3.220   1.070  11.810  0.3296 -0.4153 -0.0201
 4189SOL    HW124026   3.205   1.158  11.778  0.4660 -0.7836 -1.0957
 4189SOL    HW224027   3.185   1.072  11.899  0.4099 -0.8865  0.0233
 4190SOL     OW24028   3.379   0.975  15.025  0.4266  0.4565 -0.3206
 4190SOL    HW124029   3.366   1.014  15.112  0.2756 -3.2604  1.3117
 4190SOL    HW224030   3.313   1.015  14.969 -1.9009 -2.3681  0.4230
 4191SOL     OW24031   0.370   2.456   8.539 -0.4104  0.0125 -0.4689
 4191SOL    HW124032   0.391   2.428   8.450  0.1824 -1.1581  0.0294
 4191SOL    HW224033   0.454   2.478   8.578 -0.1656 -1.2927 -0.2465
 4192SOL     OW24034   2.793   3.295   4.824 -0.3196 -0.8073 -0.1462
 4192SOL    HW124035   2.842   3.333   4.750 -0.7079  1.7119  0.9219
 4192SOL    HW224036   2.864   3.237   4.852  0.4454  0.7222  1.0838
 4193SOL     OW24037   0.836   3.685   9.166 -0.5844 -0.0372  0.2324
 4193SOL    HW124038   0.865   3.624   9.234  1.8004 -0.6696 -1.3384
 4193SOL    HW224039   0.808   3.620   9.101  1.0312 -1.8928  1.4067
 4194SOL     OW24040   3.117   3.969   5.348 -0.3953  0.7510 -0.1345
 4194SOL    HW124041   3.151   3.889   5.388 -0.0539  0.8232 -0.2839
 4194SOL    HW224042   3.059   3.940   5.278  0.6194 -0.5241 -0.4301
 4195SOL     OW24043   2.273   3.838   2.382 -0.0520  0.0015  0.6575
 4195SOL    HW124044   2.356   3.885   2.377  0.5831 -1.3902 -2.3534
 4195SOL    HW224045   2.313   3.756   2.410  2.2753  1.1494  0.6844
 4196SOL     OW24046   0.439   2.867   0.055 -0.3509 -0.3701 -0.2102
 4196SOL    HW124047   0.410   2.958   0.058  0.1870 -0.1727 -1.0222
 4196SOL    HW224048   0.480   2.862  17.663  0.2190  2.1143 -0.0761
 4197SOL     OW24049   3.967   0.665   9.584  0.2335 -0.0710 -0.0857
 4197SOL    HW124050   4.026   0.729   9.623 -0.5757  2.3156 -2.7397
 4197SOL    HW224051   3.954   0.606   9.658 -1.3003 -1.2412 -1.2990
 4198SOL     OW24052   0.659   1.428   6.331  0.0183  0.2595  0.5340
 4198SOL    HW124053   0.592   1.377   6.376 -0.0703 -0.2758 -0.2148
 4198SOL    HW224054   0.718   1.362   6.296 -0.6555  1.8030 -3.5133
 4199SOL     OW24055   1.744   0.824   3.614  0.0166  0.3320 -0.2431
 4199SOL    HW124056   1.653   0.839   3.637  0.3168  1.2681  0.3459
 4199SOL    HW224057   1.752   0.883   3.539  1.7760  0.2545 -0.1141
 4200SOL     OW24058   4.683   4.387  13.832 -0.1875 -0.4450 -0.0238
 4200SOL    HW124059   4.606   4.443  13.834  0.4123  0.3463  0.5902
 4200SOL    HW224060   4.707   4.390  13.924  0.3825 -0.8761 -0.1561
 4201SOL     OW24061   3.280   0.211   5.520  0.0737 -0.1064  0.7558
 4201SOL    HW124062   3.272   0.116   5.512  0.0211 -0.0669  0.3384
 4201SOL    HW224063   3.372   0.219   5.543  0.5284  0.8178 -1.3816
 4202SOL     OW24064   0.233   4.533   2.115 -0.1497  0.1490 -0.2182
 4202SOL    HW124065   0.214   4.622   2.143  1.2595  0.8632 -1.5266
 4202SOL    HW224066   0.203   4.479   2.189 -1.4016  0.6850 -0.3316
 4203SOL     OW24067   2.488   0.458   5.508 -0.5167  0.3445  0.7770
 4203SOL    HW124068   2.548   0.505   5.450  0.1974 -0.0092  1.2234
 4203SOL    HW224069   2.427   0.531   5.514 -1.4786 -0.1548 -3.1218
 4204SOL     OW24070   2.326   3.200   7.892 -0.0367  0.3413 -0.2921
 4204SOL    HW124071   2.274   3.266   7.847  0.6438  0.4668 -0.8960
 4204SOL    HW224072   2.287   3.118   7.861  1.2237 -0.0300 -0.8926
 4205SOL     OW24073   3.820   2.665  12.799  0.1809 -0.2512  0.1765
 4205SOL    HW124074   3.770   2.629  12.725 -0.0335 -1.3479  0.8583
 4205SOL    HW224075   3.899   2.702  12.758 -2.0595  1.7567 -2.3325
 4206SOL     OW24076   3.002   2.041  13.784  0.1648  0.0125 -0.6466
 4206SOL    HW124077   2.923   2.093  13.769 -0.5430 -1.3570 -1.7212
 4206SOL    HW224078   2.973   1.971  13.843  2.7124 -0.7390 -0.2940
 4207SOL     OW24079   3.829   0.821  13.978 -0.5002  0.0251  0.7866
 4207SOL    HW124080   3.783   0.863  14.050 -1.0314  1.8716 -0.6293
 4207SOL    HW224081   3.912   0.868  13.989 -0.2276 -1.0089  3.1717
 4208SOL     OW24082   0.066   2.898  10.090 -0.1347 -0.0775  0.3642
 4208SOL    HW124083   0.024   2.845  10.023 -0.0204  0.1950  0.0754
 4208SOL    HW224084   0.126   2.942  10.030  0.7880 -0.2645  1.1514
 4209SOL     OW24085   4.074   3.163   3.016  0.2689  0.1153 -0.7074
 4209SOL    HW124086   4.039   3.077   2.992  0.5358 -0.4456  0.9271
 4209SOL    HW224087   4.139   3.183   2.949  0.9112  0.0564 -0.1010
 4210SOL     OW24088   4.121   0.084   9.658 -0.1673 -0.0898 -0.3923
 4210SOL    HW124089   4.094   0.133   9.580 -1.6329 -1.0125 -0.4610
 4210SOL    HW224090   4.126   4.719   9.622  0.4211 -0.4191  0.4887
 4211SOL     OW24091   2.473   2.357  16.700  0.3278  0.5811 -0.4399
 4211SOL    HW124092   2.396   2.309  16.670 -0.2213  0.9296  0.4167
 4211SOL    HW224093   2.434   2.412  16.767  0.5890 -1.0835  1.0746
 4212SOL     OW24094   1.627   0.274   7.999 -0.5015  0.1143 -0.6377
 4212SOL    HW124095   1.653   0.274   8.091 -1.5477 -1.9759 -0.3370
 4212SOL    HW224096   1.531   0.281   7.997 -0.4697  0.7889  0.1511
 4213SOL     OW24097   3.385   0.959   7.196  0.4584 -0.5385  0.2059
 4213SOL    HW124098   3.462   0.996   7.240  0.1370  0.1229  0.2168
 4213SOL    HW224099   3.428   0.904   7.131  0.4508  0.9265 -1.0595
 4214SOL     OW24100   1.900   1.215   8.810  0.5771 -0.0083 -0.1958
 4214SOL    HW124101   1.820   1.167   8.831  1.0958 -0.7870 -0.0023
 4214SOL    HW224102   1.951   1.178   8.882 -1.0924  0.8803  1.4325
 4215SOL     OW24103   2.685   0.969   5.765  0.8913  0.7793  0.5905
 4215SOL    HW124104   2.618   0.901   5.768  1.1311  0.6556  3.4586
 4215SOL    HW224105   2.727   0.957   5.850  0.9421  0.0867  0.4623
 4216SOL     OW24106   0.552   3.439  14.395 -0.2526  0.3653  0.1633
 4216SOL    HW124107   0.490   3.396  14.454 -2.6082  1.8629 -1.1829
 4216SOL    HW224108   0.582   3.370  14.337 -0.5840  1.1202 -0.8978
 4217SOL     OW24109   3.649   2.230   3.165 -0.5067  0.1890  0.3847
 4217SOL    HW124110   3.577   2.209   3.105  0.1491 -1.5064  0.1814
 4217SOL    HW224111   3.673   2.317   3.134 -3.4195  0.2113 -1.7981
 4218SOL     OW24112   1.279   4.411  16.234  0.6199 -0.4820  0.8454
 4218SOL    HW124113   1.244   4.376  16.152 -0.6046  0.5178  0.9379
 4218SOL    HW224114   1.314   4.328  16.265 -0.4254 -0.3943  2.2907
 4219SOL     OW24115   0.078   2.294  10.117 -0.0561 -0.3608  0.0485
 4219SOL    HW124116   0.103   2.210  10.157 -0.2861 -0.0723  0.7920
 4219SOL    HW224117   0.004   2.311  10.175 -1.1668 -0.8216 -1.2079
 4220SOL     OW24118   2.170   3.764  17.195  0.4505 -0.0436 -0.2427
 4220SOL    HW124119   2.250   3.806  17.226  0.0654  0.4563  0.0644
 4220SOL    HW224120   2.151   3.695  17.260 -2.5890  1.6584  0.6763
 4221SOL     OW24121   1.099   4.566  14.518  0.0182 -0.4097 -0.4249
 4221SOL    HW124122   1.033   4.544  14.584 -0.4210 -0.4004 -0.8609
 4221SOL    HW224123   1.126   4.475  14.505  1.4099 -0.4483  2.7291
 4222SOL     OW24124   0.122   3.386   5.425  0.0121  0.8660  0.9878
 4222SOL    HW124125   0.167   3.302   5.420 -1.0662  0.2143  2.4181
 4222SOL    HW224126   0.039   3.373   5.469  0.1484 -1.0054  0.6760
 4223SOL     OW24127   1.874   3.885   7.333  0.1973  0.8193  0.0998
 4223SOL    HW124128   1.903   3.941   7.261  1.1572  0.2726  0.0679
 4223SOL    HW224129   1.813   3.828   7.284  0.5625 -0.1506  0.7757
 4224SOL     OW24130   4.371   2.184  13.717 -0.4506  0.2923 -0.3625
 4224SOL    HW124131   4.391   2.257  13.659  2.3684  1.4837  2.0417
 4224SOL    HW224132   4.345   2.212  13.805 -1.3959  1.0198 -0.8855
 4225SOL     OW24133   0.800   4.506   8.400 -0.4718  1.1739  0.0134
 4225SOL    HW124134   0.829   4.416   8.386 -1.8179  0.8673 -0.7120
 4225SOL    HW224135   0.717   4.504   8.354 -0.1076  0.6326 -0.6075
 4226SOL     OW24136   2.539   2.842   6.260  0.0697 -0.1849 -0.0036
 4226SOL    HW124137   2.604   2.771   6.257  0.1354 -0.1014 -0.5120
 4226SOL    HW224138   2.457   2.806   6.227  0.7819 -1.1617 -0.7181
 4227SOL     OW24139   2.481   1.866   5.889 -0.6349  0.8814 -0.4825
 4227SOL    HW124140   2.469   1.884   5.796 -2.2746 -1.4439 -0.6956
 4227SOL    HW224141   2.565   1.907   5.911 -1.8348  1.9293  2.1309
 4228SOL     OW24142   0.006   0.820   5.682  0.1789 -0.0342 -0.5825
 4228SOL    HW124143   0.023   0.746   5.740  1.2391  1.7197  1.3789
 4228SOL    HW224144   0.076   0.806   5.618 -0.2765 -0.5553 -0.9569
 4229SOL     OW24145   0.210   2.548  13.152  0.1848  0.5133 -0.2066
 4229SOL    HW124146   0.171   2.635  13.166 -1.6863 -0.1380 -1.2696
 4229SOL    HW224147   0.244   2.558  13.063 -0.3256  0.5578 -0.3966
 4230SOL     OW24148   3.432   3.594  12.831 -0.7409  0.4047  0.1226
 4230SOL    HW124149   3.428   3.515  12.885  0.2311  0.8284  0.8107
 4230SOL    HW224150   3.417   3.667  12.892  0.7860 -1.8027  3.1483
 4231SOL     OW24151   3.483   0.282   2.411 -0.2869  0.9203  0.1714
 4231SOL    HW124152   3.561   0.273   2.465 -0.8418 -0.3412  0.7451
 4231SOL    HW224153   3.518   0.269   2.323  2.7606 -2.5783  1.9309
 4232SOL     OW24154   2.908   1.676   3.806 -0.1136 -0.2830 -0.2641
 4232SOL    HW124155   2.837   1.725   3.849 -1.1261 -1.0909 -1.0083
 4232SOL    HW224156   2.914   1.714   3.718 -0.2534  1.1275  0.3261
 4233SOL     OW24157   0.895   4.211  14.515 -0.4004 -0.4034  0.7604
 4233SOL    HW124158   0.822   4.150  14.505 -0.2076 -1.0765  3.4124
 4233SOL    HW224159   0.963   4.143  14.527  1.8660  1.7664  0.1650
 4234SOL     OW24160   3.228   1.569   4.291  0.5753 -0.5107  0.4610
 4234SOL    HW124161   3.280   1.604   4.219  0.4417 -3.1511 -0.9474
 4234SOL    HW224162   3.155   1.530   4.243  0.9212 -1.0321  0.3509
 4235SOL     OW24163   1.319   0.426  14.319 -0.0832  0.4160 -0.0434
 4235SOL    HW124164   1.391   0.366  14.304  0.3322  0.6519  1.0386
 4235SOL    HW224165   1.326   0.441  14.413  4.2179 -1.9580  0.0039
 4236SOL     OW24166   4.384   1.137   8.511 -0.1925 -0.8561  0.3297
 4236SOL    HW124167   4.345   1.072   8.453  1.2766 -0.7574 -0.7614
 4236SOL    HW224168   4.336   1.113   8.591 -0.9726 -0.9066 -0.1610
 4237SOL     OW24169   0.823   0.063   3.410 -0.6412  0.3971 -0.0943
 4237SOL    HW124170   0.878   0.001   3.459 -0.3464  0.8210  0.1041
 4237SOL    HW224171   0.798   0.116   3.485 -1.3563  0.0960 -0.1141
 4238SOL     OW24172   3.484   0.786   5.293 -0.2884 -0.1506  0.6694
 4238SOL    HW124173   3.441   0.727   5.355  0.6254 -0.4677  1.0047
 4238SOL    HW224174   3.513   0.854   5.354  1.6056 -0.2012 -0.1633
 4239SOL     OW24175   3.852   1.252  12.981 -0.0947 -0.0863  0.0623
 4239SOL    HW124176   3.919   1.203  12.934  1.5449  2.4030 -0.1880
 4239SOL    HW224177   3.904   1.328  13.008 -0.1387  0.4655 -1.4121
 4240SOL     OW24178   2.302   1.705   9.478  0.3091 -0.1978 -0.7431
 4240SOL    HW124179   2.215   1.738   9.456  0.6788  2.6474  2.1464
 4240SOL    HW224180   2.355   1.785   9.487  1.3942 -0.7992 -1.7682
 4241SOL     OW24181   3.531   1.717   2.432  0.6138  0.2444  0.1094
 4241SOL    HW124182   3.472   1.792   2.424  1.2055  0.7917  0.8688
 4241SOL    HW224183   3.607   1.763   2.467 -0.1039  1.2299  0.3861
 4242SOL     OW24184   1.798   3.744   0.144  0.2733  0.4957 -0.6681
 4242SOL    HW124185   1.784   3.772   0.053  0.4694 -0.2301 -0.9194
 4242SOL    HW224186   1.764   3.655   0.142 -2.6124  1.5734  0.3751
 4243SOL     OW24187   3.811   0.604   2.949  0.0111  0.6379  0.0950
 4243SOL    HW124188   3.784   0.684   2.904 -1.6299 -1.1961 -2.1542
 4243SOL    HW224189   3.783   0.535   2.889  4.0282  0.7552 -1.9718
 4244SOL     OW24190   4.339   0.216   2.820  0.0853 -0.4179 -0.2646
 4244SOL    HW124191   4.371   0.148   2.760  1.3107 -0.2508  0.1912
 4244SOL    HW224192   4.397   0.289   2.799 -1.8508  0.7257 -1.5534
 4245SOL     OW24193   3.885   0.082   7.102 -0.0186  0.0774  0.3966
 4245SOL    HW124194   3.898   4.713   7.076 -0.3403 -0.2971  1.5726
 4245SOL    HW224195   3.975   0.116   7.103  0.4706 -1.2226  1.1478
 4246SOL     OW24196   2.284   3.184   1.056 -0.3931  0.0173  0.0375
 4246SOL    HW124197   2.191   3.176   1.078 -0.4456  1.2449  0.2496
 4246SOL    HW224198   2.317   3.253   1.112 -0.8407 -1.3871  2.0147
 4247SOL     OW24199   4.150   3.308   4.197  0.4655  0.3968 -0.2076
 4247SOL    HW124200   4.239   3.274   4.184 -0.2967 -1.5492 -0.4346
 4247SOL    HW224201   4.142   3.294   4.291 -0.8488  1.7801 -0.1236
 4248SOL     OW24202   0.458   0.073   3.898  0.1110  0.0444  0.2285
 4248SOL    HW124203   0.433   0.089   3.807 -0.6700 -2.1598  0.0545
 4248SOL    HW224204   0.479   0.159   3.933 -4.9453  1.0141  0.8519
 4249SOL     OW24205   1.550   0.214   7.303  0.1496  0.2464 -0.0241
 4249SOL    HW124206   1.620   0.279   7.304  1.6105 -1.3516  1.6183
 4249SOL    HW224207   1.507   0.236   7.386  0.1237 -0.9503  0.2815
 4250SOL     OW24208   3.595   1.638   0.279  0.3372  0.1009 -0.3809
 4250SOL    HW124209   3.529   1.694   0.238  1.0664  1.2845  0.0896
 4250SOL    HW224210   3.587   1.570   0.212  0.4644  1.3519 -1.6689
 4251SOL     OW24211   2.731   3.555  14.799 -0.1032  0.5315  0.4269
 4251SOL    HW124212   2.745   3.479  14.743  1.0079  0.7983  0.3322
 4251SOL    HW224213   2.663   3.510  14.848  2.0021 -0.6899  2.1908
 4252SOL     OW24214   3.470   4.061   4.726  0.3006 -0.2985 -0.1914
 4252SOL    HW124215   3.440   4.145   4.761 -0.1149 -0.8024  0.6534
 4252SOL    HW224216   3.443   4.079   4.636  3.3256  0.1987 -0.9959
 4253SOL     OW24217   1.629   1.417   3.766  0.3248  0.6742  0.3655
 4253SOL    HW124218   1.565   1.478   3.802  0.5310  0.5241  0.9953
 4253SOL    HW224219   1.669   1.387   3.848  1.7702 -1.0759 -0.9660
 4254SOL     OW24220   3.969   1.619   7.900 -0.4383 -0.0943 -0.2795
 4254SOL    HW124221   3.907   1.546   7.892 -0.1437 -0.5151  1.1466
 4254SOL    HW224222   3.933   1.696   7.857  1.7579 -0.3963 -2.6536
 4255SOL     OW24223   2.684   3.411   3.676 -0.1013 -0.2564 -0.1867
 4255SOL    HW124224   2.776   3.439   3.674 -0.1102 -0.1069  1.6442
 4255SOL    HW224225   2.685   3.316   3.663 -1.1568 -0.4406  1.0972
 4256SOL     OW24226   3.969   2.685   3.459  0.3668 -0.6083 -0.8184
 4256SOL    HW124227   3.967   2.781   3.459  1.6202 -0.5751  3.9805
 4256SOL    HW224228   4.041   2.667   3.521 -1.1241  2.2348  1.7736
 4257SOL     OW24229   0.587   0.390   8.499  0.2402  0.3346 -0.2229
 4257SOL    HW124230   0.619   0.300   8.494  2.2165  1.0565 -0.6710
 4257SOL    HW224231   0.530   0.382   8.576  2.0231  0.8326  1.1453
 4258SOL     OW24232   4.656   4.512  12.074  0.4397  0.3535  0.8739
 4258SOL    HW124233   4.690   4.425  12.056  0.4802  0.7883 -1.2041
 4258SOL    HW224234   0.006   4.570  12.051  0.8939 -0.0276  1.3564
 4259SOL     OW24235   0.790   0.274   1.387 -0.5346  0.1738  0.6024
 4259SOL    HW124236   0.773   0.271   1.482  1.0801  2.7451  0.9613
 4259SOL    HW224237   0.852   0.201   1.380 -0.6709  0.2002 -0.7238
 4260SOL     OW24238   1.887   4.222   5.894  0.0534 -0.2913  0.0599
 4260SOL    HW124239   1.860   4.274   5.819 -0.4564  1.3277  1.3552
 4260SOL    HW224240   1.920   4.290   5.953 -1.4642  0.3010  0.2359
 4261SOL     OW24241   2.087   1.362  10.366 -0.0230  0.1185  0.9943
 4261SOL    HW124242   2.131   1.415  10.433  0.1404  0.4663  0.6082
 4261SOL    HW224243   2.155   1.297  10.350  0.6807  1.7347 -2.5619
 4262SOL     OW24244   0.690   0.623   7.453  0.0802  0.0555 -0.2721
 4262SOL    HW124245   0.618   0.634   7.390 -0.7963  2.4435  1.1560
 4262SOL    HW224246   0.671   0.688   7.520  0.0514  1.8514 -2.0290
 4263SOL     OW24247   4.443   3.352   6.966  0.1345 -0.6245 -0.4606
 4263SOL    HW124248   4.521   3.361   7.021  0.0182 -0.9922 -0.2397
 4263SOL    HW224249   4.402   3.281   7.014 -2.1024  1.9281  1.4369
 4264SOL     OW24250   3.267   0.157  11.982  0.2046  0.1333 -0.0227
 4264SOL    HW124251   3.360   0.177  11.989  0.3429 -0.0376 -1.4848
 4264SOL    HW224252   3.254   0.114  12.066 -2.0850 -2.4248 -1.6867
 4265SOL     OW24253   0.114   2.377   4.114 -0.1187  0.3168  0.1977
 4265SOL    HW124254   0.160   2.323   4.050 -0.7718  0.9191 -0.7779
 4265SOL    HW224255   0.184   2.410   4.170  1.0453 -0.0280 -1.0715
 4266SOL     OW24256   2.703   1.749  17.688  0.0454 -0.6367 -0.4958
 4266SOL    HW124257   2.710   1.754   0.089 -1.7552 -0.0359 -0.4022
 4266SOL    HW224258   2.687   1.840  17.666  0.3753 -0.2614  0.8344
 4267SOL     OW24259   1.660   1.741   1.312 -0.2999  0.1153 -0.0508
 4267SOL    HW124260   1.667   1.724   1.406  1.8466 -3.6821 -0.9103
 4267SOL    HW224261   1.569   1.768   1.308 -0.5599 -0.7310  0.1886
 4268SOL     OW24262   4.539   1.040  11.600 -0.2238 -0.7465  0.0388
 4268SOL    HW124263   4.560   1.051  11.507  0.5864 -1.8607  0.0901
 4268SOL    HW224264   4.505   1.125  11.628  1.4138 -1.0059  2.7631
 4269SOL     OW24265   0.735   3.998   1.840  0.1122 -0.1800  0.6923
 4269SOL    HW124266   0.823   4.033   1.846 -0.5822  1.6305  0.2930
 4269SOL    HW224267   0.676   4.067   1.869  1.6965  2.5322 -2.4914
 4270SOL     OW24268   0.037   4.331  16.967  0.5273  0.1179 -0.5785
 4270SOL    HW124269   0.002   4.245  16.988  4.6905 -1.2589  0.7026
 4270SOL    HW224270   4.720   4.396  17.025 -2.0364 -1.3810 -0.6483
 4271SOL     OW24271   0.123   0.984   6.708  0.1523 -0.2089 -0.2617
 4271SOL    HW124272   0.079   0.902   6.731  1.2760 -0.9955 -0.9114
 4271SOL    HW224273   0.135   0.971   6.614  0.7454 -0.7883 -0.1065
 4272SOL     OW24274   0.223   2.566  12.896 -0.6138  0.1777  0.2073
 4272SOL    HW124275   0.188   2.644  12.939 -0.6665  0.2087  0.1084
 4272SOL    HW224276   0.304   2.592  12.852 -0.7679  3.7100  2.0992
 4273SOL     OW24277   4.664   0.238   2.715 -0.1338 -0.2295  0.5330
 4273SOL    HW124278   4.708   0.189   2.785  1.5417  1.8293  0.9392
 4273SOL    HW224279   4.634   0.317   2.761  1.5675  1.0603 -0.5920
 4274SOL     OW24280   0.227   2.721   7.091  0.0377  0.1365  0.0816
 4274SOL    HW124281   0.270   2.677   7.165 -2.5157 -1.2973  0.7223
 4274SOL    HW224282   0.138   2.717   7.126  0.6378  0.3046  1.6204
 4275SOL     OW24283   4.123   1.931   7.085  0.0901 -0.0010 -0.0569
 4275SOL    HW124284   4.152   2.021   7.079  2.2804 -0.5665  1.9108
 4275SOL    HW224285   4.052   1.941   7.149  1.2830  1.0748  1.1055
 4276SOL     OW24286   2.314   0.093   4.805  0.2259 -0.4259  0.0838
 4276SOL    HW124287   2.330   0.131   4.891  1.5774 -0.8261  0.0068
 4276SOL    HW224288   2.236   0.039   4.821 -0.9967  0.4523 -3.0177
 4277SOL     OW24289   0.178   3.098   5.864  0.0227  0.2670  0.1382
 4277SOL    HW124290   0.085   3.078   5.854 -0.1348  1.2602 -0.3532
 4277SOL    HW224291   0.181   3.132   5.953  0.7305  1.4090 -0.3278
 4278SOL     OW24292   4.225   3.380   9.404  0.2727 -0.3993 -0.2980
 4278SOL    HW124293   4.315   3.393   9.435 -0.7756 -1.2416  3.0948
 4278SOL    HW224294   4.182   3.441   9.463  1.7614  0.8910 -0.5257
 4279SOL     OW24295   1.015   4.666   5.098  0.4342 -0.1941  0.0549
 4279SOL    HW124296   0.933   4.662   5.049 -0.6525 -1.7774  1.9898
 4279SOL    HW224297   1.062   4.611   5.036  0.6991 -1.4038  1.3272
 4280SOL     OW24298   4.260   3.916   4.318  0.0866 -0.1226 -0.5473
 4280SOL    HW124299   4.238   4.003   4.353  1.7234  0.2116 -0.3536
 4280SOL    HW224300   4.210   3.917   4.236  0.3824  0.9520 -0.7206
 4281SOL     OW24301   4.071   1.387  12.308  0.6501  0.5606  0.0296
 4281SOL    HW124302   4.024   1.373  12.226  0.2376  0.8013  0.2263
 4281SOL    HW224303   4.043   1.475  12.332 -0.3238 -0.2169  1.7239
 4282SOL     OW24304   3.536   2.763  16.238  0.6327 -0.1856 -0.5623
 4282SOL    HW124305   3.457   2.816  16.252 -1.1504 -3.8846  3.4454
 4282SOL    HW224306   3.578   2.803  16.162  1.1050  0.4693  0.0419
 4283SOL     OW24307   0.081   3.062   0.877  0.0744 -0.2242  0.2118
 4283SOL    HW124308   0.031   3.025   0.950 -0.6517  0.6472  0.1558
 4283SOL    HW224309   0.005   3.075   0.820 -0.4748 -0.5664  0.8647
 4284SOL     OW24310   3.317   0.977   0.770 -0.4474 -0.2172  0.3972
 4284SOL    HW124311   3.273   1.062   0.761 -0.3635 -0.1805  0.3288
 4284SOL    HW224312   3.293   0.951   0.859 -0.3516 -0.5905  0.3138
 4285SOL     OW24313   2.937   4.138   3.704 -0.3374 -0.0049 -0.1219
 4285SOL    HW124314   2.924   4.084   3.626  1.6102 -1.8076  0.8089
 4285SOL    HW224315   3.032   4.144   3.715 -0.1635 -0.8197 -1.1819
 4286SOL     OW24316   3.344   4.059   1.979 -0.0056 -0.1789 -0.1799
 4286SOL    HW124317   3.277   4.048   1.912 -0.3223 -2.3429  0.4864
 4286SOL    HW224318   3.416   4.093   1.926 -1.0481  0.2286 -1.3470
 4287SOL     OW24319   4.216   2.720  11.369 -0.3312  0.3770  0.0069
 4287SOL    HW124320   4.200   2.627  11.352 -0.1962  0.3078  0.2414
 4287SOL    HW224321   4.214   2.755  11.280  0.8341 -0.1747 -0.2469
 4288SOL     OW24322   3.937   2.591   0.168  0.2991 -0.0804 -0.3185
 4288SOL    HW124323   3.952   2.562   0.258 -1.7078 -0.4530 -0.1059
 4288SOL    HW224324   3.908   2.683   0.173 -1.1443 -0.6603  2.2001
 4289SOL     OW24325   0.239   4.272   2.538  0.1899 -0.4810  0.4683
 4289SOL    HW124326   0.174   4.224   2.589  1.4863  0.4656  2.9885
 4289SOL    HW224327   0.292   4.299   2.613 -0.2269 -0.0425  0.6041
 4290SOL     OW24328   0.603   4.289  10.388 -0.0628 -0.0774 -0.3738
 4290SOL    HW124329   0.682   4.250  10.352  0.9808  1.0349  0.7274
 4290SOL    HW224330   0.556   4.218  10.433 -0.5880 -0.0764 -0.9222
 4291SOL     OW24331   1.789   3.686  13.977  0.6812 -0.1299  0.3464
 4291SOL    HW124332   1.782   3.605  14.028 -1.1713 -1.2650 -1.7036
 4291SOL    HW224333   1.700   3.720  13.983  0.3938 -0.8883  0.3430
 4292SOL     OW24334   1.090   0.449   7.619  0.0695  0.3355  0.2954
 4292SOL    HW124335   1.027   0.450   7.547  1.3281 -0.4180 -0.8174
 4292SOL    HW224336   1.158   0.512   7.594  0.0841 -0.1805 -0.9870
 4293SOL     OW24337   3.177   4.145   7.335  0.4278 -0.6463  0.4724
 4293SOL    HW124338   3.102   4.122   7.280 -1.4141  0.0365  2.7080
 4293SOL    HW224339   3.138   4.155   7.422 -0.8218  0.5384 -0.2362
 4294SOL     OW24340   3.800   2.882   8.268 -0.0899  0.5736  0.1954
 4294SOL    HW124341   3.879   2.914   8.224  0.9923  0.1791  1.8494
 4294SOL    HW224342   3.792   2.793   8.234 -1.6095  2.0300 -3.2744
 4295SOL     OW24343   2.580   2.467  13.696  0.5180 -0.5020 -0.2375
 4295SOL    HW124344   2.531   2.509  13.624 -0.9536 -3.0142 -0.6907
 4295SOL    HW224345   2.521   2.392  13.705 -0.9161  0.7364  0.8770
 4296SOL     OW24346   0.135   3.221  12.471 -0.1800 -0.2502 -0.3593
 4296SOL    HW124347   0.214   3.186  12.428  0.5855 -0.5567  1.3010
 4296SOL    HW224348   0.084   3.140  12.471 -1.0290  0.2863 -1.1321
 4297SOL     OW24349   0.162   3.273   2.115 -0.1809  0.1863 -0.0631
 4297SOL    HW124350   0.240   3.264   2.170 -2.1205 -3.0540  2.1682
 4297SOL    HW224351   0.143   3.180   2.112 -1.1728  0.3244  1.8708
 4298SOL     OW24352   4.292   3.201   7.386  0.4621 -0.2986  0.0170
 4298SOL    HW124353   4.368   3.157   7.348  1.2115  0.0070  1.1693
 4298SOL    HW224354   4.287   3.163   7.473 -1.0117 -1.0591 -0.4031
 4299SOL     OW24355   1.670   1.447   2.969 -0.4918 -0.1541 -0.0063
 4299SOL    HW124356   1.651   1.411   3.056  0.3591 -0.1116  0.1931
 4299SOL    HW224357   1.586   1.489   2.949 -0.7744 -1.4455 -1.4737
 4300SOL     OW24358   2.264   3.491   4.757 -0.9007 -0.1141 -0.2333
 4300SOL    HW124359   2.280   3.458   4.846 -0.0199  1.6089  0.2380
 4300SOL    HW224360   2.173   3.462   4.757 -0.5051 -1.4002 -0.8166
 4301SOL     OW24361   0.253   3.551   1.148 -0.1358  0.0805  0.3662
 4301SOL    HW124362   0.218   3.481   1.204  0.9395  0.3015  1.3107
 4301SOL    HW224363   0.174   3.586   1.107  0.6237  2.0407  0.5927
 4302SOL     OW24364   4.022   0.030   1.428 -0.5542 -0.5044  0.0084
 4302SOL    HW124365   4.003   0.085   1.351  1.8659  2.1441  1.3138
 4302SOL    HW224366   4.097   0.075   1.465 -0.5294  0.8711 -1.7037
 4303SOL     OW24367   0.487   3.259   8.263 -0.1032  0.1465 -0.1904
 4303SOL    HW124368   0.441   3.341   8.279 -0.9620 -0.4471  0.3893
 4303SOL    HW224369   0.458   3.198   8.331  1.2771 -1.1034 -0.7183
 4304SOL     OW24370   3.810   0.786  15.531 -0.1351 -0.2563 -0.4485
 4304SOL    HW124371   3.768   0.823  15.454  1.4199 -0.6991 -1.5268
 4304SOL    HW224372   3.731   0.749  15.570 -1.6868  1.0797 -2.3554
 4305SOL     OW24373   0.830   4.300  13.345 -0.7969  0.0992 -0.1362
 4305SOL    HW124374   0.857   4.231  13.285 -0.0094 -1.8517  2.4739
 4305SOL    HW224375   0.918   4.322  13.377 -0.1010 -0.1716 -1.8681
 4306SOL     OW24376   2.785   1.862   3.600 -0.0320 -0.3071 -0.1849
 4306SOL    HW124377   2.780   1.906   3.516  0.7300  0.0439 -0.0444
 4306SOL    HW224378   2.734   1.783   3.585 -0.1659 -0.5812  1.6159
 4307SOL     OW24379   3.302   3.289   5.612  0.3317  0.3488  0.1557
 4307SOL    HW124380   3.220   3.320   5.573 -0.5646 -0.1751  1.6001
 4307SOL    HW224381   3.360   3.287   5.536  0.2141 -2.7625  0.1624
 4308SOL     OW24382   0.633   0.608   1.071  0.4847  0.2250 -0.0032
 4308SOL    HW124383   0.664   0.603   0.981 -0.3552 -3.2269 -0.1078
 4308SOL    HW224384   0.702   0.652   1.122  0.8045  1.8333 -1.8324
 4309SOL     OW24385   2.442   1.891   2.484  0.0294 -0.1031 -0.2222
 4309SOL    HW124386   2.402   1.824   2.428  1.3528 -1.4390  0.4222
 4309SOL    HW224387   2.532   1.859   2.487  0.1053  0.2126  0.6947
 4310SOL     OW24388   1.559   2.037   4.313 -0.3208  0.5064 -0.0266
 4310SOL    HW124389   1.507   1.972   4.267  2.1813 -0.6174 -1.2231
 4310SOL    HW224390   1.634   2.046   4.255  1.7467 -3.0605  2.1284
 4311SOL     OW24391   2.208   4.097   2.238  0.4051 -0.3192  0.5200
 4311SOL    HW124392   2.268   4.170   2.253 -0.9149  0.8276  0.2273
 4311SOL    HW224393   2.160   4.101   2.321 -1.3707  0.7844 -0.5478
 4312SOL     OW24394   3.785   0.510   6.209 -0.3696  0.1854 -0.3487
 4312SOL    HW124395   3.840   0.577   6.167 -2.0063  1.1003 -1.0411
 4312SOL    HW224396   3.721   0.561   6.259 -1.7245 -0.1517 -1.7551
 4313SOL     OW24397   3.615   4.668  13.570  0.6843 -0.1443  0.1055
 4313SOL    HW124398   3.650   4.702  13.488 -0.5326  2.3844  0.6453
 4313SOL    HW224399   3.639   4.576  13.556  0.5627  0.1028 -1.7378
 4314SOL     OW24400   0.221   0.752  10.822  0.0281  0.3745 -0.3845
 4314SOL    HW124401   0.153   0.791  10.767  0.6625  0.2915 -1.2313
 4314SOL    HW224402   0.178   0.668  10.835 -2.0018  1.4658 -0.0990
 4315SOL     OW24403   0.266   3.990  16.025 -0.5462 -0.1473 -0.4195
 4315SOL    HW124404   0.179   4.031  16.016  0.4985  2.0525 -0.5444
 4315SOL    HW224405   0.306   4.041  16.095  2.0214 -1.5775 -0.8677
 4316SOL     OW24406   1.827   2.828  12.318  0.2542  0.6309 -0.2436
 4316SOL    HW124407   1.782   2.910  12.342  0.8965  0.3481  1.9768
 4316SOL    HW224408   1.823   2.790  12.406  0.9441 -0.0921 -0.5371
 4317SOL     OW24409   3.852   4.117   4.050 -0.1640  0.0964  0.3419
 4317SOL    HW124410   3.880   4.052   3.985 -2.7566 -0.3207 -0.3288
 4317SOL    HW224411   3.761   4.093   4.066 -0.1703 -0.9932 -1.2805
 4318SOL     OW24412   1.383   2.505   4.865 -0.4684 -0.3273 -0.0844
 4318SOL    HW124413   1.368   2.507   4.770  0.4773  1.0222 -0.2120
 4318SOL    HW224414   1.465   2.456   4.870 -1.5796 -1.9298  2.1699
 4319SOL     OW24415   3.237   4.194   7.953  0.1795  0.8514  0.3342
 4319SOL    HW124416   3.217   4.217   8.044 -1.1373 -0.5330  0.4032
 4319SOL    HW224417   3.279   4.276   7.930 -1.2591  1.6727  0.6535
 4320SOL     OW24418   1.419   4.322   2.878 -0.3981  0.5105 -0.0257
 4320SOL    HW124419   1.501   4.272   2.875 -1.3355 -1.0331  0.2808
 4320SOL    HW224420   1.366   4.266   2.934 -0.2861 -0.3670 -0.7972
 4321SOL     OW24421   4.223   1.106  13.651  0.1518 -0.0300  0.0519
 4321SOL    HW124422   4.315   1.128  13.669  0.0684 -0.3054  0.7963
 4321SOL    HW224423   4.209   1.173  13.584  0.2555 -0.8124 -0.7430
 4322SOL     OW24424   3.507   2.938  16.543 -0.0186 -0.4572  0.0996
 4322SOL    HW124425   3.591   2.924  16.500  1.4436 -2.5005  3.6051
 4322SOL    HW224426   3.504   3.034  16.549  0.5241 -0.3095 -2.0260
 4323SOL     OW24427   1.463   3.555   5.680  0.3188  0.3651  0.2692
 4323SOL    HW124428   1.548   3.600   5.685 -0.5313  2.0443 -0.5600
 4323SOL    HW224429   1.425   3.606   5.609  0.0192 -0.0480  0.1348
 4324SOL     OW24430   4.612   0.274   6.692 -0.1831 -0.4258  0.2672
 4324SOL    HW124431   4.686   0.335   6.696 -1.0662  0.6545  0.3793
 4324SOL    HW224432   4.566   0.323   6.624 -0.8198  1.4997  2.0670
 4325SOL     OW24433   2.783   0.443  12.264  0.3060  0.0803 -0.2135
 4325SOL    HW124434   2.704   0.494  12.282 -0.0085 -1.5390  3.0440
 4325SOL    HW224435   2.744   0.357  12.278  0.1395  0.1754 -0.0862
 4326SOL     OW24436   2.239   4.134   1.575  0.4050  0.1558 -0.6634
 4326SOL    HW124437   2.269   4.089   1.496 -1.8197 -0.1016 -1.3819
 4326SOL    HW224438   2.145   4.115   1.566  0.2999  0.3739 -0.0475
 4327SOL     OW24439   0.354   4.293   2.784 -0.0135  0.0521  0.1054
 4327SOL    HW124440   0.412   4.247   2.844 -1.2948 -0.0880  1.2383
 4327SOL    HW224441   0.270   4.275   2.826  0.1632 -1.4227 -0.1887
 4328SOL     OW24442   1.427   3.676   0.162  0.0254 -0.3043  0.2656
 4328SOL    HW124443   1.377   3.604   0.199 -0.1782  0.6694  1.8827
 4328SOL    HW224444   1.369   3.752   0.154  0.3921 -0.0746 -0.2807
 4329SOL     OW24445   2.681   2.840   7.823 -0.0241  0.2577  0.6213
 4329SOL    HW124446   2.723   2.763   7.784  0.1707  0.5628  0.2348
 4329SOL    HW224447   2.757   2.898   7.828  0.3463 -0.0887 -0.8780
 4330SOL     OW24448   2.780   1.957  14.663  0.4930 -0.3301  0.2827
 4330SOL    HW124449   2.708   1.966  14.726 -0.6137  1.4496 -1.2658
 4330SOL    HW224450   2.742   1.925  14.582  0.6666  0.5193 -0.1309
 4331SOL     OW24451   0.531   0.537  11.783 -0.2951 -0.1087  0.4193
 4331SOL    HW124452   0.513   0.457  11.734 -0.3853 -0.5161  1.1146
 4331SOL    HW224453   0.444   0.578  11.776  0.0067  0.9203  2.7711
 4332SOL     OW24454   1.543   4.275   5.506 -0.0188 -0.2371 -0.2414
 4332SOL    HW124455   1.451   4.249   5.509 -1.0977  3.4584 -0.9327
 4332SOL    HW224456   1.570   4.250   5.417  1.3179 -0.1046  0.1259
 4333SOL     OW24457   3.364   2.766  10.572  0.0819 -0.0874  0.1015
 4333SOL    HW124458   3.368   2.764  10.668  1.4313  0.4623  0.0534
 4333SOL    HW224459   3.447   2.731  10.541 -0.9299 -0.5170 -2.0925
 4334SOL     OW24460   1.325   4.265   3.362  0.0177 -0.1666 -0.6918
 4334SOL    HW124461   1.383   4.307   3.425  2.3019 -1.1435 -2.1107
 4334SOL    HW224462   1.381   4.258   3.284  2.4675 -0.6527  1.1131
 4335SOL     OW24463   2.413   1.152   3.512  0.2967  1.0830 -0.6380
 4335SOL    HW124464   2.421   1.196   3.427 -1.5094 -1.0719 -1.9071
 4335SOL    HW224465   2.331   1.106   3.498  0.6511  0.1125  0.5222
 4336SOL     OW24466   2.478   3.858   4.363  0.3949  0.3265  0.1473
 4336SOL    HW124467   2.503   3.846   4.455  0.7278  1.1080  0.1640
 4336SOL    HW224468   2.567   3.857   4.329 -0.1051 -0.2235 -1.1015
 4337SOL     OW24469   2.113   0.778   7.990  0.1758 -0.2135  0.7019
 4337SOL    HW124470   2.162   0.807   7.913  0.8680  0.3940  1.3741
 4337SOL    HW224471   2.030   0.826   7.995  0.5963  0.6124 -0.2957
 4338SOL     OW24472   0.659   0.660   3.494 -0.9584 -0.4818 -0.7023
 4338SOL    HW124473   0.607   0.715   3.436 -0.5693  0.6625  0.0491
 4338SOL    HW224474   0.720   0.618   3.433 -0.4745 -0.0819 -0.4972
 4339SOL     OW24475   4.620   1.918  15.437  0.2083  0.0919 -0.2290
 4339SOL    HW124476   4.695   1.889  15.488 -0.6121 -0.7420  0.4966
 4339SOL    HW224477   4.563   1.842  15.436  0.0127  0.2322  2.1564
 4340SOL     OW24478   2.296   3.240   3.054 -0.0928  0.3803 -0.0945
 4340SOL    HW124479   2.286   3.221   2.961 -1.3446 -0.0476  0.1243
 4340SOL    HW224480   2.333   3.329   3.053 -0.5963  0.5959  1.3823
 4341SOL     OW24481   0.524   1.385   3.926 -0.0435 -0.0596  0.3038
 4341SOL    HW124482   0.440   1.423   3.901  0.0877  0.1052  0.1157
 4341SOL    HW224483   0.563   1.455   3.978  1.2496  0.8329 -1.9131
 4342SOL     OW24484   3.973   2.376   8.804  0.4092  0.1500  0.0796
 4342SOL    HW124485   3.971   2.281   8.789  1.8184  0.2773 -0.9073
 4342SOL    HW224486   4.066   2.384   8.827 -0.1188  1.7109  1.6637
 4343SOL     OW24487   3.246   4.406   4.803  0.5679 -0.3039 -0.5824
 4343SOL    HW124488   3.263   4.380   4.893 -0.8593 -4.9409 -1.6653
 4343SOL    HW224489   3.252   4.499   4.824  0.3770 -0.5218  0.4384
 4344SOL     OW24490   3.886   3.955   0.975 -0.4352 -0.2264  0.1902
 4344SOL    HW124491   3.865   4.036   0.929 -2.6868  0.1085  1.8160
 4344SOL    HW224492   3.868   3.887   0.910 -0.0723 -1.0560  0.9472
 4345SOL     OW24493   0.001   3.939   3.437  0.0192 -0.2352  0.2720
 4345SOL    HW124494   0.046   3.855   3.444 -1.4224 -0.9410  1.0068
 4345SOL    HW224495   0.022   3.971   3.349  0.2002 -0.1114  0.3604
 4346SOL     OW24496   0.693   3.238   7.902  0.3148 -0.5155  0.2147
 4346SOL    HW124497   0.682   3.143   7.893  0.2260 -0.6914  2.0358
 4346SOL    HW224498   0.630   3.277   7.842  0.3093 -2.1807 -0.8710
 4347SOL     OW24499   2.979   2.940   9.320 -0.4143 -0.9355  0.2144
 4347SOL    HW124500   2.885   2.950   9.332 -0.6126 -1.9494 -0.4808
 4347SOL    HW224501   3.012   3.027   9.342 -1.4991 -0.4375 -0.1508
 4348SOL     OW24502   0.683   4.470  15.402 -0.0096 -0.6490 -0.0060
 4348SOL    HW124503   0.609   4.530  15.411  0.8131  0.7582 -2.6623
 4348SOL    HW224504   0.641   4.406  15.345  0.3909 -0.9534  0.0401
 4349SOL     OW24505   0.891   4.235   5.379  0.1312 -0.3642  0.2583
 4349SOL    HW124506   0.807   4.255   5.419 -0.2105  0.9216 -1.1103
 4349SOL    HW224507   0.954   4.253   5.450 -0.4715 -0.0488  0.7129
 4350SOL     OW24508   3.516   0.437   2.722  0.0293 -0.2382 -0.5147
 4350SOL    HW124509   3.499   0.526   2.690  0.3452 -0.6296 -1.7558
 4350SOL    HW224510   3.447   0.420   2.786 -0.0787 -1.0365 -0.8477
 4351SOL     OW24511   3.464   1.678   5.814  0.3361 -0.0434 -0.2557
 4351SOL    HW124512   3.380   1.651   5.850  1.0646 -2.2501 -0.2465
 4351SOL    HW224513   3.441   1.729   5.736  1.1568 -0.3938 -0.7309
 4352SOL     OW24514   0.671   1.720   8.023  0.6786  0.8982  0.2197
 4352SOL    HW124515   0.651   1.627   8.032 -2.5573  1.4434 -1.3686
 4352SOL    HW224516   0.588   1.759   8.051  0.0705 -0.9039  0.9121
 4353SOL     OW24517   3.238   1.556   0.041 -0.5900 -0.2073  0.0902
 4353SOL    HW124518   3.153   1.599   0.045  0.8357  2.8012 -1.9016
 4353SOL    HW224519   3.228   1.472  17.691  0.7258  0.5077 -1.5872
 4354SOL     OW24520   1.720   4.293   2.624 -0.6994  0.0370 -0.1114
 4354SOL    HW124521   1.769   4.211   2.623 -1.0154 -0.1332 -1.2314
 4354SOL    HW224522   1.710   4.309   2.718 -1.6536  3.1628 -0.7171
 4355SOL     OW24523   4.097   0.756   6.868 -0.2059 -0.0244 -0.8419
 4355SOL    HW124524   4.171   0.815   6.886  0.7004 -0.9027 -1.7649
 4355SOL    HW224525   4.151   0.688   6.829 -1.0162 -0.9039 -0.4324
 4356SOL     OW24526   2.781   0.249   6.958  0.4087  1.0217 -0.0598
 4356SOL    HW124527   2.720   0.177   6.944 -0.9013  1.5505  2.7944
 4356SOL    HW224528   2.743   0.318   6.904 -1.1918 -0.2525 -0.5547
 4357SOL     OW24529   1.840   2.227   3.422  1.2475 -0.0003  0.1666
 4357SOL    HW124530   1.929   2.198   3.439  2.4324  2.8844 -1.1456
 4357SOL    HW224531   1.832   2.291   3.494  1.6663  0.6222 -0.3440
 4358SOL     OW24532   2.182   2.962   8.766 -0.3006  0.0269  0.5339
 4358SOL    HW124533   2.229   2.885   8.799  1.2127  0.5770 -0.3270
 4358SOL    HW224534   2.256   3.015   8.735  1.3924 -1.9037  1.2971
 4359SOL     OW24535   1.809   1.381   5.474 -0.7903 -0.3953 -0.0450
 4359SOL    HW124536   1.818   1.288   5.496  2.6930 -0.7644 -3.0621
 4359SOL    HW224537   1.890   1.392   5.424  0.5374  2.2048  2.6880
 4360SOL     OW24538   1.576   0.824   2.362  0.2411  0.6920  0.5588
 4360SOL    HW124539   1.590   0.918   2.355  1.6990  0.3988 -0.4701
 4360SOL    HW224540   1.497   0.822   2.416 -0.0988 -0.8225  0.0123
 4361SOL     OW24541   0.199   3.283   1.297 -0.0006 -0.2260  0.6825
 4361SOL    HW124542   0.123   3.286   1.240  1.9018 -1.6229 -1.8999
 4361SOL    HW224543   0.267   3.237   1.248 -0.1635 -0.5307  0.7486
 4362SOL     OW24544   0.225   0.427   2.248  0.5502 -0.0150 -0.0682
 4362SOL    HW124545   0.185   0.444   2.162  1.7119  0.3381 -0.5291
 4362SOL    HW224546   0.242   0.333   2.252  0.1985 -0.0736  0.0570
 4363SOL     OW24547   3.553   1.180   4.686 -0.3062 -0.7024 -0.6823
 4363SOL    HW124548   3.608   1.133   4.622  1.6354  0.0617  0.4182
 4363SOL    HW224549   3.546   1.121   4.761  1.1549 -0.8565 -0.6586
 4364SOL     OW24550   0.048   2.314   3.799  0.1321 -0.7250  0.1967
 4364SOL    HW124551   0.065   2.311   3.705 -0.1817 -2.4569  0.1950
 4364SOL    HW224552   0.108   2.247   3.834  2.3739  1.1938  0.0616
 4365SOL     OW24553   0.661   2.341   1.648  0.6020 -0.3024  0.1265
 4365SOL    HW124554   0.748   2.379   1.633  0.6066  0.1741  1.3434
 4365SOL    HW224555   0.667   2.257   1.603  0.3874 -0.4040  0.2834
 4366SOL     OW24556   2.739   1.292   6.934 -0.2529  0.0527 -0.0583
 4366SOL    HW124557   2.822   1.331   6.963  0.8975 -0.9612 -2.0001
 4366SOL    HW224558   2.741   1.215   6.991  1.3734 -0.3859 -0.7100
 4367SOL     OW24559   0.022   1.920   4.282  0.2610 -0.2929  0.4124
 4367SOL    HW124560   0.045   1.946   4.371 -0.7898 -0.5694  0.7612
 4367SOL    HW224561   0.055   1.997   4.235 -0.9036 -0.1613 -0.1891
 4368SOL     OW24562   2.610   1.465  10.976  1.1531 -0.1369  0.1497
 4368SOL    HW124563   2.647   1.475  11.063 -2.8462  2.2052  1.6140
 4368SOL    HW224564   2.518   1.452  10.999  0.7526 -1.2382 -1.9984
 4369SOL     OW24565   3.671   2.823   5.291 -0.5427 -0.3082 -0.1334
 4369SOL    HW124566   3.685   2.887   5.220  0.5709 -1.3822 -0.8800
 4369SOL    HW224567   3.665   2.874   5.372  1.9343 -0.2359  0.0015
 4370SOL     OW24568   1.015   2.943   5.446 -0.0989 -0.3291 -0.1537
 4370SOL    HW124569   1.049   2.910   5.529 -0.5397 -1.1083 -0.2824
 4370SOL    HW224570   0.980   2.861   5.411 -2.4745  0.2421  0.9399
 4371SOL     OW24571   1.091   4.536   3.438 -0.1170 -0.5340 -0.2389
 4371SOL    HW124572   1.126   4.621   3.413 -1.8294  0.3667  0.4749
 4371SOL    HW224573   1.093   4.526   3.533 -0.8875  1.0658 -0.0701
 4372SOL     OW24574   1.953   0.942   2.732  0.1390 -0.2254 -0.4924
 4372SOL    HW124575   1.860   0.964   2.739  0.3371  0.3020  0.4585
 4372SOL    HW224576   1.949   0.860   2.682 -0.5012 -1.5053  1.6632
 4373SOL     OW24577   1.122   4.275   6.281 -0.2972 -0.4919  0.0218
 4373SOL    HW124578   1.141   4.364   6.251 -2.5497 -0.0377 -0.0786
 4373SOL    HW224579   1.037   4.293   6.321  0.0347 -0.7977  0.8811
 4374SOL     OW24580   4.700   4.181   7.999  0.1273  0.0045 -0.7532
 4374SOL    HW124581   0.033   4.191   7.922  0.1006 -0.0126 -0.7752
 4374SOL    HW224582   4.653   4.264   7.993  2.5483  1.4447  0.6305
 4375SOL     OW24583   1.436   4.143   8.086 -0.0910  0.3794 -0.2925
 4375SOL    HW124584   1.407   4.217   8.033  0.6324  0.9276  0.0755
 4375SOL    HW224585   1.380   4.145   8.164  1.7835  2.0389  1.0179
 4376SOL     OW24586   4.414   2.990  17.540  0.2239 -0.0860 -0.3515
 4376SOL    HW124587   4.408   2.908  17.589  0.8496 -0.6490 -1.2038
 4376SOL    HW224588   4.502   2.984  17.501  0.5409  1.6115  0.1164
 4377SOL     OW24589   3.278   0.104   7.459 -0.6411 -0.4681 -0.6306
 4377SOL    HW124590   3.373   0.091   7.457 -0.7683 -1.5609  0.3325
 4377SOL    HW224591   3.265   0.127   7.551  0.8849  1.8189 -0.9975
 4378SOL     OW24592   4.372   2.353   9.129  0.2499  0.1669  0.1007
 4378SOL    HW124593   4.331   2.435   9.102 -1.0471 -0.4017  0.3268
 4378SOL    HW224594   4.349   2.360   9.222 -1.5142 -0.9396 -0.2327
 4379SOL     OW24595   1.408   1.892   9.131  0.4814  0.0842 -0.0738
 4379SOL    HW124596   1.349   1.878   9.056  1.2159 -2.0468 -0.2353
 4379SOL    HW224597   1.347   1.928   9.195  0.5780  1.2729 -0.6441
 4380SOL     OW24598   0.760   0.981   0.819  0.9295 -0.5684 -0.5033
 4380SOL    HW124599   0.846   1.006   0.785  1.5630 -0.0576  1.4800
 4380SOL    HW224600   0.773   1.001   0.912 -0.9010  1.4927 -0.6976
 4381SOL     OW24601   0.476   0.122  16.924 -0.3031  0.2784 -0.2338
 4381SOL    HW124602   0.431   0.200  16.891 -0.2444  1.6370  2.8315
 4381SOL    HW224603   0.406   0.073  16.967 -2.1730  2.0690 -1.2397
 4382SOL     OW24604   1.852   2.466  10.590 -0.0538 -0.0752  0.1689
 4382SOL    HW124605   1.762   2.431  10.584  0.4013 -1.7301  3.2020
 4382SOL    HW224606   1.824   2.554  10.567  0.2687 -0.0309 -0.0554
 4383SOL     OW24607   2.487   1.128   0.854  0.6031 -0.9889  0.5160
 4383SOL    HW124608   2.392   1.120   0.845  0.4523  0.7632  0.5002
 4383SOL    HW224609   2.494   1.169   0.941 -0.7498 -2.6308  1.3885
 4384SOL     OW24610   1.777   1.089   5.488 -0.3357  0.2977  0.3109
 4384SOL    HW124611   1.699   1.115   5.439  0.7932  1.2223 -0.9929
 4384SOL    HW224612   1.739   1.024   5.547  2.7868 -2.0224 -0.2273
 4385SOL     OW24613   0.021   3.054   8.634 -0.1145 -0.0129 -0.2193
 4385SOL    HW124614   4.659   3.022   8.605  0.7425 -1.1303 -1.5304
 4385SOL    HW224615   4.717   3.143   8.657  0.2206  0.2512 -0.8322
 4386SOL     OW24616   0.727   0.035  16.823 -0.0886  0.5150  0.5309
 4386SOL    HW124617   0.744   0.117  16.777 -0.4629  1.1877  1.5973
 4386SOL    HW224618   0.644   0.054  16.867 -0.0153  1.8702  0.0903
 4387SOL     OW24619   0.318   1.467  14.921  0.4892 -0.1392 -0.0678
 4387SOL    HW124620   0.387   1.417  14.965 -0.5617  0.5439  2.3189
 4387SOL    HW224621   0.245   1.439  14.976  0.5035  0.3424  0.1946
 4388SOL     OW24622   0.682   4.691   2.795  0.0480  0.1376  0.4165
 4388SOL    HW124623   0.759   0.024   2.793  1.3012 -1.6658 -2.3019
 4388SOL    HW224624   0.656   4.710   2.705 -0.6297 -0.6640  0.4452
 4389SOL     OW24625   2.749   4.277   8.131  0.2480 -0.2634  0.0333
 4389SOL    HW124626   2.708   4.356   8.166  0.1369 -0.5791  0.6211
 4389SOL    HW224627   2.736   4.216   8.204  0.2964  1.1182  1.1954
 4390SOL     OW24628   0.530   0.637   5.709 -0.7435 -0.0949  0.6949
 4390SOL    HW124629   0.568   0.718   5.675  0.0874 -1.4006 -1.5424
 4390SOL    HW224630   0.564   0.570   5.650 -0.8003 -0.2886  0.8808
 4391SOL     OW24631   0.412   2.692  10.686  0.4367 -0.7200  0.1662
 4391SOL    HW124632   0.472   2.739  10.744 -0.0134  0.0885 -0.0249
 4391SOL    HW224633   0.394   2.754  10.615  0.2253 -2.0802 -0.9582
 4392SOL     OW24634   0.149   3.157   6.961  0.5911 -0.4112  0.1769
 4392SOL    HW124635   0.194   3.072   6.956  2.5016  0.7365 -2.0902
 4392SOL    HW224636   0.213   3.219   6.997  0.3486 -1.2377  2.0404
 4393SOL     OW24637   3.081   4.488   8.940 -0.6966  0.6261  0.2677
 4393SOL    HW124638   3.006   4.498   8.997  0.7930  1.9662  1.9657
 4393SOL    HW224639   3.132   4.425   8.991 -1.9812  0.6243  1.5391
 4394SOL     OW24640   3.250   4.516   6.967 -0.5742  0.2370 -0.3910
 4394SOL    HW124641   3.319   4.568   7.010 -0.5388  0.1586 -0.3512
 4394SOL    HW224642   3.248   4.540   6.875  1.1116  0.2293 -0.4426
 4395SOL     OW24643   1.458   0.861   6.053  0.5480  0.3781  0.2256
 4395SOL    HW124644   1.512   0.874   6.130  1.7817  0.2960 -0.6216
 4395SOL    HW224645   1.521   0.900   5.993 -3.4711  3.9095 -1.7016
 4396SOL     OW24646   3.690   2.184   2.710 -0.2963  0.3270  0.3544
 4396SOL    HW124647   3.693   2.124   2.784 -1.5485  0.1844  0.2882
 4396SOL    HW224648   3.618   2.240   2.739  0.8075  2.0339 -0.1955
 4397SOL     OW24649   3.598   2.451   5.393  0.2322  0.0300  0.2212
 4397SOL    HW124650   3.513   2.408   5.405  0.5383  0.0284  2.3921
 4397SOL    HW224651   3.648   2.402   5.459  2.2022 -1.0386 -2.0316
 4398SOL     OW24652   0.708   0.710   0.804  0.0959 -0.7404  0.0961
 4398SOL    HW124653   0.720   0.801   0.831  0.9963 -0.5668 -0.9151
 4398SOL    HW224654   0.784   0.687   0.751  0.3586  1.0026 -0.2684
 4399SOL     OW24655   1.524   3.805   7.343  0.1116  0.4026  0.0712
 4399SOL    HW124656   1.573   3.723   7.351 -2.8693 -1.3815 -0.1208
 4399SOL    HW224657   1.500   3.808   7.251 -1.3286  1.5912  0.4800
 4400SOL     OW24658   0.712   4.069   2.203  0.2702 -0.1006  0.2927
 4400SOL    HW124659   0.752   3.985   2.221 -0.0479 -0.0472  1.2548
 4400SOL    HW224660   0.791   4.123   2.207  0.1228  0.2488 -1.7188
 4401SOL     OW24661   2.528   0.969   4.801 -0.2644 -0.2669  0.0103
 4401SOL    HW124662   2.475   1.049   4.805 -0.1893 -0.1536 -1.3374
 4401SOL    HW224663   2.608   1.010   4.768  0.2274 -0.7615  0.5875
 4402SOL     OW24664   1.620   4.232   5.215  0.1756  0.3942 -0.2127
 4402SOL    HW124665   1.571   4.283   5.150  1.4973  0.0108 -1.5274
 4402SOL    HW224666   1.620   4.147   5.171  0.1799  0.7123 -0.8289
 4403SOL     OW24667   0.688   0.664  10.552  0.1625  0.4646 -0.0477
 4403SOL    HW124668   0.759   0.723  10.578  1.8137 -0.0384 -3.3718
 4403SOL    HW224669   0.703   0.657  10.457  1.0503 -2.8153  0.3649
 4404SOL     OW24670   4.089   3.541   4.422  0.5578 -0.5305  0.7039
 4404SOL    HW124671   4.101   3.584   4.338 -0.9513 -1.7447 -0.1300
 4404SOL    HW224672   4.063   3.457   4.385  2.0602 -0.7695  0.2192
 4405SOL     OW24673   0.980   3.164   7.627  0.4321  0.2378 -0.4526
 4405SOL    HW124674   0.984   3.157   7.723 -0.9578 -2.8759 -0.6399
 4405SOL    HW224675   0.902   3.110   7.614 -0.5602  1.1993  1.3619
 4406SOL     OW24676   4.249   1.880   6.243 -0.0739  0.5350  0.1972
 4406SOL    HW124677   4.299   1.901   6.322  1.5018 -0.8804 -0.4445
 4406SOL    HW224678   4.286   1.793   6.227  1.5678  1.7234 -2.6577
 4407SOL     OW24679   1.634   2.550   3.386  0.1209 -0.3899  0.6065
 4407SOL    HW124680   1.675   2.485   3.329  0.8687  1.5015 -1.0155
 4407SOL    HW224681   1.693   2.624   3.373 -0.3536 -0.2066 -0.4375
 4408SOL     OW24682   4.036   0.284   8.524 -0.3374  0.0767  0.2170
 4408SOL    HW124683   4.061   0.313   8.611  0.7129 -1.1950  0.3387
 4408SOL    HW224684   4.115   0.286   8.471 -1.1840 -1.6710 -1.1313
 4409SOL     OW24685   3.734   1.834   8.364  0.0934 -0.2858  0.0222
 4409SOL    HW124686   3.642   1.808   8.362  0.5611 -1.8593 -1.5137
 4409SOL    HW224687   3.788   1.763   8.399  2.0020  2.2511  2.1725
 4410SOL     OW24688   4.177   0.694  16.965  0.0042  0.7132 -0.1439
 4410SOL    HW124689   4.219   0.647  16.893  1.8103  0.5477  1.0225
 4410SOL    HW224690   4.227   0.667  17.041 -0.4648 -1.0348 -0.4464
 4411SOL     OW24691   1.659   3.588   8.542 -0.4228 -0.0303  0.3080
 4411SOL    HW124692   1.708   3.523   8.591  0.0996  1.9638  2.4600
 4411SOL    HW224693   1.728   3.617   8.482 -3.7411  4.4075 -1.4212
 4412SOL     OW24694   0.167   0.077   4.614 -0.3270  0.9642  0.3504
 4412SOL    HW124695   0.120   0.031   4.684 -0.3974  2.1276  1.0669
 4412SOL    HW224696   0.211   0.138   4.673  1.0533  0.6912 -0.3988
 4413SOL     OW24697   2.644   1.453   5.145 -0.0217  0.2893  0.9653
 4413SOL    HW124698   2.688   1.401   5.213  1.5974 -1.6856 -1.5593
 4413SOL    HW224699   2.668   1.384   5.083  0.3854  0.5922  0.7856
 4414SOL     OW24700   0.510   0.835   4.174 -0.0382 -0.2768 -0.5886
 4414SOL    HW124701   0.508   0.806   4.083  0.8588 -0.7320 -0.4652
 4414SOL    HW224702   0.544   0.925   4.165 -1.6094  0.3222 -0.4288
 4415SOL     OW24703   0.984   3.555   5.943  0.2322  0.0728 -0.2171
 4415SOL    HW124704   0.889   3.568   5.945  0.0438 -1.3586 -0.1790
 4415SOL    HW224705   1.033   3.631   5.976 -1.2815  1.1543 -0.4565
 4416SOL     OW24706   2.582   3.243   9.228  0.0225 -0.3093 -0.1908
 4416SOL    HW124707   2.669   3.281   9.234  0.3965 -0.8642 -2.0087
 4416SOL    HW224708   2.617   3.155   9.235  1.0610  0.1407  0.1882
 4417SOL     OW24709   4.715   0.837   1.594 -0.1188 -0.1679 -0.1687
 4417SOL    HW124710   4.709   0.819   1.500  2.4261 -0.0982 -0.3583
 4417SOL    HW224711   0.057   0.908   1.590  0.4918 -0.5072  4.4876
 4418SOL     OW24712   2.673   0.095   7.998  0.1039 -0.1007 -0.3967
 4418SOL    HW124713   2.636   0.137   8.076  0.6653 -1.2391  0.4867
 4418SOL    HW224714   2.626   0.125   7.921 -0.2842 -0.5295 -0.3272
 4419SOL     OW24715   4.445   1.083   7.918 -0.1137 -0.0869 -0.6054
 4419SOL    HW124716   4.359   1.125   7.927  0.8639  1.8225 -0.2395
 4419SOL    HW224717   4.441   1.019   7.990 -0.4947  0.1110 -0.4481
 4420SOL     OW24718   4.173   1.230   4.074 -0.0323 -0.2404 -0.3863
 4420SOL    HW124719   4.121   1.178   4.134  0.8444 -3.8195 -2.7340
 4420SOL    HW224720   4.245   1.168   4.067 -0.8946 -0.9968 -2.6652
 4421SOL     OW24721   3.610   0.244   5.174 -0.7069  0.2917 -0.3000
 4421SOL    HW124722   3.612   0.321   5.118 -3.1630  0.9164  0.4651
 4421SOL    HW224723   3.701   0.231   5.204 -0.6162  1.1268 -0.2120
 4422SOL     OW24724   2.071   3.056  13.068  0.3998  0.3446 -0.0250
 4422SOL    HW124725   2.009   3.109  13.119  1.9665  2.9036 -0.7716
 4422SOL    HW224726   2.147   3.108  13.042 -0.2530  0.5427 -1.5585
 4423SOL     OW24727   4.253   1.816   8.316 -0.3407  0.4054 -0.3519
 4423SOL    HW124728   4.252   1.768   8.234  1.3481  0.3784 -0.3461
 4423SOL    HW224729   4.346   1.813   8.337 -0.3113  0.9837 -0.3865
 4424SOL     OW24730   0.918   2.037  14.743  0.0249  0.5193  0.1132
 4424SOL    HW124731   0.844   1.979  14.758  1.6903 -1.7318 -0.5069
 4424SOL    HW224732   0.995   2.009  14.791 -0.5046  1.9235  1.8067
 4425SOL     OW24733   1.013   3.626   1.572 -0.4337 -0.0641  0.5026
 4425SOL    HW124734   1.008   3.690   1.643 -0.0910  0.6736 -0.1395
 4425SOL    HW224735   0.925   3.638   1.536  0.3223 -0.7620 -1.5402
 4426SOL     OW24736   2.465   1.793   1.346 -0.1098 -0.3071 -0.1023
 4426SOL    HW124737   2.463   1.867   1.408  0.7511  0.5544 -1.0989
 4426SOL    HW224738   2.541   1.817   1.293  1.3501 -3.1641  0.7058
 4427SOL     OW24739   2.553   1.419   3.890 -0.4358 -0.4950  0.3709
 4427SOL    HW124740   2.604   1.399   3.812  1.7707 -0.7569  1.8815
 4427SOL    HW224741   2.613   1.461   3.952 -1.4604 -0.3177  1.2496
 4428SOL     OW24742   2.223   1.063   7.899  0.5342 -0.3313 -0.0666
 4428SOL    HW124743   2.261   1.069   7.812  1.5835 -1.1303  0.3376
 4428SOL    HW224744   2.168   1.142   7.896  0.3622 -0.4283  0.5631
 4429SOL     OW24745   4.426   3.365  10.719 -0.2537  0.2400  0.2364
 4429SOL    HW124746   4.468   3.431  10.664  0.3188  0.3866  0.8512
 4429SOL    HW224747   4.380   3.424  10.779  1.3889 -0.0269  1.7422
 4430SOL     OW24748   3.214   4.272  14.969 -0.1855  0.3398  0.1637
 4430SOL    HW124749   3.157   4.212  15.018  0.8500  0.7588  1.8836
 4430SOL    HW224750   3.174   4.274  14.882  0.8466  1.1010 -0.2882
 4431SOL     OW24751   4.372   2.168  10.663  0.2794 -0.2275  0.4442
 4431SOL    HW124752   4.344   2.233  10.597  0.2632 -1.3123 -0.6195
 4431SOL    HW224753   4.427   2.232  10.709  1.3059 -0.7420 -0.0591
 4432SOL     OW24754   4.602   3.013   6.274 -0.2558 -0.2067 -0.1904
 4432SOL    HW124755   4.580   3.080   6.338 -0.8931  0.0217 -0.6486
 4432SOL    HW224756   4.522   2.961   6.277  0.0662 -0.5735  1.9191
 4433SOL     OW24757   0.856   2.966  15.812 -0.5216 -0.4530 -0.0130
 4433SOL    HW124758   0.893   2.899  15.869  0.8851  0.1560 -0.2072
 4433SOL    HW224759   0.937   3.007  15.782  0.2282 -0.7314  1.6683
 4434SOL     OW24760   0.524   0.525   9.745 -0.2150 -0.0560  0.3335
 4434SOL    HW124761   0.597   0.567   9.700 -1.3040  1.3087 -0.1436
 4434SOL    HW224762   0.453   0.536   9.682 -0.0824  2.1400  0.5823
 4435SOL     OW24763   2.226   1.902   5.457 -0.2453 -0.0417  0.6923
 4435SOL    HW124764   2.210   1.808   5.465  0.7192 -0.2250  0.4259
 4435SOL    HW224765   2.170   1.918   5.381  0.4411  1.5861  0.5340
 4436SOL     OW24766   2.927   1.948   6.777  0.3691  0.2638  0.3476
 4436SOL    HW124767   2.883   1.881   6.829  0.4943  0.5186  0.7768
 4436SOL    HW224768   3.009   1.904   6.753  1.2310  0.5788  2.7720
 4437SOL     OW24769   2.805   0.576  13.439 -0.0500 -0.3629 -0.5006
 4437SOL    HW124770   2.771   0.663  13.417  2.6891  0.3429 -2.0091
 4437SOL    HW224771   2.724   0.526  13.444  0.6208 -1.3128  0.7044
 4438SOL     OW24772   2.296   0.321  11.645  0.1565  0.2710 -0.3428
 4438SOL    HW124773   2.212   0.274  11.650 -0.8731  1.8626 -2.9382
 4438SOL    HW224774   2.298   0.367  11.561 -0.1094 -0.2772 -0.6479
 4439SOL     OW24775   2.482   1.095  14.693 -0.1392 -0.0609 -0.1534
 4439SOL    HW124776   2.424   1.135  14.628  0.4020 -1.8334 -1.7138
 4439SOL    HW224777   2.451   1.006  14.680  0.8230 -0.5544  0.9823
 4440SOL     OW24778   0.603   3.076   4.266 -0.8386  0.2556 -0.2254
 4440SOL    HW124779   0.605   3.074   4.170  1.9881 -3.6139 -0.0806
 4440SOL    HW224780   0.672   3.016   4.293  0.6228  1.3826 -1.4751
 4441SOL     OW24781   2.013   3.656   0.855 -0.2451  0.0948 -0.2641
 4441SOL    HW124782   2.069   3.590   0.895 -1.6094 -0.2033  1.1288
 4441SOL    HW224783   2.007   3.632   0.762  2.8130  0.1186 -0.4536
 4442SOL     OW24784   3.976   0.112   8.021 -0.6041 -0.0862 -0.1149
 4442SOL    HW124785   3.885   0.113   8.051 -0.9037 -0.5201 -0.9828
 4442SOL    HW224786   3.982   0.202   7.990 -1.7988 -0.1250 -0.4768
 4443SOL     OW24787   3.978   1.616   6.358 -0.4622  0.1453 -0.4658
 4443SOL    HW124788   4.056   1.638   6.408 -0.3591 -0.4017 -0.3920
 4443SOL    HW224789   4.017   1.536   6.321  0.5215 -0.8865  2.8496
 4444SOL     OW24790   1.891   1.058   7.373 -0.0730  0.4052  0.4207
 4444SOL    HW124791   1.823   1.063   7.306 -2.5142  0.8313  2.9624
 4444SOL    HW224792   1.860   0.982   7.421 -3.8354  2.0920  0.6062
 4445SOL     OW24793   0.101   3.522   2.728 -0.0174  0.1281 -0.0342
 4445SOL    HW124794   0.019   3.537   2.681  0.1264  2.6710  0.5534
 4445SOL    HW224795   0.123   3.602   2.775  0.9313  0.5742 -1.2200
 4446SOL     OW24796   1.933   0.374   6.571  0.2760  0.1596  0.0678
 4446SOL    HW124797   1.956   0.312   6.501 -0.3012  1.1837 -1.0444
 4446SOL    HW224798   1.954   0.327   6.651  1.0959 -1.5697 -1.1548
 4447SOL     OW24799   1.173   1.375  11.049 -0.3364 -0.4901 -0.0721
 4447SOL    HW124800   1.128   1.308  11.101 -0.0529  0.2995  1.2036
 4447SOL    HW224801   1.113   1.389  10.975 -0.1544  0.0982 -0.1088
 4448SOL     OW24802   2.109   0.220   2.610  0.0871  0.2444  0.1057
 4448SOL    HW124803   2.153   0.253   2.689  1.3926 -0.0666 -0.5050
 4448SOL    HW224804   2.022   0.206   2.648  0.4744  0.3630  1.0547
 4449SOL     OW24805   1.216   3.153   5.337 -0.4847 -0.3294 -0.3163
 4449SOL    HW124806   1.156   3.118   5.403 -0.2031 -2.3600 -1.1224
 4449SOL    HW224807   1.164   3.215   5.286 -1.9626 -2.3334 -1.2738
 4450SOL     OW24808   2.010   4.004  15.988 -0.8775  0.2643 -0.1351
 4450SOL    HW124809   1.980   4.094  15.977 -3.1334 -0.1663  2.4893
 4450SOL    HW224810   2.091   4.017  16.037 -0.6079 -1.7603 -0.0184
 4451SOL     OW24811   2.547   2.161  16.395  0.2479  0.4037  0.3585
 4451SOL    HW124812   2.489   2.198  16.329  0.2863 -1.9638 -0.9939
 4451SOL    HW224813   2.589   2.239  16.432 -0.3207  1.8129 -2.0027
 4452SOL     OW24814   1.522   0.276   2.180 -0.3393 -0.3279 -0.1610
 4452SOL    HW124815   1.452   0.241   2.235  0.2750  0.2493  0.9757
 4452SOL    HW224816   1.469   0.317   2.112 -0.0032 -1.8960 -1.3679
 4453SOL     OW24817   3.941   0.044   6.389 -0.6888  0.6002  0.3051
 4453SOL    HW124818   3.902   0.095   6.318 -3.3062 -0.5677  0.8836
 4453SOL    HW224819   3.867   0.045   6.450 -0.5277 -0.7057  0.5243
 4454SOL     OW24820   3.085   0.392  17.462  0.4033 -1.0040  0.2994
 4454SOL    HW124821   3.078   0.405  17.557 -0.2445  1.1671 -0.0697
 4454SOL    HW224822   3.153   0.324  17.463  1.7904  0.3812  0.5025
 4455SOL     OW24823   0.428   1.558  15.975  0.4354 -0.5633  0.5235
 4455SOL    HW124824   0.403   1.542  15.884 -0.0870  4.3534 -0.1752
 4455SOL    HW224825   0.516   1.587  15.952  1.1079  0.5228  4.4709
 4456SOL     OW24826   0.522   4.531   7.503 -0.2238 -0.5731 -0.1924
 4456SOL    HW124827   0.537   4.480   7.583 -1.1983  0.8483  0.8905
 4456SOL    HW224828   0.440   4.492   7.474 -0.4715  0.7828 -1.2801
 4457SOL     OW24829   4.717   0.312   5.639  0.2359 -0.6332  0.3900
 4457SOL    HW124830   0.014   0.315   5.545 -0.7089 -1.4192  0.1616
 4457SOL    HW224831   0.062   0.368   5.676 -1.1992  0.9349  0.6628
 4458SOL     OW24832   4.384   1.857   0.207 -0.7427  0.0558 -0.1217
 4458SOL    HW124833   4.337   1.778   0.179  0.2183 -0.1773 -1.0579
 4458SOL    HW224834   4.445   1.822   0.272  0.2028  1.0017 -0.5167
 4459SOL     OW24835   1.024   1.027   0.717  0.2756 -0.7998  0.1308
 4459SOL    HW124836   1.060   1.006   0.803 -0.1661 -2.7891 -0.1698
 4459SOL    HW224837   1.073   0.963   0.665  1.0448 -1.1062  1.2278
 4460SOL     OW24838   1.268   0.581   6.492 -0.0390  0.0746  0.5337
 4460SOL    HW124839   1.246   0.567   6.399  0.7750  1.1733  0.1730
 4460SOL    HW224840   1.215   0.519   6.541  0.0984 -1.7501 -1.6034
 4461SOL     OW24841   3.631   3.965   5.792 -0.1563 -0.2642  0.0550
 4461SOL    HW124842   3.654   3.878   5.824 -0.5889 -0.0942  0.8178
 4461SOL    HW224843   3.539   3.970   5.818 -0.0276 -0.1041  0.4743
 4462SOL     OW24844   2.037   2.165   9.049  0.6605 -0.0002  0.5583
 4462SOL    HW124845   1.996   2.191   9.132  1.0398  0.5405  0.5729
 4462SOL    HW224846   2.057   2.252   9.014  0.1291 -0.1785 -0.1841
 4463SOL     OW24847   3.724   3.721  12.057  0.4646 -0.5111 -0.0867
 4463SOL    HW124848   3.812   3.741  12.026 -0.1462  0.6121 -1.0785
 4463SOL    HW224849   3.736   3.770  12.138  0.4962 -0.2584 -0.2434
 4464SOL     OW24850   3.875   2.153   1.436  0.7957  0.2770  0.2342
 4464SOL    HW124851   3.953   2.103   1.461  0.3720 -0.0965  0.8443
 4464SOL    HW224852   3.907   2.207   1.365  0.8164 -1.5238 -1.1259
 4465SOL     OW24853   0.332   3.888  13.910  0.0184  0.0776 -0.4071
 4465SOL    HW124854   0.253   3.835  13.896 -1.6716  1.6219  3.3556
 4465SOL    HW224855   0.298   3.977  13.901 -0.3445  0.1841  2.2164
 4466SOL     OW24856   2.329   2.685   5.279 -0.5311 -0.8571  0.2590
 4466SOL    HW124857   2.299   2.743   5.209 -1.5498  0.8470  2.1521
 4466SOL    HW224858   2.280   2.610   5.245 -0.3390  0.0948 -2.1245
 4467SOL     OW24859   1.477   0.498   7.640 -0.1688 -0.4728  0.4558
 4467SOL    HW124860   1.560   0.501   7.687 -0.2593 -1.4226  0.6932
 4467SOL    HW224861   1.508   0.552   7.568  0.7173  1.0448  1.9751
 4468SOL     OW24862   3.226   2.890   2.507  0.3921  0.4728 -0.1051
 4468SOL    HW124863   3.294   2.946   2.469  0.3243  0.0022 -0.9098
 4468SOL    HW224864   3.285   2.832   2.556  0.7834  0.7645 -0.2330
 4469SOL     OW24865   1.180   2.867   9.574 -0.1671  0.6886  0.2100
 4469SOL    HW124866   1.128   2.903   9.502  1.9500  0.5541 -1.4170
 4469SOL    HW224867   1.259   2.856   9.522 -1.5028 -2.4102 -1.1735
 4470SOL     OW24868   1.166   4.534   4.892 -0.4828  0.5177  0.4029
 4470SOL    HW124869   1.250   4.522   4.848 -1.5118  2.1266 -2.0155
 4470SOL    HW224870   1.108   4.573   4.826  0.3294 -0.4145 -0.8517
 4471SOL     OW24871   3.311   0.825   3.730 -0.2342 -0.2896 -0.1895
 4471SOL    HW124872   3.288   0.853   3.642  0.9982  0.5600 -0.2583
 4471SOL    HW224873   3.254   0.886   3.778  0.9413  0.4927  0.2267
 4472SOL     OW24874   1.668   0.744   3.991  0.4783 -0.3582  0.3021
 4472SOL    HW124875   1.745   0.746   4.048  1.3008  2.4121 -0.8941
 4472SOL    HW224876   1.654   0.831   3.952  0.5107 -0.8575 -0.8156
 4473SOL     OW24877   0.751   3.565   4.940  0.5265  0.6943 -0.8233
 4473SOL    HW124878   0.710   3.590   5.023  2.3639  0.1757  0.2493
 4473SOL    HW224879   0.691   3.592   4.871 -0.0872  1.4025 -0.0177
 4474SOL     OW24880   1.265   0.044   3.654 -0.3000  0.3395 -0.2762
 4474SOL    HW124881   1.248   0.079   3.567  0.5667  2.1943  0.3008
 4474SOL    HW224882   1.358   0.020   3.652 -1.5880 -4.5458 -1.3536
 4475SOL     OW24883   2.422   2.543  15.743 -0.5611 -0.2044 -0.9225
 4475SOL    HW124884   2.418   2.460  15.790 -2.2266  0.8866  0.8809
 4475SOL    HW224885   2.333   2.564  15.712 -0.5940  0.6320 -0.2540
 4476SOL     OW24886   0.606   2.693   4.380  0.3325  0.4181 -0.2879
 4476SOL    HW124887   0.606   2.648   4.296  0.4176  0.5715 -0.3697
 4476SOL    HW224888   0.672   2.760   4.362  0.4008  0.7774  1.2999
 4477SOL     OW24889   4.378   0.665   2.858  0.6690  0.1659  0.6060
 4477SOL    HW124890   4.444   0.734   2.860  0.4529  0.3443  1.8162
 4477SOL    HW224891   4.314   0.712   2.804  0.0446 -1.9872 -0.4982
 4478SOL     OW24892   0.270   2.986  11.147  0.1585 -0.2049 -0.4743
 4478SOL    HW124893   0.309   2.989  11.235  0.6720 -1.5125 -0.6517
 4478SOL    HW224894   0.278   2.891  11.139  1.5934  0.0099 -1.6496
 4479SOL     OW24895   0.220   3.817   6.204  0.3845 -0.0384  0.6313
 4479SOL    HW124896   0.168   3.743   6.173  0.1039  0.6280 -0.5078
 4479SOL    HW224897   0.204   3.829   6.297 -0.0803 -1.8199  0.7669
 4480SOL     OW24898   0.779   0.425   6.206 -0.2057 -0.5052 -0.6804
 4480SOL    HW124899   0.708   0.460   6.259  0.5026 -0.7907  0.4526
 4480SOL    HW224900   0.736   0.348   6.169  1.1078 -1.6563  0.1946
 4481SOL     OW24901   3.368   3.810   7.236  0.0015 -0.4253 -0.0089
 4481SOL    HW124902   3.462   3.811   7.253 -0.3147 -0.9793  1.7745
 4481SOL    HW224903   3.338   3.729   7.278 -1.9620  0.0578 -0.4928
 4482SOL     OW24904   1.117   1.680   9.759 -0.3987 -0.5924 -0.1160
 4482SOL    HW124905   1.145   1.661   9.849  0.9784 -0.6775 -0.5696
 4482SOL    HW224906   1.035   1.631   9.763 -0.5750 -0.4941 -2.3713
 4483SOL     OW24907   2.522   4.007   2.370 -0.0951  0.3030  0.5960
 4483SOL    HW124908   2.496   4.090   2.331 -2.4499 -0.6835  0.0832
 4483SOL    HW224909   2.533   3.948   2.295  1.3438 -0.1544  1.1639
 4484SOL     OW24910   2.595   0.900  13.641  0.2524 -0.1793 -0.5936
 4484SOL    HW124911   2.643   0.889  13.559 -0.0104 -0.1754 -0.7462
 4484SOL    HW224912   2.545   0.980  13.624 -1.3303 -0.6435  1.7720
 4485SOL     OW24913   1.068   4.432  16.409 -0.1692  0.3064 -0.0949
 4485SOL    HW124914   1.052   4.526  16.404 -1.3003  0.1696  0.9599
 4485SOL    HW224915   1.135   4.419  16.342 -0.9466 -0.4085 -0.7294
 4486SOL     OW24916   3.146   0.578   4.156  0.1208  0.1853 -0.4109
 4486SOL    HW124917   3.145   0.592   4.251 -2.0780 -1.5491 -0.1737
 4486SOL    HW224918   3.069   0.522   4.150 -1.2191  1.8034  1.5590
 4487SOL     OW24919   2.571   3.282   7.778  0.4420  0.2435 -0.2037
 4487SOL    HW124920   2.593   3.344   7.848  1.3275 -0.3372  0.0363
 4487SOL    HW224921   2.504   3.236   7.828  1.0120 -0.8836 -0.4830
 4488SOL     OW24922   0.029   1.663   8.563  0.1349  0.4307 -0.6650
 4488SOL    HW124923   4.685   1.730   8.554 -2.2481 -1.9946 -1.2562
 4488SOL    HW224924   4.696   1.585   8.563 -1.6963  1.7671 -2.2108
 4489SOL     OW24925   4.500   2.593   4.534  0.3354 -0.3326  0.1786
 4489SOL    HW124926   4.412   2.597   4.571 -0.3359  1.1284 -1.6063
 4489SOL    HW224927   4.501   2.671   4.479  0.5170  0.3003  1.0805
 4490SOL     OW24928   1.080   3.953  16.489  0.5881 -0.1435  0.1483
 4490SOL    HW124929   1.146   3.917  16.430 -1.0361  0.3019 -1.9387
 4490SOL    HW224930   1.029   3.876  16.514  2.1248 -1.5121 -1.0545
 4491SOL     OW24931   4.164   4.663  10.566  0.1295 -0.9523 -0.3275
 4491SOL    HW124932   4.080   4.661  10.519  0.4560 -1.3753 -0.8954
 4491SOL    HW224933   4.139   4.605  10.637 -1.6127  1.4958  1.0778
 4492SOL     OW24934   0.776   0.970   6.300 -0.0128  0.0656  0.5027
 4492SOL    HW124935   0.725   0.948   6.222 -0.3466  1.5311  0.3086
 4492SOL    HW224936   0.807   1.060   6.287 -0.6693  0.0409 -1.1896
 4493SOL     OW24937   3.330   4.678  16.991 -0.1195 -0.2599  0.3186
 4493SOL    HW124938   3.275   4.705  17.065  2.1911  1.3633  1.4144
 4493SOL    HW224939   3.419   4.705  17.010  0.2068 -0.5472 -0.7835
 4494SOL     OW24940   0.375   3.649  14.541  0.7079  0.1910  0.1299
 4494SOL    HW124941   0.398   3.561  14.570  0.1933 -0.6951 -2.1587
 4494SOL    HW224942   0.459   3.692  14.530  0.2494  0.8664 -0.7145
 4495SOL     OW24943   0.232   3.465   3.592  0.0650 -0.0677  0.4963
 4495SOL    HW124944   0.182   3.457   3.673  0.5231  0.4963  0.8361
 4495SOL    HW224945   0.324   3.453   3.616  0.3245 -2.0398 -1.4872
 4496SOL     OW24946   4.429   0.198   4.057 -0.0243  0.1642 -0.4319
 4496SOL    HW124947   4.508   0.147   4.074 -1.8074 -1.6532  2.3200
 4496SOL    HW224948   4.380   0.145   3.994 -1.0079  0.2661  0.2642
 4497SOL     OW24949   3.138   3.093   6.349  0.0693 -0.0644  0.0179
 4497SOL    HW124950   3.104   3.118   6.435  0.6818  2.9731 -0.6455
 4497SOL    HW224951   3.174   3.178   6.325  0.0696 -0.4412 -1.3219
 4498SOL     OW24952   1.511   2.866   2.636  0.2134  0.6252  0.0990
 4498SOL    HW124953   1.450   2.930   2.600 -1.7619 -1.3868 -0.1629
 4498SOL    HW224954   1.585   2.876   2.576  0.8163 -0.6535  0.6201
 4499SOL     OW24955   3.483   2.698   5.132 -0.3040 -0.7640 -0.4518
 4499SOL    HW124956   3.428   2.758   5.182  0.3269 -0.2292 -0.3960
 4499SOL    HW224957   3.534   2.671   5.208 -0.3530 -2.6945 -1.1047
 4500SOL     OW24958   1.145   3.201   2.816 -0.2771  0.3111 -0.4334
 4500SOL    HW124959   1.107   3.248   2.890  0.4452  0.2444 -0.0243
 4500SOL    HW224960   1.229   3.241   2.794  0.8266 -2.6309 -1.6910
 4501SOL     OW24961   4.530   3.048   4.070  0.1032  0.4131 -0.3299
 4501SOL    HW124962   4.509   3.020   3.980 -0.6011  1.2126 -0.4119
 4501SOL    HW224963   4.625   3.058   4.075  0.2872 -0.3857 -1.8804
 4502SOL     OW24964   0.241   3.853   7.877 -0.2634  0.9348  0.1591
 4502SOL    HW124965   0.200   3.823   7.797  2.4610 -2.3193 -0.0222
 4502SOL    HW224966   0.257   3.769   7.921 -1.1321  0.5705 -0.2289
 4503SOL     OW24967   4.659   2.280  12.191  0.1106 -0.2885 -0.0027
 4503SOL    HW124968   4.685   2.207  12.135  1.9104 -1.0707  1.8612
 4503SOL    HW224969   4.709   2.351  12.150 -0.4134 -0.2886 -0.6549
 4504SOL     OW24970   0.985   2.153  14.515  0.1204 -0.1736  0.5812
 4504SOL    HW124971   1.035   2.226  14.551  1.3993 -1.1984  0.9148
 4504SOL    HW224972   0.961   2.099  14.591 -0.8933  0.9249  1.0370
 4505SOL     OW24973   0.452   1.829   6.140  0.0067  0.0894  0.0285
 4505SOL    HW124974   0.474   1.828   6.047 -2.3499  0.5924 -0.5330
 4505SOL    HW224975   0.511   1.759   6.166  0.4772 -0.1902 -1.7769
 4506SOL     OW24976   3.218   1.602   5.937  0.9544  0.3495  0.7611
 4506SOL    HW124977   3.185   1.692   5.936  0.2614  0.1038  1.3605
 4506SOL    HW224978   3.174   1.573   5.857 -0.7317  1.3248  1.3317
 4507SOL     OW24979   1.326   0.289   3.894 -0.6524  0.1251  0.0238
 4507SOL    HW124980   1.281   0.353   3.949  1.4472  0.7405  1.0165
 4507SOL    HW224981   1.419   0.312   3.890 -0.4121 -0.8295  0.2166
 4508SOL     OW24982   0.196   2.573   1.168 -0.4357  0.0294 -0.0168
 4508SOL    HW124983   0.127   2.574   1.234 -0.9761  0.4492 -0.5962
 4508SOL    HW224984   0.268   2.524   1.209  0.6807 -0.2695 -2.2711
 4509SOL     OW24985   2.552   1.146   4.444 -0.0594 -0.0583  0.2258
 4509SOL    HW124986   2.531   1.190   4.362 -0.0912 -1.6783 -0.6386
 4509SOL    HW224987   2.519   1.209   4.508  0.0061  0.3255 -0.1210
 4510SOL     OW24988   1.661   3.208  14.629  0.2212  0.1837 -0.1848
 4510SOL    HW124989   1.737   3.153  14.647  0.8281  2.0118  2.9602
 4510SOL    HW224990   1.625   3.165  14.551 -1.4781  1.4327 -0.0898
 4511SOL     OW24991   2.379   3.152   5.047  0.1901  0.7277 -0.6294
 4511SOL    HW124992   2.331   3.092   5.104  0.5645 -0.3147 -1.4098
 4511SOL    HW224993   2.468   3.131   5.074  0.8725  3.9401 -0.4112
 4512SOL     OW24994   3.138   3.357   0.418  0.8809  0.2185  0.0224
 4512SOL    HW124995   3.168   3.267   0.409  2.3466  0.6127  0.9702
 4512SOL    HW224996   3.110   3.374   0.327 -0.2605  0.7816  0.4758
 4513SOL     OW24997   3.920   2.365   8.514  0.1064 -0.0695  0.0679
 4513SOL    HW124998   3.909   2.304   8.441  2.2251 -0.5729  0.1596
 4513SOL    HW224999   4.008   2.340   8.544 -0.2493 -1.3082  0.0745
 4514SOL     OW25000   2.336   1.643   4.519 -0.0510  0.1935 -0.3491
 4514SOL    HW125001   2.376   1.720   4.479  1.8904 -0.9620 -0.6162
 4514SOL    HW225002   2.244   1.651   4.493  0.1261  1.9985 -0.4478
 4515SOL     OW25003   1.294   0.023  17.003  0.3298 -0.2862 -0.0675
 4515SOL    HW125004   1.361   0.002  16.939 -0.3108 -3.1503  0.2237
 4515SOL    HW225005   1.328   0.100  17.048  2.0235  0.1306 -2.0495
 4516SOL     OW25006   1.947   1.353   2.940 -0.3079 -0.5172 -0.9204
 4516SOL    HW125007   1.859   1.382   2.965  0.2723  1.3900 -1.0926
 4516SOL    HW225008   1.954   1.379   2.848 -0.9782 -0.3073 -0.9142
 4517SOL     OW25009   1.584   2.909  15.327 -0.5305 -0.1348 -0.0917
 4517SOL    HW125010   1.566   2.818  15.349 -0.3035 -0.6506 -2.1078
 4517SOL    HW225011   1.535   2.915  15.245 -0.3864 -0.1806 -0.1813
 4518SOL     OW25012   4.662   1.140   3.852  0.0909 -0.0915 -0.2804
 4518SOL    HW125013   4.615   1.198   3.792 -3.0013  0.1093  2.3262
 4518SOL    HW225014   0.017   1.194   3.868  0.0113 -0.2666  0.6735
 4519SOL     OW25015   3.591   3.689   7.483  0.4804  0.3447  0.0651
 4519SOL    HW125016   3.674   3.730   7.507 -0.0672 -0.1676  2.9017
 4519SOL    HW225017   3.615   3.612   7.432 -0.8548 -0.4824  0.6605
 4520SOL     OW25018   3.671   3.689   3.493  0.0690  0.3916  0.3692
 4520SOL    HW125019   3.676   3.708   3.587 -1.2307 -0.4247  0.6134
 4520SOL    HW225020   3.699   3.598   3.497 -0.0854  0.2921 -0.7562
 4521SOL     OW25021   2.239   0.908  14.690  0.6123  0.0753  0.2533
 4521SOL    HW125022   2.261   0.866  14.607  1.3483  1.5204 -0.2865
 4521SOL    HW225023   2.154   0.941  14.661  0.1709 -1.8999 -0.6798
 4522SOL     OW25024   4.137   0.145   4.648 -0.1137  0.5957 -0.3630
 4522SOL    HW125025   4.060   0.161   4.702 -0.5414 -0.3359 -0.6968
 4522SOL    HW225026   4.104   0.186   4.568  1.0715  0.3992 -0.9532
 4523SOL     OW25027   1.899   0.470   4.798 -0.4127 -0.1403 -0.1653
 4523SOL    HW125028   1.893   0.456   4.893 -1.5891  1.1964 -0.0347
 4523SOL    HW225029   1.978   0.421   4.777 -1.6998 -2.5789  0.6602
 4524SOL     OW25030   2.834   3.433   7.746 -0.0777 -0.2732 -0.0964
 4524SOL    HW125031   2.746   3.469   7.734  0.4113  1.0168  0.1786
 4524SOL    HW225032   2.875   3.506   7.791  0.5362 -1.5047  1.3525
 4525SOL     OW25033   1.975   3.985   4.276  0.0593 -0.0001 -0.1455
 4525SOL    HW125034   2.041   4.026   4.221  1.9839 -1.2044  1.2854
 4525SOL    HW225035   2.027   3.917   4.319  0.3967 -1.3076 -2.6256
 4526SOL     OW25036   0.542   4.539   5.457  0.2685  0.0107  0.1880
 4526SOL    HW125037   0.508   4.617   5.413 -0.5064 -0.4149  0.0379
 4526SOL    HW225038   0.537   4.565   5.549  2.3630  0.2901  0.2273
 4527SOL     OW25039   2.015   1.036   8.283  0.1586  0.0929 -0.2848
 4527SOL    HW125040   1.973   1.028   8.197  0.4595 -1.7618 -0.2704
 4527SOL    HW225041   2.060   1.120   8.274  1.0215 -0.1855  1.5737
 4528SOL     OW25042   4.592   0.291   4.448 -0.4125 -0.0396 -0.1546
 4528SOL    HW125043   4.646   0.237   4.391  1.3169 -0.9602  2.3710
 4528SOL    HW225044   4.655   0.345   4.496  0.2951 -2.9596  2.1633
 4529SOL     OW25045   3.917   0.515   0.638 -0.0118 -0.8083 -0.2315
 4529SOL    HW125046   3.853   0.445   0.618  0.0571 -0.4269 -1.7665
 4529SOL    HW225047   3.935   0.498   0.730 -0.1933 -0.0284 -0.0601
 4530SOL     OW25048   2.836   2.645   3.231 -0.0061  0.2400 -0.4143
 4530SOL    HW125049   2.750   2.686   3.232 -0.1023  0.0927 -2.6213
 4530SOL    HW225050   2.892   2.712   3.192  1.3845 -0.7580 -0.1363
 4531SOL     OW25051   0.062   0.315   7.225 -0.0129 -0.1093 -0.4751
 4531SOL    HW125052   0.035   0.246   7.165 -0.7057  0.5024 -0.8788
 4531SOL    HW225053   0.157   0.314   7.217 -0.1651  0.9123 -2.5193
 4532SOL     OW25054   2.667   4.619   2.998  0.7488  0.0895  0.2745
 4532SOL    HW125055   2.675   4.640   2.905  2.3949  1.5519  0.7575
 4532SOL    HW225056   2.657   4.523   2.998 -4.0182  0.5827 -2.0425
 4533SOL     OW25057   1.472   3.042   4.165 -0.5394 -0.0479 -0.2412
 4533SOL    HW125058   1.526   3.031   4.086  0.3822 -0.4454  0.4398
 4533SOL    HW225059   1.512   3.125   4.191  1.0461 -0.9655  0.2842
 4534SOL     OW25060   1.862   2.468   4.167  0.5580  0.0591  0.0552
 4534SOL    HW125061   1.878   2.413   4.244  0.3357 -1.5569 -1.0428
 4534SOL    HW225062   1.844   2.392   4.110  0.4664  0.4783 -0.4762
 4535SOL     OW25063   2.761   4.381   4.301  0.0913  1.1219 -0.4990
 4535SOL    HW125064   2.825   4.403   4.234  1.2935  1.5220  0.7728
 4535SOL    HW225065   2.780   4.461   4.349  0.5039 -1.4389  3.6209
 4536SOL     OW25066   0.241   3.560  10.325 -0.0394  0.5043 -0.0010
 4536SOL    HW125067   0.163   3.529  10.279 -0.1787  1.3283 -0.3199
 4536SOL    HW225068   0.202   3.586  10.409  0.2067  1.2715 -0.1284
 4537SOL     OW25069   4.071   2.794  11.729  0.0379  0.3393  0.1190
 4537SOL    HW125070   4.159   2.763  11.711  0.4705  0.9844  1.1639
 4537SOL    HW225071   4.042   2.825  11.642  2.3159  1.9320 -0.0625
 4538SOL     OW25072   1.989   4.174   2.835  0.5689 -0.7519  0.2216
 4538SOL    HW125073   1.900   4.143   2.818 -0.4661  3.2973 -1.8071
 4538SOL    HW225074   2.039   4.128   2.768 -2.2642 -2.1301 -0.9156
 4539SOL     OW25075   4.438   1.163   6.831  0.0012 -0.6127  0.0844
 4539SOL    HW125076   4.530   1.145   6.852  0.6426  1.9206 -0.5640
 4539SOL    HW225077   4.399   1.080   6.857 -0.3044 -0.2896  0.6718
 4540SOL     OW25078   3.125   2.851   6.200 -0.0122  0.3628 -0.3947
 4540SOL    HW125079   3.130   2.940   6.233 -2.0924  0.5331 -0.5381
 4540SOL    HW225080   3.212   2.813   6.212  0.1054  0.2686 -1.4729
 4541SOL     OW25081   1.093   0.209  13.222  0.8354 -0.3479 -0.1035
 4541SOL    HW125082   1.008   0.239  13.256  0.7319  0.4695 -1.0983
 4541SOL    HW225083   1.069   0.124  13.183  0.2531 -0.0195 -0.4586
 4542SOL     OW25084   0.265   1.758   2.729 -0.2840 -0.5526  0.2345
 4542SOL    HW125085   0.196   1.824   2.735  0.1523 -0.0143 -0.6788
 4542SOL    HW225086   0.326   1.790   2.795 -0.2220  1.9864 -1.0798
 4543SOL     OW25087   1.251   2.804  11.944 -0.5327  0.2992  0.1716
 4543SOL    HW125088   1.295   2.864  11.884 -0.3680  0.0696  0.0633
 4543SOL    HW225089   1.177   2.772  11.891 -0.0853 -1.2826  0.5135
 4544SOL     OW25090   0.637   2.516   2.324  0.0864  1.0252  0.2654
 4544SOL    HW125091   0.644   2.592   2.267  1.8863  2.7011  2.7419
 4544SOL    HW225092   0.561   2.469   2.289  0.5615  0.2454  0.2736
 4545SOL     OW25093   4.684   1.643  11.236 -0.4661 -0.0065 -0.1927
 4545SOL    HW125094   4.698   1.644  11.142 -1.2994  1.3633 -0.2955
 4545SOL    HW225095   4.609   1.583  11.232  0.5949 -1.3600  0.3744
 4546SOL     OW25096   2.854   2.551  14.641  0.6694 -0.3150  0.6959
 4546SOL    HW125097   2.858   2.465  14.600  1.7766  0.6910 -1.2930
 4546SOL    HW225098   2.942   2.581  14.616 -0.4090 -0.1123 -2.9057
 4547SOL     OW25099   1.548   1.337  16.477  0.2299 -0.3848  0.2045
 4547SOL    HW125100   1.557   1.432  16.477  1.2652 -0.4871  0.5917
 4547SOL    HW225101   1.622   1.309  16.530  1.0295 -0.1932 -0.7994
 4548SOL     OW25102   1.531   2.164  17.044  0.6827 -0.1438 -0.3293
 4548SOL    HW125103   1.443   2.174  17.008  0.2825  0.1555  0.7246
 4548SOL    HW225104   1.536   2.252  17.080  1.9494  0.1334 -1.1845
 4549SOL     OW25105   4.634   0.640  10.323  0.2579 -0.1239  0.1296
 4549SOL    HW125106   4.691   0.669  10.394  0.2762 -0.1851  0.1397
 4549SOL    HW225107   4.556   0.612  10.370 -0.2864 -1.5073 -1.5733
 4550SOL     OW25108   2.466   2.764  13.349  0.2954  0.3019  0.5300
 4550SOL    HW125109   2.530   2.835  13.339 -0.0050  0.6866  1.2991
 4550SOL    HW225110   2.411   2.780  13.273  1.1333  1.2119  0.1012
 4551SOL     OW25111   4.404   3.243  17.292 -0.2252 -0.1922  0.1976
 4551SOL    HW125112   4.473   3.306  17.271 -1.5750  0.7520 -1.3986
 4551SOL    HW225113   4.451   3.160  17.287 -1.7682 -1.0566 -0.0994
 4552SOL     OW25114   2.122   2.905   9.741 -0.2513 -0.0046 -0.1006
 4552SOL    HW125115   2.057   2.888   9.809  0.9386 -0.0504  1.0260
 4552SOL    HW225116   2.187   2.959   9.786 -1.0116 -0.3450  1.4134
 4553SOL     OW25117   3.192   4.199  10.712  0.0734  0.1317  0.4502
 4553SOL    HW125118   3.207   4.229  10.802 -2.2191  0.4108  0.7348
 4553SOL    HW225119   3.165   4.277  10.664 -1.5582 -1.4684 -1.2301
 4554SOL     OW25120   1.592   3.217   4.911  0.1743  0.4334 -0.1597
 4554SOL    HW125121   1.577   3.245   4.820 -0.1923 -1.6575 -0.7440
 4554SOL    HW225122   1.687   3.219   4.924 -0.0114  2.5832  0.8523
 4555SOL     OW25123   3.369   0.001   3.521 -0.5339 -0.2023 -0.1402
 4555SOL    HW125124   3.346   0.059   3.594 -0.5949 -0.4673  0.0477
 4555SOL    HW225125   3.413   0.065   3.465  0.6137  0.4624  1.5370
 4556SOL     OW25126   0.311   4.709   5.617 -0.3332  0.3597  0.0584
 4556SOL    HW125127   0.356   0.034   5.687 -2.0314  1.1232  0.6369
 4556SOL    HW225128   0.227   0.002   5.660  0.3011 -0.1814  1.5389
 4557SOL     OW25129   3.277   1.387  10.190 -0.3580  0.1682  0.7482
 4557SOL    HW125130   3.222   1.323  10.145  0.7870 -0.7144  0.6031
 4557SOL    HW225131   3.259   1.474  10.154  0.5705 -0.0661 -0.2846
 4558SOL     OW25132   0.036   2.822  14.444  0.3887 -0.2281 -0.2229
 4558SOL    HW125133   0.047   2.917  14.438  0.7883 -0.2626 -0.0428
 4558SOL    HW225134   0.035   2.817  14.540 -1.0904  0.7723 -0.1984
 4559SOL     OW25135   2.507   2.575   4.660 -0.2274 -0.1551 -0.0139
 4559SOL    HW125136   2.559   2.575   4.741 -0.5914  3.9193  0.1960
 4559SOL    HW225137   2.575   2.587   4.593 -1.6892 -0.2163 -1.5015
 4560SOL     OW25138   4.193   2.782   5.809 -0.2659  0.0036  0.1396
 4560SOL    HW125139   4.209   2.845   5.739 -0.5677  0.1811  0.2296
 4560SOL    HW225140   4.114   2.733   5.783  0.7461 -1.4406 -0.2013
 4561SOL     OW25141   2.012   3.019   2.576 -0.1672  0.6081 -0.7238
 4561SOL    HW125142   2.064   2.942   2.600 -2.5777 -0.3295  1.5547
 4561SOL    HW225143   2.016   3.079   2.651 -1.5427 -0.6533  0.3826
 4562SOL     OW25144   3.390   0.673   6.327 -0.0200  0.0068 -0.6228
 4562SOL    HW125145   3.302   0.707   6.343 -1.1154 -4.2566  2.5709
 4562SOL    HW225146   3.420   0.733   6.259 -3.2245  0.5494 -1.5774
 4563SOL     OW25147   0.766   0.918   7.001 -0.5724 -0.6603 -0.5240
 4563SOL    HW125148   0.765   0.933   6.907  1.3418 -0.6164 -0.5285
 4563SOL    HW225149   0.802   1.003   7.027  0.2284 -0.8247 -1.1289
 4564SOL     OW25150   0.739   1.042   6.726  0.1085  0.9439  0.8536
 4564SOL    HW125151   0.688   1.111   6.767 -0.5265 -0.2866  2.1295
 4564SOL    HW225152   0.689   1.022   6.647  0.6418 -0.7195  0.9242
 4565SOL     OW25153   3.746   0.731   4.692  0.1692 -0.5962 -0.1125
 4565SOL    HW125154   3.788   0.753   4.608  1.2196  0.3895  0.6530
 4565SOL    HW225155   3.686   0.660   4.671  0.6106 -0.7423 -0.9006
 4566SOL     OW25156   2.684   3.113  15.227  0.1939  0.0723 -0.1938
 4566SOL    HW125157   2.747   3.150  15.166  0.2835 -1.8350 -1.2397
 4566SOL    HW225158   2.605   3.147  15.186  0.2103 -0.2753 -0.5143
 4567SOL     OW25159   4.705   1.014   6.454  0.1694  0.2902 -0.1417
 4567SOL    HW125160   4.628   1.026   6.510  1.3917  1.7901  1.1882
 4567SOL    HW225161   4.685   1.055   6.370 -0.7303 -0.6202 -0.3788
 4568SOL     OW25162   4.118   3.769  15.489 -0.1032 -0.3632 -0.7516
 4568SOL    HW125163   4.186   3.797  15.428 -1.1991  0.0616 -1.7822
 4568SOL    HW225164   4.106   3.848  15.542  0.2195  0.1760 -1.4735
 4569SOL     OW25165   1.051   0.604   1.047  0.0301 -0.0326  0.1965
 4569SOL    HW125166   1.070   0.588   1.140  3.3105  2.9843  0.0490
 4569SOL    HW225167   1.135   0.645   1.024 -1.2154  0.8519 -2.7884
 4570SOL     OW25168   3.141   1.971   7.080  0.3337 -0.3516  0.4692
 4570SOL    HW125169   3.214   1.996   7.022  0.7794  2.4051  2.2068
 4570SOL    HW225170   3.148   1.877   7.095  1.5263 -0.2818  0.3924
 4571SOL     OW25171   3.876   1.307   7.137 -0.1710 -0.0473 -0.5298
 4571SOL    HW125172   3.949   1.303   7.200 -0.7025  0.4209  0.1171
 4571SOL    HW225173   3.923   1.292   7.056  1.8334  1.5071  0.3580
 4572SOL     OW25174   3.630   2.273   4.951  0.5466 -0.2520  0.0068
 4572SOL    HW125175   3.559   2.328   4.982 -0.4620 -0.4013 -2.0014
 4572SOL    HW225176   3.704   2.291   5.009  1.3261  0.4342 -1.1868
 4573SOL     OW25177   1.776   2.593   5.455  0.0437 -0.3373 -0.2953
 4573SOL    HW125178   1.845   2.630   5.400 -0.1200  1.3344  0.6193
 4573SOL    HW225179   1.786   2.505   5.418 -0.1100 -0.7163  0.5486
 4574SOL     OW25180   0.236   2.605  14.179 -0.5741  0.0290 -0.5562
 4574SOL    HW125181   0.163   2.619  14.239 -0.1892 -2.9417  0.6218
 4574SOL    HW225182   0.279   2.690  14.183  0.0926 -0.3486  0.1887
 4575SOL     OW25183   3.476   0.588   2.410  0.0327 -0.2574  0.3468
 4575SOL    HW125184   3.547   0.642   2.376 -0.7201  1.2406  1.1690
 4575SOL    HW225185   3.489   0.523   2.341 -0.0153 -0.6923  0.7484
 4576SOL     OW25186   2.025   2.980   6.191  0.5217  0.3993  0.4893
 4576SOL    HW125187   1.954   2.916   6.192 -1.2798  2.3710 -0.8263
 4576SOL    HW225188   2.015   3.011   6.101 -2.0170 -1.7812  0.0138
 4577SOL     OW25189   1.407   3.614  10.274  0.3680 -0.0517 -0.3824
 4577SOL    HW125190   1.459   3.678  10.322 -0.4781 -0.8206  1.5546
 4577SOL    HW225191   1.400   3.667  10.194 -2.5621 -1.7537 -1.2669
 4578SOL     OW25192   4.213   4.047  11.406  0.1728  1.0851  0.0634
 4578SOL    HW125193   4.279   3.987  11.440 -2.2673 -0.8620  1.2921
 4578SOL    HW225194   4.214   4.021  11.314 -2.4442 -1.8873  0.9018
 4579SOL     OW25195   0.408   3.422  13.421 -0.1988 -0.3228 -0.2287
 4579SOL    HW125196   0.494   3.388  13.396 -0.8448 -2.1490  0.0151
 4579SOL    HW225197   0.369   3.381  13.344 -2.4481 -2.1654  1.8517
 4580SOL     OW25198   0.772   0.557   1.643 -0.1114  0.5051 -0.0361
 4580SOL    HW125199   0.769   0.653   1.651 -0.8448  0.3033  2.2641
 4580SOL    HW225200   0.797   0.540   1.734  2.6467  0.6296 -0.7995
 4581SOL     OW25201   2.737   1.492   8.161  0.0296 -0.2748  0.5386
 4581SOL    HW125202   2.823   1.516   8.125  0.6068 -3.2920 -0.0588
 4581SOL    HW225203   2.687   1.573   8.170  0.1673 -0.1471  0.1706
 4582SOL     OW25204   2.139   0.593  10.897  0.1484 -0.0184  0.1982
 4582SOL    HW125205   2.143   0.686  10.920  1.9675  0.2293 -1.1267
 4582SOL    HW225206   2.182   0.597  10.812 -0.5608  0.1433 -0.1486
 4583SOL     OW25207   4.001   3.515  16.739  0.1255 -0.2365  0.0763
 4583SOL    HW125208   4.071   3.469  16.785  0.1893 -0.9258 -0.7161
 4583SOL    HW225209   3.940   3.442  16.737 -0.2726  0.0980 -0.0680
 4584SOL     OW25210   2.563   1.635   3.083 -0.2717  0.1162  0.1625
 4584SOL    HW125211   2.493   1.668   3.027 -0.2741 -0.6821 -0.3094
 4584SOL    HW225212   2.620   1.601   3.014 -0.1434 -0.4053  0.5225
 4585SOL     OW25213   3.264   0.044   7.790 -0.4977  0.1088 -0.5864
 4585SOL    HW125214   3.246   4.690   7.735  0.4764 -0.8773  0.4985
 4585SOL    HW225215   3.231   0.016   7.875 -1.8105 -0.0105 -1.1220
 4586SOL     OW25216   0.711   3.277  10.185  0.1075 -0.2219 -0.3086
 4586SOL    HW125217   0.710   3.310  10.275 -2.3515  0.5474 -0.6080
 4586SOL    HW225218   0.787   3.219  10.189  1.4839  1.5817 -0.2063
 4587SOL     OW25219   0.514   4.243   4.952  0.0516  0.0803 -0.1475
 4587SOL    HW125220   0.421   4.260   4.966  0.0159 -0.3002  0.0800
 4587SOL    HW225221   0.557   4.329   4.953 -0.6805  0.4430 -0.2412
 4588SOL     OW25222   2.473   3.137   4.393 -0.1437  0.5183  0.1585
 4588SOL    HW125223   2.524   3.184   4.327  1.1187 -0.4599  0.4362
 4588SOL    HW225224   2.411   3.080   4.348  1.0213 -1.0382  0.5236
 4589SOL     OW25225   1.539   4.142   7.680 -0.0690  0.3559 -0.0957
 4589SOL    HW125226   1.528   4.137   7.585  0.7502  0.3773 -0.1871
 4589SOL    HW225227   1.480   4.216   7.696 -1.2288 -0.6648  0.3831
 4590SOL     OW25228   2.671   1.948   2.022 -0.1311  0.0875 -0.0713
 4590SOL    HW125229   2.724   1.935   1.944  0.9912  0.6188  0.6013
 4590SOL    HW225230   2.682   2.043   2.020 -1.2006  0.1389 -3.2454
 4591SOL     OW25231   2.656   0.122   7.472 -0.4118 -0.4619 -0.1756
 4591SOL    HW125232   2.649   0.052   7.537  3.0012 -1.2923 -0.7130
 4591SOL    HW225233   2.751   0.133   7.464 -0.2732 -2.0095 -0.6577
 4592SOL     OW25234   2.841   1.924   4.880 -0.6389 -0.2467  0.0048
 4592SOL    HW125235   2.801   1.856   4.825 -0.4341  0.4187 -0.9638
 4592SOL    HW225236   2.794   1.919   4.964  0.7341 -0.1230  0.7803
 4593SOL     OW25237   3.485   0.038  13.332  0.3503  0.2924  0.1520
 4593SOL    HW125238   3.567   0.009  13.292  0.5207  1.6828 -0.5402
 4593SOL    HW225239   3.455   4.680  13.373  1.9987 -1.8612 -2.8749
 4594SOL     OW25240   1.084   0.819   4.901 -0.1738  0.2654 -0.1422
 4594SOL    HW125241   1.090   0.897   4.955 -4.4004  0.2522  0.3281
 4594SOL    HW225242   1.014   0.772   4.947 -0.2742  0.9074  0.3533
 4595SOL     OW25243   4.641   3.204   8.273 -0.3037 -0.0792 -0.5495
 4595SOL    HW125244   4.576   3.174   8.335 -1.7179  2.6623 -0.6909
 4595SOL    HW225245   4.651   3.290   8.314 -2.1508  0.0478 -0.3509
 4596SOL     OW25246   0.771   3.104   8.494  0.0594  0.5535 -0.0634
 4596SOL    HW125247   0.855   3.061   8.511 -0.5013 -1.5230 -2.5440
 4596SOL    HW225248   0.804   3.176   8.440  2.6802 -3.7019 -4.1555
 4597SOL     OW25249   0.664   0.025   2.101 -0.0671  0.2139 -0.2434
 4597SOL    HW125250   0.737   4.712   2.151  0.0254 -1.6264 -1.7212
 4597SOL    HW225251   0.627   4.668   2.065 -0.9985  1.0355 -1.1336
 4598SOL     OW25252   2.748   4.325   3.250 -0.4322 -0.1474 -0.3536
 4598SOL    HW125253   2.843   4.317   3.242 -0.4346  0.0827 -0.6326
 4598SOL    HW225254   2.723   4.360   3.164  0.6179  1.8159  0.1442
 4599SOL     OW25255   2.210   0.515   4.630 -0.0323 -0.4139  0.0239
 4599SOL    HW125256   2.296   0.553   4.648 -0.1064  0.1427 -0.7745
 4599SOL    HW225257   2.152   0.591   4.628 -0.3840 -0.7020 -1.1777
 4600SOL     OW25258   1.633   0.082   1.250 -0.0733  0.0013 -0.0692
 4600SOL    HW125259   1.692   0.152   1.276 -2.6327  0.9690  3.1664
 4600SOL    HW225260   1.687   0.027   1.192 -0.1451  0.1328 -0.2622
 4601SOL     OW25261   4.122   0.842   9.688 -0.2724  0.4260  0.0161
 4601SOL    HW125262   4.137   0.889   9.606  1.0728  0.7765  0.4673
 4601SOL    HW225263   4.157   0.897   9.758 -0.5285 -0.6934  1.0386
 4602SOL     OW25264   3.073   0.259   4.645 -0.1732 -0.0297 -0.0485
 4602SOL    HW125265   2.987   0.225   4.619 -0.2875  0.4493 -0.2862
 4602SOL    HW225266   3.048   0.351   4.649  1.5592  0.2736  3.2726
 4603SOL     OW25267   1.944   1.729   6.505  0.3581 -0.1083 -0.0254
 4603SOL    HW125268   1.937   1.822   6.485 -2.3493 -0.8198 -2.3701
 4603SOL    HW225269   2.039   1.733   6.513  0.5274 -0.2739 -2.0270
 4604SOL     OW25270   4.384   4.103   6.935  0.6010 -0.0927  0.3416
 4604SOL    HW125271   4.447   4.032   6.950 -2.0984 -2.0492  2.4743
 4604SOL    HW225272   4.358   4.081   6.846  0.8172  1.4459 -0.0921
 4605SOL     OW25273   2.284   0.299   2.163  0.2978  0.3646  0.2662
 4605SOL    HW125274   2.216   0.255   2.214 -0.1428  0.7004 -0.0400
 4605SOL    HW225275   2.364   0.264   2.203  1.3824  1.8024 -0.6476
 4606SOL     OW25276   1.261   4.554  13.110  0.1362  0.1508 -0.0175
 4606SOL    HW125277   1.233   4.626  13.053 -2.2196 -0.1327  0.7533
 4606SOL    HW225278   1.184   4.499  13.093 -0.2104  0.5535  0.2291
 4607SOL     OW25279   0.486   3.860   2.256 -0.5942 -0.4007 -0.4519
 4607SOL    HW125280   0.463   3.884   2.346 -1.7526  3.9472 -1.8645
 4607SOL    HW225281   0.493   3.946   2.214 -1.4639  0.9277  2.1415
 4608SOL     OW25282   3.824   1.941  13.031  0.4091 -0.2641  0.0554
 4608SOL    HW125283   3.777   1.866  13.065  0.5362  0.8132  2.5912
 4608SOL    HW225284   3.804   2.012  13.092 -0.1475 -0.3899  0.0135
 4609SOL     OW25285   1.654   3.748  11.421 -0.2192 -0.2519  0.1896
 4609SOL    HW125286   1.572   3.712  11.387 -0.6161  1.2433 -0.4453
 4609SOL    HW225287   1.640   3.707  11.506  1.0451  0.6590  0.8303
 4610SOL     OW25288   4.605   0.614   3.911  0.5113  0.0231 -0.1452
 4610SOL    HW125289   4.670   0.617   3.842  1.1909  0.2084  0.5014
 4610SOL    HW225290   4.591   0.707   3.925  0.0369 -0.1072  0.2735
 4611SOL     OW25291   0.590   4.381   6.702 -0.4348  0.3154  0.2422
 4611SOL    HW125292   0.505   4.400   6.742 -0.9452 -0.4357 -0.4882
 4611SOL    HW225293   0.619   4.470   6.685 -3.3535  1.0926 -0.6603
 4612SOL     OW25294   2.499   1.799   3.753  0.3568  0.1482  0.5294
 4612SOL    HW125295   2.523   1.731   3.690  0.7209 -0.7723  1.6791
 4612SOL    HW225296   2.425   1.753   3.793 -0.5766  0.4414 -0.8570
 4613SOL     OW25297   3.663   1.940  16.552  0.2223  0.1659  0.5371
 4613SOL    HW125298   3.580   1.983  16.531  0.6897  0.1929 -1.2223
 4613SOL    HW225299   3.646   1.849  16.526  2.1301  0.1665 -0.6567
 4614SOL     OW25300   0.837   2.220   6.287  0.4370  0.1950  0.3487
 4614SOL    HW125301   0.797   2.169   6.358  0.9778  0.1424  0.6127
 4614SOL    HW225302   0.914   2.166   6.270 -0.7858 -1.9650  1.6360
 4615SOL     OW25303   1.585   4.648   3.449 -0.3317 -0.3499  0.2463
 4615SOL    HW125304   1.570   4.555   3.465 -3.1503  0.4554  2.3922
 4615SOL    HW225305   1.556   4.682   3.534  1.5929 -0.7445  1.0811
 4616SOL     OW25306   2.081   2.882   9.025 -0.3149 -0.3636 -0.5689
 4616SOL    HW125307   2.126   2.889   8.941 -1.5251  0.4338 -1.1411
 4616SOL    HW225308   2.150   2.915   9.083 -1.4198 -1.0092  1.1163
 4617SOL     OW25309   1.341   2.796   5.740  0.1412 -0.1887 -0.0931
 4617SOL    HW125310   1.399   2.789   5.665 -0.8846 -1.0317 -0.7902
 4617SOL    HW225311   1.333   2.892   5.739  1.8545 -0.0669 -2.2144
 4618SOL     OW25312   1.194   0.877   0.177  0.0518  0.1833 -0.2964
 4618SOL    HW125313   1.269   0.819   0.166  0.6272  0.6478  1.1393
 4618SOL    HW225314   1.245   0.953   0.149 -1.6647  0.8367 -1.6685
 4619SOL     OW25315   0.007   1.892  14.619 -0.6789 -0.6075  0.0678
 4619SOL    HW125316   0.027   1.936  14.537  1.3954 -3.8781 -1.1848
 4619SOL    HW225317   4.651   1.938  14.647 -1.6222 -2.5288  0.5865
 4620SOL     OW25318   3.019   3.190   8.471 -0.4795 -0.2972 -0.0957
 4620SOL    HW125319   3.023   3.283   8.447 -2.4872 -0.1034  0.3437
 4620SOL    HW225320   3.043   3.155   8.385  1.9482 -0.8037  0.7945
 4621SOL     OW25321   3.647   0.089   6.047 -0.0199  0.0139 -0.4863
 4621SOL    HW125322   3.609   0.001   6.049 -0.3137  0.2029  2.2201
 4621SOL    HW225323   3.578   0.144   6.013 -1.7896 -1.9699 -0.1230
 4622SOL     OW25324   3.487   4.404   3.668 -0.0288 -0.0649  0.1129
 4622SOL    HW125325   3.566   4.407   3.614 -0.8252  2.2635 -0.9157
 4622SOL    HW225326   3.496   4.483   3.720 -0.7889  0.7767 -1.0336
 4623SOL     OW25327   0.048   4.718  11.858 -0.3591 -0.0586  0.3676
 4623SOL    HW125328   4.695   4.670  11.827 -0.4541  0.3169  0.0280
 4623SOL    HW225329   0.009   0.082  11.862  0.3706  0.2258  1.4513
 4624SOL     OW25330   2.086   0.812   2.144 -0.5490 -0.4469 -0.5408
 4624SOL    HW125331   2.180   0.820   2.156 -0.6363 -1.7578  1.0665
 4624SOL    HW225332   2.096   0.724   2.109  0.2143  0.1367 -1.7532
 4625SOL     OW25333   4.419   3.359   4.490 -0.0262  0.1207 -0.3626
 4625SOL    HW125334   4.426   3.301   4.415  1.0265  1.4764 -1.3106
 4625SOL    HW225335   4.455   3.303   4.558  1.7183  1.3694 -0.2609
 4626SOL     OW25336   4.492   2.380   3.874 -0.0021  0.8374  0.6028
 4626SOL    HW125337   4.431   2.307   3.866 -0.1574  0.9500  0.7605
 4626SOL    HW225338   4.578   2.352   3.843 -1.0627  0.1524 -1.6446
 4627SOL     OW25339   4.284   0.423   3.329  0.7201  0.3478 -0.5593
 4627SOL    HW125340   4.293   0.514   3.302  1.5101  1.4685  3.4522
 4627SOL    HW225341   4.378   0.407   3.334  0.4242 -1.2690  0.0187
 4628SOL     OW25342   1.222   1.978   1.221 -0.8909  0.4629 -0.2563
 4628SOL    HW125343   1.176   1.969   1.305  0.8408  4.0133  1.0547
 4628SOL    HW225344   1.312   1.950   1.236 -1.4364  0.3222  2.8435
 4629SOL     OW25345   3.218   4.314   9.740 -0.1715  1.0006 -0.2010
 4629SOL    HW125346   3.229   4.407   9.719 -0.6866  0.7953 -1.4062
 4629SOL    HW225347   3.162   4.316   9.817 -1.3500  0.4691 -1.0596
 4630SOL     OW25348   2.245   0.953   7.080 -0.4265 -0.0468  0.3079
 4630SOL    HW125349   2.288   0.947   7.166  0.3487 -1.4784 -0.1848
 4630SOL    HW225350   2.163   0.905   7.091 -0.4936 -0.4593 -2.0417
 4631SOL     OW25351   1.360   2.701  11.163 -0.2503 -0.7033 -0.3009
 4631SOL    HW125352   1.413   2.640  11.110  1.9759 -0.5329  1.7214
 4631SOL    HW225353   1.392   2.786  11.135  0.1272 -0.8182 -0.2154
 4632SOL     OW25354   3.492   2.700   4.848  0.1804  0.1229 -0.0291
 4632SOL    HW125355   3.473   2.713   4.941 -0.0543 -2.2687  0.2328
 4632SOL    HW225356   3.541   2.618   4.848  1.4198  0.8647  1.5089
 4633SOL     OW25357   1.526   2.120   5.089  0.2178  0.0878 -0.2969
 4633SOL    HW125358   1.579   2.200   5.090 -0.5445  0.6185 -1.8471
 4633SOL    HW225359   1.527   2.113   5.184  1.8755  0.7509 -0.2663
 4634SOL     OW25360   2.078   1.412   6.550 -0.1430  0.1199 -0.2288
 4634SOL    HW125361   2.123   1.328   6.542  0.5556  0.7310 -3.0117
 4634SOL    HW225362   2.104   1.452   6.466  0.2614  1.9853  0.7715
 4635SOL     OW25363   1.621   1.983   8.153  0.3254  0.4651 -0.1656
 4635SOL    HW125364   1.579   1.948   8.232  1.0382 -2.5905 -1.1117
 4635SOL    HW225365   1.577   2.066   8.134 -1.0461 -0.5193 -1.3038
 4636SOL     OW25366   3.585   4.499   9.398 -0.0151 -0.2509  0.4264
 4636SOL    HW125367   3.524   4.547   9.454 -1.8161 -0.8536 -1.0135
 4636SOL    HW225368   3.591   4.412   9.437  1.4220 -0.3492 -0.0122
 4637SOL     OW25369   0.962   4.165  12.340  0.2682  0.0031 -0.5815
 4637SOL    HW125370   0.924   4.162  12.252  0.2245  1.0522 -0.5986
 4637SOL    HW225371   0.929   4.243  12.384 -1.6850 -0.1454 -1.7819
 4638SOL     OW25372   2.865   2.629   4.192 -0.6726  0.8446 -0.2527
 4638SOL    HW125373   2.905   2.709   4.227 -1.0994 -0.2844  2.8192
 4638SOL    HW225374   2.926   2.561   4.220 -2.4301  0.7952  3.5303
 4639SOL     OW25375   0.638   2.616  12.051  0.0426 -0.0792  0.5495
 4639SOL    HW125376   0.687   2.682  12.001 -0.4870 -0.4471 -0.4520
 4639SOL    HW225377   0.589   2.669  12.114 -2.7868 -1.9032 -0.1405
 4640SOL     OW25378   0.392   2.203   7.401 -0.4225  0.4278  0.4163
 4640SOL    HW125379   0.428   2.273   7.345 -1.5122  0.1958 -0.5709
 4640SOL    HW225380   0.322   2.164   7.349  0.4227  0.8767 -1.0737
 4641SOL     OW25381   1.735   0.740  10.978 -0.0346 -0.0198  0.1497
 4641SOL    HW125382   1.775   0.775  10.899  0.7868  1.0889  1.0648
 4641SOL    HW225383   1.649   0.775  10.955 -0.2120  1.0062  2.4301
 4642SOL     OW25384   1.099   4.019   7.140  0.3108  0.4245  0.0697
 4642SOL    HW125385   1.032   4.060   7.195 -1.1117 -0.2766 -1.1525
 4642SOL    HW225386   1.077   4.047   7.051 -0.6354 -1.2327 -0.2032
 4643SOL     OW25387   1.687   1.228   8.612 -0.3837  1.1632 -0.4942
 4643SOL    HW125388   1.705   1.256   8.522  1.0834  0.3617 -0.4433
 4643SOL    HW225389   1.766   1.246   8.663 -0.2383  0.7318 -0.5693
 4644SOL     OW25390   2.599   3.929  17.063 -0.2331  0.5210  0.0011
 4644SOL    HW125391   2.549   3.851  17.085 -1.9751  1.6801  0.1722
 4644SOL    HW225392   2.578   3.943  16.970  2.4419 -3.2912 -1.1494
 4645SOL     OW25393   0.285   3.748   9.832  0.6469 -0.2420  0.4890
 4645SOL    HW125394   0.309   3.693   9.907 -2.4070 -2.0092  0.1664
 4645SOL    HW225395   0.361   3.804   9.818  1.2520 -1.4573 -1.1737
 4646SOL     OW25396   2.494   3.986   9.389  0.5277 -0.6303 -0.1549
 4646SOL    HW125397   2.415   4.040   9.392 -0.2363 -1.7978  1.1613
 4646SOL    HW225398   2.476   3.955   9.300  2.0489 -1.1718 -0.2775
 4647SOL     OW25399   2.653   3.327  10.215 -0.1731  0.3901 -0.1630
 4647SOL    HW125400   2.693   3.351  10.298  1.0980 -0.9547 -0.3859
 4647SOL    HW225401   2.571   3.285  10.240  0.4345  0.0902  1.2983
 4648SOL     OW25402   4.399   3.418   7.648 -0.2071 -0.2292 -0.5827
 4648SOL    HW125403   4.428   3.426   7.739 -0.5547  1.5063 -0.6279
 4648SOL    HW225404   4.435   3.335   7.619  2.1301  1.1662 -1.6599
 4649SOL     OW25405   3.257   4.516   8.331 -0.5630 -0.2543  0.0092
 4649SOL    HW125406   3.292   4.438   8.375  2.2344  0.5805 -0.7289
 4649SOL    HW225407   3.242   4.573   8.406  0.5877  0.7378 -0.5147
 4650SOL     OW25408   1.273   1.883  17.274 -0.3186  0.1889 -0.0578
 4650SOL    HW125409   1.365   1.899  17.296 -0.4147 -2.5005  2.2564
 4650SOL    HW225410   1.269   1.926  17.188 -1.1642 -0.9517 -0.5868
 4651SOL     OW25411   0.843   2.360   9.965  0.4497 -0.2302 -0.0112
 4651SOL    HW125412   0.872   2.451   9.976  1.1890 -0.5361  0.6111
 4651SOL    HW225413   0.887   2.307  10.032 -1.4630  0.7780  2.0599
 4652SOL     OW25414   1.701   2.417   0.510 -0.2326  0.3429 -0.0318
 4652SOL    HW125415   1.667   2.475   0.441 -0.0647 -1.2091 -1.4066
 4652SOL    HW225416   1.629   2.369   0.551  0.2708 -0.3464  0.0296
 4653SOL     OW25417   2.029   1.738  16.888 -0.2784  0.5176 -0.2122
 4653SOL    HW125418   2.004   1.800  16.819 -0.5127  2.3870  1.5750
 4653SOL    HW225419   1.965   1.753  16.957 -2.5364 -1.8768 -1.7837
 4654SOL     OW25420   3.318   3.328   7.954  0.3641  0.2765 -0.3663
 4654SOL    HW125421   3.280   3.382   7.885 -0.3107 -1.7971 -1.6470
 4654SOL    HW225422   3.299   3.377   8.034 -0.7675  2.1399 -1.7742
 4655SOL     OW25423   1.132   1.624   8.806  0.2759  0.7280 -0.0138
 4655SOL    HW125424   1.187   1.672   8.868 -1.3886 -0.0985  2.1228
 4655SOL    HW225425   1.146   1.658   8.718  2.4945 -0.5804 -0.1479
 4656SOL     OW25426   0.671   3.771   7.341 -0.1564 -0.6677  0.2502
 4656SOL    HW125427   0.672   3.679   7.369 -1.8998 -1.0991 -1.0752
 4656SOL    HW225428   0.691   3.777   7.248 -0.8435 -1.5231  0.0447
 4657SOL     OW25429   2.931   2.101   7.201 -0.3409  0.0697  0.2896
 4657SOL    HW125430   2.993   2.066   7.137 -1.3718  1.6288 -1.5482
 4657SOL    HW225431   2.967   2.189   7.199 -1.7994  0.6611  0.3098
 4658SOL     OW25432   3.245   2.566   5.248 -0.5841 -0.1668 -0.3109
 4658SOL    HW125433   3.339   2.573   5.263 -1.0134 -0.8124  2.6265
 4658SOL    HW225434   3.234   2.471   5.240 -1.2237 -0.2396  1.3749
 4659SOL     OW25435   3.908   2.676   5.340 -0.2756 -0.3542  0.1542
 4659SOL    HW125436   3.824   2.720   5.324 -0.2588  0.1550  1.4387
 4659SOL    HW225437   3.888   2.652   5.430  0.8304 -3.2264 -0.3564
 4660SOL     OW25438   2.025   2.009   6.754  0.1864  0.4034  0.4125
 4660SOL    HW125439   2.107   2.058   6.749  0.8562 -0.8467 -0.7242
 4660SOL    HW225440   2.023   2.008   6.849  0.1403  1.2873  0.4230
 4661SOL     OW25441   0.874   4.082   5.128 -0.3136 -0.6778 -0.1572
 4661SOL    HW125442   0.873   4.101   5.221  0.3582  0.4544 -0.3846
 4661SOL    HW225443   0.779   4.072   5.113 -0.2823  0.7889 -1.4038
 4662SOL     OW25444   3.555   2.174  13.847  0.0200 -0.3039  0.3686
 4662SOL    HW125445   3.487   2.182  13.913 -0.2696  0.5991 -0.0458
 4662SOL    HW225446   3.618   2.108  13.877  1.7227  0.9047 -0.4811
 4663SOL     OW25447   4.559   2.297  11.348  0.6121  0.0731  0.7607
 4663SOL    HW125448   4.651   2.324  11.344  0.8843 -1.2865 -1.9651
 4663SOL    HW225449   4.555   2.204  11.369 -0.8079 -0.4211 -1.6910
 4664SOL     OW25450   0.148   0.433   8.917 -0.5022  0.1818 -0.2429
 4664SOL    HW125451   0.192   0.515   8.897  0.5903  0.2542  2.3769
 4664SOL    HW225452   0.075   0.466   8.969 -1.4869 -0.1069 -1.4464
 4665SOL     OW25453   4.495   0.507  15.724  0.1322 -0.3464 -0.0535
 4665SOL    HW125454   4.527   0.418  15.709  0.6966 -0.2393  0.5209
 4665SOL    HW225455   4.569   0.558  15.692  0.2062 -0.6455 -0.3607
 4666SOL     OW25456   2.301   4.330   2.761 -0.1024  0.1980  0.0428
 4666SOL    HW125457   2.379   4.345   2.707  0.8328  1.6647  1.7978
 4666SOL    HW225458   2.337   4.308   2.847 -2.0743 -1.8949  0.3113
 4667SOL     OW25459   0.067   3.186  13.060 -0.0442 -0.5135 -0.2023
 4667SOL    HW125460   0.112   3.112  13.101 -2.7224 -1.3061  1.2672
 4667SOL    HW225461   0.116   3.265  13.083  1.8289 -1.0368 -2.3551
 4668SOL     OW25462   2.507   4.510  11.121 -0.2842  0.7422  0.5500
 4668SOL    HW125463   2.579   4.573  11.127  0.6099 -0.2178 -0.1669
 4668SOL    HW225464   2.500   4.497  11.027  0.4259 -0.6450  0.6932
 4669SOL     OW25465   3.816   3.304  11.229 -0.8784  0.0456  0.3765
 4669SOL    HW125466   3.779   3.296  11.317 -1.6812  2.2371  0.2401
 4669SOL    HW225467   3.895   3.354  11.248 -0.6783 -0.4865  0.9504
 4670SOL     OW25468   3.055   4.350   4.384  0.5968  0.0631 -0.3448
 4670SOL    HW125469   3.024   4.397   4.307 -2.7589  1.8193  2.0600
 4670SOL    HW225470   3.101   4.417   4.433 -0.4314  1.1466 -0.8622
 4671SOL     OW25471   2.505   3.237  14.229 -0.1335 -0.2522 -0.0491
 4671SOL    HW125472   2.501   3.149  14.192 -0.0189 -0.2838  0.0122
 4671SOL    HW225473   2.495   3.216  14.322 -0.0852 -1.1602 -0.2563
 4672SOL     OW25474   2.156   3.527   8.032  0.4012 -0.0585  0.1574
 4672SOL    HW125475   2.176   3.616   8.004  1.1653 -0.3950 -0.4005
 4672SOL    HW225476   2.165   3.476   7.951  3.1224  0.3335  0.2069
 4673SOL     OW25477   4.542   0.158   5.458 -0.7365  0.3756 -0.6588
 4673SOL    HW125478   4.581   0.184   5.375 -0.6308  0.5636 -0.5487
 4673SOL    HW225479   4.572   0.225   5.519  2.3303 -1.3729 -0.2742
 4674SOL     OW25480   0.898   3.312   8.035 -0.7657 -0.2254  0.0595
 4674SOL    HW125481   0.822   3.284   7.985 -0.2677 -2.1313  0.3517
 4674SOL    HW225482   0.964   3.269   7.981 -1.7052  0.6297 -1.7794
 4675SOL     OW25483   4.029   1.836   2.571  0.3835 -0.1804 -0.3543
 4675SOL    HW125484   4.054   1.912   2.623 -1.4452 -0.2386  0.5917
 4675SOL    HW225485   4.108   1.796   2.536 -1.3416 -2.7503 -1.3426
 4676SOL     OW25486   2.515   0.532  14.741  0.3417  0.0106 -1.0792
 4676SOL    HW125487   2.570   0.494  14.810 -0.3984  0.0294 -0.4751
 4676SOL    HW225488   2.456   0.457  14.738 -1.8027  1.6041  1.1771
 4677SOL     OW25489   1.441   0.154  13.069 -0.7973  0.2265 -0.0850
 4677SOL    HW125490   1.365   0.110  13.029  0.8570 -2.0182 -0.7950
 4677SOL    HW225491   1.452   0.223  13.004 -0.0268  1.3982  1.3123
 4678SOL     OW25492   0.156   2.906   6.488  0.2097  0.4779 -0.4224
 4678SOL    HW125493   0.208   2.874   6.415 -0.4423  0.7182 -0.9912
 4678SOL    HW225494   0.191   2.844   6.552  0.1353  0.3856 -0.4718
 4679SOL     OW25495   0.340   0.110   2.620  0.2013 -0.1232  0.1509
 4679SOL    HW125496   0.401   0.036   2.610  0.1160 -0.0837 -0.7007
 4679SOL    HW225497   0.266   0.057   2.650  1.5258 -2.0596  0.0378
 4680SOL     OW25498   3.208   2.222   2.448  0.0574  0.3206  0.6634
 4680SOL    HW125499   3.127   2.249   2.404  0.7516 -1.8267 -1.9462
 4680SOL    HW225500   3.268   2.223   2.373 -0.7415  5.8343  0.0897
 4681SOL     OW25501   1.051   3.753   7.551  0.6791 -0.6364 -0.3292
 4681SOL    HW125502   1.018   3.663   7.562  2.5750 -1.4410 -1.1626
 4681SOL    HW225503   1.144   3.731   7.545  1.2956  2.8645 -3.4135
 4682SOL     OW25504   2.785   1.339  12.047 -0.0588  0.7417  0.5515
 4682SOL    HW125505   2.792   1.268  12.111 -0.5318 -0.2127 -0.4480
 4682SOL    HW225506   2.846   1.305  11.982  0.3866  0.5479  1.0780
 4683SOL     OW25507   0.163   3.709   5.785  0.0751 -0.2737  0.0826
 4683SOL    HW125508   0.140   3.629   5.832 -0.4427 -0.5493 -0.6378
 4683SOL    HW225509   0.199   3.677   5.703 -1.5541  1.8700 -1.4907
 4684SOL     OW25510   1.779   1.687   1.599  0.2033 -0.4038  0.2249
 4684SOL    HW125511   1.846   1.620   1.581 -1.8848 -1.5633 -3.1520
 4684SOL    HW225512   1.746   1.642   1.677 -0.1864  2.1549  1.5532
 4685SOL     OW25513   1.261   3.795  14.623  0.0040 -0.2034  0.6633
 4685SOL    HW125514   1.259   3.706  14.588  1.5520  0.2445 -0.5901
 4685SOL    HW225515   1.355   3.812  14.615 -0.0174  0.3207  1.5985
 4686SOL     OW25516   4.406   3.004  16.357 -0.1164 -0.3798  0.6324
 4686SOL    HW125517   4.416   2.944  16.431 -1.3240  0.2278  1.2984
 4686SOL    HW225518   4.490   2.984  16.316 -0.2793  2.7798 -1.2910
 4687SOL     OW25519   3.174   0.966   4.366  0.4911 -0.4646  0.1252
 4687SOL    HW125520   3.207   1.055   4.350  0.3227 -1.1684 -4.3095
 4687SOL    HW225521   3.251   0.909   4.358  1.9573  1.4765  0.4414
 4688SOL     OW25522   1.694   2.654   1.871  0.1839  0.2594 -0.6361
 4688SOL    HW125523   1.762   2.591   1.896  0.1302  1.3458  2.1829
 4688SOL    HW225524   1.629   2.596   1.832  0.3644 -1.5879  1.8074
 4689SOL     OW25525   0.399   4.413   4.635 -0.2509  0.5159 -0.0202
 4689SOL    HW125526   0.315   4.414   4.590  0.2051  2.0440 -0.8177
 4689SOL    HW225527   0.422   4.323   4.615 -0.9804 -0.6137  4.2417
 4690SOL     OW25528   2.933   3.396   8.991 -0.3289 -0.4247 -0.3949
 4690SOL    HW125529   2.899   3.320   9.039 -2.4641  1.0989  0.5107
 4690SOL    HW225530   3.017   3.405   9.036 -0.8686  0.7212  0.3808
 4691SOL     OW25531   2.786   0.400   2.714 -0.2507  0.1053 -0.1909
 4691SOL    HW125532   2.862   0.389   2.656 -1.2432 -0.5349 -1.3714
 4691SOL    HW225533   2.765   0.494   2.713  2.5870  0.7552  2.0791
 4692SOL     OW25534   0.261   0.471  10.306  0.4255 -0.7304 -0.0444
 4692SOL    HW125535   0.329   0.480  10.372 -0.1650  2.3501  0.1359
 4692SOL    HW225536   0.258   0.560  10.273  0.1356  0.0690  2.1556
 4693SOL     OW25537   4.320   2.046   0.526 -0.1261  0.0796  0.4302
 4693SOL    HW125538   4.408   2.026   0.557  0.2930 -0.6341 -1.2128
 4693SOL    HW225539   4.268   1.983   0.576  0.5847 -1.0322 -0.2268
 4694SOL     OW25540   1.670   0.108   2.461 -0.1946  0.1578 -0.6161
 4694SOL    HW125541   1.694   0.017   2.447 -0.8203  0.2523 -2.3014
 4694SOL    HW225542   1.575   0.102   2.449 -0.2193 -2.7632  1.0464
 4695SOL     OW25543   1.633   3.120  10.585  0.1427 -0.4874 -0.2977
 4695SOL    HW125544   1.697   3.191  10.583  0.0613 -0.4518 -2.2114
 4695SOL    HW225545   1.560   3.147  10.641  0.9313 -0.4049  0.6820
 4696SOL     OW25546   2.047   2.176  14.258 -0.1992  0.2760  0.0819
 4696SOL    HW125547   2.004   2.198  14.176  0.7393 -0.8435 -0.7109
 4696SOL    HW225548   2.098   2.098  14.234 -1.8072 -0.9739  0.7382
 4697SOL     OW25549   3.339   0.933   9.236  0.2815 -0.2242 -0.2728
 4697SOL    HW125550   3.433   0.944   9.251  0.2493 -0.1828 -0.1007
 4697SOL    HW225551   3.329   1.019   9.194 -1.7040 -0.1135  0.4300
 4698SOL     OW25552   1.533   2.900   1.357 -0.9311  0.2299 -0.2490
 4698SOL    HW125553   1.590   2.950   1.299 -0.2432 -0.5115 -0.2003
 4698SOL    HW225554   1.489   2.847   1.291  0.5294  1.0712 -1.9034
 4699SOL     OW25555   2.950   1.578   6.582 -0.2779 -0.2108  0.4393
 4699SOL    HW125556   2.865   1.589   6.625 -0.5549  1.9797 -0.6957
 4699SOL    HW225557   3.003   1.534   6.648  0.4380 -0.7312 -0.4809
 4700SOL     OW25558   0.096   0.724   2.608  0.3021  0.6312 -0.1349
 4700SOL    HW125559   0.120   0.679   2.527  0.7012  1.6352 -0.5833
 4700SOL    HW225560   0.019   0.775   2.582 -0.1258  0.3916  0.6698
 4701SOL     OW25561   3.681   2.469   4.773 -0.0236  0.5065 -0.9015
 4701SOL    HW125562   3.657   2.391   4.823 -0.1107  1.4322  0.4747
 4701SOL    HW225563   3.719   2.437   4.691 -0.9457  0.4665 -1.3232
 4702SOL     OW25564   0.049   2.889   4.950 -0.2069  0.1152 -0.0073
 4702SOL    HW125565   0.039   2.880   5.044 -0.0645  1.9342  0.1854
 4702SOL    HW225566   0.109   2.963   4.935 -1.9407  1.8707  1.6889
 4703SOL     OW25567   1.099   4.627   6.894 -0.0695  0.0324  0.0293
 4703SOL    HW125568   1.020   4.576   6.879  0.6016 -0.3561 -2.0849
 4703SOL    HW225569   1.146   4.621   6.811 -0.3456  2.5358 -0.3010
 4704SOL     OW25570   2.611   3.914   6.784 -0.0204 -0.3983 -0.2846
 4704SOL    HW125571   2.558   3.957   6.850  0.3279  2.2619 -1.7201
 4704SOL    HW225572   2.543   3.899   6.718 -1.3596  1.0363  0.7779
 4705SOL     OW25573   0.347   2.134   6.883  0.3234  0.1929 -0.5220
 4705SOL    HW125574   0.388   2.100   6.962 -0.7138 -2.0601 -0.9219
 4705SOL    HW225575   0.401   2.205   6.849  0.1763  0.0032 -1.1550
 4706SOL     OW25576   0.791   1.393   8.417 -0.0435  0.0728  0.1719
 4706SOL    HW125577   0.846   1.322   8.449  0.9584  0.4560 -0.7254
 4706SOL    HW225578   0.784   1.364   8.326  0.9041  0.1403  0.0782
 4707SOL     OW25579   0.218   4.502   4.442  0.0180 -0.1788  0.2461
 4707SOL    HW125580   0.262   4.586   4.426  2.2335 -1.5265 -0.7773
 4707SOL    HW225581   0.236   4.465   4.356  1.3413 -0.3029  0.5637
 4708SOL     OW25582   2.063   0.006   7.506  0.1032  0.0403  0.5394
 4708SOL    HW125583   2.135   0.011   7.570 -0.2865  2.7480  0.7368
 4708SOL    HW225584   1.989   0.044   7.553 -0.7562 -0.5363 -0.3443
 4709SOL     OW25585   4.292   3.080   7.627 -0.7165  0.2592 -0.0634
 4709SOL    HW125586   4.314   2.992   7.596 -0.2380  0.2322  0.3611
 4709SOL    HW225587   4.306   3.075   7.721  1.3855 -0.1804 -0.4002
 4710SOL     OW25588   1.594   0.081  14.046 -0.3323 -0.4348  0.3621
 4710SOL    HW125589   1.637   0.051  13.966  0.2217 -1.5470  1.0763
 4710SOL    HW225590   1.660   0.081  14.116 -1.2538 -1.8451  1.2180
 4711SOL     OW25591   2.015   4.558   3.106 -0.5179 -0.7042 -0.0001
 4711SOL    HW125592   1.981   4.647   3.101  0.2372 -0.4628 -0.8213
 4711SOL    HW225593   2.039   4.556   3.014  1.9315 -3.1222  0.7038
 4712SOL     OW25594   4.719   2.891   1.359  0.6906 -0.0576 -0.0416
 4712SOL    HW125595   0.086   2.877   1.331  0.3083  0.4638 -1.4909
 4712SOL    HW225596   0.002   2.875   1.453  1.4377 -0.3008 -0.1300
 4713SOL     OW25597   2.464   1.150   2.445 -0.2253  0.4653 -0.4197
 4713SOL    HW125598   2.555   1.167   2.471  0.1006 -1.9220 -0.0153
 4713SOL    HW225599   2.432   1.099   2.519  0.8270 -0.0610 -0.3248
 4714SOL     OW25600   3.835   3.665  14.082 -0.1619 -0.1092  0.8325
 4714SOL    HW125601   3.740   3.676  14.095 -0.2915 -0.6296  0.3459
 4714SOL    HW225602   3.855   3.681  14.174 -0.1151 -0.8525  0.9515
 4715SOL     OW25603   3.085   1.713   7.212  0.6995 -0.4124 -0.5114
 4715SOL    HW125604   2.998   1.752   7.211  0.7258 -0.3610 -0.9074
 4715SOL    HW225605   3.068   1.645   7.277 -0.6840 -1.3479 -1.8348
 4716SOL     OW25606   3.087   2.547  10.995 -0.2755  0.3157 -0.3189
 4716SOL    HW125607   3.011   2.506  11.037  1.1817 -2.0242  0.0076
 4716SOL    HW225608   3.122   2.472  10.947  1.2565  0.2552  0.9081
 4717SOL     OW25609   1.227   1.453   9.949 -0.1765  0.9242 -0.6520
 4717SOL    HW125610   1.267   1.429  10.033  1.0980 -0.6583 -1.7252
 4717SOL    HW225611   1.139   1.422   9.967  0.3299  0.3595  0.8720
 4718SOL     OW25612   0.938   1.654   7.889  0.1120  0.3410  0.4777
 4718SOL    HW125613   0.915   1.694   7.973  1.5524  1.8223  0.1617
 4718SOL    HW225614   0.995   1.719   7.848 -0.9317  1.6452  1.1026
 4719SOL     OW25615   2.581   2.132   0.249 -0.0103  0.3056 -0.0121
 4719SOL    HW125616   2.544   2.143   0.161 -2.2580 -1.5575  0.7019
 4719SOL    HW225617   2.595   2.037   0.245  0.8226  0.4140  0.4527
 4720SOL     OW25618   2.116   1.789   3.924  0.7323 -0.7742 -0.4067
 4720SOL    HW125619   2.134   1.838   3.843  1.4184 -2.2993 -1.1871
 4720SOL    HW225620   2.199   1.742   3.931  1.8900  1.2856 -0.2169
 4721SOL     OW25621   3.719   3.157   7.994  0.0562 -0.1271  0.6638
 4721SOL    HW125622   3.663   3.234   8.002  0.2004 -0.1049  1.5448
 4721SOL    HW225623   3.655   3.087   7.979  1.4156 -1.1377 -0.4186
 4722SOL     OW25624   3.655   0.739   3.179 -1.0944 -0.1493  0.5245
 4722SOL    HW125625   3.643   0.686   3.100  1.4510 -0.2155  0.1788
 4722SOL    HW225626   3.736   0.788   3.164 -0.7580 -0.7377  0.4355
 4723SOL     OW25627   4.005   2.818   2.615 -0.5832  0.0330  0.6118
 4723SOL    HW125628   4.041   2.827   2.527 -2.3780  0.1640 -0.1058
 4723SOL    HW225629   4.043   2.899   2.649 -0.5486  0.5643 -0.6992
 4724SOL     OW25630   1.225   2.361  12.559 -0.0774 -0.1763 -0.2323
 4724SOL    HW125631   1.207   2.316  12.641  0.1747 -1.1002 -0.6815
 4724SOL    HW225632   1.318   2.339  12.552 -0.7756 -2.6750 -1.6271
 4725SOL     OW25633   0.521   0.895  10.516  0.1934 -0.1090 -0.0918
 4725SOL    HW125634   0.495   0.882  10.608 -0.2473 -1.9966 -0.4801
 4725SOL    HW225635   0.598   0.838  10.512 -0.0779 -0.5588  0.9998
 4726SOL     OW25636   2.747   3.957   4.230 -0.4607  0.6003  0.1558
 4726SOL    HW125637   2.774   3.967   4.139  1.3153  1.2388  0.7489
 4726SOL    HW225638   2.815   4.009   4.272 -0.5692  0.6288  0.2957
 4727SOL     OW25639   1.069   0.908   1.286  0.1830  0.2359 -0.0901
 4727SOL    HW125640   1.150   0.897   1.336 -0.3025 -1.4911  0.3028
 4727SOL    HW225641   1.057   1.001   1.304  0.1809  0.5514 -1.6764
 4728SOL     OW25642   0.371   4.566   3.461 -0.0013  0.2926 -0.0645
 4728SOL    HW125643   0.314   4.629   3.417 -0.9916 -0.2683  0.4142
 4728SOL    HW225644   0.460   4.581   3.428  1.0727 -0.5326  2.4950
 4729SOL     OW25645   0.862   0.346  13.292  0.2794 -0.1135 -0.2732
 4729SOL    HW125646   0.839   0.411  13.225 -2.8746 -0.6579  0.2969
 4729SOL    HW225647   0.782   0.346  13.344  0.1970  0.9899 -0.3995
 4730SOL     OW25648   3.619   0.675  15.229 -0.2634  0.3406 -0.0280
 4730SOL    HW125649   3.704   0.685  15.185 -0.0333 -1.5713 -0.0092
 4730SOL    HW225650   3.630   0.755  15.280 -0.7612 -0.0934  0.7565
 4731SOL     OW25651   2.928   0.613   7.614  0.4943  0.1242 -0.0510
 4731SOL    HW125652   2.870   0.594   7.688  2.5913 -0.0063  1.5453
 4731SOL    HW225653   2.923   0.538   7.556 -2.3247  0.3001 -0.0306
 4732SOL     OW25654   3.860   1.558  13.258 -0.2829 -0.0614  0.3809
 4732SOL    HW125655   3.858   1.483  13.317  1.9659 -0.1783  0.2972
 4732SOL    HW225656   3.913   1.615  13.314  0.6015  1.0696 -1.5948
 4733SOL     OW25657   2.855   3.934  12.375  0.5537 -0.2242 -0.5063
 4733SOL    HW125658   2.830   4.009  12.321 -3.9505  0.2886  2.2001
 4733SOL    HW225659   2.771   3.888  12.368 -0.6297  1.5115  1.9242
 4734SOL     OW25660   1.595   1.504  10.072  0.2591 -0.0392  0.0534
 4734SOL    HW125661   1.555   1.568  10.012  1.1472 -0.5045 -1.0370
 4734SOL    HW225662   1.521   1.472  10.124 -1.2461  2.1482 -0.7270
 4735SOL     OW25663   1.740   1.325   7.729  0.0463 -0.2423 -0.0679
 4735SOL    HW125664   1.709   1.306   7.640 -0.0763  0.5271 -0.1891
 4735SOL    HW225665   1.783   1.410   7.723 -0.3164 -0.0136  0.5462
 4736SOL     OW25666   1.474   3.368   8.318  0.3192  0.2920 -0.3370
 4736SOL    HW125667   1.517   3.315   8.385  0.6582 -1.5903 -2.0284
 4736SOL    HW225668   1.491   3.455   8.353 -1.7103  0.1597  0.9767
 4737SOL     OW25669   0.056   1.792   3.954 -0.7068 -0.1358 -0.1549
 4737SOL    HW125670   0.070   1.734   4.029  1.3133  0.1075 -0.3530
 4737SOL    HW225671   4.692   1.826   3.971 -0.1869  0.7756  0.6305
 4738SOL     OW25672   1.117   4.145  16.721 -0.5003 -0.4757  0.3317
 4738SOL    HW125673   1.054   4.209  16.690  1.7431  0.4111 -2.3908
 4738SOL    HW225674   1.106   4.073  16.659 -2.4822 -0.7056  0.9687
 4739SOL     OW25675   2.109   1.093   6.783  0.5154  0.1975  0.0188
 4739SOL    HW125676   2.095   0.999   6.776  1.4422  0.0401  0.3475
 4739SOL    HW225677   2.136   1.107   6.693 -0.5924 -0.5927 -0.4331
 4740SOL     OW25678   2.700   2.005  16.026  0.5690  0.3544  0.5651
 4740SOL    HW125679   2.779   2.059  16.020  2.0938 -1.8885  0.4587
 4740SOL    HW225680   2.741   1.918  16.028 -1.2681 -0.5025  0.7209
 4741SOL     OW25681   1.918   0.050   2.133  0.0284  0.6675 -0.0137
 4741SOL    HW125682   1.990   0.102   2.169 -0.3128  0.6136  0.7333
 4741SOL    HW225683   1.970   4.695   2.115 -0.9103  0.0010  0.1693
 4742SOL     OW25684   2.790   3.083  10.175  0.4894 -0.1405  0.1645
 4742SOL    HW125685   2.695   3.075  10.178  0.5016  0.2512  2.1140
 4742SOL    HW225686   2.788   3.178  10.190  0.2654 -0.4031  1.7806
 4743SOL     OW25687   2.547   0.246   4.108 -0.4816 -0.0157 -0.1259
 4743SOL    HW125688   2.454   0.248   4.084 -0.7604  1.0710  1.0038
 4743SOL    HW225689   2.566   0.338   4.128 -0.6277  0.5129 -2.4327
 4744SOL     OW25690   1.760   4.566   2.530 -0.0737 -0.5782 -0.1213
 4744SOL    HW125691   1.744   4.472   2.537 -0.0975 -0.5025  0.9828
 4744SOL    HW225692   1.843   4.586   2.575 -0.3148 -0.7473  0.3984
 4745SOL     OW25693   0.704   0.452   3.765 -0.2000 -0.0970 -0.4804
 4745SOL    HW125694   0.787   0.493   3.743 -1.7484  2.6767 -1.0646
 4745SOL    HW225695   0.717   0.367   3.721  0.9430  0.7097 -1.7278
 4746SOL     OW25696   2.762   0.423   5.828  0.2994 -0.1260  0.1049
 4746SOL    HW125697   2.668   0.430   5.842  0.5937 -0.7683  2.2983
 4746SOL    HW225698   2.787   0.373   5.905 -1.2515 -0.5546  0.3340
 4747SOL     OW25699   0.297   1.039   3.851 -0.5422  0.7322  0.5684
 4747SOL    HW125700   0.362   1.045   3.921 -1.5851 -0.5752  1.6263
 4747SOL    HW225701   0.253   1.124   3.849 -1.1991  0.4226  1.8283
 4748SOL     OW25702   2.012   4.628   2.583 -0.4118  0.0094  0.2290
 4748SOL    HW125703   2.029   4.584   2.666 -2.8382  0.5088  0.9881
 4748SOL    HW225704   2.104   4.637   2.557 -0.2523 -0.6778  0.5484
 4749SOL     OW25705   2.361   2.778   8.825 -0.4763  0.0538  0.4128
 4749SOL    HW125706   2.393   2.703   8.876 -1.7347 -1.5209 -1.1010
 4749SOL    HW225707   2.443   2.828   8.819 -0.5302 -0.0803 -1.5060
 4750SOL     OW25708   3.862   2.908  14.276 -0.5394 -0.0260  0.0026
 4750SOL    HW125709   3.949   2.872  14.257 -0.3487  0.0284  0.7661
 4750SOL    HW225710   3.857   2.956  14.193 -0.7752 -0.1076 -0.0287
 4751SOL     OW25711   0.397   3.781  11.355  0.4418 -0.3750 -0.4563
 4751SOL    HW125712   0.492   3.781  11.344  0.2832 -1.0620 -1.9325
 4751SOL    HW225713   0.375   3.696  11.318 -0.0197 -0.8787  0.9750
 4752SOL     OW25714   0.515   0.476  15.102 -0.1302  0.6098 -0.3905
 4752SOL    HW125715   0.450   0.544  15.083  0.5311  0.9799 -1.3550
 4752SOL    HW225716   0.484   0.427  15.177 -1.8129  0.5295 -1.1467
 4753SOL     OW25717   2.355   1.058   7.626 -0.4835 -0.3813  0.1138
 4753SOL    HW125718   2.297   0.982   7.619 -0.1723 -0.4895 -1.3768
 4753SOL    HW225719   2.322   1.107   7.551 -2.4428 -0.0730  1.1772
 4754SOL     OW25720   2.308   1.680   5.010  0.6515 -1.0703  0.3270
 4754SOL    HW125721   2.214   1.670   4.997  0.5226 -0.0214  0.4361
 4754SOL    HW225722   2.319   1.672   5.105 -2.5624  0.6941  0.8547
 4755SOL     OW25723   3.565   1.049   3.112  0.1481  0.1592 -0.5474
 4755SOL    HW125724   3.580   0.963   3.150 -1.8230  0.3538  0.6721
 4755SOL    HW225725   3.511   1.034   3.034 -0.8096 -0.4141  0.2294
 4756SOL     OW25726   2.833   3.912   8.785  0.2168 -0.5023  0.3061
 4756SOL    HW125727   2.920   3.875   8.770  0.4576  0.4965 -0.7735
 4756SOL    HW225728   2.837   3.983   8.720 -1.1513 -1.1245 -0.4549
 4757SOL     OW25729   1.294   2.949   2.270  0.0079 -0.0650 -0.1872
 4757SOL    HW125730   1.324   2.874   2.321  0.9577 -0.0804 -0.7725
 4757SOL    HW225731   1.204   2.950   2.301 -0.5844  0.5972 -1.9525
 4758SOL     OW25732   2.641   4.240  13.320  0.4676 -0.0425 -0.0249
 4758SOL    HW125733   2.695   4.318  13.307  0.1021 -0.0894 -1.8494
 4758SOL    HW225734   2.688   4.179  13.263  0.3109 -0.7575  0.6199
 4759SOL     OW25735   4.526   0.448   2.845 -0.5660 -0.2325 -0.3554
 4759SOL    HW125736   4.452   0.508   2.859 -1.1898 -0.8458 -1.0110
 4759SOL    HW225737   4.590   0.517   2.827  0.8363 -2.1954 -2.9103
 4760SOL     OW25738   0.105   2.853   9.102 -0.0865  0.6438  0.1956
 4760SOL    HW125739   0.064   2.880   9.020 -1.5103 -2.6929 -0.1743
 4760SOL    HW225740   0.088   2.935   9.149 -2.7261  1.6200 -2.4635
 4761SOL     OW25741   4.221   0.628   7.327  0.2332  0.1548 -0.4401
 4761SOL    HW125742   4.231   0.613   7.421 -0.5058  1.7834 -0.0960
 4761SOL    HW225743   4.241   0.721   7.313 -0.5074  0.6821  2.0105
 4762SOL     OW25744   0.117   4.326   5.414  0.1345  0.2886  0.3249
 4762SOL    HW125745   0.138   4.340   5.506  1.8250 -1.6170  0.2293
 4762SOL    HW225746   0.026   4.301   5.422  0.2002 -0.1352 -0.2386
 4763SOL     OW25747   1.610   3.580   3.785 -0.1216  0.0468  0.4438
 4763SOL    HW125748   1.701   3.570   3.758 -0.0509 -0.3622  0.8261
 4763SOL    HW225749   1.610   3.674   3.801  0.2349  0.3813 -1.4683
 4764SOL     OW25750   0.484   1.853   5.858  0.8856  0.0498  0.0885
 4764SOL    HW125751   0.430   1.922   5.818 -0.2143 -1.0870 -0.3766
 4764SOL    HW225752   0.482   1.785   5.791 -2.6659  0.6314 -0.3753
 4765SOL     OW25753   2.636   2.164   3.504  0.1967  0.0418  0.0861
 4765SOL    HW125754   2.650   2.243   3.450 -3.8781 -0.6120 -2.0018
 4765SOL    HW225755   2.658   2.090   3.448 -2.2561 -0.3051 -0.4226
 4766SOL     OW25756   3.653   4.271   9.516  0.2351  0.4918 -0.2779
 4766SOL    HW125757   3.657   4.256   9.610  0.4223 -0.3499 -0.4234
 4766SOL    HW225758   3.728   4.223   9.480  0.1032  0.8904 -1.0944
 4767SOL     OW25759   3.704   2.908  16.091  0.0955 -0.3940 -0.4783
 4767SOL    HW125760   3.734   2.985  16.138  0.9088  0.7817 -2.9540
 4767SOL    HW225761   3.693   2.943  16.002  0.8511  3.3993  0.9609
 4768SOL     OW25762   1.649   1.868  12.540  0.6406  0.5499 -0.1688
 4768SOL    HW125763   1.568   1.897  12.497 -0.0498 -0.1928  0.6283
 4768SOL    HW225764   1.613   1.843  12.625 -1.1506  0.4338 -0.9534
 4769SOL     OW25765   4.596   2.390   4.997  0.6908  0.2833 -0.4269
 4769SOL    HW125766   4.503   2.393   4.974  0.1180 -1.9971  1.5586
 4769SOL    HW225767   4.633   2.426   4.917 -1.2702 -0.1427 -1.5319
 4770SOL     OW25768   3.016   1.568  10.903 -0.3199  0.0634  0.5329
 4770SOL    HW125769   3.048   1.553  10.992 -2.1783 -1.1005  0.9887
 4770SOL    HW225770   2.983   1.482  10.879  3.3216 -0.7066 -1.8841
 4771SOL     OW25771   0.534   4.587   6.444  0.4093  0.6244  0.1497
 4771SOL    HW125772   0.555   4.589   6.537  0.7172  2.7302  0.0349
 4771SOL    HW225773   0.524   4.679   6.418 -0.8279  0.6203  0.6202
 4772SOL     OW25774   1.731   1.985   4.094  0.0341  0.0867 -0.1068
 4772SOL    HW125775   1.754   1.905   4.143  1.4227 -0.0225 -0.9421
 4772SOL    HW225776   1.665   1.935   4.045  1.0121 -1.2458 -0.0846
 4773SOL     OW25777   3.145   4.386   8.690  0.3833 -0.0510  0.2637
 4773SOL    HW125778   3.163   4.478   8.674 -2.8175  0.7726  1.4666
 4773SOL    HW225779   3.084   4.382   8.764 -0.7506  0.8738 -0.6279
 4774SOL     OW25780   4.054   1.535   1.794 -0.3531  0.1424 -0.2622
 4774SOL    HW125781   4.125   1.473   1.808 -0.6328  0.3397  2.0085
 4774SOL    HW225782   4.071   1.601   1.861 -0.4620 -0.9726  0.8487
 4775SOL     OW25783   0.173   1.906   5.468 -0.1371 -0.2776  0.0353
 4775SOL    HW125784   0.134   1.823   5.442 -1.9849  1.0950 -1.5715
 4775SOL    HW225785   0.121   1.968   5.417  0.4365 -0.2065 -0.4608
 4776SOL     OW25786   4.617   0.806   2.434 -0.9893 -0.5455  0.6330
 4776SOL    HW125787   4.541   0.748   2.432 -1.2650 -0.1707  0.2363
 4776SOL    HW225788   4.684   0.746   2.402 -2.8066 -1.8947 -0.6464
 4777SOL     OW25789   0.005   3.590   7.333  0.0706 -0.7243  0.0148
 4777SOL    HW125790   0.081   3.645   7.313  0.0616 -1.5640 -2.4260
 4777SOL    HW225791   4.664   3.627   7.272 -1.3796  1.3507  2.8465
 4778SOL     OW25792   1.868   4.701   3.491  0.4130  0.0787 -0.5074
 4778SOL    HW125793   1.783   4.678   3.454 -1.4049 -0.9652  4.3355
 4778SOL    HW225794   1.918   4.620   3.474  0.3681 -0.8303  3.5088
 4779SOL     OW25795   3.872   0.765   5.503 -0.0706 -0.1890  0.6042
 4779SOL    HW125796   3.864   0.859   5.520  2.0244 -0.1948  1.5384
 4779SOL    HW225797   3.820   0.751   5.424  1.2941 -0.1733 -0.3036
 4780SOL     OW25798   1.560   2.058   2.842  0.1471  0.1021 -0.2210
 4780SOL    HW125799   1.505   2.110   2.783  0.6385 -0.4885 -1.1925
 4780SOL    HW225800   1.522   1.971   2.832  3.3595 -1.3987  0.5516
 4781SOL     OW25801   3.255   4.251  12.536 -0.5665 -0.2274 -0.4569
 4781SOL    HW125802   3.258   4.235  12.630 -1.5958  1.7171 -0.0934
 4781SOL    HW225803   3.239   4.160  12.511 -1.8738 -0.2647  0.5114
 4782SOL     OW25804   2.446   4.695   8.301 -0.0104 -0.0198  0.1556
 4782SOL    HW125805   2.352   4.694   8.282 -0.0537  2.6829  0.3201
 4782SOL    HW225806   2.444   4.634   8.376  0.6346 -0.9373 -0.5691
 4783SOL     OW25807   1.674   3.432   7.904 -0.2726  0.0039 -0.0926
 4783SOL    HW125808   1.585   3.416   7.937  0.2798 -4.3954 -0.8027
 4783SOL    HW225809   1.731   3.436   7.981  2.0736  0.5702 -1.8409
 4784SOL     OW25810   3.779   3.053   9.254  0.7860 -0.2224  0.1462
 4784SOL    HW125811   3.840   3.124   9.234 -0.6777  1.1441  0.5644
 4784SOL    HW225812   3.804   3.002   9.177  0.5917  2.6257 -1.7890
 4785SOL     OW25813   3.168   4.414  15.253  0.4891 -0.6587  0.3864
 4785SOL    HW125814   3.256   4.379  15.264  1.4691  1.7831  0.4698
 4785SOL    HW225815   3.179   4.483  15.187  0.7628  0.2540  1.3893
 4786SOL     OW25816   2.195   3.438   7.300  0.2586 -0.3642 -0.5947
 4786SOL    HW125817   2.184   3.533   7.302  1.3997 -0.2339 -0.2841
 4786SOL    HW225818   2.115   3.410   7.255  1.2331 -1.6945 -1.5208
 4787SOL     OW25819   3.780   1.984   6.391  0.2592  0.0303  0.7405
 4787SOL    HW125820   3.874   1.976   6.375  0.7309  4.0691  1.5599
 4787SOL    HW225821   3.778   1.953   6.482 -0.5884 -2.6033 -0.1836
 4788SOL     OW25822   1.154   4.179   2.050 -0.2301  0.1460 -0.2620
 4788SOL    HW125823   1.200   4.105   2.090  0.5359  1.6130  1.5350
 4788SOL    HW225824   1.225   4.242   2.037 -1.2081  1.5852  1.3032
 4789SOL     OW25825   2.771   1.483  12.301  0.7824  0.3855 -0.2707
 4789SOL    HW125826   2.705   1.552  12.302  2.4261  1.9889 -1.7292
 4789SOL    HW225827   2.768   1.443  12.214 -0.9293 -0.0171 -0.0240
 4790SOL     OW25828   4.597   2.696  17.408  0.5241 -0.5387  0.3553
 4790SOL    HW125829   4.502   2.693  17.405  0.3727  0.8936  3.4367
 4790SOL    HW225830   4.613   2.630  17.340  3.4566 -1.8960  2.3179
 4791SOL     OW25831   1.760   3.378   2.846 -0.1724  0.0394 -0.5256
 4791SOL    HW125832   1.673   3.405   2.872  0.2051 -0.3486  1.1411
 4791SOL    HW225833   1.791   3.359   2.934  3.4577  0.7531 -1.6206
 4792SOL     OW25834   3.201   0.549   2.804  0.3963 -0.6138 -0.3992
 4792SOL    HW125835   3.176   0.561   2.712  2.3084  0.2485 -0.7984
 4792SOL    HW225836   3.141   0.480   2.833 -0.4428 -0.0828 -0.8646
 4793SOL     OW25837   3.545   4.287   0.404 -0.0764  0.0548  0.4361
 4793SOL    HW125838   3.482   4.347   0.444 -0.4888  0.1382 -0.3324
 4793SOL    HW225839   3.485   4.216   0.384  1.0754 -0.8972  0.3702
 4794SOL     OW25840   0.718   2.211   3.124  0.3801 -0.5425 -0.1416
 4794SOL    HW125841   0.742   2.118   3.122 -1.9103 -1.1082 -1.9398
 4794SOL    HW225842   0.651   2.206   3.055 -0.4067 -1.7814  0.7097
 4795SOL     OW25843   2.304   0.308   7.933  0.0891  0.0980  0.4332
 4795SOL    HW125844   2.215   0.344   7.925 -0.1610 -1.0405 -1.8190
 4795SOL    HW225845   2.349   0.374   7.986  0.3329  0.8328 -0.7012
 4796SOL     OW25846   0.504   4.233   9.404 -0.4498 -0.1948  0.5018
 4796SOL    HW125847   0.513   4.316   9.357  2.0865 -1.3045 -1.0240
 4796SOL    HW225848   0.546   4.256   9.486  2.4154 -2.4683 -0.2997
 4797SOL     OW25849   0.977   1.262   2.023 -0.3798 -0.3906 -0.1036
 4797SOL    HW125850   0.977   1.341   1.969 -0.6302 -1.5434 -1.8188
 4797SOL    HW225851   0.986   1.300   2.110 -0.6508 -2.2947  0.7563
 4798SOL     OW25852   1.311   2.686   3.030 -0.3460 -0.2988  0.1854
 4798SOL    HW125853   1.302   2.645   2.944  2.0388  1.3653 -0.8250
 4798SOL    HW225854   1.242   2.750   3.013 -1.0520 -1.0882  0.0276
 4799SOL     OW25855   2.262   3.673   7.691  0.4733 -0.5422 -0.2066
 4799SOL    HW125856   2.301   3.601   7.642 -0.1531 -1.2968  0.4179
 4799SOL    HW225857   2.183   3.691   7.640  0.9556 -1.6459 -1.3548
 4800SOL     OW25858   4.159   3.989  15.616 -0.3338 -0.0477  0.5945
 4800SOL    HW125859   4.164   4.075  15.573  2.0377 -0.5418 -0.1509
 4800SOL    HW225860   4.197   4.008  15.702 -0.5778 -1.3730  0.9882
 4801SOL     OW25861   3.261   4.654   1.561 -0.5490  0.3937  0.1401
 4801SOL    HW125862   3.346   4.629   1.526 -0.3079  0.3606  0.7528
 4801SOL    HW225863   3.258   4.592   1.634  2.9522 -0.1970 -0.2404
 4802SOL     OW25864   2.971   1.039   3.545 -0.7048  0.1152  0.2778
 4802SOL    HW125865   2.950   1.081   3.628 -0.4774 -1.0044  0.9090
 4802SOL    HW225866   2.891   1.040   3.492 -0.3234  2.1616 -0.2550
 4803SOL     OW25867   0.543   0.073   8.891  0.1088  0.4986 -0.4930
 4803SOL    HW125868   0.533   4.701   8.896  1.5336  0.5451  3.1837
 4803SOL    HW225869   0.452   0.101   8.902  0.1640  0.6150 -0.3284
 4804SOL     OW25870   0.698   0.404   2.236 -0.0304 -0.0331 -0.4358
 4804SOL    HW125871   0.611   0.417   2.275  0.7423  3.2243  0.2313
 4804SOL    HW225872   0.672   0.416   2.145 -0.6636  2.2993  0.0358
 4805SOL     OW25873   4.580   4.245  10.466 -0.2164  0.1238 -0.8544
 4805SOL    HW125874   4.593   4.338  10.449  1.8526  0.0846  0.5245
 4805SOL    HW225875   4.622   4.203  10.390  1.8847 -0.7289  0.7750
 4806SOL     OW25876   4.504   3.714  14.440 -0.0808  0.1753 -0.8245
 4806SOL    HW125877   4.553   3.757  14.510 -1.1894 -3.7211  2.3318
 4806SOL    HW225878   4.419   3.757  14.447  0.0812  0.4731 -0.6239
 4807SOL     OW25879   3.572   2.901   5.531  0.5141  0.2377 -0.1822
 4807SOL    HW125880   3.624   2.917   5.610  2.3530 -0.7418 -1.1764
 4807SOL    HW225881   3.485   2.887   5.568  0.1795 -0.7579 -1.3535
 4808SOL     OW25882   0.599   4.096   3.972  0.2799 -0.5569 -0.0999
 4808SOL    HW125883   0.565   4.182   3.948 -0.7596 -0.5347  1.4795
 4808SOL    HW225884   0.685   4.091   3.930  0.2653  2.1184 -0.4251
 4809SOL     OW25885   2.169   2.622   3.853 -1.1153 -0.0100  0.5882
 4809SOL    HW125886   2.117   2.650   3.929  0.7830  0.9255  1.5367
 4809SOL    HW225887   2.153   2.693   3.791  0.0081 -0.3303 -0.0608
 4810SOL     OW25888   3.539   1.179   3.360 -0.3558  0.1338 -0.2207
 4810SOL    HW125889   3.631   1.200   3.379  0.1300  0.6026 -3.1955
 4810SOL    HW225890   3.549   1.141   3.273 -2.0203 -1.5358  0.3372
 4811SOL     OW25891   2.317   0.407  11.029 -0.0483 -0.6050 -0.1587
 4811SOL    HW125892   2.377   0.365  10.968  0.7422 -1.6645  1.3498
 4811SOL    HW225893   2.277   0.477  10.978  1.3601  1.1316  1.1437
 4812SOL     OW25894   3.565   2.392   7.759 -0.1447 -0.4288  0.4121
 4812SOL    HW125895   3.584   2.378   7.852  0.7578  1.4155  0.4989
 4812SOL    HW225896   3.536   2.483   7.754  1.3239  0.0130  0.0167
 4813SOL     OW25897   0.021   1.938   2.727  0.3564  0.6518  0.4206
 4813SOL    HW125898   4.715   2.018   2.770  1.1252  1.0306  0.2344
 4813SOL    HW225899   0.090   1.969   2.668  0.4204 -1.5996 -0.7094
 4814SOL     OW25900   2.508   2.930   7.238  0.0901  0.0867 -0.3217
 4814SOL    HW125901   2.545   2.977   7.164  0.0284  1.9346  0.8279
 4814SOL    HW225902   2.577   2.935   7.304 -0.0772 -0.9625 -0.0704
 4815SOL     OW25903   4.505   0.125   4.724  0.3797 -0.0598 -0.0515
 4815SOL    HW125904   4.422   0.135   4.678  1.1401  0.8757 -1.2296
 4815SOL    HW225905   4.547   0.207   4.698  0.1309  0.7609  2.1062
 4816SOL     OW25906   1.325   1.361   0.056 -0.5599 -0.3044  0.0380
 4816SOL    HW125907   1.271   1.370  17.671  2.4343 -0.1511 -1.9696
 4816SOL    HW225908   1.388   1.432   0.044 -0.3502 -0.6345 -0.8630
 4817SOL     OW25909   1.085   3.276   6.831 -0.1646 -0.3300 -0.5531
 4817SOL    HW125910   1.044   3.347   6.780  0.4074  0.1617 -0.3255
 4817SOL    HW225911   1.107   3.218   6.758 -0.2507  1.9438 -2.4112
 4818SOL     OW25912   4.190   1.708   7.329  0.0795 -0.0494  0.1531
 4818SOL    HW125913   4.136   1.653   7.386  1.0035 -0.2279  0.8624
 4818SOL    HW225914   4.272   1.668   7.300 -0.1759 -0.9576  0.6917
 4819SOL     OW25915   0.695   0.095   9.328  0.1776  0.1879 -0.3560
 4819SOL    HW125916   0.666   0.047   9.406 -0.6534  0.3995 -0.5288
 4819SOL    HW225917   0.618   0.132   9.284  0.0477 -1.9605 -1.9461
 4820SOL     OW25918   3.067   3.332   3.086  0.0304  0.1003 -0.7260
 4820SOL    HW125919   3.076   3.424   3.061 -1.0612  0.7107  1.1283
 4820SOL    HW225920   3.075   3.305   2.995  0.6288 -1.7738 -0.1175
 4821SOL     OW25921   0.542   0.633   2.594 -0.6469  0.2051  0.0704
 4821SOL    HW125922   0.587   0.564   2.641 -0.4831 -0.2396 -0.7306
 4821SOL    HW225923   0.528   0.586   2.511 -0.3017  3.2489 -1.7421
 4822SOL     OW25924   3.115   1.102   6.249 -0.8482 -0.1818  0.2040
 4822SOL    HW125925   3.176   1.163   6.290 -1.9704  1.0226  0.0668
 4822SOL    HW225926   3.083   1.162   6.181  2.1094  0.0399 -1.0227
 4823SOL     OW25927   0.872   0.869  11.797 -0.3390 -0.1559 -0.2400
 4823SOL    HW125928   0.947   0.870  11.856  0.8923 -0.1389 -1.7951
 4823SOL    HW225929   0.850   0.777  11.788  0.1153 -0.1994 -0.8981
 4824SOL     OW25930   4.102   1.434   8.621  0.3405 -0.6897  0.1582
 4824SOL    HW125931   4.075   1.453   8.531 -0.2863  0.2575  0.5430
 4824SOL    HW225932   4.064   1.507   8.670 -1.0658 -1.0055 -0.4628
 4825SOL     OW25933   3.896   2.703   7.501 -0.0201  0.5849 -0.3445
 4825SOL    HW125934   3.925   2.758   7.574 -0.1452 -0.4717  0.5180
 4825SOL    HW225935   3.913   2.762   7.428  0.4798  0.7330 -0.1043
 4826SOL     OW25936   2.366   1.452   7.340 -0.0534 -0.1429 -0.3563
 4826SOL    HW125937   2.336   1.363   7.326 -0.8864  0.3125 -1.4964
 4826SOL    HW225938   2.443   1.449   7.283 -0.9771 -0.6486 -1.5785
 4827SOL     OW25939   2.529   1.000   9.744 -0.9174  0.0890  0.0043
 4827SOL    HW125940   2.571   0.914   9.746  0.2931  0.6930  0.5111
 4827SOL    HW225941   2.582   1.042   9.676 -0.4143 -1.7974 -0.7763
 4828SOL     OW25942   4.215   0.986   3.401  0.4781  0.1396  0.0340
 4828SOL    HW125943   4.149   1.055   3.396 -0.0656 -0.3189  0.8237
 4828SOL    HW225944   4.297   1.034   3.390 -0.2460  1.3195 -0.2900
 4829SOL     OW25945   2.031   0.189   4.577 -0.2352  0.2652 -0.1464
 4829SOL    HW125946   2.101   0.131   4.545 -0.3017 -0.6616  1.3588
 4829SOL    HW225947   2.076   0.273   4.586 -0.8421  0.4901  0.8181
 4830SOL     OW25948   2.849   1.419   3.243  0.0081 -0.2123 -0.1721
 4830SOL    HW125949   2.898   1.413   3.161 -0.6670 -0.8641 -0.5306
 4830SOL    HW225950   2.780   1.354   3.226  0.2901 -0.5437 -0.0456
 4831SOL     OW25951   4.273   1.475   4.620  0.7045 -0.1262 -0.2529
 4831SOL    HW125952   4.309   1.537   4.684  0.0855  0.1560 -0.1829
 4831SOL    HW225953   4.188   1.509   4.594  1.4542  0.9878 -1.2165
 4832SOL     OW25954   1.577   0.034   3.091  0.1327  0.0640  0.5024
 4832SOL    HW125955   1.539   4.669   3.094 -0.9562  0.4857 -0.6461
 4832SOL    HW225956   1.614   0.039   3.003 -0.8608 -0.2747  0.0647
 4833SOL     OW25957   1.493   0.048   6.118  0.4186  0.4376  0.2050
 4833SOL    HW125958   1.586   0.061   6.099 -0.0186  2.1138 -0.7856
 4833SOL    HW225959   1.475   4.690   6.071 -0.4875  1.0633 -0.5070
 4834SOL     OW25960   1.787   3.339  10.563  0.0019 -0.2703 -0.2555
 4834SOL    HW125961   1.881   3.343  10.546 -0.2234 -0.3895 -1.5275
 4834SOL    HW225962   1.772   3.359  10.471 -1.4072  1.0422  0.2518
 4835SOL     OW25963   1.557   1.396   0.344  0.3624 -0.8020  0.5087
 4835SOL    HW125964   1.625   1.464   0.337 -0.2566 -0.3406 -1.0581
 4835SOL    HW225965   1.482   1.454   0.358  0.1522  0.3671 -5.2009
 4836SOL     OW25966   1.526   0.751   8.963  0.4901 -0.0799 -0.6608
 4836SOL    HW125967   1.549   0.821   9.023 -2.5829  1.2826 -1.1087
 4836SOL    HW225968   1.610   0.716   8.931 -0.0410 -1.6765 -0.3371
 4837SOL     OW25969   1.804   0.120   7.551 -0.8192  0.0965 -0.8160
 4837SOL    HW125970   1.754   0.176   7.611 -0.3081 -1.6834  1.2665
 4837SOL    HW225971   1.757   0.039   7.568  1.3159 -1.1012 -0.6673
 4838SOL     OW25972   1.978   0.032   1.228  0.2469 -0.3177  0.4350
 4838SOL    HW125973   2.071   0.055   1.237  0.6131 -0.8509 -1.9482
 4838SOL    HW225974   1.927   0.103   1.266  0.5240 -0.3652  0.8973
 4839SOL     OW25975   1.979   1.774   2.900  0.1195 -0.2785  0.2709
 4839SOL    HW125976   2.062   1.818   2.917 -1.3436  2.6360 -0.0682
 4839SOL    HW225977   1.918   1.844   2.924 -1.4166 -2.1751  1.9195
 4840SOL     OW25978   1.192   4.042   8.298  0.0919 -0.1103  0.0837
 4840SOL    HW125979   1.174   4.078   8.385 -0.3450 -1.1580  0.4273
 4840SOL    HW225980   1.146   4.110   8.247 -0.6760 -1.6228 -1.2312
 4841SOL     OW25981   1.528   4.341   1.262  0.2456  0.0311 -0.2162
 4841SOL    HW125982   1.525   4.435   1.280  1.3837 -0.2957  1.7060
 4841SOL    HW225983   1.602   4.338   1.201  0.4202  0.2409 -0.0157
 4842SOL     OW25984   0.581   4.248   1.886 -0.0250 -0.6530 -0.4184
 4842SOL    HW125985   0.559   4.309   1.815 -0.5272 -1.1929 -0.7258
 4842SOL    HW225986   0.500   4.245   1.936  0.7933 -2.4535  0.7682
 4843SOL     OW25987   1.092   3.920  17.380 -0.2334  0.2424 -0.0652
 4843SOL    HW125988   1.147   3.862  17.326  2.0162  2.0500  0.2693
 4843SOL    HW225989   1.163   3.967  17.424 -0.9756  2.9535 -1.7974
 4844SOL     OW25990   4.144   4.638   7.283  0.3068  0.3138  0.0582
 4844SOL    HW125991   4.180   4.710   7.230  0.4477 -1.3175 -2.0885
 4844SOL    HW225992   4.116   4.693   7.356 -0.3699  1.6488 -1.2057
 4845SOL     OW25993   4.562   0.617   1.246 -0.4920  0.1039  0.2733
 4845SOL    HW125994   4.632   0.678   1.272 -0.3529 -0.4598  1.2368
 4845SOL    HW225995   4.513   0.659   1.176 -1.2882 -1.0079  0.1775
 4846SOL     OW25996   2.179   3.799   3.498  0.0977 -0.0175 -0.4491
 4846SOL    HW125997   2.247   3.829   3.559 -0.6243 -1.1455  0.9034
 4846SOL    HW225998   2.165   3.705   3.506  1.8677 -0.1819  0.7414
 4847SOL     OW25999   2.589   2.503   7.750  0.3350 -0.4864 -0.4112
 4847SOL    HW126000   2.676   2.537   7.733  1.2558 -2.6504  0.0118
 4847SOL    HW226001   2.563   2.485   7.660 -0.9582 -0.1825 -0.1040
 4848SOL     OW26002   2.013   3.624   4.439 -0.5197  0.3460 -0.0031
 4848SOL    HW126003   1.935   3.676   4.457 -0.4648 -0.0361  1.3806
 4848SOL    HW226004   2.075   3.697   4.430  0.6577 -0.5183  0.9764
 4849SOL     OW26005   2.775   2.836   2.608  0.8568  0.7172  0.4643
 4849SOL    HW126006   2.833   2.909   2.589 -0.6695  2.2889  1.8804
 4849SOL    HW226007   2.833   2.761   2.592  0.7170  1.1183 -1.8677
 4850SOL     OW26008   1.417   2.221   6.482  0.1911  0.8750 -0.3828
 4850SOL    HW126009   1.408   2.240   6.576  1.3006  1.2623 -0.3604
 4850SOL    HW226010   1.464   2.138   6.487  2.6963  2.3426  0.6191
 4851SOL     OW26011   4.043   2.302   7.313 -0.6030  0.6104  0.1928
 4851SOL    HW126012   3.995   2.383   7.298  0.7393  1.3642 -0.0424
 4851SOL    HW226013   3.970   2.246   7.338  1.5386 -1.2297  2.3848
 4852SOL     OW26014   1.690   0.894   3.271 -0.3332 -0.5452  0.4655
 4852SOL    HW126015   1.746   0.962   3.234  0.2150 -2.0211 -1.4086
 4852SOL    HW226016   1.744   0.831   3.317  1.1868  1.4469  1.4060
 4853SOL     OW26017   4.588   2.943   2.995 -0.3480 -0.0579 -0.0369
 4853SOL    HW126018   4.583   3.019   2.937  2.8655 -0.3934 -0.7618
 4853SOL    HW226019   4.608   2.873   2.933  2.1515 -0.6053  1.3784
 4854SOL     OW26020   1.660   2.792   4.093 -0.1722  0.0496 -0.0002
 4854SOL    HW126021   1.690   2.769   4.005 -1.2036  0.1945 -0.3908
 4854SOL    HW226022   1.633   2.708   4.132 -3.1635 -0.3314 -2.9073
 4855SOL     OW26023   2.481   1.105  10.870  0.0749 -0.3703 -0.1504
 4855SOL    HW126024   2.535   1.032  10.901 -2.3680 -1.0489  2.4398
 4855SOL    HW226025   2.427   1.136  10.943  0.8160 -1.1006  0.7167
 4856SOL     OW26026   1.967   0.372   1.605  0.3012  0.0148  0.4591
 4856SOL    HW126027   1.947   0.422   1.685  0.9441 -0.4315  0.9002
 4856SOL    HW226028   1.890   0.315   1.599 -0.0286  0.4496  0.5397
 4857SOL     OW26029   1.207   0.673   7.493  0.3647 -0.0307 -0.0056
 4857SOL    HW126030   1.302   0.679   7.486  0.2838  1.7722  0.5165
 4857SOL    HW226031   1.177   0.708   7.409  1.1817 -0.4321 -0.4660
 4858SOL     OW26032   0.277   4.473   6.568 -0.4870  0.3994  0.0511
 4858SOL    HW126033   0.306   4.461   6.658 -0.8346 -0.0300  0.1037
 4858SOL    HW226034   0.359   4.482   6.519 -0.7736 -0.8806 -0.6426
 4859SOL     OW26035   2.162   2.810   3.218  0.3035  0.0936 -0.2782
 4859SOL    HW126036   2.208   2.892   3.235 -0.7454  0.3445  1.3557
 4859SOL    HW226037   2.099   2.839   3.153 -3.2580 -0.5669  2.9066
 4860SOL     OW26038   1.628   3.131  13.854  0.4574  0.0966 -0.1288
 4860SOL    HW126039   1.695   3.091  13.798 -1.2730 -0.5517 -1.7308
 4860SOL    HW226040   1.629   3.221  13.820 -0.2051 -0.0384 -0.5002
 4861SOL     OW26041   0.705   3.650  11.197 -0.4379  0.0860  0.7051
 4861SOL    HW126042   0.796   3.622  11.182 -0.8561 -1.0314  0.2668
 4861SOL    HW226043   0.674   3.642  11.107  0.0725  0.6794  0.4733
 4862SOL     OW26044   0.040   0.584   2.385  0.4714 -0.1312 -0.2370
 4862SOL    HW126045   0.114   0.538   2.345 -0.5747 -0.8772 -1.3110
 4862SOL    HW226046   4.708   0.509   2.407 -0.8729  1.1182  0.6450
 4863SOL     OW26047   2.019   2.598   6.179 -0.5952  0.2461 -0.0767
 4863SOL    HW126048   2.016   2.620   6.272  0.9955 -0.8504  0.2305
 4863SOL    HW226049   1.929   2.617   6.151 -1.0305  1.4312  2.1100
 4864SOL     OW26050   0.339   0.804   6.425  0.5910  0.6338  0.0589
 4864SOL    HW126051   0.284   0.730   6.451  0.1036  0.0198 -2.7367
 4864SOL    HW226052   0.319   0.800   6.332 -0.8875  0.6510  0.3665
 4865SOL     OW26053   3.663   3.208   4.031 -0.1670 -0.1803  0.0728
 4865SOL    HW126054   3.753   3.205   4.063  0.4528  2.1113 -1.4640
 4865SOL    HW226055   3.642   3.295   4.064 -0.5506  0.0863 -0.8585
 4866SOL     OW26056   3.117   4.093   4.181 -0.3188 -0.1367 -0.3433
 4866SOL    HW126057   3.141   4.122   4.093  2.2153  0.8776  0.6937
 4866SOL    HW226058   3.083   4.165   4.233 -0.1095  0.3332 -0.8571
 4867SOL     OW26059   1.647   1.579  16.482  0.0609  0.3070 -0.7802
 4867SOL    HW126060   1.707   1.586  16.557 -1.4202 -0.9868  0.5214
 4867SOL    HW226061   1.624   1.669  16.462  1.9062  1.1109  0.6999
 4868SOL     OW26062   2.473   2.063   3.681 -0.8514 -0.5992 -0.3000
 4868SOL    HW126063   2.532   2.084   3.608 -0.2492  0.3598  0.4621
 4868SOL    HW226064   2.488   1.971   3.702 -0.8362 -0.3726  0.6601
 4869SOL     OW26065   4.080   3.061   0.261 -0.5574  0.0449 -0.1073
 4869SOL    HW126066   4.027   3.079   0.183 -1.5298  0.5368  0.6686
 4869SOL    HW226067   4.155   3.119   0.249  0.7014 -1.0700  2.3287
 4870SOL     OW26068   4.420   3.221  13.714 -0.0097 -0.1879  0.3812
 4870SOL    HW126069   4.341   3.232  13.766  0.1708  0.7078  0.4577
 4870SOL    HW226070   4.480   3.294  13.729 -0.7666  0.6375 -0.5664
 4871SOL     OW26071   2.349   0.808  13.709  0.0252  0.3394  0.2398
 4871SOL    HW126072   2.438   0.838  13.730 -0.5582  0.7615  2.1446
 4871SOL    HW226073   2.363   0.716  13.730  1.0792 -0.2051 -2.8858
 4872SOL     OW26074   2.324   2.201   1.073  0.1466  0.0635 -0.0384
 4872SOL    HW126075   2.383   2.262   1.118 -0.8850 -0.0573  1.4990
 4872SOL    HW226076   2.318   2.119   1.123  0.7085  2.1256  3.3786
 4873SOL     OW26077   4.662   2.233   6.536 -0.4808 -0.8048 -0.1115
 4873SOL    HW126078   0.009   2.299   6.537 -0.4760 -0.8065 -0.3782
 4873SOL    HW226079   4.598   2.271   6.476  1.6348  4.3297  0.8224
 4874SOL     OW26080   1.088   0.849   2.443 -0.4860 -0.3039  0.0669
 4874SOL    HW126081   1.010   0.797   2.425 -0.8174 -0.1332  1.0116
 4874SOL    HW226082   1.069   0.879   2.532  0.1509 -3.2598  1.1903
 4875SOL     OW26083   0.249   2.414   2.882  0.3626 -0.2967 -0.2767
 4875SOL    HW126084   0.290   2.494   2.848 -1.7380  0.6211 -0.6500
 4875SOL    HW226085   0.299   2.402   2.962  0.8788  1.7606 -0.2947
 4876SOL     OW26086   0.061   4.589   5.328  0.1216  0.8087  0.8065
 4876SOL    HW126087   4.696   4.587   5.365 -0.2873 -0.2524 -0.2206
 4876SOL    HW226088   0.088   4.500   5.350 -1.1024  0.3871  0.6355
 4877SOL     OW26089   2.866   4.676   3.183 -0.5416 -0.4356  0.4503
 4877SOL    HW126090   2.835   4.657   3.094 -0.9255  1.9698  0.0848
 4877SOL    HW226091   2.813   0.031   3.200 -0.9334 -0.1276 -2.1902
 4878SOL     OW26092   2.193   3.447   3.254 -0.3837 -0.3858  0.2860
 4878SOL    HW126093   2.119   3.391   3.275 -1.5369  0.1071 -2.4238
 4878SOL    HW226094   2.156   3.511   3.193 -0.3693 -0.4324  0.2276
 4879SOL     OW26095   1.441   2.697   8.365 -0.1073  0.7834  0.4001
 4879SOL    HW126096   1.468   2.606   8.376 -0.7474  0.1688 -3.0623
 4879SOL    HW226097   1.506   2.757   8.402  0.9797  0.9554 -1.8121
 4880SOL     OW26098   3.007   1.909   2.219 -0.4757 -0.0880  0.1733
 4880SOL    HW126099   3.020   1.985   2.162 -0.1220  0.5287  1.0805
 4880SOL    HW226100   3.078   1.856   2.183 -1.9115 -2.1174  0.3343
 4881SOL     OW26101   2.898   2.614   4.666 -0.5224  0.0695  0.2343
 4881SOL    HW126102   2.875   2.690   4.718 -1.8610  0.0160 -0.2513
 4881SOL    HW226103   2.837   2.633   4.594 -1.3069  0.5942  1.0422
 4882SOL     OW26104   2.309   1.505   7.594 -0.1412 -0.3087  0.4496
 4882SOL    HW126105   2.260   1.425   7.617  0.0501 -0.6546 -0.3643
 4882SOL    HW226106   2.316   1.488   7.500  1.7952 -0.0144  0.5495
 4883SOL     OW26107   4.278   0.714  15.794  0.3189  0.2677  0.1245
 4883SOL    HW126108   4.224   0.735  15.718 -0.4329  0.0940  0.6164
 4883SOL    HW226109   4.332   0.647  15.752 -0.3123 -1.2336  1.6942
 4884SOL     OW26110   3.664   3.003   4.354 -0.1443  0.0419 -0.3621
 4884SOL    HW126111   3.688   3.056   4.430 -1.9258  1.0183 -0.4911
 4884SOL    HW226112   3.603   3.059   4.306  0.1391  1.3830  0.8383
 4885SOL     OW26113   0.682   4.144  15.452 -0.1444 -0.1128  0.2302
 4885SOL    HW126114   0.667   4.196  15.373 -0.8865  0.6612  0.8818
 4885SOL    HW226115   0.688   4.059  15.407  1.6801 -0.3206  0.8996
 4886SOL     OW26116   4.470   4.037   8.398  0.3943 -0.2234 -0.0578
 4886SOL    HW126117   4.500   4.128   8.402 -0.1001 -0.0979  0.7047
 4886SOL    HW226118   4.521   3.998   8.469 -2.3523 -0.5056  1.7631
 4887SOL     OW26119   3.490   4.246   8.650  0.0076  0.2543 -0.0182
 4887SOL    HW126120   3.522   4.336   8.654 -0.8295  0.5508  0.1538
 4887SOL    HW226121   3.464   4.227   8.740  0.7623  0.7667  0.3053
 4888SOL     OW26122   3.052   1.554   8.043 -0.2758  0.0519  0.2578
 4888SOL    HW126123   3.070   1.640   8.006 -1.3286  0.4718  0.7268
 4888SOL    HW226124   3.111   1.504   7.985  0.6946 -0.1933  1.4659
 4889SOL     OW26125   0.789   1.648   6.717 -0.0341  0.3061 -0.3345
 4889SOL    HW126126   0.720   1.714   6.728 -1.4763 -1.6174  2.1707
 4889SOL    HW226127   0.741   1.565   6.720  0.4066  0.0738  0.3114
 4890SOL     OW26128   0.368   1.325   9.337  0.4438  0.0912  0.1162
 4890SOL    HW126129   0.326   1.411   9.342  0.7069  0.2263  0.0292
 4890SOL    HW226130   0.359   1.310   9.243 -2.3539 -1.0314  0.5614
 4891SOL     OW26131   0.104   0.951  11.982 -0.2553  0.0650 -0.0050
 4891SOL    HW126132   0.079   0.976  11.893  0.6803 -3.7750 -1.3828
 4891SOL    HW226133   0.178   1.011  11.979 -0.9507  0.9565  0.5990
 4892SOL     OW26134   1.688   0.462   7.321  0.4408 -0.0659  0.2709
 4892SOL    HW126135   1.742   0.492   7.394 -1.2851  1.2399  0.9832
 4892SOL    HW226136   1.734   0.488   7.241 -1.1511  0.9752 -0.2852
 4893SOL     OW26137   3.505   1.478   2.784  0.2698  0.7824  0.2508
 4893SOL    HW126138   3.480   1.387   2.767  0.9261  0.2388  2.2641
 4893SOL    HW226139   3.578   1.496   2.726  1.8990 -1.8851  1.5046
 4894SOL     OW26140   3.779   2.749   2.218  0.1120  0.3411  0.0355
 4894SOL    HW126141   3.791   2.714   2.307  0.8815 -0.0547 -0.2249
 4894SOL    HW226142   3.848   2.815   2.217  0.1095  0.3934  2.0183
 4895SOL     OW26143   1.082   2.034   2.480  0.4983  0.1279 -0.0210
 4895SOL    HW126144   1.074   1.964   2.415  0.5349  1.1889 -1.1615
 4895SOL    HW226145   0.991   2.050   2.504 -0.0211 -1.9180 -0.5692
 4896SOL     OW26146   2.590   0.904   4.349  0.0503 -0.5542 -0.6041
 4896SOL    HW126147   2.548   0.980   4.388 -0.4457 -0.4655 -1.2998
 4896SOL    HW226148   2.682   0.931   4.356 -0.1024 -0.2754  0.2589
 4897SOL     OW26149   2.413   3.500   7.113 -0.0056  0.2249 -0.1541
 4897SOL    HW126150   2.328   3.456   7.105  0.5762 -1.1027  0.9664
 4897SOL    HW226151   2.394   3.594   7.118 -1.0839 -0.0642  1.1503
 4898SOL     OW26152   4.594   0.199   0.821  0.0803  0.1144  0.3086
 4898SOL    HW126153   4.623   0.160   0.904 -0.0620 -0.0457  0.2834
 4898SOL    HW226154   4.597   0.117   0.771 -0.2836 -0.6180  1.4763
 4899SOL     OW26155   3.460   0.266  14.394  0.0579 -0.0241 -0.5447
 4899SOL    HW126156   3.456   0.323  14.470  1.6726  1.8112 -1.8247
 4899SOL    HW226157   3.494   0.323  14.325  0.9681 -0.1368 -0.1871
 4900SOL     OW26158   3.646   4.576   2.900  0.5485 -0.3057 -0.1395
 4900SOL    HW126159   3.555   4.555   2.920  0.3652  0.7037  0.0642
 4900SOL    HW226160   3.645   4.613   2.812  1.4991  1.7304  0.6884
 4901SOL     OW26161   3.007   2.104  14.341  0.7105 -0.3157  0.0858
 4901SOL    HW126162   3.020   2.033  14.404 -1.4125 -0.1712  0.6713
 4901SOL    HW226163   3.098   2.111  14.312  0.3576  0.5097 -0.8144
 4902SOL     OW26164   4.470   1.952  13.591 -0.5098  0.2920 -0.2038
 4902SOL    HW126165   4.426   2.024  13.636 -0.4567 -0.5904  1.2711
 4902SOL    HW226166   4.528   1.926  13.662  0.0489 -0.1274 -0.8134
 4903SOL     OW26167   1.294   3.565  10.769 -0.6602 -0.0694  0.1644
 4903SOL    HW126168   1.357   3.559  10.841  0.9036  0.1723 -1.1783
 4903SOL    HW226169   1.247   3.486  10.795 -1.1760 -0.0255 -0.6441
 4904SOL     OW26170   0.265   4.693  12.668  0.2247 -0.2563  0.5352
 4904SOL    HW126171   0.257   4.711  12.762  0.4022  1.0215  0.3142
 4904SOL    HW226172   0.258   0.051  12.618 -0.7372  0.7293  2.2508
 4905SOL     OW26173   4.686   0.869   9.118  0.5489 -0.0127 -0.5413
 4905SOL    HW126174   0.028   0.880   9.049 -0.1504  0.4129 -1.1200
 4905SOL    HW226175   0.020   0.868   9.195  1.4673 -1.1603 -1.2341
 4906SOL     OW26176   0.945   3.807   4.499  0.4274 -0.4745 -0.2257
 4906SOL    HW126177   0.912   3.798   4.588 -1.1925 -1.5763 -0.9454
 4906SOL    HW226178   0.867   3.823   4.446 -0.5232 -1.8121  0.7655
 4907SOL     OW26179   3.346   0.137   5.119  0.0585  0.1795 -0.0119
 4907SOL    HW126180   3.271   0.194   5.136  2.5831  3.8294 -1.2269
 4907SOL    HW226181   3.416   0.202   5.122 -0.7041  0.9673  0.4605
 4908SOL     OW26182   3.358   0.202  14.730 -0.1600 -0.6418 -0.3737
 4908SOL    HW126183   3.395   0.282  14.692 -0.2802  0.8597  2.6339
 4908SOL    HW226184   3.347   0.220  14.823  0.2401 -1.8950 -0.0953
 4909SOL     OW26185   1.286   1.177   5.865 -0.3058 -0.6461  0.1581
 4909SOL    HW126186   1.254   1.117   5.933  0.0035 -2.1240 -0.9829
 4909SOL    HW226187   1.332   1.235   5.926  1.4151 -1.2170 -0.6017
 4910SOL     OW26188   2.822   4.383   3.698  0.4739 -0.0981  0.0818
 4910SOL    HW126189   2.739   4.358   3.657  0.4666  1.6869 -0.9984
 4910SOL    HW226190   2.866   4.299   3.702  1.1898  0.2578 -0.3927
 4911SOL     OW26191   4.515   1.158  14.164  0.4202  0.1336  0.0307
 4911SOL    HW126192   4.533   1.078  14.213  2.8167  1.4362  1.2801
 4911SOL    HW226193   4.604   1.192  14.152 -0.5844  2.2034 -1.5129
 4912SOL     OW26194   4.375   2.851   7.483 -0.1865  0.1039 -0.2084
 4912SOL    HW126195   4.344   2.848   7.392  0.1531  0.7434 -0.3464
 4912SOL    HW226196   4.400   2.760   7.497  0.7402  0.1044 -1.7965
 4913SOL     OW26197   4.520   0.796  10.144 -0.4166 -0.1084  0.1987
 4913SOL    HW126198   4.430   0.766  10.158 -0.5525  0.2705  0.1554
 4913SOL    HW226199   4.574   0.731  10.189  1.5139  0.6413 -1.0225
 4914SOL     OW26200   0.610   3.554   6.950  0.8510  0.3045 -0.1483
 4914SOL    HW126201   0.672   3.571   7.021  1.7104 -0.2140 -0.7769
 4914SOL    HW226202   0.615   3.459   6.941 -0.7186  0.1799  0.2986
 4915SOL     OW26203   2.400   1.716   6.094  0.3026  0.2545  0.3039
 4915SOL    HW126204   2.440   1.764   6.022  0.7012 -1.1318 -0.3872
 4915SOL    HW226205   2.323   1.771   6.109 -0.7301 -1.2472  0.5202
 4916SOL     OW26206   2.481   2.403   6.936 -0.2597  0.0151 -0.1831
 4916SOL    HW126207   2.519   2.428   7.020  1.7122  0.5948 -1.2409
 4916SOL    HW226208   2.548   2.445   6.882 -0.4964 -0.1936 -0.6427
 4917SOL     OW26209   2.615   1.443  17.592  0.3124 -0.5303 -0.2761
 4917SOL    HW126210   2.626   1.403  17.506  0.2302  0.5638 -0.7971
 4917SOL    HW226211   2.663   1.520  17.562 -0.5058 -1.5556 -4.2096
 4918SOL     OW26212   4.435   1.855   3.671  0.1241  0.1847  0.5483
 4918SOL    HW126213   4.353   1.825   3.632 -0.3550  1.5057  0.5435
 4918SOL    HW226214   4.454   1.783   3.731  1.4378 -0.0736 -0.1830
 4919SOL     OW26215   2.153   4.602   3.753  0.5875  0.6530  0.7526
 4919SOL    HW126216   2.164   4.639   3.665  0.6881  1.0213  0.9182
 4919SOL    HW226217   2.236   4.625   3.796  1.4838 -1.2401  0.0079
 4920SOL     OW26218   3.992   1.791  16.672  0.2519  0.3136  0.1079
 4920SOL    HW126219   3.919   1.846  16.702 -0.6829 -0.3910 -0.8874
 4920SOL    HW226220   3.940   1.713  16.653  0.9517  0.3081 -1.7611
 4921SOL     OW26221   1.512   4.416   9.443  1.2161  0.7601  0.7360
 4921SOL    HW126222   1.464   4.356   9.500  1.3309  1.8899  2.0124
 4921SOL    HW226223   1.512   4.370   9.359  2.2458  0.4648  0.8956
 4922SOL     OW26224   1.779   2.094   8.406 -0.1986  0.0860 -0.6056
 4922SOL    HW126225   1.734   2.010   8.415  2.1753 -1.1635 -0.4895
 4922SOL    HW226226   1.711   2.160   8.424  0.9360  0.8901  0.7574
 4923SOL     OW26227   1.892   0.864   5.779 -0.2637  0.4245  0.2036
 4923SOL    HW126228   1.875   0.841   5.870 -2.1060 -1.6856 -0.6801
 4923SOL    HW226229   1.805   0.864   5.741 -1.0888 -0.5836  2.1216
 4924SOL     OW26230   1.811   0.226  15.499 -0.5168  0.6287 -0.0058
 4924SOL    HW126231   1.790   0.147  15.548 -1.2953 -1.0911 -3.1126
 4924SOL    HW226232   1.906   0.217  15.501 -0.4455  1.3434 -0.0990
 4925SOL     OW26233   3.318   1.006   0.411 -0.0693 -1.0384 -0.2115
 4925SOL    HW126234   3.355   0.938   0.466  1.2424 -1.2064 -1.3147
 4925SOL    HW226235   3.224   0.998   0.393  0.0459 -1.9333 -0.3967
 4926SOL     OW26236   3.291   4.539   9.582  0.3181 -0.2997 -0.5462
 4926SOL    HW126237   3.249   4.511   9.500 -0.1822 -1.6566  0.1853
 4926SOL    HW226238   3.262   4.631   9.585  0.5205 -0.2629  0.1754
 4927SOL     OW26239   1.597   2.227   1.754 -0.0212 -0.5827  0.2555
 4927SOL    HW126240   1.521   2.171   1.735  0.7334 -1.0080 -1.4634
 4927SOL    HW226241   1.629   2.243   1.666  0.2159 -0.2392  0.4059
 4928SOL     OW26242   1.025   4.011   6.400  0.6053  0.1529 -0.7044
 4928SOL    HW126243   1.007   3.979   6.488 -0.3501 -2.0293 -1.6827
 4928SOL    HW226244   0.942   4.050   6.373  0.9083  1.1406 -0.2054
 4929SOL     OW26245   0.475   0.899   4.574 -0.4540 -0.3853 -0.3123
 4929SOL    HW126246   0.503   0.917   4.485  1.4890  3.2298  1.0552
 4929SOL    HW226247   0.428   0.816   4.562 -1.7542  0.3990 -0.6990
 4930SOL     OW26248   0.733   3.390  13.186 -0.4902  0.3676  0.2210
 4930SOL    HW126249   0.753   3.307  13.143  0.1027  0.8894 -0.5171
 4930SOL    HW226250   0.697   3.436  13.110  1.2754 -0.1196 -0.9014
 4931SOL     OW26251   4.179   0.820   0.676 -0.4572 -0.1086  0.5302
 4931SOL    HW126252   4.164   0.782   0.763  0.1954 -0.5981  0.4189
 4931SOL    HW226253   4.245   0.761   0.641 -1.1967  0.5349 -1.9670
 4932SOL     OW26254   3.072   0.281   8.823 -0.3799 -0.1624 -0.5643
 4932SOL    HW126255   3.104   0.359   8.867 -0.7924 -0.4922  0.3328
 4932SOL    HW226256   3.153   0.229   8.821 -0.0149  0.3893  0.0758
 4933SOL     OW26257   4.308   3.568  15.206 -0.2215 -0.4242  0.5502
 4933SOL    HW126258   4.390   3.581  15.159 -0.8248 -0.2111 -0.4225
 4933SOL    HW226259   4.339   3.520  15.284  0.1792  0.8373  1.1635
 4934SOL     OW26260   4.123   4.474  10.754 -0.0081 -0.4431 -0.2444
 4934SOL    HW126261   4.124   4.380  10.735 -4.5515 -0.4051 -0.6875
 4934SOL    HW226262   4.111   4.482  10.849 -1.2631  3.8591 -0.7986
 4935SOL     OW26263   2.456   4.521  11.425 -0.3437 -0.1263 -0.4095
 4935SOL    HW126264   2.550   4.527  11.439 -0.3867  0.0591 -0.2005
 4935SOL    HW226265   2.465   4.518  11.330 -4.7621 -2.9532 -0.7728
 4936SOL     OW26266   0.205   3.514   9.287 -0.2381 -0.0173 -0.1457
 4936SOL    HW126267   0.223   3.524   9.193  0.0775 -1.9883 -0.2863
 4936SOL    HW226268   0.283   3.467   9.316  0.6751  2.2359  1.0545
 4937SOL     OW26269   4.321   3.339   2.910  0.1531  0.0259 -0.0684
 4937SOL    HW126270   4.386   3.270   2.896  1.2368  0.9458  0.4357
 4937SOL    HW226271   4.358   3.421   2.879  0.4440  0.5987  1.7645
 4938SOL     OW26272   1.621   3.844   3.652  0.1335 -0.4488 -0.2040
 4938SOL    HW126273   1.694   3.901   3.628  0.2273 -1.3075 -1.9659
 4938SOL    HW226274   1.631   3.780   3.581 -1.3105  0.3713 -1.1508
 4939SOL     OW26275   0.656   0.973  10.198 -0.0020  0.0178  0.1999
 4939SOL    HW126276   0.669   0.938  10.110 -0.0609 -0.7261  0.4840
 4939SOL    HW226277   0.700   0.909  10.253  0.4289 -0.0370 -0.2167
 4940SOL     OW26278   4.641   3.226   2.410  0.0826  0.1953 -0.1387
 4940SOL    HW126279   4.611   3.137   2.389 -0.5570 -0.6737  4.2680
 4940SOL    HW226280   4.637   3.277   2.330  0.1696  3.4886  1.9603
 4941SOL     OW26281   1.885   1.550   7.679 -0.9722  0.1075 -0.5363
 4941SOL    HW126282   1.916   1.544   7.588  0.7038 -0.8442  0.1052
 4941SOL    HW226283   1.955   1.597   7.723  0.2988 -0.7326 -1.6262
 4942SOL     OW26284   4.719   4.456   7.487 -0.6858 -0.1794  0.5606
 4942SOL    HW126285   0.002   4.366   7.521 -1.2606 -0.6417 -0.5610
 4942SOL    HW226286   4.655   4.438   7.418 -0.6147  0.6813  0.2791
 4943SOL     OW26287   0.655   4.633  16.084  0.0667 -0.2840  0.3108
 4943SOL    HW126288   0.684   4.591  16.003 -2.1516 -0.4746 -0.3775
 4943SOL    HW226289   0.717   4.601  16.151 -0.8984  2.1392  2.3553
 4944SOL     OW26290   3.284   3.580   8.473  0.3369  0.2226  0.2569
 4944SOL    HW126291   3.359   3.579   8.533 -1.1679 -0.3776  2.1538
 4944SOL    HW226292   3.267   3.674   8.465  1.4037  0.3910  0.0502
 4945SOL     OW26293   3.075   0.953   7.751  0.4980  0.0954 -0.1447
 4945SOL    HW126294   2.999   0.897   7.766 -1.3729  2.6801  0.0177
 4945SOL    HW226295   3.099   0.983   7.839  0.5171 -0.4427  0.0336
 4946SOL     OW26296   1.410   4.313  15.400  0.0731 -0.0895  0.5135
 4946SOL    HW126297   1.416   4.307  15.305 -1.9376  1.6320  0.2832
 4946SOL    HW226298   1.320   4.286  15.418  0.4205 -0.6156  1.4948
 4947SOL     OW26299   1.152   1.967   5.092  0.4677 -0.9557 -0.0585
 4947SOL    HW126300   1.064   1.969   5.053  0.2265  0.3442  0.5675
 4947SOL    HW226301   1.155   2.044   5.148  1.2823  0.0820 -1.5260
 4948SOL     OW26302   4.599   1.381   1.950 -0.0309  0.0572  0.1577
 4948SOL    HW126303   4.538   1.408   1.881 -0.0021  1.5364  0.7177
 4948SOL    HW226304   4.548   1.311   1.988  0.5415 -0.1416  0.5644
 4949SOL     OW26305   3.753   2.541  13.041 -0.0442 -0.0940  0.1607
 4949SOL    HW126306   3.697   2.607  13.082 -3.3155 -3.1319  0.6192
 4949SOL    HW226307   3.766   2.588  12.959 -1.6678 -1.2256 -0.7560
 4950SOL     OW26308   0.046   2.742  13.300  0.7732  0.2388  0.6198
 4950SOL    HW126309   0.127   2.739  13.350  0.8957 -1.3500  0.2981
 4950SOL    HW226310   4.718   2.678  13.350 -1.2558  0.3823 -1.2673
 4951SOL     OW26311   1.448   3.990   6.533  0.6219  0.5818 -0.4589
 4951SOL    HW126312   1.440   4.062   6.470  0.6212  0.9202 -0.0704
 4951SOL    HW226313   1.521   3.935   6.505  0.6979  0.4111  0.0905
 4952SOL     OW26314   3.633   0.766  16.330  0.0401  0.1265  0.4481
 4952SOL    HW126315   3.537   0.765  16.323  0.0012 -0.3594  1.1104
 4952SOL    HW226316   3.655   0.677  16.305  0.1692  0.5985 -1.1864
 4953SOL     OW26317   0.952   1.182   9.799 -1.0812 -0.2807 -0.0164
 4953SOL    HW126318   0.972   1.202   9.708  1.6574 -1.0504  0.4316
 4953SOL    HW226319   0.979   1.090   9.808  2.0281  0.6739  0.1149
 4954SOL     OW26320   3.062   3.197   9.414  0.3798  0.1178 -0.0387
 4954SOL    HW126321   3.080   3.215   9.507 -2.9858 -1.1142  0.8365
 4954SOL    HW226322   3.143   3.236   9.382 -0.6698  0.2304 -2.5273
 4955SOL     OW26323   0.758   2.227  10.764  0.7507  0.3295 -0.2060
 4955SOL    HW126324   0.831   2.202  10.821 -1.3714 -2.4599  1.2563
 4955SOL    HW226325   0.688   2.250  10.824 -0.1100 -1.5354 -0.5029
 4956SOL     OW26326   1.347   0.976   3.995  0.3484 -0.1740  0.5695
 4956SOL    HW126327   1.429   0.995   3.949  0.1660 -0.0818  0.2800
 4956SOL    HW226328   1.364   1.038   4.066 -3.0039  2.8753 -1.3126
 4957SOL     OW26329   0.192   3.018   3.166  0.0394  0.5709  0.2547
 4957SOL    HW126330   0.133   3.079   3.122  1.1620 -0.1236 -2.2108
 4957SOL    HW226331   0.134   2.974   3.228 -0.9708  0.9781 -0.4048
 4958SOL     OW26332   2.028   3.106   0.473 -0.2442 -0.0509  0.3645
 4958SOL    HW126333   1.967   3.032   0.476  0.0388 -0.2767  0.5169
 4958SOL    HW226334   2.046   3.120   0.567 -1.4121 -3.8990  1.1369
 4959SOL     OW26335   4.412   0.729   8.664 -0.1550 -0.2913 -0.1196
 4959SOL    HW126336   4.458   0.737   8.581 -1.1412 -0.6589 -0.7032
 4959SOL    HW226337   4.332   0.778   8.645 -0.5681 -0.5596  0.9399
 4960SOL     OW26338   3.078   2.631  13.392  0.6884 -0.2128  0.4298
 4960SOL    HW126339   3.009   2.696  13.389 -1.9108 -3.1400 -2.9329
 4960SOL    HW226340   3.078   2.601  13.301 -0.4783 -1.1397  0.7496
 4961SOL     OW26341   4.443   4.261   3.384 -0.7810 -0.3464 -0.0064
 4961SOL    HW126342   4.393   4.247   3.304 -0.3178 -1.4817 -0.0954
 4961SOL    HW226343   4.518   4.310   3.351 -0.8553 -0.6900 -0.6693
 4962SOL     OW26344   1.467   3.824   4.377 -0.6329 -0.2706  0.5546
 4962SOL    HW126345   1.538   3.760   4.367  0.3923  0.5737  2.5840
 4962SOL    HW226346   1.401   3.763   4.344 -2.1953  0.0364  3.0914
 4963SOL     OW26347   2.975   0.300  15.580 -0.6167 -0.0457  0.1261
 4963SOL    HW126348   2.902   0.289  15.519  0.6178 -0.4487 -1.2798
 4963SOL    HW226349   2.924   0.279  15.659  2.2243 -2.5441  1.2714
 4964SOL     OW26350   3.440   3.768  12.463 -0.7938 -0.2107  0.3771
 4964SOL    HW126351   3.503   3.822  12.510 -1.4204  1.1116 -0.2994
 4964SOL    HW226352   3.411   3.706  12.530  0.2577 -0.6979  0.3802
 4965SOL     OW26353   4.585   1.489   6.456 -0.3471 -0.2004 -0.3169
 4965SOL    HW126354   4.671   1.530   6.465  0.4638 -2.0631  0.2666
 4965SOL    HW226355   4.556   1.506   6.366  0.4005  0.8899 -0.3622
 4966SOL     OW26356   1.645   2.590   6.476  0.3875  0.1192  0.1534
 4966SOL    HW126357   1.677   2.664   6.423 -1.4837  0.5224 -0.3982
 4966SOL    HW226358   1.725   2.540   6.495 -0.1394 -0.5451  0.6078
 4967SOL     OW26359   4.618   1.445   5.337  1.0397  0.3190 -0.5502
 4967SOL    HW126360   4.627   1.389   5.414 -1.2303 -0.1971 -0.6846
 4967SOL    HW226361   4.538   1.403   5.307  0.1621  0.4317  1.5895
 4968SOL     OW26362   1.988   2.450   4.670 -0.0837 -0.0050 -0.1112
 4968SOL    HW126363   2.076   2.424   4.695  0.8205  1.3430 -1.9034
 4968SOL    HW226364   2.013   2.530   4.624  0.8757 -0.6528 -0.7159
 4969SOL     OW26365   1.098   0.688   5.713 -0.0987  1.3563  0.4372
 4969SOL    HW126366   1.052   0.684   5.797 -0.7324  0.5336  0.0492
 4969SOL    HW226367   1.139   0.773   5.730 -1.2915  1.6523  1.8800
 4970SOL     OW26368   2.211   4.439   1.865  0.3493 -0.5372 -0.7339
 4970SOL    HW126369   2.294   4.470   1.903 -0.5270 -0.7869  1.3745
 4970SOL    HW226370   2.214   4.343   1.859 -1.0668 -0.5465 -1.2175
 4971SOL     OW26371   2.957   0.053  16.985  0.1598  0.2799 -0.0374
 4971SOL    HW126372   2.881   0.107  16.963 -0.5260  0.1043  1.8891
 4971SOL    HW226373   2.997   0.060  16.898 -0.5253  2.5462 -0.1698
 4972SOL     OW26374   3.243   1.930   8.331  0.4251  0.1638 -0.2357
 4972SOL    HW126375   3.215   1.841   8.309  1.8356 -1.2590  3.6461
 4972SOL    HW226376   3.196   1.941   8.414  1.2080  2.1839 -0.0665
 4973SOL     OW26377   3.345   3.148   3.701  0.1150  0.4348 -0.1843
 4973SOL    HW126378   3.350   3.115   3.612  2.7087  0.2680  0.0231
 4973SOL    HW226379   3.285   3.082   3.736  0.7206 -0.8274 -1.5270
 4974SOL     OW26380   4.514   2.565   3.634  0.4189  0.2921  0.1717
 4974SOL    HW126381   4.484   2.499   3.572  0.9241  3.1253 -3.0393
 4974SOL    HW226382   4.492   2.528   3.720  2.9104  1.4258  1.2889
 4975SOL     OW26383   3.788   4.195   5.273  0.0646 -0.1840 -0.1795
 4975SOL    HW126384   3.875   4.213   5.235 -0.0829  1.3881  0.2430
 4975SOL    HW226385   3.777   4.264   5.337 -2.0307 -0.7291  0.0509
 4976SOL     OW26386   3.365   1.158   6.607 -0.0498 -0.4399 -0.6204
 4976SOL    HW126387   3.435   1.223   6.595 -0.4650  0.7758  3.6662
 4976SOL    HW226388   3.365   1.163   6.702 -1.9819 -0.5491 -0.6254
 4977SOL     OW26389   2.472   4.242   7.719 -0.2500 -0.4160 -0.1040
 4977SOL    HW126390   2.449   4.271   7.807  3.1460 -0.7486  0.8893
 4977SOL    HW226391   2.527   4.314   7.688  2.4452 -1.6049  1.9465
 4978SOL     OW26392   0.401   3.458   5.980 -0.1792 -0.0697 -0.0493
 4978SOL    HW126393   0.361   3.469   6.066  0.3007  0.1843  0.1343
 4978SOL    HW226394   0.324   3.478   5.926  1.3424  1.4601 -1.6085
 4979SOL     OW26395   1.806   3.278  12.175 -0.2628  0.0635  0.7313
 4979SOL    HW126396   1.830   3.359  12.220 -1.0279  0.8646 -0.3011
 4979SOL    HW226397   1.882   3.263  12.118 -2.1635 -1.2696 -1.4531
 4980SOL     OW26398   0.839   1.232   6.220  0.2459 -0.1738  0.1119
 4980SOL    HW126399   0.922   1.193   6.194  0.1242 -0.0167 -0.5085
 4980SOL    HW226400   0.798   1.234   6.134  0.7062  2.0090 -0.0598
 4981SOL     OW26401   0.489   2.357   6.393  0.1527 -0.7492 -0.1964
 4981SOL    HW126402   0.513   2.430   6.450 -2.2640 -0.6906  0.7341
 4981SOL    HW226403   0.496   2.394   6.305 -0.4542 -0.8560 -0.2913
 4982SOL     OW26404   3.613   0.144   7.096 -0.2415 -0.5887 -0.0663
 4982SOL    HW126405   3.627   0.190   7.178 -2.7730  0.3526 -0.1634
 4982SOL    HW226406   3.697   0.099   7.098 -0.1578 -0.4112  0.4230
 4983SOL     OW26407   2.677   3.207   4.235  0.3632  0.2371  0.2881
 4983SOL    HW126408   2.733   3.277   4.266 -0.3499  0.5175  0.9625
 4983SOL    HW226409   2.735   3.148   4.187  0.6714  1.2316 -0.5538
 4984SOL     OW26410   1.309   3.862  13.222 -0.4012  0.0539 -0.3596
 4984SOL    HW126411   1.400   3.854  13.250 -0.5944  0.2923  0.3402
 4984SOL    HW226412   1.277   3.776  13.252 -1.3219  0.3763 -0.3998
 4985SOL     OW26413   3.991   1.117   4.269  0.0685 -0.4321  0.1921
 4985SOL    HW126414   4.034   1.049   4.321 -0.5185 -1.7359 -1.0100
 4985SOL    HW226415   4.017   1.194   4.319 -2.4092 -0.7808  2.0625
 4986SOL     OW26416   0.867   0.323  12.460 -0.9321  0.2968 -0.5734
 4986SOL    HW126417   0.789   0.296  12.509  0.8481 -2.5325  0.7121
 4986SOL    HW226418   0.850   0.275  12.378 -1.8065 -1.4614  0.6324
 4987SOL     OW26419   2.488   0.719   8.577  0.2232 -0.6373 -0.7163
 4987SOL    HW126420   2.499   0.748   8.487  0.5608  1.7353  0.0896
 4987SOL    HW226421   2.506   0.628   8.555  1.3909 -0.3996 -0.7543
 4988SOL     OW26422   0.656   4.199   5.791  0.6537  0.4993 -0.0706
 4988SOL    HW126423   0.585   4.260   5.776  0.4035  0.2878  0.2550
 4988SOL    HW226424   0.690   4.194   5.702  0.2904  2.6777 -0.3333
 4989SOL     OW26425   2.763   4.410   7.911 -0.4118 -0.4266  0.3111
 4989SOL    HW126426   2.761   4.342   7.978  0.7223 -1.6582 -0.8890
 4989SOL    HW226427   2.850   4.445   7.928 -0.3447 -0.5397  0.2017
 4990SOL     OW26428   0.481   2.829   3.585 -0.2549 -0.1801 -0.0540
 4990SOL    HW126429   0.425   2.893   3.542  0.4251  0.6839  0.3554
 4990SOL    HW226430   0.410   2.776   3.621 -0.6520 -0.1880 -0.8387
 4991SOL     OW26431   4.391   4.551   7.479  0.2640  0.3635 -0.1335
 4991SOL    HW126432   4.315   4.507   7.443  0.5733  0.1759 -0.5431
 4991SOL    HW226433   4.447   4.540   7.403 -1.6965 -1.9351 -1.2513
 4992SOL     OW26434   3.989   3.900   6.355  0.3670  0.1301 -0.2618
 4992SOL    HW126435   4.080   3.908   6.327  0.8424 -0.0427  1.2467
 4992SOL    HW226436   4.002   3.835   6.423  0.1203 -0.9657 -1.2524
 4993SOL     OW26437   0.214   2.342   9.223  0.4656 -0.4517 -0.1613
 4993SOL    HW126438   0.231   2.374   9.135  0.9052 -0.6625 -0.1506
 4993SOL    HW226439   0.270   2.400   9.274 -0.8378  0.4659  0.2451
 4994SOL     OW26440   3.666   4.534   3.238 -0.0930  0.0988 -0.0503
 4994SOL    HW126441   3.760   4.515   3.233  0.3549  1.6242  2.9652
 4994SOL    HW226442   3.659   4.592   3.162  1.5821  0.7353  0.2888
 4995SOL     OW26443   0.719   4.126  12.496 -0.8313  0.1885 -0.4868
 4995SOL    HW126444   0.806   4.121  12.457 -0.5929 -0.9309  0.2081
 4995SOL    HW226445   0.717   4.039  12.535 -1.1356  0.7895  0.8566
 4996SOL     OW26446   0.713   2.000   5.484  0.0187  0.5494  0.2292
 4996SOL    HW126447   0.760   2.047   5.415 -1.0956  0.4280 -0.6077
 4996SOL    HW226448   0.624   2.027   5.461 -1.3277 -2.7768  1.5949
 4997SOL     OW26449   1.381   3.556   8.933 -0.1982 -0.1089 -0.3359
 4997SOL    HW126450   1.361   3.615   9.006 -1.5109 -0.2255 -0.6170
 4997SOL    HW226451   1.422   3.484   8.982  0.0363  2.7286  3.6326
 4998SOL     OW26452   3.827   4.461   7.720 -0.1207 -0.4647 -0.3113
 4998SOL    HW126453   3.906   4.507   7.692 -0.6004 -0.4485 -1.6734
 4998SOL    HW226454   3.801   4.406   7.646 -3.4926 -0.1765  0.6267
 4999SOL     OW26455   4.534   4.389   8.046 -0.2799 -0.0959  0.3250
 4999SOL    HW126456   4.443   4.367   8.026 -0.6528  2.4040 -0.7578
 4999SOL    HW226457   4.526   4.421   8.136  0.8409  1.2403 -0.0641
 5000SOL     OW26458   0.501   0.350   9.523  0.3966  0.3171  0.1370
 5000SOL    HW126459   0.533   0.323   9.608 -0.2612 -1.0005 -0.0321
 5000SOL    HW226460   0.582   0.383   9.484  0.0535  0.4340 -0.4829
 5001SOL     OW26461   2.748   2.464  13.921 -0.2309  0.0408  0.1482
 5001SOL    HW126462   2.738   2.540  13.978  2.4422 -0.3978  1.2144
 5001SOL    HW226463   2.677   2.469  13.857 -0.5525  0.8250  0.5662
 5002SOL     OW26464   0.987   1.867   7.327  0.1504  0.2963 -0.6860
 5002SOL    HW126465   1.011   1.953   7.361  1.8898  0.7262 -2.9499
 5002SOL    HW226466   1.071   1.824   7.344  0.0660  0.5884  0.4372
 5003SOL     OW26467   2.459   1.839   9.873 -0.4030 -0.1621 -0.6510
 5003SOL    HW126468   2.540   1.816   9.828 -0.8458 -2.2668 -0.3979
 5003SOL    HW226469   2.500   1.896   9.938 -1.0651 -0.1563 -0.2339
 5004SOL     OW26470   2.576   1.844   0.661 -0.2400  0.0279 -0.5818
 5004SOL    HW126471   2.535   1.900   0.727 -0.9637 -0.3773 -0.6924
 5004SOL    HW226472   2.501   1.791   0.635 -1.0113  0.2766  1.1637
 5005SOL     OW26473   3.510   2.375   3.402  0.5212 -0.1590 -0.0137
 5005SOL    HW126474   3.544   2.461   3.427 -0.4575  0.4041 -0.5838
 5005SOL    HW226475   3.561   2.362   3.322  1.8346  1.1715  0.6066
 5006SOL     OW26476   1.306   3.787   1.671 -0.0493  0.4724  0.4676
 5006SOL    HW126477   1.217   3.820   1.660 -0.1693 -0.2136 -0.6445
 5006SOL    HW226478   1.357   3.866   1.654 -0.6567  0.6179 -0.6612
 5007SOL     OW26479   4.354   0.090   2.077 -0.3770 -0.3492  0.3369
 5007SOL    HW126480   4.279   0.038   2.106 -0.4867 -0.0267  0.6358
 5007SOL    HW226481   4.369   0.035   2.000  0.3442 -0.2632  0.4141
 5008SOL     OW26482   0.487   2.238   9.179 -0.3053  0.5162 -0.0932
 5008SOL    HW126483   0.470   2.214   9.088 -1.0265  1.3819 -0.1791
 5008SOL    HW226484   0.468   2.331   9.180  0.7905  0.7497 -0.5584
 5009SOL     OW26485   3.388   2.295  14.257  0.2249  0.2003 -0.3580
 5009SOL    HW126486   3.329   2.370  14.248  0.5712  0.7233  1.7292
 5009SOL    HW226487   3.331   2.228  14.219 -1.5107  1.2383  0.3970
 5010SOL     OW26488   2.327   2.921   0.995  0.0048 -0.4541  0.7261
 5010SOL    HW126489   2.247   2.869   0.993  1.1801 -2.3079  1.2839
 5010SOL    HW226490   2.289   3.008   1.006  2.6166  1.2060 -3.2443
 5011SOL     OW26491   2.215   4.106  16.132 -0.8356  0.0772 -0.0597
 5011SOL    HW126492   2.221   4.198  16.155 -1.4401  0.3972 -1.1394
 5011SOL    HW226493   2.308   4.085  16.133 -1.1485 -1.3273 -0.1169
 5012SOL     OW26494   2.283   4.324   0.918  0.3452 -0.1164  0.3320
 5012SOL    HW126495   2.361   4.316   0.864  0.6725  1.1264  0.6282
 5012SOL    HW226496   2.246   4.393   0.863 -0.9262 -0.1919  1.1030
 5013SOL     OW26497   1.892   4.719   5.669 -0.1598  0.3839 -0.0870
 5013SOL    HW126498   1.969   4.694   5.719  0.5551 -0.1587 -1.4503
 5013SOL    HW226499   1.827   4.671   5.720 -0.9401  1.4826 -0.0513
 5014SOL     OW26500   2.104   4.036  11.412  0.0930  0.1725 -0.1260
 5014SOL    HW126501   2.101   3.941  11.414 -0.0889  0.1462 -1.6421
 5014SOL    HW226502   2.049   4.051  11.335 -2.2528 -3.0382  0.9366
 5015SOL     OW26503   3.243   0.241   2.051  0.3633 -0.3099  0.1352
 5015SOL    HW126504   3.334   0.261   2.072  1.0903 -0.5097 -2.8168
 5015SOL    HW226505   3.188   0.253   2.128 -0.4450  1.7594 -0.7489
 5016SOL     OW26506   3.625   1.655  14.138 -0.8681 -0.0654 -0.2625
 5016SOL    HW126507   3.636   1.698  14.223 -0.3263 -0.7179 -0.0009
 5016SOL    HW226508   3.706   1.607  14.152 -0.6979 -0.0233 -1.1318
 5017SOL     OW26509   2.492   1.049  10.011  0.0308  0.1333 -0.3723
 5017SOL    HW126510   2.511   1.046   9.917 -2.3935  0.0918 -0.8653
 5017SOL    HW226511   2.406   1.011  10.030  0.7961 -1.9631 -1.0325
 5018SOL     OW26512   0.812   0.629   5.445  0.3013 -0.3963 -0.2224
 5018SOL    HW126513   0.819   0.559   5.511  2.7115 -0.6751 -0.7914
 5018SOL    HW226514   0.755   0.696   5.481  1.5386  1.3402 -1.4687
 5019SOL     OW26515   4.570   3.978   7.350 -0.3432 -0.1790 -0.3721
 5019SOL    HW126516   4.501   3.928   7.392 -0.1438 -0.3161 -0.2089
 5019SOL    HW226517   4.541   4.069   7.358  0.2477  0.0785 -1.0893
 5020SOL     OW26518   3.256   3.179   1.730  0.0860  0.0163 -0.0766
 5020SOL    HW126519   3.331   3.229   1.698 -0.2357  2.2671  2.6779
 5020SOL    HW226520   3.251   3.217   1.817 -1.1093 -0.1548 -0.0679
 5021SOL     OW26521   2.089   0.957   5.376 -0.4595 -0.5313  0.1761
 5021SOL    HW126522   2.031   0.965   5.452 -0.1782 -0.0100  0.3355
 5021SOL    HW226523   2.040   0.890   5.328  1.4147 -2.1843  0.5932
 5022SOL     OW26524   4.010   2.784   1.784 -0.1463  0.3964  0.1237
 5022SOL    HW126525   4.064   2.706   1.787 -0.2603  0.3340  0.4816
 5022SOL    HW226526   3.921   2.754   1.804  0.5967  0.0832  2.9214
 5023SOL     OW26527   1.389   1.521   2.423 -0.0398  0.1722 -0.1540
 5023SOL    HW126528   1.301   1.550   2.399  1.3230  3.1094 -1.6313
 5023SOL    HW226529   1.410   1.582   2.494  0.2588  1.6247 -1.4637
 5024SOL     OW26530   2.662   2.987   9.272 -0.1401  0.3186 -0.2653
 5024SOL    HW126531   2.620   2.904   9.248 -1.7293  0.8688  0.5537
 5024SOL    HW226532   2.647   2.992   9.366 -2.4975  2.4710 -0.7367
 5025SOL     OW26533   0.044   2.930   8.292  0.1855  0.0639  0.1052
 5025SOL    HW126534   0.003   2.888   8.216  1.7966  1.9359 -1.8278
 5025SOL    HW226535   4.701   2.998   8.302  1.2737  0.7883  2.2312
 5026SOL     OW26536   0.879   0.012   3.706 -0.1317  0.1972  0.0189
 5026SOL    HW126537   0.969   4.708   3.725 -0.9479 -1.5765  1.3026
 5026SOL    HW226538   0.834   4.651   3.701  2.9189 -1.4296 -0.6497
 5027SOL     OW26539   1.429   1.602   3.810 -0.2656  0.0565 -0.2966
 5027SOL    HW126540   1.360   1.596   3.743 -2.5717  1.2327  2.0103
 5027SOL    HW226541   1.378   1.570   3.884 -1.4144 -0.9780 -1.5230
 5028SOL     OW26542   0.567   4.096   7.313  0.7255  0.0319  0.8586
 5028SOL    HW126543   0.619   4.156   7.367  0.8462  1.5780 -0.9961
 5028SOL    HW226544   0.537   4.031   7.376 -2.0348  0.0139 -0.5033
 5029SOL     OW26545   1.116   2.161   6.510 -0.0671 -0.4500 -0.6679
 5029SOL    HW126546   1.209   2.144   6.492  0.3893  1.1083  0.2093
 5029SOL    HW226547   1.071   2.132   6.431 -0.6172 -1.5898  0.0586
 5030SOL     OW26548   2.892   0.318   3.550  0.0223 -0.4409  0.2170
 5030SOL    HW126549   2.862   0.381   3.485  2.8976 -0.4530 -1.1442
 5030SOL    HW226550   2.979   0.289   3.522  0.4267 -0.4482  1.4963
 5031SOL     OW26551   3.775   2.728  10.642 -0.0211 -0.2174  0.7545
 5031SOL    HW126552   3.822   2.810  10.628  0.1043 -0.4742 -0.3984
 5031SOL    HW226553   3.708   2.748  10.707  0.8043 -1.2916  1.9220
 5032SOL     OW26554   1.942   0.024   6.602 -0.3145  0.8592 -0.7073
 5032SOL    HW126555   1.989   0.072   6.671  0.4331  2.0559 -2.0480
 5032SOL    HW226556   1.966   0.075   6.525 -2.6833 -0.1139 -2.0625
 5033SOL     OW26557   1.365   3.834   8.802 -0.4788  0.4250  0.1261
 5033SOL    HW126558   1.303   3.886   8.851  1.1923  0.9537  1.6860
 5033SOL    HW226559   1.340   3.747   8.833  0.4865  1.0578  2.6100
 5034SOL     OW26560   2.839   0.181  15.067 -0.0357 -0.5095  0.1213
 5034SOL    HW126561   2.845   0.132  15.149  1.0830  0.0295  0.3676
 5034SOL    HW226562   2.894   0.258  15.085  1.7675 -1.3472 -1.7735
 5035SOL     OW26563   4.115   3.561   2.212  0.5433 -0.3531 -0.0392
 5035SOL    HW126564   4.096   3.472   2.242 -0.0599 -0.5231 -0.9402
 5035SOL    HW226565   4.201   3.556   2.170 -0.3788  2.0401 -2.1789
 5036SOL     OW26566   3.615   0.684   6.468 -0.0787  0.6731 -0.0631
 5036SOL    HW126567   3.586   0.665   6.557 -1.9054 -2.4689 -1.3392
 5036SOL    HW226568   3.535   0.665   6.418 -0.9402  0.1719  1.5011
 5037SOL     OW26569   2.243   3.175   8.395  0.5189 -0.1173  0.0967
 5037SOL    HW126570   2.306   3.149   8.462  0.6939  0.5222  0.1775
 5037SOL    HW226571   2.294   3.226   8.332 -0.5790  1.5357  0.5607
 5038SOL     OW26572   2.373   0.986   5.094  0.3943 -0.0583 -0.8337
 5038SOL    HW126573   2.289   1.020   5.064  0.2429  0.1321 -0.1972
 5038SOL    HW226574   2.379   0.913   5.033 -1.7308 -0.5745 -0.4092
 5039SOL     OW26575   1.429   3.456   3.182 -0.0821 -0.3606  0.2416
 5039SOL    HW126576   1.416   3.361   3.172 -0.4350 -0.1817 -1.0946
 5039SOL    HW226577   1.385   3.482   3.263 -2.6160  0.0820 -1.2774
 5040SOL     OW26578   3.430   1.861   6.664  0.0390  0.5706  0.5550
 5040SOL    HW126579   3.443   1.954   6.649  0.2872  0.8167  2.2815
 5040SOL    HW226580   3.509   1.830   6.710 -0.9265 -0.1680  1.7307
 5041SOL     OW26581   1.968   3.727  15.999 -0.1883 -0.2168 -0.0767
 5041SOL    HW126582   2.023   3.700  15.926  1.8693  3.2568  0.1688
 5041SOL    HW226583   1.971   3.822  16.003 -0.9695 -0.1699 -0.6908
 5042SOL     OW26584   0.547   3.624   2.732  1.0257  0.1829 -0.5774
 5042SOL    HW126585   0.536   3.557   2.665 -0.1377  0.5176 -0.7204
 5042SOL    HW226586   0.541   3.702   2.677 -0.6645  1.0990  0.9231
 5043SOL     OW26587   1.490   4.603   7.665  0.7926 -0.2398 -0.2578
 5043SOL    HW126588   1.472   4.510   7.649 -0.1917 -0.3091  1.2767
 5043SOL    HW226589   1.493   4.638   7.576 -0.2739 -0.3396 -0.3329
 5044SOL     OW26590   2.048   2.032   6.288  0.0820  0.7154  0.6077
 5044SOL    HW126591   1.994   2.040   6.367  0.3261 -1.5911  1.0208
 5044SOL    HW226592   2.100   2.112   6.298  0.8136 -0.2391  4.3541
 5045SOL     OW26593   3.193   4.641   6.743 -0.2620 -0.1397 -0.5352
 5045SOL    HW126594   3.119   4.697   6.768 -2.0979 -1.8073 -2.3094
 5045SOL    HW226595   3.264   4.704   6.731 -1.0234  1.3989  2.8128
 5046SOL     OW26596   2.881   2.768  16.489  0.4609  0.7714 -0.0133
 5046SOL    HW126597   2.920   2.801  16.569 -1.8929  0.5773  1.1945
 5046SOL    HW226598   2.844   2.696  16.541 -1.6059  0.2857 -2.1419
 5047SOL     OW26599   0.931   3.883   0.755  1.0290  0.5384  0.5208
 5047SOL    HW126600   0.950   3.807   0.700 -2.1331  0.7478 -0.8846
 5047SOL    HW226601   0.843   3.859   0.785  0.1024 -1.4087 -3.7357
 5048SOL     OW26602   0.905   2.989   3.252 -0.2065 -0.6197  0.0960
 5048SOL    HW126603   0.816   2.969   3.224 -0.2994 -0.3013  0.1672
 5048SOL    HW226604   0.945   2.902   3.245  1.3906  0.3358 -2.8265
 5049SOL     OW26605   0.468   0.747   7.364 -0.3963  0.5001  0.1121
 5049SOL    HW126606   0.491   0.757   7.271  0.0945  0.1633  0.1984
 5049SOL    HW226607   0.496   0.827   7.407  0.2864  0.3599 -0.0722
 5050SOL     OW26608   2.613   3.235   2.576  0.4548 -0.1896 -0.2160
 5050SOL    HW126609   2.698   3.192   2.582 -0.3672 -1.6805  0.6853
 5050SOL    HW226610   2.606   3.290   2.654  0.4905 -1.3556  0.6057
 5051SOL     OW26611   3.293   2.646  12.454  0.4225 -0.2685  0.1839
 5051SOL    HW126612   3.258   2.623  12.368 -1.3806  0.8770  0.6057
 5051SOL    HW226613   3.227   2.711  12.480  2.1228  1.9515 -1.0230
 5052SOL     OW26614   4.248   3.389   6.393 -0.8267 -0.1532  0.3352
 5052SOL    HW126615   4.179   3.438   6.349 -1.1506 -1.3417 -0.4674
 5052SOL    HW226616   4.244   3.301   6.355  0.4395  0.2083 -0.6328
 5053SOL     OW26617   1.344   4.190   7.211 -0.5043  0.3466 -0.0954
 5053SOL    HW126618   1.262   4.145   7.190  0.2556 -1.2110  0.2886
 5053SOL    HW226619   1.367   4.228   7.126 -0.8935  0.5507 -0.1086
 5054SOL     OW26620   1.538   0.139  16.490 -0.0955  0.5507  0.2877
 5054SOL    HW126621   1.500   0.059  16.455  0.4498  1.3374 -2.1725
 5054SOL    HW226622   1.464   0.198  16.502 -0.2684  0.2576  0.6368
 5055SOL     OW26623   0.053   2.028   3.344 -0.2098  0.2981  0.4826
 5055SOL    HW126624   0.015   1.992   3.264  0.5017 -0.0701  0.3110
 5055SOL    HW226625   0.088   2.112   3.315 -0.7321 -0.6300 -2.8319
 5056SOL     OW26626   1.196   0.774   3.155 -0.0619  0.9350  0.2291
 5056SOL    HW126627   1.250   0.741   3.083  1.1799  2.8493  0.2733
 5056SOL    HW226628   1.201   0.869   3.140  0.8533  0.7324 -0.7887
 5057SOL     OW26629   3.881   1.925   7.191  0.5146 -0.2009 -0.0232
 5057SOL    HW126630   3.830   1.999   7.158 -0.1765 -0.8564 -0.4146
 5057SOL    HW226631   3.823   1.891   7.259 -0.6587 -0.4977 -1.1702
 5058SOL     OW26632   2.213   0.005  10.849  0.5743 -0.6222  0.1093
 5058SOL    HW126633   2.127   4.692  10.873 -0.2124  0.5165 -0.9806
 5058SOL    HW226634   2.195   0.035  10.760  0.2906 -2.7305 -0.5227
 5059SOL     OW26635   1.819   4.191   7.419  0.4761  0.5015  0.0473
 5059SOL    HW126636   1.745   4.157   7.367  0.2107 -0.1460  0.8381
 5059SOL    HW226637   1.844   4.115   7.472  0.5142  0.0120 -0.6793
 5060SOL     OW26638   3.229   2.464   4.838  0.2796 -0.1698  0.5947
 5060SOL    HW126639   3.254   2.376   4.809 -1.2219 -0.2179 -0.5706
 5060SOL    HW226640   3.203   2.446   4.928 -1.4964 -1.5567 -0.1762
 5061SOL     OW26641   0.559   1.047   4.868  0.2849 -0.3978  0.0502
 5061SOL    HW126642   0.470   1.013   4.867 -0.1319  0.6948  0.3070
 5061SOL    HW226643   0.556   1.098   4.787  1.7038 -3.0149 -1.6365
 5062SOL     OW26644   4.521   1.320  11.690  0.4525 -0.0198 -0.1723
 5062SOL    HW126645   4.528   1.398  11.635 -0.2705  0.2486  0.1123
 5062SOL    HW226646   4.550   1.358  11.774  0.4955  0.2183 -0.2936
 5063SOL     OW26647   4.097   1.601   3.959 -0.4086  0.1427 -0.3388
 5063SOL    HW126648   4.166   1.665   3.978  0.7936 -1.7257  1.5986
 5063SOL    HW226649   4.025   1.631   4.014 -2.5398 -1.0513 -2.4635
 5064SOL     OW26650   3.376   4.122   6.501  0.3366  0.0848 -0.4131
 5064SOL    HW126651   3.415   4.156   6.581  0.1433 -2.4104  0.7488
 5064SOL    HW226652   3.313   4.059   6.536  0.7316 -0.5602 -0.8650
 5065SOL     OW26653   0.054   3.147   9.764  0.4703  0.2936 -0.3170
 5065SOL    HW126654   0.108   3.115   9.835 -0.3689  3.5981  1.8311
 5065SOL    HW226655   0.115   3.200   9.712  0.8957  0.2005  0.0884
 5066SOL     OW26656   3.423   0.432   3.632  0.0712 -0.1146 -0.2091
 5066SOL    HW126657   3.428   0.350   3.582  0.1149 -1.4876  2.0503
 5066SOL    HW226658   3.512   0.465   3.620 -0.9931  1.5823 -3.3407
 5067SOL     OW26659   3.629   3.374   4.662  0.2816  0.1536  0.3233
 5067SOL    HW126660   3.714   3.366   4.620  0.7808  0.8658  1.2121
 5067SOL    HW226661   3.649   3.443   4.725 -1.9781  1.3699 -0.2807
 5068SOL     OW26662   2.155   2.136   7.205  0.2691  0.3865 -0.0256
 5068SOL    HW126663   2.118   2.132   7.293  0.6792 -1.2537  0.0655
 5068SOL    HW226664   2.163   2.230   7.186  0.7923  0.3635  0.0740
 5069SOL     OW26665   3.961   0.262   6.014  0.6099  0.2653 -0.2995
 5069SOL    HW126666   4.027   0.193   6.006 -0.4838 -0.7026 -0.9748
 5069SOL    HW226667   3.957   0.275   6.108  0.1279  0.2237 -0.3168
 5070SOL     OW26668   1.846   0.640  13.481  0.1559 -0.1508  0.3920
 5070SOL    HW126669   1.769   0.604  13.437  0.0775  0.2889  0.1729
 5070SOL    HW226670   1.912   0.652  13.413  0.3396 -0.2989  0.5446
 5071SOL     OW26671   1.130   1.240  12.745 -0.4376 -0.3924 -0.0802
 5071SOL    HW126672   1.200   1.177  12.725  0.2322 -0.3037  1.9692
 5071SOL    HW226673   1.188   1.312  12.770  0.7666 -1.9582  1.6686
 5072SOL     OW26674   1.518   1.992  13.631  0.1368 -0.3718  0.2970
 5072SOL    HW126675   1.503   1.903  13.600 -0.7830 -0.2566  0.4006
 5072SOL    HW226676   1.497   2.047  13.556  3.3445 -0.0182 -0.3266
 5073SOL     OW26677   3.484   2.807   8.472  0.0337 -0.9441  0.4159
 5073SOL    HW126678   3.392   2.826   8.493 -0.2031 -1.0001 -0.5996
 5073SOL    HW226679   3.497   2.832   8.381 -1.7869  1.1521  0.7341
 5074SOL     OW26680   4.480   1.091   6.569  0.6569  0.4158  0.3430
 5074SOL    HW126681   4.452   1.176   6.536  0.4076  0.2459  0.1101
 5074SOL    HW226682   4.447   1.097   6.658  0.1668 -2.3249  0.3715
 5075SOL     OW26683   2.545   1.287   4.189 -0.1178 -0.0813 -0.7133
 5075SOL    HW126684   2.561   1.381   4.202  1.5779 -0.7258  1.8283
 5075SOL    HW226685   2.562   1.284   4.095 -0.1104  0.3400 -0.7263
 5076SOL     OW26686   1.356   3.094   6.418  0.6109 -0.7520  0.1392
 5076SOL    HW126687   1.354   3.007   6.377  0.8641 -0.1041 -1.2377
 5076SOL    HW226688   1.411   3.075   6.495 -0.2159 -0.6226  0.7616
 5077SOL     OW26689   4.445   0.083  13.394  0.1595  0.7177  0.5400
 5077SOL    HW126690   4.436   0.178  13.397  0.3031  0.7699 -0.7217
 5077SOL    HW226691   4.353   0.054  13.388  0.4550 -0.1867  0.2773
 5078SOL     OW26692   1.342   0.279   7.050  0.1466 -0.1932  0.2304
 5078SOL    HW126693   1.259   0.244   7.081  0.0461  1.7818  2.1851
 5078SOL    HW226694   1.401   0.276   7.126  0.4836  0.6779  0.0050
 5079SOL     OW26695   0.423   1.298   6.073  0.2012 -0.0439 -0.2924
 5079SOL    HW126696   0.370   1.349   6.135 -0.8771  0.2393 -1.4544
 5079SOL    HW226697   0.441   1.367   6.010  0.5668  1.4284  1.4206
 5080SOL     OW26698   2.619   1.060   7.664 -0.1938 -0.3795 -0.5372
 5080SOL    HW126699   2.649   0.970   7.650 -2.3655 -1.3872  1.3270
 5080SOL    HW226700   2.527   1.061   7.636 -0.3370  0.4792 -0.0247
 5081SOL     OW26701   1.387   0.203  16.083  0.3372 -0.0647  0.0175
 5081SOL    HW126702   1.305   0.218  16.037  0.3946  1.2168  0.3116
 5081SOL    HW226703   1.372   0.261  16.158  1.9176 -0.6889  0.8224
 5082SOL     OW26704   0.467   3.681   9.508 -0.0401 -0.4236 -0.4480
 5082SOL    HW126705   0.449   3.753   9.448  0.1652 -0.4143 -0.4967
 5082SOL    HW226706   0.531   3.720   9.568 -0.9963  0.8485 -0.2487
 5083SOL     OW26707   0.733   1.276   5.057  0.0056 -0.4534  0.6156
 5083SOL    HW126708   0.739   1.189   5.017  0.2578 -0.3500  0.4221
 5083SOL    HW226709   0.659   1.314   5.010  0.9153  0.1289 -0.3686
 5084SOL     OW26710   2.020   4.222   5.408 -0.5539  0.3973  0.3564
 5084SOL    HW126711   1.969   4.143   5.423  0.6502 -0.6583 -1.0817
 5084SOL    HW226712   2.103   4.188   5.443  0.1159 -0.9915 -2.5663
 5085SOL     OW26713   2.475   1.988   3.994 -0.2095  0.1476  0.4952
 5085SOL    HW126714   2.504   2.056   4.055 -1.5424 -2.8416  4.4171
 5085SOL    HW226715   2.466   2.041   3.915  2.2414 -1.4794 -0.8485
 5086SOL     OW26716   0.507   1.658   5.651 -0.4734 -0.0247  0.4799
 5086SOL    HW126717   0.414   1.638   5.663 -1.0374  1.4480 -1.4017
 5086SOL    HW226718   0.540   1.569   5.646  3.5362  1.4064  2.0433
 5087SOL     OW26719   2.843   4.385   7.243  0.3462  0.1435  0.7174
 5087SOL    HW126720   2.750   4.407   7.247 -0.2359 -2.1281 -0.3305
 5087SOL    HW226721   2.865   4.353   7.155  0.9394  0.1395  0.8668
 5088SOL     OW26722   0.372   0.411   5.470  0.0743 -0.4286 -0.2322
 5088SOL    HW126723   0.436   0.351   5.509  0.6247 -0.3972 -1.1118
 5088SOL    HW226724   0.428   0.449   5.402 -1.4174 -0.4174 -1.4516
 5089SOL     OW26725   4.100   3.770   0.959  0.6508 -0.5119 -0.2779
 5089SOL    HW126726   4.066   3.766   0.870 -0.3672 -0.6092  0.1150
 5089SOL    HW226727   4.049   3.842   0.997  1.5739 -0.1628  0.3120
 5090SOL     OW26728   3.847   2.475   3.794  0.1133 -0.9042  0.4940
 5090SOL    HW126729   3.813   2.470   3.705  0.5240 -2.7891  0.4424
 5090SOL    HW226730   3.765   2.461   3.842 -0.3995 -0.7582 -0.3443
 5091SOL     OW26731   4.611   2.363   7.193  0.2001  0.5232 -0.6543
 5091SOL    HW126732   4.584   2.275   7.167 -0.0322 -0.2770  2.3073
 5091SOL    HW226733   4.547   2.385   7.261  0.1990  1.3005 -0.9137
 5092SOL     OW26734   2.630   0.362  11.124 -0.0481  0.4158  0.3014
 5092SOL    HW126735   2.631   0.268  11.105  3.5150  0.1645  1.7358
 5092SOL    HW226736   2.697   0.406  11.072  0.4876 -1.1283 -0.2951
 5093SOL     OW26737   1.498   2.800  15.626  0.4234  0.3689  0.2608
 5093SOL    HW126738   1.561   2.739  15.664  1.2260  0.6695 -0.5804
 5093SOL    HW226739   1.427   2.742  15.597 -0.6704  1.1776  1.3288
 5094SOL     OW26740   0.756   1.702   7.181  0.3769 -1.0170  0.2092
 5094SOL    HW126741   0.838   1.719   7.228 -0.4189  1.1313  0.7853
 5094SOL    HW226742   0.784   1.675   7.094  0.3715 -1.8583  0.4625
 5095SOL     OW26743   2.297   2.019   3.245 -0.3631  0.1369  0.6141
 5095SOL    HW126744   2.380   1.972   3.253 -0.0403  0.6204  0.0726
 5095SOL    HW226745   2.323   2.109   3.262 -0.7507  0.0567  1.6423
 5096SOL     OW26746   2.252   3.332   9.269 -0.2270 -0.0912  0.0682
 5096SOL    HW126747   2.160   3.309   9.282  0.0236 -2.3553 -2.1191
 5096SOL    HW226748   2.283   3.342   9.359  0.3433 -0.2910 -0.1035
 5097SOL     OW26749   0.712   3.554   5.363  0.6639 -0.4251 -0.0433
 5097SOL    HW126750   0.752   3.628   5.409  1.3069 -0.7279 -0.1080
 5097SOL    HW226751   0.629   3.588   5.332 -0.7477 -1.5220  2.5321
 5098SOL     OW26752   4.409   3.817   0.664  0.2935 -0.0540  0.3017
 5098SOL    HW126753   4.316   3.833   0.645 -0.0467 -1.4633  0.7086
 5098SOL    HW226754   4.402   3.744   0.726  1.0492 -0.1935  0.2206
 5099SOL     OW26755   0.145   3.364  16.202  0.1565 -0.2469  0.0305
 5099SOL    HW126756   0.183   3.449  16.183  1.2141 -0.0629  2.9333
 5099SOL    HW226757   0.060   3.370  16.160 -1.0733 -0.0038  2.5384
 5100SOL     OW26758   0.619   2.181   8.794  0.2646 -0.5873 -0.2293
 5100SOL    HW126759   0.547   2.144   8.846  0.9727 -3.5273 -1.3664
 5100SOL    HW226760   0.644   2.105   8.741  0.7161 -0.2394 -0.5154
 5101SOL     OW26761   3.114   0.599   2.129 -0.2421  0.1629 -0.0372
 5101SOL    HW126762   3.171   0.673   2.152  2.8921 -1.4346 -2.7332
 5101SOL    HW226763   3.067   0.625   2.049 -2.3961  1.0239  1.5207
 5102SOL     OW26764   4.094   4.018  16.187 -0.5447  0.3621  0.0236
 5102SOL    HW126765   4.036   3.987  16.256 -0.9028  0.5795 -0.1767
 5102SOL    HW226766   4.077   4.112  16.188  1.0948  0.6259  1.0845
 5103SOL     OW26767   0.373   1.698  10.484 -0.1159  0.5930 -0.6223
 5103SOL    HW126768   0.429   1.623  10.460 -0.1868  0.0248  0.9889
 5103SOL    HW226769   0.291   1.649  10.490 -0.3395  1.2115  1.4502
 5104SOL     OW26770   0.041   3.531  12.093  0.3676  0.1760  0.1141
 5104SOL    HW126771   0.022   3.493  12.179  0.5286  1.1297  0.5805
 5104SOL    HW226772   0.078   3.456  12.047  0.0995 -1.3257  2.3595
 5105SOL     OW26773   1.674   1.355   1.978 -0.3043  0.7539 -0.0973
 5105SOL    HW126774   1.744   1.380   2.039 -2.3439 -0.2138  2.6125
 5105SOL    HW226775   1.686   1.261   1.968 -0.4662  0.7567 -0.3101
 5106SOL     OW26776   0.899   4.361   9.597  0.7406 -0.6961  0.4573
 5106SOL    HW126777   0.969   4.334   9.656  0.9182 -0.0892  0.5246
 5106SOL    HW226778   0.946   4.336   9.517  0.1196  0.5546 -0.2991
 5107SOL     OW26779   4.021   2.632   8.646 -0.0438 -0.0396 -0.3072
 5107SOL    HW126780   4.091   2.614   8.583 -0.8336 -0.7041 -0.9940
 5107SOL    HW226781   4.058   2.704   8.697 -1.7760 -0.5947  1.7015
 5108SOL     OW26782   1.652   4.017   5.008  0.4438  0.6545 -0.3841
 5108SOL    HW126783   1.626   3.926   4.995 -0.2549  0.8011  0.0019
 5108SOL    HW226784   1.718   4.047   4.946  1.3704  0.6047  0.5788
 5109SOL     OW26785   4.643   3.156   0.669  0.0042  0.1817  0.4918
 5109SOL    HW126786   4.559   3.113   0.653 -0.0228  1.0817 -1.7472
 5109SOL    HW226787   4.646   3.224   0.602 -0.6889 -0.1448  0.1254
 5110SOL     OW26788   2.134   3.652   6.530  0.2248 -0.5043  0.2486
 5110SOL    HW126789   2.130   3.643   6.625 -0.1927  1.4228  0.4075
 5110SOL    HW226790   2.151   3.561   6.506  0.6447 -0.3498 -0.0378
 5111SOL     OW26791   0.901   1.470   3.452 -0.2726 -0.9876  0.5510
 5111SOL    HW126792   0.821   1.476   3.504  0.1453  0.8572  0.9831
 5111SOL    HW226793   0.872   1.449   3.363  0.5194 -1.9285  0.5229
 5112SOL     OW26794   2.443   4.545   8.514  0.4203 -0.0105 -0.5358
 5112SOL    HW126795   2.465   4.619   8.571 -0.7487  0.9727 -1.3665
 5112SOL    HW226796   2.404   4.479   8.571 -1.6570  2.6336  1.1009
 5113SOL     OW26797   4.560   0.551   5.073 -0.1878  0.6896  0.1033
 5113SOL    HW126798   4.571   0.570   4.979  0.2157  2.9896  0.6189
 5113SOL    HW226799   4.479   0.602   5.081 -0.7911  0.0794 -1.9776
 5114SOL     OW26800   0.657   1.195   4.625  0.1466  0.6185 -0.1977
 5114SOL    HW126801   0.658   1.289   4.611  1.7232  0.7675  0.8697
 5114SOL    HW226802   0.636   1.152   4.542  0.9124  0.7662 -0.4680
 5115SOL     OW26803   3.346   1.059   6.915  0.9005  0.4481 -0.5118
 5115SOL    HW126804   3.425   1.006   6.917  1.0722  0.5559 -3.7028
 5115SOL    HW226805   3.353   1.097   7.003 -0.3247  0.2781 -0.3480
 5116SOL     OW26806   3.410   4.270   8.384 -0.0362 -0.4785  0.0510
 5116SOL    HW126807   3.426   4.265   8.478  2.4173 -0.5839 -0.3820
 5116SOL    HW226808   3.488   4.316   8.354 -1.7670  1.8154 -0.9411
 5117SOL     OW26809   3.322   1.889  16.639 -0.3522 -0.2548 -0.5349
 5117SOL    HW126810   3.354   1.966  16.592  1.1468 -1.7348 -1.9214
 5117SOL    HW226811   3.295   1.826  16.572  0.7089 -2.3365  0.9945
 5118SOL     OW26812   0.262   2.501  13.922 -0.0877 -0.4299 -0.1065
 5118SOL    HW126813   0.256   2.521  14.015 -0.9232  0.2834 -0.3193
 5118SOL    HW226814   0.236   2.409  13.917  0.6770 -0.6439 -0.2871
 5119SOL     OW26815   2.213   0.388   5.781 -0.1496 -0.0057  0.0467
 5119SOL    HW126816   2.136   0.364   5.833  0.4154  2.2129  1.8898
 5119SOL    HW226817   2.216   0.321   5.713 -0.7861 -2.7857  2.7673
 5120SOL     OW26818   0.011   3.316   8.703  0.2723 -0.5599  0.2684
 5120SOL    HW126819   0.078   3.367   8.749 -0.8467 -2.0128  3.5239
 5120SOL    HW226820   4.694   3.396   8.669  1.2220  0.7282  2.1644
 5121SOL     OW26821   1.582   4.282   0.892  0.0176  0.2132 -0.0217
 5121SOL    HW126822   1.633   4.211   0.854 -1.0000  0.4607 -1.8433
 5121SOL    HW226823   1.496   4.241   0.882 -0.2788  0.6411  0.7443
 5122SOL     OW26824   1.484   4.636   4.370  0.2534 -0.2279 -0.3725
 5122SOL    HW126825   1.446   4.691   4.302 -0.2849  0.3826  0.4201
 5122SOL    HW226826   1.446   4.550   4.352 -2.8988  0.4662  2.8978
 5123SOL     OW26827   1.502   0.601   5.973  0.1541 -0.4612  0.2871
 5123SOL    HW126828   1.544   0.552   6.044  2.1170  0.7673 -0.0315
 5123SOL    HW226829   1.488   0.684   6.018  0.8492  0.3156 -0.9387
 5124SOL     OW26830   4.510   3.025   9.379 -0.2237 -0.4644  0.2827
 5124SOL    HW126831   4.454   3.062   9.447 -0.5283 -0.0811 -0.1790
 5124SOL    HW226832   4.581   2.996   9.435  0.1590  2.3309  1.2433
 5125SOL     OW26833   3.340   1.542   9.018  0.1932  0.1560 -0.4368
 5125SOL    HW126834   3.297   1.612   8.968 -0.5275  0.1183  0.1342
 5125SOL    HW226835   3.428   1.574   9.037 -0.3578  0.2599  1.9659
 5126SOL     OW26836   1.857   3.622   8.337  0.0566 -0.1852  0.2679
 5126SOL    HW126837   1.922   3.553   8.330 -0.7865 -1.2347  2.6322
 5126SOL    HW226838   1.825   3.640   8.249  0.2305 -1.3365 -0.0273
 5127SOL     OW26839   1.002   3.483   6.617 -0.6057 -0.2874 -0.5761
 5127SOL    HW126840   1.097   3.472   6.613 -0.6412  0.1477 -2.8102
 5127SOL    HW226841   0.984   3.533   6.537  0.2421  0.9657  0.0172
 5128SOL     OW26842   3.774   4.380   4.898  0.2101 -0.1516 -0.1670
 5128SOL    HW126843   3.841   4.348   4.838 -0.3993 -0.5406 -0.6423
 5128SOL    HW226844   3.727   4.302   4.926  1.6494 -0.9764 -0.0312
 5129SOL     OW26845   2.298   0.364   3.483  0.3472 -0.1271 -0.2441
 5129SOL    HW126846   2.247   0.283   3.477 -0.4089  0.2053  1.6069
 5129SOL    HW226847   2.378   0.330   3.442  0.7148  1.8722 -1.1379
 5130SOL     OW26848   3.898   3.609  15.567  0.6352 -0.4343  0.6290
 5130SOL    HW126849   3.898   3.674  15.638 -0.9345  1.3939 -1.0411
 5130SOL    HW226850   3.967   3.657  15.523  0.3098 -0.1366  0.4431
 5131SOL     OW26851   1.055   2.932  12.726  0.2697  0.3029  0.1849
 5131SOL    HW126852   1.033   2.839  12.723 -0.9049  0.5598  0.8150
 5131SOL    HW226853   1.149   2.914  12.722  0.8275  2.6064  2.5776
 5132SOL     OW26854   1.027   4.541  10.819 -0.7085  0.2674  0.2639
 5132SOL    HW126855   1.102   4.487  10.843 -0.0615  2.1841  2.5613
 5132SOL    HW226856   1.021   4.509  10.729  0.4689  0.6903  0.0381
 5133SOL     OW26857   4.560   4.470   5.946 -0.4825  0.2203  0.3563
 5133SOL    HW126858   4.644   4.431   5.925 -0.9248 -0.5562  0.0560
 5133SOL    HW226859   4.568   4.493   6.039  0.7815 -1.0871  0.5801
 5134SOL     OW26860   0.405   4.520   3.767 -0.3266 -0.7083 -0.1665
 5134SOL    HW126861   0.401   4.530   3.672  1.2864  2.1010  0.0697
 5134SOL    HW226862   0.385   4.611   3.791  2.2305  0.0878 -1.1326
 5135SOL     OW26863   2.894   1.598   4.726  0.1496  0.4379 -0.0539
 5135SOL    HW126864   2.950   1.534   4.682 -1.1605 -1.4291  0.9777
 5135SOL    HW226865   2.809   1.555   4.715  1.0425 -0.6655 -2.4894
 5136SOL     OW26866   0.522   4.392  16.152  0.0716  0.5930 -0.6921
 5136SOL    HW126867   0.502   4.341  16.074 -0.1738  0.1858 -0.3677
 5136SOL    HW226868   0.573   4.465  16.118  0.0932  0.6064 -0.6318
 5137SOL     OW26869   2.683   0.893   7.349 -0.4642 -0.1341 -0.3479
 5137SOL    HW126870   2.678   0.799   7.333 -0.8835  0.3738 -3.1022
 5137SOL    HW226871   2.760   0.911   7.403  0.0071 -0.4074 -0.9402
 5138SOL     OW26872   3.620   1.646   6.018  0.1914  0.3309 -0.7280
 5138SOL    HW126873   3.694   1.702   6.044 -0.7990  0.4871  1.7783
 5138SOL    HW226874   3.595   1.675   5.931 -4.4657  1.7339  1.0788
 5139SOL     OW26875   0.131   4.304  11.964 -0.9085 -0.4961  0.0924
 5139SOL    HW126876   0.185   4.241  12.011 -1.8935 -0.0213  1.8548
 5139SOL    HW226877   0.193   4.365  11.924 -0.1888 -0.6859  0.9128
 5140SOL     OW26878   1.185   1.706  13.008 -0.0420  0.3402  0.0631
 5140SOL    HW126879   1.175   1.717  13.102  0.7383  0.8773  0.0817
 5140SOL    HW226880   1.272   1.667  13.017 -0.5650 -1.1319 -1.2553
 5141SOL     OW26881   1.577   1.789   3.924  0.0388  0.0681  0.4271
 5141SOL    HW126882   1.538   1.708   3.893 -0.4752  0.1648  0.8340
 5141SOL    HW226883   1.523   1.845   3.868 -0.0060 -0.1727  0.2308
 5142SOL     OW26884   4.066   4.485   1.657 -0.3123  0.2676  0.1029
 5142SOL    HW126885   4.031   4.498   1.569 -0.2160  0.1185  0.0420
 5142SOL    HW226886   4.147   4.438   1.637 -0.1826  0.5077  0.0535
 5143SOL     OW26887   4.624   3.694   5.607  0.3307 -0.1448 -0.1713
 5143SOL    HW126888   4.664   3.752   5.672 -0.7566 -1.6909  1.8691
 5143SOL    HW226889   4.710   3.677   5.569  0.1821 -3.3963  0.9843
 5144SOL     OW26890   3.505   2.297   9.697  0.1157  0.1464 -0.4112
 5144SOL    HW126891   3.565   2.239   9.650 -1.5267 -1.3134 -0.7304
 5144SOL    HW226892   3.477   2.228   9.758 -1.1376  2.3571  1.5336
 5145SOL     OW26893   3.140   1.529   5.688 -0.0800 -0.5058 -0.4994
 5145SOL    HW126894   3.091   1.460   5.644 -2.0828  0.6338 -0.0672
 5145SOL    HW226895   3.205   1.547   5.620 -1.2233  2.9494 -0.6875
 5146SOL     OW26896   3.795   2.164   7.337  0.0960 -0.0340 -0.2081
 5146SOL    HW126897   3.741   2.231   7.380 -1.5573 -0.9137 -0.8873
 5146SOL    HW226898   3.788   2.082   7.384 -2.0952 -0.4746 -1.2731
 5147SOL     OW26899   2.073   2.861  15.370 -0.1435  0.3081  0.2674
 5147SOL    HW126900   2.051   2.786  15.425 -0.7815 -0.6879 -1.3636
 5147SOL    HW226901   1.996   2.914  15.388 -0.9634 -0.0273 -2.2980
 5148SOL     OW26902   2.328   0.241  15.727  0.5901  0.1351 -0.2043
 5148SOL    HW126903   2.278   0.318  15.754 -0.4682 -0.5687 -0.1729
 5148SOL    HW226904   2.284   0.173  15.777  0.2116 -0.8303 -1.8280
 5149SOL     OW26905   1.759   4.372  12.086  0.0334 -0.3030 -0.4202
 5149SOL    HW126906   1.704   4.301  12.054  0.2914 -0.4972 -0.4333
 5149SOL    HW226907   1.842   4.325  12.093  0.9981  1.5085  0.2489
 5150SOL     OW26908   4.025   0.669  15.654  0.1380 -0.3702  0.4702
 5150SOL    HW126909   3.956   0.705  15.598 -0.0332 -1.4302 -0.0090
 5150SOL    HW226910   4.011   0.575  15.648 -0.3669 -0.1709 -1.7211
 5151SOL     OW26911   3.787   1.760  16.222 -0.3291  0.3518 -0.2255
 5151SOL    HW126912   3.826   1.771  16.135 -1.1803  0.0099 -0.6497
 5151SOL    HW226913   3.807   1.843  16.266 -1.4153  0.5285 -0.0652
 5152SOL     OW26914   3.572   4.671   1.769 -0.1685  0.9823  0.2408
 5152SOL    HW126915   3.649   4.716   1.734 -0.1877  1.2479  0.5404
 5152SOL    HW226916   3.598   4.581   1.750  0.0063  1.3434 -1.2228
 5153SOL     OW26917   2.089   3.879   0.544  0.3215 -0.6766  0.0326
 5153SOL    HW126918   2.182   3.879   0.565 -0.0741 -0.8028  1.7396
 5153SOL    HW226919   2.084   3.889   0.448  2.5614 -0.6206 -0.0677
 5154SOL     OW26920   2.137   3.511   4.203 -0.5706 -0.6884 -0.3027
 5154SOL    HW126921   2.154   3.597   4.164  0.6826 -0.8245 -0.0620
 5154SOL    HW226922   2.101   3.537   4.288  0.7714 -2.6978  0.8862
 5155SOL     OW26923   0.983   4.595   2.374 -0.0691  0.1089  0.5854
 5155SOL    HW126924   0.905   4.556   2.333  1.2851 -1.5919 -0.4041
 5155SOL    HW226925   1.043   4.521   2.361 -0.3162  0.1081 -0.5165
 5156SOL     OW26926   2.353   0.769   4.590 -0.3978  0.1677  0.1179
 5156SOL    HW126927   2.394   0.841   4.638 -0.7589  0.0552  0.5895
 5156SOL    HW226928   2.279   0.810   4.545 -2.0799  1.5511  4.2105
 5157SOL     OW26929   4.623   1.028   5.851  0.0199 -0.1533 -0.4693
 5157SOL    HW126930   4.592   0.968   5.918 -3.0011 -2.6641 -4.1108
 5157SOL    HW226931   4.634   0.957   5.788  0.6193 -0.8058  0.3699
 5158SOL     OW26932   2.922   2.770   5.061 -0.0048 -0.0491  0.0276
 5158SOL    HW126933   3.007   2.760   5.018  1.6578  1.0431  3.0519
 5158SOL    HW226934   2.870   2.794   4.984 -1.4214  0.9672  1.2917
 5159SOL     OW26935   1.450   1.495   4.477  0.8324 -1.0642  0.4999
 5159SOL    HW126936   1.536   1.465   4.447 -0.0873 -2.8516 -0.3526
 5159SOL    HW226937   1.457   1.469   4.569 -0.5094 -2.4177  0.2050
 5160SOL     OW26938   4.348   3.533   2.032  0.2271 -0.5602  0.1367
 5160SOL    HW126939   4.369   3.507   1.942 -0.2871 -0.1707 -0.1014
 5160SOL    HW226940   4.340   3.628   2.022 -1.6550 -0.8351 -1.0350
 5161SOL     OW26941   2.281   3.085   4.806 -0.2528 -0.2605 -0.1417
 5161SOL    HW126942   2.303   3.129   4.888 -2.5992  0.7696 -0.0480
 5161SOL    HW226943   2.294   3.160   4.749  0.4916 -1.9064 -2.1221
 5162SOL     OW26944   1.514   4.709   9.716 -0.2282 -0.1743 -1.0807
 5162SOL    HW126945   1.514   4.719   9.811 -2.7230  0.6629 -1.1514
 5162SOL    HW226946   1.421   4.687   9.713 -0.5497  1.5138 -3.4522
 5163SOL     OW26947   3.551   4.075   4.084 -0.2034  0.2554  0.3923
 5163SOL    HW126948   3.516   4.142   4.026  1.9521  1.1507  0.1310
 5163SOL    HW226949   3.491   4.007   4.054 -0.9724  0.4729  1.4307
 5164SOL     OW26950   0.776   2.497  16.335 -0.3249 -0.4335  0.3582
 5164SOL    HW126951   0.823   2.562  16.387  1.3793 -3.2647  2.3962
 5164SOL    HW226952   0.829   2.508  16.256 -0.6929  1.1723  0.3376
 5165SOL     OW26953   0.150   1.539  12.494 -0.5532 -0.2052  0.3521
 5165SOL    HW126954   0.121   1.449  12.476  0.2869 -0.0411 -1.9032
 5165SOL    HW226955   0.240   1.535  12.462 -0.8928  1.0500 -0.7716
 5166SOL     OW26956   4.378   4.686   2.981  0.1143  0.4821 -0.1316
 5166SOL    HW126957   4.405   0.055   2.981  1.8594 -0.0351  1.2110
 5166SOL    HW226958   4.296   4.687   2.931  1.1228  0.1176 -1.7763
 5167SOL     OW26959   3.014   0.022   5.630 -0.5429 -0.3089  0.2349
 5167SOL    HW126960   2.977   0.109   5.616 -0.4077 -0.4546 -1.0244
 5167SOL    HW226961   3.077   0.027   5.558 -0.0580  1.9325  0.7868
 5168SOL     OW26962   3.357   0.254   8.561 -0.5275 -0.5525  0.5385
 5168SOL    HW126963   3.341   0.341   8.598  1.6817  0.6221 -1.2241
 5168SOL    HW226964   3.280   0.250   8.504  0.0370  1.4461 -0.3795
 5169SOL     OW26965   2.938   1.154  11.865 -0.6685  0.7924 -0.6067
 5169SOL    HW126966   2.934   1.063  11.837 -2.2031  0.4937  0.5786
 5169SOL    HW226967   3.020   1.187  11.827  0.6780 -0.4828  1.2244
 5170SOL     OW26968   1.959   3.755   7.588  0.6211  0.0718  0.1092
 5170SOL    HW126969   1.923   3.820   7.528  1.6143  1.1079  0.6464
 5170SOL    HW226970   1.883   3.699   7.602 -0.4692  1.3694 -0.6939
 5171SOL     OW26971   4.559   4.042  10.006 -0.1355  0.4310 -0.1337
 5171SOL    HW126972   4.649   4.074  10.012  0.6992 -2.0352  0.5664
 5171SOL    HW226973   4.527   4.044  10.096  1.5966  1.0442  0.4764
 5172SOL     OW26974   1.694   3.089   8.061 -0.1900 -0.4822  0.0936
 5172SOL    HW126975   1.753   3.078   8.136 -1.4798  1.9063  1.4669
 5172SOL    HW226976   1.732   3.166   8.020  0.1616 -1.2546 -1.0427
 5173SOL     OW26977   0.599   1.231   3.712  0.5195 -0.0505  0.0818
 5173SOL    HW126978   0.504   1.226   3.704  0.7662 -1.4724 -1.7709
 5173SOL    HW226979   0.601   1.259   3.804 -1.8264  0.1062  0.0911
 5174SOL     OW26980   4.300   0.729   8.052  0.4416  0.1882  0.3139
 5174SOL    HW126981   4.357   0.803   8.075  0.3276  0.1370  0.7665
 5174SOL    HW226982   4.314   0.722   7.958  1.7839 -3.3824  0.7978
 5175SOL     OW26983   3.584   0.331   7.303 -0.8182 -0.4606 -0.1250
 5175SOL    HW126984   3.610   0.408   7.353  0.3034 -1.7401  1.2718
 5175SOL    HW226985   3.505   0.358   7.256 -1.2779  1.0230  1.4884
 5176SOL     OW26986   0.616   2.032   7.808 -0.3867  0.1170  0.0891
 5176SOL    HW126987   0.535   2.019   7.759  0.7415 -0.4142 -1.6647
 5176SOL    HW226988   0.616   1.961   7.871 -2.7461 -1.3441 -1.5642
 5177SOL     OW26989   2.559   3.692   5.995  0.1694 -0.2121 -0.2293
 5177SOL    HW126990   2.471   3.667   5.968  0.8740 -0.4931 -2.2069
 5177SOL    HW226991   2.538   3.736   6.078  2.4013 -1.3698  0.9522
 5178SOL     OW26992   2.161   1.253  13.973  0.2242 -0.2703  0.0011
 5178SOL    HW126993   2.076   1.227  13.937 -1.3353  2.0863  1.9619
 5178SOL    HW226994   2.223   1.227  13.905  0.9433 -1.5968  1.1586
 5179SOL     OW26995   1.249   1.887   6.370  0.8851  0.2228  0.1955
 5179SOL    HW126996   1.342   1.866   6.373  0.6955 -0.7503 -0.4912
 5179SOL    HW226997   1.207   1.833   6.437  0.8991  0.4438  0.3796
 5180SOL     OW26998   0.772   2.468   6.824 -0.2887 -0.1453 -0.1735
 5180SOL    HW126999   0.792   2.465   6.730 -1.5776 -0.6121 -0.4411
 5180SOL    HW227000   0.719   2.548   6.832  0.5759  0.2674  1.2515
 5181SOL     OW27001   0.212   0.680  15.278 -0.4958 -0.0570  0.3642
 5181SOL    HW127002   0.295   0.708  15.316 -0.5294 -0.6877  0.8983
 5181SOL    HW227003   0.240   0.682  15.186  0.4991  0.8584  0.6849
 5182SOL     OW27004   0.194   0.803   9.312  0.5132  0.4539 -0.5594
 5182SOL    HW127005   0.180   0.863   9.386  0.8922  0.7283 -0.7127
 5182SOL    HW227006   0.152   0.726   9.350 -0.2270  0.6446 -0.9944
 5183SOL     OW27007   1.668   2.167  16.090 -0.1948 -0.0320  0.1958
 5183SOL    HW127008   1.704   2.156  16.178  0.1725  1.8024  0.2778
 5183SOL    HW227009   1.651   2.078  16.060 -0.4697 -0.0275  0.3407
 5184SOL     OW27010   2.033   1.295  11.067 -0.2288 -0.2059 -0.0790
 5184SOL    HW127011   1.971   1.263  11.132 -0.3779  0.4745  0.1187
 5184SOL    HW227012   2.011   1.388  11.079 -0.1162 -0.2504  0.4646
 5185SOL     OW27013   0.318   0.165   3.397  0.3189  0.0823  1.1170
 5185SOL    HW127014   0.339   0.239   3.339 -0.1412  0.8095  1.8779
 5185SOL    HW227015   0.241   0.133   3.351 -1.0009  2.3419  1.7270
 5186SOL     OW27016   2.209   1.001  15.016 -0.5807  0.2366  0.4703
 5186SOL    HW127017   2.155   1.073  14.987 -1.1771 -0.5534 -0.3517
 5186SOL    HW227018   2.227   0.958  14.933 -0.8247 -0.0297  0.5529
 5187SOL     OW27019   1.034   3.095   9.426 -0.3144  0.3797 -0.1983
 5187SOL    HW127020   1.099   3.139   9.371 -1.2750 -0.0449 -1.6939
 5187SOL    HW227021   1.056   3.131   9.512  1.6048  1.7336 -1.2591
 5188SOL     OW27022   1.104   3.992  13.364 -0.0305  0.3245 -0.1152
 5188SOL    HW127023   1.054   4.009  13.284  0.5288 -0.2396 -0.5835
 5188SOL    HW227024   1.183   3.955  13.324  0.0654  1.0329 -0.5860
 5189SOL     OW27025   3.029   0.187   7.950  0.3371  0.1920 -0.2299
 5189SOL    HW127026   3.072   0.221   8.028  2.0657  0.3708 -1.2458
 5189SOL    HW227027   3.049   0.253   7.883  0.0851  0.4870 -0.0140
 5190SOL     OW27028   3.077   0.511   4.458  0.7014  0.1176 -0.5730
 5190SOL    HW127029   3.160   0.481   4.495  1.5169  0.0598 -2.4737
 5190SOL    HW227030   3.056   0.442   4.395 -0.4201 -0.8329  0.8148
 5191SOL     OW27031   2.427   4.133   4.605  0.4118  0.2607  0.0074
 5191SOL    HW127032   2.402   4.219   4.639 -0.4148 -0.3408  0.9237
 5191SOL    HW227033   2.469   4.159   4.523 -1.9724 -1.0043 -1.6139
 5192SOL     OW27034   1.172   0.036  12.930  0.2143  0.0760  0.0795
 5192SOL    HW127035   1.121   0.116  12.919  0.9711  0.4662 -0.6389
 5192SOL    HW227036   1.192   0.017  12.838 -0.2808 -1.7501  0.3566
 5193SOL     OW27037   0.806   3.256   9.782 -0.0971  0.0167  0.2193
 5193SOL    HW127038   0.712   3.240   9.778 -0.5181  2.7248 -1.1735
 5193SOL    HW227039   0.814   3.286   9.691  0.7602  0.3294  0.3942
 5194SOL     OW27040   4.483   1.789   4.390  1.0466  0.3470 -0.7344
 5194SOL    HW127041   4.508   1.841   4.467 -1.4999  0.6536 -0.1167
 5194SOL    HW227042   4.521   1.849   4.326 -3.0622  3.1524 -0.5844
 5195SOL     OW27043   0.460   0.702   9.934 -0.1664  0.0515  0.0873
 5195SOL    HW127044   0.393   0.741   9.878 -1.4317 -2.5471 -0.1969
 5195SOL    HW227045   0.483   0.626   9.881 -0.5274  0.1511 -0.2076
 5196SOL     OW27046   0.579   0.757   7.126 -0.7153 -0.5574 -0.3124
 5196SOL    HW127047   0.600   0.846   7.100  1.2001 -1.4761 -1.9071
 5196SOL    HW227048   0.608   0.709   7.048 -1.0815  0.9803 -1.3885
 5197SOL     OW27049   4.614   3.686  11.907 -0.1899 -0.0131  0.3860
 5197SOL    HW127050   4.671   3.644  11.972 -0.7271 -0.5056  0.5402
 5197SOL    HW227051   4.559   3.614  11.876 -1.0834  1.4285 -1.3572
 5198SOL     OW27052   0.546   1.744  11.803  0.7541  0.0892  0.6398
 5198SOL    HW127053   0.515   1.775  11.718  1.2664 -2.7109 -0.6005
 5198SOL    HW227054   0.636   1.776  11.798  0.9078 -0.3700  0.4022
 5199SOL     OW27055   1.797   3.903   9.376 -0.5798 -0.3544  0.3822
 5199SOL    HW127056   1.725   3.890   9.438  0.5017  2.2086  2.1590
 5199SOL    HW227057   1.754   3.958   9.312  0.0929 -2.2401 -1.6922
 5200SOL     OW27058   4.390   0.907   4.246  0.6260 -1.0167 -0.1329
 5200SOL    HW127059   4.385   0.950   4.161 -1.2583 -0.6207  0.1618
 5200SOL    HW227060   4.484   0.895   4.252  0.6545 -0.7093 -0.0104
 5201SOL     OW27061   0.619   0.850  15.613 -1.1201 -0.0550  0.1375
 5201SOL    HW127062   0.559   0.871  15.685 -0.1442 -3.1766  1.8631
 5201SOL    HW227063   0.564   0.803  15.549  0.7885  0.9370 -2.2224
 5202SOL     OW27064   3.156   1.349   9.115 -0.0298 -0.4927 -0.0637
 5202SOL    HW127065   3.229   1.399   9.079  0.0277 -0.7842 -0.3489
 5202SOL    HW227066   3.187   1.260   9.101  1.7743 -0.1177  1.4118
 5203SOL     OW27067   0.865   4.335   6.356  0.3190 -0.0992 -0.2200
 5203SOL    HW127068   0.814   4.254   6.346  0.4145 -0.4461  2.2377
 5203SOL    HW227069   0.892   4.337   6.447  0.6619  0.7733 -0.3496
 5204SOL     OW27070   1.449   4.038   7.433  0.5485 -0.3389 -0.0602
 5204SOL    HW127071   1.473   3.953   7.396  2.8307  0.0642  0.4736
 5204SOL    HW227072   1.429   4.091   7.356 -0.8815 -0.2686  0.3625
 5205SOL     OW27073   1.591   3.408   4.680  0.7020  0.1327  0.6934
 5205SOL    HW127074   1.655   3.463   4.725  0.5277 -0.0105  1.1116
 5205SOL    HW227075   1.526   3.470   4.646  1.5256  1.1407  0.9586
 5206SOL     OW27076   2.558   2.419  16.026  0.1629  0.1977 -0.0951
 5206SOL    HW127077   2.607   2.373  15.958 -1.1936 -1.1575 -0.1607
 5206SOL    HW227078   2.621   2.485  16.055 -1.6529  2.6244 -1.6169
 5207SOL     OW27079   4.703   0.345  13.031 -0.1694  0.2235  0.0401
 5207SOL    HW127080   0.018   0.404  12.966 -1.5434  0.1526 -0.8452
 5207SOL    HW227081   4.610   0.356  13.011  0.0706  0.1110 -1.1545
 5208SOL     OW27082   2.378   0.229   3.727 -0.6963  0.0811  0.3135
 5208SOL    HW127083   2.375   0.302   3.790 -1.4317  0.8122 -0.5730
 5208SOL    HW227084   2.308   0.258   3.668 -1.3050 -0.6305  0.6857
 5209SOL     OW27085   4.335   3.180   0.237  0.5491  0.0546 -0.4170
 5209SOL    HW127086   4.344   3.204   0.145  0.7482 -2.4227 -1.0486
 5209SOL    HW227087   4.426   3.181   0.267  0.1121 -0.9223  0.9618
 5210SOL     OW27088   3.432   2.061  12.074 -0.0417 -0.0345  0.0680
 5210SOL    HW127089   3.346   2.036  12.109  0.0893 -1.9271 -0.9124
 5210SOL    HW227090   3.403   2.142  12.034  1.1270 -0.2072 -1.1395
 5211SOL     OW27091   1.165   3.220   9.700 -0.5830  0.4738 -0.6610
 5211SOL    HW127092   1.148   3.311   9.723  0.9513  0.2854  1.2858
 5211SOL    HW227093   1.260   3.216   9.684 -0.5714  1.4500 -0.7888
 5212SOL     OW27094   4.026   3.947   4.617  0.6100 -0.3240 -0.0313
 5212SOL    HW127095   4.108   3.997   4.616 -0.3024  1.2597  2.2488
 5212SOL    HW227096   3.984   3.975   4.536 -1.8947 -4.7908 -0.2560
 5213SOL     OW27097   4.245   4.177   4.414  0.0551 -0.0949  0.0911
 5213SOL    HW127098   4.319   4.237   4.405 -0.3302 -0.0194 -2.7863
 5213SOL    HW227099   4.191   4.218   4.345  0.2392 -1.8883 -1.1202
 5214SOL     OW27100   2.146   3.479   6.194 -0.3190  0.2912  0.1340
 5214SOL    HW127101   2.089   3.411   6.230 -1.6200  0.9065 -0.7540
 5214SOL    HW227102   2.091   3.518   6.126 -0.6316 -0.2336  0.0831
 5215SOL     OW27103   1.112   2.184   4.772 -0.4567 -0.4780  0.1190
 5215SOL    HW127104   1.176   2.116   4.790  0.2455 -0.1958 -1.3160
 5215SOL    HW227105   1.083   2.149   4.688 -0.2133  0.6902 -0.4473
 5216SOL     OW27106   1.580   1.841   6.809 -0.3265  0.5213  0.0243
 5216SOL    HW127107   1.584   1.784   6.885  2.8986  0.6108 -0.1141
 5216SOL    HW227108   1.654   1.804   6.762  0.3508  1.8869  0.0027
 5217SOL     OW27109   2.081   0.134  11.339  0.4869  0.7189 -0.5009
 5217SOL    HW127110   2.148   0.175  11.394  2.7014 -0.9252 -1.9946
 5217SOL    HW227111   2.117   0.147  11.252 -0.6803  0.7477 -0.9708
 5218SOL     OW27112   1.789   4.581   1.112 -0.1429  0.1782 -0.3917
 5218SOL    HW127113   1.832   4.496   1.112 -0.6478 -0.0737  1.4659
 5218SOL    HW227114   1.859   4.629   1.158 -2.2697  2.2592  0.6591
 5219SOL     OW27115   4.693   0.009   7.969 -0.4873 -0.3600  0.6474
 5219SOL    HW127116   4.678   0.089   7.917 -0.4229 -0.7299  0.0574
 5219SOL    HW227117   4.677   4.669   7.899 -1.4402  1.0183 -0.4017
 5220SOL     OW27118   2.781   2.341  10.782 -0.4596  0.0506 -0.0189
 5220SOL    HW127119   2.705   2.293  10.815 -1.1130 -0.5759 -2.4312
 5220SOL    HW227120   2.844   2.328  10.852 -0.0005  0.6573 -0.3197
 5221SOL     OW27121   2.955   0.868   7.509  0.4012  0.2291 -0.0402
 5221SOL    HW127122   3.040   0.849   7.468  1.0536 -0.0302  1.4096
 5221SOL    HW227123   2.946   0.784   7.554 -1.0961  0.0722 -0.6576
 5222SOL     OW27124   0.623   4.585   3.032  0.2589  0.3656 -0.0047
 5222SOL    HW127125   0.712   4.551   3.041  1.1522  2.6115 -0.3563
 5222SOL    HW227126   0.631   4.612   2.940 -2.3263  0.3530 -0.2282
 5223SOL     OW27127   0.262   3.845   2.666  0.5045  0.2350 -0.2159
 5223SOL    HW127128   0.273   3.785   2.592  0.5070 -0.9778  0.7629
 5223SOL    HW227129   0.330   3.909   2.643  1.5377 -0.5456  0.6800
 5224SOL     OW27130   1.405   3.398   2.009  1.0018 -0.8631 -0.1493
 5224SOL    HW127131   1.431   3.372   1.920  0.3081  1.9627 -1.2007
 5224SOL    HW227132   1.403   3.494   2.000  0.4505 -1.1551 -3.1598
 5225SOL     OW27133   2.169   1.014   2.896 -0.5087  0.0490  0.4099
 5225SOL    HW127134   2.114   1.062   2.959 -2.3207 -0.9799 -0.4008
 5225SOL    HW227135   2.102   0.979   2.837  0.2881  0.5838 -0.8119
 5226SOL     OW27136   4.559   3.355   3.801  0.3112  0.1613 -0.2448
 5226SOL    HW127137   4.605   3.272   3.808  1.1410  0.5097 -1.3226
 5226SOL    HW227138   4.517   3.352   3.715 -3.5979  2.5630  1.6285
 5227SOL     OW27139   2.491   4.549   3.622 -0.5333 -0.0175  0.0543
 5227SOL    HW127140   2.481   4.550   3.717  1.1003 -0.6454  0.2343
 5227SOL    HW227141   2.535   4.634   3.615 -1.2273  0.2089 -1.4676
 5228SOL     OW27142   0.328   4.512   8.162  0.3215 -0.2309 -0.0845
 5228SOL    HW127143   0.293   4.585   8.112 -2.3723 -0.3224  1.6709
 5228SOL    HW227144   0.326   4.445   8.093 -1.7478 -1.3286  1.0253
 5229SOL     OW27145   2.323   1.229   9.585 -0.0726  0.1570  0.1478
 5229SOL    HW127146   2.284   1.314   9.609  2.1079  1.4821 -0.9892
 5229SOL    HW227147   2.301   1.174   9.660  0.2101  0.8864  0.7676
 5230SOL     OW27148   2.370   2.309  13.689 -0.0244 -0.5710 -0.0715
 5230SOL    HW127149   2.321   2.227  13.697  0.0221 -0.3543  2.1858
 5230SOL    HW227150   2.345   2.323  13.597  1.3314  1.2427 -0.1516
 5231SOL     OW27151   3.407   0.207   5.988  0.3828  0.0341  0.3878
 5231SOL    HW127152   3.324   0.229   5.945  1.3477 -1.1908 -2.0802
 5231SOL    HW227153   3.408   0.260   6.068  1.5308  0.4975  0.0701
 5232SOL     OW27154   2.336   3.755  14.269  0.7971  0.2315 -0.1058
 5232SOL    HW127155   2.314   3.729  14.180 -0.3104  1.1848 -0.1083
 5232SOL    HW227156   2.325   3.850  14.265 -0.3965  0.2192  2.7974
 5233SOL     OW27157   1.039   1.552   4.559 -0.5705 -1.1333  0.4414
 5233SOL    HW127158   1.056   1.461   4.534  0.9365 -0.2701 -1.6965
 5233SOL    HW227159   1.084   1.555   4.644  0.4354  0.4643 -0.1406
 5234SOL     OW27160   2.905   1.117   2.048 -0.4738  0.0545 -0.2784
 5234SOL    HW127161   2.974   1.131   1.984  0.5749  2.6544  1.4417
 5234SOL    HW227162   2.954   1.066   2.113 -1.5670 -0.7618 -0.0829
 5235SOL     OW27163   0.873   0.791   7.199  0.5183  0.0476  0.0521
 5235SOL    HW127164   0.851   0.697   7.198  0.1800  0.1396 -3.2605
 5235SOL    HW227165   0.822   0.819   7.123  0.7817  1.9839  0.6084
 5236SOL     OW27166   1.225   1.046   3.696  0.0214  0.1890 -0.2218
 5236SOL    HW127167   1.292   1.023   3.631 -0.8624  1.3166 -1.5370
 5236SOL    HW227168   1.212   0.963   3.742  0.3302 -0.1421 -0.7222
 5237SOL     OW27169   1.724   2.725   7.726  0.1697  0.6182  0.0235
 5237SOL    HW127170   1.628   2.727   7.719  0.0655  0.5192  1.4739
 5237SOL    HW227171   1.745   2.810   7.687  3.0466 -0.0459  0.1310
 5238SOL     OW27172   0.320   1.017   8.791  0.7948 -0.3260  0.3381
 5238SOL    HW127173   0.381   1.068   8.845  0.9123  0.4758 -0.5537
 5238SOL    HW227174   0.326   1.067   8.710 -0.7313 -0.9913 -0.1885
 5239SOL     OW27175   1.167   3.654   9.648  0.0776 -0.3691 -0.1104
 5239SOL    HW127176   1.147   3.572   9.693  0.4833 -0.2164  0.3502
 5239SOL    HW227177   1.258   3.655   9.678  0.5650 -1.0198 -1.6009
 5240SOL     OW27178   0.815   3.869  12.660  0.2829  0.5681 -0.5723
 5240SOL    HW127179   0.878   3.937  12.683  0.2702  0.1026  0.8758
 5240SOL    HW227180   0.874   3.823  12.601  0.4655  0.8420 -0.6017
 5241SOL     OW27181   0.036   1.294   5.143  1.0394 -0.3306 -0.0232
 5241SOL    HW127182   4.696   1.223   5.145 -0.9050  1.3242 -2.4169
 5241SOL    HW227183   0.017   1.334   5.228 -1.0125 -0.4870 -0.4131
 5242SOL     OW27184   2.271   1.105   4.161 -0.5001 -0.6248  0.3140
 5242SOL    HW127185   2.260   1.189   4.115  0.1052 -0.9145 -0.3678
 5242SOL    HW227186   2.280   1.140   4.250 -0.9195  3.4531 -1.2165
 5243SOL     OW27187   2.656   1.863  15.391  0.5653  0.0666  0.2759
 5243SOL    HW127188   2.566   1.893  15.407  0.4942  0.5667 -1.1291
 5243SOL    HW227189   2.702   1.942  15.419 -1.3404  1.6547 -1.0856
 5244SOL     OW27190   4.681   1.733  12.546  0.2563  0.4233 -0.2956
 5244SOL    HW127191   4.700   1.756  12.454  0.8319 -0.8303 -0.4970
 5244SOL    HW227192   0.018   1.658  12.551  1.8455  1.7187 -0.0131
 5245SOL     OW27193   4.384   0.725   3.657  0.0959  0.0550 -0.4779
 5245SOL    HW127194   4.300   0.715   3.612  1.7631 -2.8251 -2.9858
 5245SOL    HW227195   4.437   0.704   3.581 -0.1921  0.6143 -0.8374
 5246SOL     OW27196   2.085   2.684  11.302  0.0206  0.3402 -0.7570
 5246SOL    HW127197   2.064   2.717  11.389  1.8270 -1.2304  0.2702
 5246SOL    HW227198   2.162   2.631  11.320 -0.9996 -0.6256  0.6899
 5247SOL     OW27199   0.803   3.138   7.085 -0.1211 -0.0699 -0.2018
 5247SOL    HW127200   0.825   3.110   7.174 -0.8882  1.0434  0.3441
 5247SOL    HW227201   0.745   3.067   7.058  4.4254 -4.1915  0.8648
 5248SOL     OW27202   0.541   4.300  11.185 -0.0390  0.2136 -0.7509
 5248SOL    HW127203   0.532   4.208  11.209  0.8948 -0.4337 -2.8747
 5248SOL    HW227204   0.492   4.342  11.255  0.5895  0.9620 -0.7684
 5249SOL     OW27205   0.912   3.104  10.193  0.8236 -0.6569  0.0179
 5249SOL    HW127206   0.979   3.099  10.261 -0.7932  0.2289  1.6565
 5249SOL    HW227207   0.952   3.166  10.131  0.8375  0.0146  0.6985
 5250SOL     OW27208   0.439   2.113   8.071  0.4368 -0.1058  0.0261
 5250SOL    HW127209   0.428   2.146   8.161 -2.6173  3.0017 -1.4814
 5250SOL    HW227210   0.422   2.190   8.017  0.0643  0.1912  0.5766
 5251SOL     OW27211   0.239   1.544   3.756 -0.0231  0.2118 -0.1342
 5251SOL    HW127212   0.166   1.585   3.709 -1.1481 -0.8791  0.6920
 5251SOL    HW227213   0.297   1.620   3.767  1.2945 -1.0902  1.7617
 5252SOL     OW27214   3.143   2.603  14.746 -0.4977  0.4337 -0.5141
 5252SOL    HW127215   3.147   2.514  14.780 -0.6849  1.1166  1.3215
 5252SOL    HW227216   3.135   2.582  14.653  0.3222 -1.4892 -0.1359
 5253SOL     OW27217   2.448   0.174  17.103 -0.1534 -0.4913 -0.8674
 5253SOL    HW127218   2.395   0.154  17.180  0.1705 -2.3993 -1.1518
 5253SOL    HW227219   2.535   0.160  17.140 -0.5662 -0.3471  0.1635
 5254SOL     OW27220   0.903   0.109   2.784 -0.0510 -0.2818  0.0458
 5254SOL    HW127221   0.962   0.180   2.756 -0.6179  1.0681  2.2718
 5254SOL    HW227222   0.921   0.093   2.877  1.0863 -0.2575 -0.1628
 5255SOL     OW27223   4.234   1.009   8.336 -0.4040  0.1596 -0.2117
 5255SOL    HW127224   4.177   0.933   8.348 -0.0987  0.1455  1.2403
 5255SOL    HW227225   4.171   1.071   8.300 -1.0205 -0.7052 -0.6031
 5256SOL     OW27226   2.102   0.423   5.425 -0.1591 -0.0308  0.0158
 5256SOL    HW127227   2.176   0.483   5.418  0.4476 -0.9107 -1.1350
 5256SOL    HW227228   2.146   0.339   5.435 -2.0488 -1.0587 -0.2733
 5257SOL     OW27229   0.802   2.878   4.243  0.2602  0.1210  0.1887
 5257SOL    HW127230   0.852   2.863   4.163  1.0128  1.9871  0.3185
 5257SOL    HW227231   0.864   2.939   4.285 -1.6788  1.3875  1.2003
 5258SOL     OW27232   3.822   0.076   1.685  0.2071 -0.6186  0.3297
 5258SOL    HW127233   3.876   0.038   1.754 -0.9986 -1.5614  0.7572
 5258SOL    HW227234   3.871   0.072   1.603 -1.8894 -0.0559 -0.9472
 5259SOL     OW27235   3.925   0.688   7.056 -0.1362 -0.6430 -0.5970
 5259SOL    HW127236   3.985   0.678   7.130 -0.9133  0.4955  0.1889
 5259SOL    HW227237   3.983   0.694   6.980 -0.9779 -3.2777 -1.4325
 5260SOL     OW27238   0.910   2.544   8.811  0.0752 -0.5779  0.0445
 5260SOL    HW127239   0.878   2.634   8.817  0.5161 -0.3910 -0.4553
 5260SOL    HW227240   0.832   2.493   8.833 -1.1007  1.5295  0.7767
 5261SOL     OW27241   3.410   2.400  12.483  0.6630  0.3312  0.0791
 5261SOL    HW127242   3.371   2.487  12.476  0.2747  0.0412 -1.4951
 5261SOL    HW227243   3.344   2.345  12.441  2.6581 -1.9239 -0.1244
 5262SOL     OW27244   2.281   3.430   3.724 -0.1873 -0.0292  0.3345
 5262SOL    HW127245   2.267   3.474   3.641  1.4071  0.7724  0.4819
 5262SOL    HW227246   2.340   3.362   3.691  0.2561  1.1546 -1.2838
 5263SOL     OW27247   1.834   3.713   8.992  0.1671 -0.1164  0.2064
 5263SOL    HW127248   1.751   3.701   8.947  1.4241 -0.4503 -2.0292
 5263SOL    HW227249   1.863   3.622   8.985 -0.7749 -0.1660 -3.2473
 5264SOL     OW27250   1.790   3.526   6.392 -0.0832 -0.2781  0.4872
 5264SOL    HW127251   1.729   3.598   6.377 -0.2682 -0.6564 -0.6203
 5264SOL    HW227252   1.762   3.452   6.339  1.7863 -0.9512  0.4412
 5265SOL     OW27253   1.186   0.941  10.394 -0.0516 -0.0759 -0.3624
 5265SOL    HW127254   1.152   0.923  10.482 -1.1387  0.7502 -0.6168
 5265SOL    HW227255   1.247   0.867  10.391  1.7209  1.4402 -1.3959
 5266SOL     OW27256   2.753   1.344   2.039  0.3386  0.1648 -0.7508
 5266SOL    HW127257   2.828   1.284   2.043  0.3314  0.0936 -1.6391
 5266SOL    HW227258   2.779   1.398   2.114  0.0607 -0.8582  0.0787
 5267SOL     OW27259   3.847   2.691  11.019 -0.4000  0.2287  0.1176
 5267SOL    HW127260   3.881   2.771  11.059 -2.9457  1.9956 -1.2712
 5267SOL    HW227261   3.807   2.653  11.097  1.7222  1.4196  1.8035
 5268SOL     OW27262   0.699   1.238   3.412 -0.1042  0.2757 -1.0051
 5268SOL    HW127263   0.732   1.303   3.350  0.8804  1.6936  0.9782
 5268SOL    HW227264   0.750   1.165   3.376  1.6996  1.6920 -1.3377
 5269SOL     OW27265   1.912   4.644   1.696  0.3639 -0.1138 -0.1792
 5269SOL    HW127266   1.884   4.577   1.757 -1.6794  1.9523  1.1711
 5269SOL    HW227267   1.899   4.596   1.614  0.1335  0.0982 -0.2690
 5270SOL     OW27268   4.319   2.861   7.203  0.3452  0.4818  0.1545
 5270SOL    HW127269   4.245   2.913   7.173 -0.5036 -0.4210  0.6817
 5270SOL    HW227270   4.353   2.829   7.119 -0.8468  1.0267 -0.5287
 5271SOL     OW27271   3.270   2.277   9.528  0.0807 -0.1326 -0.0751
 5271SOL    HW127272   3.303   2.192   9.499  2.2189  0.6412  0.0689
 5271SOL    HW227273   3.348   2.328   9.550  1.1394 -1.4344 -0.7736
 5272SOL     OW27274   3.711   1.660  16.541 -0.0782 -0.0892 -0.1176
 5272SOL    HW127275   3.637   1.614  16.580 -1.8673  0.1600 -3.1597
 5272SOL    HW227276   3.777   1.618  16.595  0.0900 -0.5246 -0.6587
 5273SOL     OW27277   3.251   1.228   8.206  0.2628  0.0049 -0.3044
 5273SOL    HW127278   3.161   1.199   8.215  0.8587 -1.6974  0.2680
 5273SOL    HW227279   3.286   1.165   8.270 -0.0734  0.0701 -0.0575
 5274SOL     OW27280   2.263   4.177   1.870  0.5242 -0.4542  0.2610
 5274SOL    HW127281   2.255   4.142   1.781  0.2158  1.1004 -0.3284
 5274SOL    HW227282   2.286   4.095   1.914 -0.0534 -1.2652 -0.9375
 5275SOL     OW27283   4.309   1.845  12.855 -0.3237  0.2916  0.2482
 5275SOL    HW127284   4.369   1.916  12.834 -0.4952  0.4596  0.3214
 5275SOL    HW227285   4.321   1.790  12.778  0.5037  0.1309  0.4971
 5276SOL     OW27286   4.551   1.172   0.728  0.0669 -1.0488 -0.2474
 5276SOL    HW127287   4.542   1.096   0.671  3.1026 -0.3752 -1.6571
 5276SOL    HW227288   4.495   1.237   0.686 -0.2354 -1.3227 -0.2680
 5277SOL     OW27289   0.204   1.889   5.996  0.6688  0.2751  0.0577
 5277SOL    HW127290   0.249   1.907   5.913  0.1690  0.2997 -0.2119
 5277SOL    HW227291   0.280   1.865   6.048 -0.7333  0.7265  2.3385
 5278SOL     OW27292   1.820   4.625  14.107 -0.7134  0.1000  0.1775
 5278SOL    HW127293   1.873   4.697  14.140 -0.8230 -0.2591  1.1627
 5278SOL    HW227294   1.812   4.630  14.012  1.5305  1.9947  0.0870
 5279SOL     OW27295   3.449   3.927   3.113 -0.1820  0.0364 -0.4603
 5279SOL    HW127296   3.430   4.015   3.080  0.2648 -0.3345 -1.7018
 5279SOL    HW227297   3.465   3.939   3.207  1.5166  0.3880 -0.7868
 5280SOL     OW27298   1.143   3.455   9.832 -0.5565 -0.0826  0.1701
 5280SOL    HW127299   1.157   3.519   9.902 -0.1349  0.6847 -0.6205
 5280SOL    HW227300   1.091   3.389   9.878 -1.6374  0.9533  0.4362
 5281SOL     OW27301   3.436   3.332   6.438  0.2092 -0.8160 -0.3261
 5281SOL    HW127302   3.365   3.335   6.502 -0.4945 -0.1321 -1.1484
 5281SOL    HW227303   3.515   3.348   6.490 -0.0745 -1.6123  0.3329
 5282SOL     OW27304   3.444   2.074  16.482 -0.5531  0.3328  0.3025
 5282SOL    HW127305   3.385   2.111  16.417 -1.2805  1.7924  1.8048
 5282SOL    HW227306   3.499   2.151  16.497 -1.3390  0.5421  2.0423
 5283SOL     OW27307   1.753   2.010  12.349  0.2724  0.0397 -0.3045
 5283SOL    HW127308   1.757   1.978  12.440 -2.3325  0.8582  0.0794
 5283SOL    HW227309   1.723   2.099  12.364 -1.7582 -0.3452 -2.2009
 5284SOL     OW27310   3.132   4.512   7.633 -0.0269  0.5623 -0.0489
 5284SOL    HW127311   3.213   4.461   7.636 -1.6282 -1.9889 -0.8223
 5284SOL    HW227312   3.063   4.451   7.660  0.9959 -1.0915 -1.1899
 5285SOL     OW27313   2.386   0.226  11.264  0.3216 -0.1876  0.1017
 5285SOL    HW127314   2.334   0.180  11.198  1.4995 -1.8855  0.3445
 5285SOL    HW227315   2.377   0.170  11.341 -2.2245  0.4068  0.2458
 5286SOL     OW27316   3.468   4.512   5.808 -0.3799  0.1950  0.6557
 5286SOL    HW127317   3.489   4.565   5.732 -0.3402 -0.1302  0.4395
 5286SOL    HW227318   3.476   4.422   5.775 -2.6670  0.1339  0.2562
 5287SOL     OW27319   3.244   4.100  12.763  0.0903 -0.0678  0.0707
 5287SOL    HW127320   3.186   4.032  12.730 -2.9592  2.9480 -0.7622
 5287SOL    HW227321   3.327   4.056  12.782 -0.0731  0.5091  2.1968
 5288SOL     OW27322   0.423   4.599  11.678  0.5300 -0.4163  0.7713
 5288SOL    HW127323   0.387   4.645  11.602  2.4890 -0.1752 -0.0119
 5288SOL    HW227324   0.513   4.574  11.654  0.1712 -1.6827  0.7748
 5289SOL     OW27325   0.193   3.617   5.530 -0.3515 -0.1998 -0.5450
 5289SOL    HW127326   0.244   3.654   5.459 -1.4098  0.0093 -1.1988
 5289SOL    HW227327   0.153   3.539   5.492 -0.1646 -0.3417 -0.4535
 5290SOL     OW27328   4.415   3.790   1.056 -0.5681  0.9258  0.0264
 5290SOL    HW127329   4.435   3.741   0.976  0.6803  1.1031  0.2429
 5290SOL    HW227330   4.319   3.788   1.045 -0.5798 -0.8255  0.5371
 5291SOL     OW27331   0.405   3.016   2.793 -0.1263  0.6293  0.1701
 5291SOL    HW127332   0.400   2.966   2.875 -1.2410 -1.0215 -0.9037
 5291SOL    HW227333   0.463   2.976   2.727  0.0157  0.5620  0.3358
 5292SOL     OW27334   3.409   2.669   7.969 -0.1343 -0.6965 -0.0441
 5292SOL    HW127335   3.444   2.668   7.880  0.0144  1.7912 -0.0180
 5292SOL    HW227336   3.419   2.577   7.991 -1.3498 -0.1784  2.6484
 5293SOL     OW27337   2.607   0.425   5.054 -0.0318  0.0675  0.2424
 5293SOL    HW127338   2.695   0.462   5.064 -0.8165  1.4824  1.8456
 5293SOL    HW227339   2.569   0.491   4.995 -0.8109 -0.8953 -0.3323
 5294SOL     OW27340   4.420   3.394  16.884 -0.1546 -0.5690  0.5471
 5294SOL    HW127341   4.461   3.397  16.797 -1.0301 -0.8188  0.1242
 5294SOL    HW227342   4.384   3.305  16.884 -1.9770  0.1700 -1.0862
 5295SOL     OW27343   0.925   4.453   7.496 -0.4512  0.4925 -0.2009
 5295SOL    HW127344   0.920   4.548   7.485  0.8912  0.6716  0.7194
 5295SOL    HW227345   1.015   4.447   7.465  0.1103  0.2327  1.4872
 5296SOL     OW27346   2.192   1.459   9.637 -0.2657 -0.1029  0.0068
 5296SOL    HW127347   2.132   1.473   9.563  4.6067 -2.6482 -4.4064
 5296SOL    HW227348   2.249   1.532   9.614 -0.9264  0.7661  1.1568
 5297SOL     OW27349   0.907   0.271   7.733  0.3153 -0.7522  0.2612
 5297SOL    HW127350   0.993   0.308   7.717  0.7031 -1.5283  0.5659
 5297SOL    HW227351   0.873   0.273   7.644 -1.8386 -2.7192  1.0295
 5298SOL     OW27352   2.461   2.836   6.771  0.0158 -0.2733  0.0820
 5298SOL    HW127353   2.383   2.830   6.827  0.0706  0.0722  0.1981
 5298SOL    HW227354   2.421   2.835   6.684  0.9840 -0.7958 -0.3495
 5299SOL     OW27355   2.928   0.009  15.264 -0.0907  0.4015  0.3960
 5299SOL    HW127356   2.911   4.640  15.284 -0.2102  0.3786  0.1903
 5299SOL    HW227357   2.888   0.043  15.344  2.7350 -0.1084  2.0644
 5300SOL     OW27358   0.089   2.196   2.831 -0.0464 -0.0304 -0.2282
 5300SOL    HW127359   0.037   2.221   2.754  1.1934  0.6578 -0.8284
 5300SOL    HW227360   0.149   2.270   2.827  1.2741 -1.0347  1.6717
 5301SOL     OW27361   2.351   1.548  13.410  0.3947 -0.4411 -0.3120
 5301SOL    HW127362   2.345   1.584  13.498 -0.8625 -0.2985 -0.4565
 5301SOL    HW227363   2.307   1.617  13.361 -0.9696 -0.5617  0.7451
 5302SOL     OW27364   1.439   3.415   8.052 -0.0616 -0.2250  0.3542
 5302SOL    HW127365   1.456   3.402   8.145 -0.1451  0.2000  0.4308
 5302SOL    HW227366   1.383   3.492   8.038  0.0602  0.1649  2.0480
 5303SOL     OW27367   2.554   2.892   9.956 -0.4998 -0.1807 -0.2095
 5303SOL    HW127368   2.588   2.872  10.043 -0.8787 -0.5976 -0.1630
 5303SOL    HW227369   2.460   2.876   9.963 -1.2504  4.1896 -0.1167
 5304SOL     OW27370   1.538   1.677   6.177  0.2519 -0.3074  0.0662
 5304SOL    HW127371   1.600   1.741   6.143  0.0241  0.0594  0.3350
 5304SOL    HW227372   1.598   1.638   6.241  1.8393  1.6011 -0.2799
 5305SOL     OW27373   3.781   1.613   3.889 -0.0536 -0.4717  0.0832
 5305SOL    HW127374   3.833   1.676   3.839  1.2403 -0.2079  1.7592
 5305SOL    HW227375   3.691   1.644   3.888  0.0744 -0.0668  0.7461
 5306SOL     OW27376   3.447   3.777   4.244  0.3174 -0.4421 -0.0223
 5306SOL    HW127377   3.385   3.834   4.288 -0.2441 -0.8007 -0.3417
 5306SOL    HW227378   3.421   3.690   4.276 -0.6969  0.6899  2.2180
 5307SOL     OW27379   3.239   4.605   5.155  0.3325  0.4888 -0.7022
 5307SOL    HW127380   3.266   4.688   5.115 -1.0451  0.5974 -1.4140
 5307SOL    HW227381   3.169   4.583   5.093 -0.6245 -1.7998  1.1789
 5308SOL     OW27382   2.198   3.983   5.140 -0.0440 -0.3315  0.4986
 5308SOL    HW127383   2.105   3.995   5.119 -0.1563 -0.2332  1.0597
 5308SOL    HW227384   2.227   4.068   5.109  0.6704 -0.7275  0.0849
 5309SOL     OW27385   3.939   4.678   9.214 -1.0113  0.4952  0.5181
 5309SOL    HW127386   4.029   4.648   9.233 -0.9617 -0.1296 -0.7174
 5309SOL    HW227387   3.951   0.050   9.215  0.6201  0.2976 -0.2904
 5310SOL     OW27388   4.592   3.434   2.590  0.0220 -0.0940 -0.0997
 5310SOL    HW127389   4.659   3.374   2.556 -0.7952 -2.2874  2.1579
 5310SOL    HW227390   4.581   3.488   2.512 -0.3308 -0.4642 -0.3090
 5311SOL     OW27391   2.644   3.454  16.567 -0.0295 -0.2738 -0.1578
 5311SOL    HW127392   2.586   3.528  16.580 -2.0757 -1.8887 -0.1319
 5311SOL    HW227393   2.642   3.442  16.472 -0.0017  1.5687 -0.3772
 5312SOL     OW27394   3.482   1.773   4.879  0.1686 -0.3693  0.6378
 5312SOL    HW127395   3.545   1.756   4.948  2.3649 -0.7029 -1.4632
 5312SOL    HW227396   3.516   1.826   4.807 -3.3537  0.1685 -0.6511
 5313SOL     OW27397   4.487   4.181   2.156  0.2102 -0.0962  0.2199
 5313SOL    HW127398   4.399   4.150   2.176 -0.2712  1.0728 -0.0522
 5313SOL    HW227399   4.473   4.176   2.062 -0.0855  2.5273  0.1145
 5314SOL     OW27400   3.616   4.469   7.313  0.2850  0.6759  0.2285
 5314SOL    HW127401   3.532   4.423   7.313  0.4237  0.4230  0.5953
 5314SOL    HW227402   3.657   4.425   7.238  2.0839  0.5965  1.2487
 5315SOL     OW27403   2.275   2.024   8.184  0.5357  0.1875  0.0317
 5315SOL    HW127404   2.338   1.952   8.191  0.1777 -0.0655  0.6380
 5315SOL    HW227405   2.320   2.097   8.227 -1.1282  0.1786  1.7736
 5316SOL     OW27406   2.502   0.447  16.093 -0.3678  0.4945  0.3669
 5316SOL    HW127407   2.519   0.522  16.150  2.0386  0.8302 -0.7504
 5316SOL    HW227408   2.587   0.414  16.062 -0.5606  0.7989 -0.4896
 5317SOL     OW27409   2.183   0.130   6.044 -0.3169  0.0156  0.7207
 5317SOL    HW127410   2.147   0.048   6.009  0.5362  0.1821 -0.5296
 5317SOL    HW227411   2.231   0.086   6.114  1.0873 -2.1435 -1.5932
 5318SOL     OW27412   4.342   4.625   1.821 -0.1729  0.2650 -0.2135
 5318SOL    HW127413   4.301   4.551   1.866 -2.1866  0.9094 -1.0114
 5318SOL    HW227414   4.434   4.597   1.818  0.4955  2.0901  3.1961
 5319SOL     OW27415   3.887   2.669   7.993 -0.2050 -0.2306 -0.1977
 5319SOL    HW127416   3.853   2.722   7.921 -0.9017  1.6075  1.4931
 5319SOL    HW227417   3.977   2.658   7.961  0.6950 -0.8659  2.5985
 5320SOL     OW27418   0.933   4.407  14.668 -0.1820  0.4068  0.3930
 5320SOL    HW127419   0.849   4.443  14.695 -1.6434 -1.6970 -1.3760
 5320SOL    HW227420   0.904   4.344  14.602  3.0124 -0.5947 -0.0486
 5321SOL     OW27421   1.780   1.896   8.663  0.0788  0.6504 -0.4593
 5321SOL    HW127422   1.703   1.871   8.713  0.2600 -1.4641 -1.2345
 5321SOL    HW227423   1.817   1.973   8.707 -0.5429  1.6061 -1.5992
 5322SOL     OW27424   1.778   1.572   3.421  0.2090  0.1947  0.2652
 5322SOL    HW127425   1.871   1.578   3.398  0.1878 -0.4385  0.0152
 5322SOL    HW227426   1.741   1.652   3.382  1.1737  1.3273  1.6710
 5323SOL     OW27427   2.657   0.743  13.878 -0.2141 -0.3240  0.5305
 5323SOL    HW127428   2.646   0.793  13.797 -2.9674 -1.5215  0.1763
 5323SOL    HW227429   2.680   0.655  13.848 -0.9600 -0.2997 -0.1317
 5324SOL     OW27430   2.271   1.139  10.372 -0.0134  0.0372  0.6222
 5324SOL    HW127431   2.309   1.167  10.455  1.2206 -2.1298  0.7907
 5324SOL    HW227432   2.243   1.051  10.398  2.5057 -0.6272  1.1316
 5325SOL     OW27433   1.944   4.693  10.884 -0.2787  0.1978 -0.4392
 5325SOL    HW127434   1.875   0.035  10.886  0.5779  1.0954 -0.2664
 5325SOL    HW227435   1.886   4.619  10.867  2.5389 -1.6390 -2.2059
 5326SOL     OW27436   3.354   0.908   2.183  0.2399 -0.5505  0.1127
 5326SOL    HW127437   3.432   0.862   2.213 -0.1651 -0.5795  1.1182
 5326SOL    HW227438   3.371   0.912   2.089  0.7636  0.8602  0.2651
 5327SOL     OW27439   4.047   1.558  15.329  0.4513 -0.1710  0.4291
 5327SOL    HW127440   4.031   1.509  15.249 -0.2390 -0.5752  0.8194
 5327SOL    HW227441   3.973   1.528  15.381  1.5589  0.6989  2.5228
 5328SOL     OW27442   4.528   3.919   9.038 -0.1443 -0.2832 -0.1536
 5328SOL    HW127443   4.447   3.869   9.038  0.7342 -1.7246  0.4564
 5328SOL    HW227444   4.505   4.007   9.068  0.8183 -1.0512  2.8280
 5329SOL     OW27445   2.550   3.514  14.167 -0.2572  0.2893 -0.0519
 5329SOL    HW127446   2.543   3.535  14.260 -1.4484 -0.8760  0.1047
 5329SOL    HW227447   2.538   3.420  14.169  0.6107  0.1656 -0.3113
 5330SOL     OW27448   1.121   1.376   8.604  0.1098  0.5185  0.3949
 5330SOL    HW127449   1.114   1.459   8.650 -1.4807  1.6048 -1.7799
 5330SOL    HW227450   1.161   1.323   8.673  0.8717  1.3017  0.5470
 5331SOL     OW27451   1.511   2.020   1.258 -0.1729  0.2127  0.6761
 5331SOL    HW127452   1.492   2.040   1.349  1.5843  1.3022  0.8070
 5331SOL    HW227453   1.580   2.083   1.237 -0.6903  0.7022  0.4397
 5332SOL     OW27454   4.700   2.634  10.699 -0.5365 -0.0555 -0.6567
 5332SOL    HW127455   4.630   2.697  10.688 -0.6635  0.0892  1.0399
 5332SOL    HW227456   0.020   2.643  10.614  1.0905  0.3004  0.1922
 5333SOL     OW27457   4.075   1.682   9.854 -0.2225  0.2909  0.6281
 5333SOL    HW127458   4.127   1.727   9.787  0.7527 -2.2184 -0.2855
 5333SOL    HW227459   4.132   1.674   9.930  1.0245  0.3196 -0.3022
 5334SOL     OW27460   0.423   2.590   8.876 -0.0724  0.1693 -0.0759
 5334SOL    HW127461   0.410   2.648   8.800 -1.3565  0.4666  0.3630
 5334SOL    HW227462   0.333   2.584   8.909 -0.2772  0.8781 -0.4797
 5335SOL     OW27463   4.335   4.494   8.692  0.5460 -0.7418 -0.0492
 5335SOL    HW127464   4.315   4.551   8.766  1.1448 -0.4768 -0.0887
 5335SOL    HW227465   4.272   4.424   8.707  2.0929 -1.9960  0.6627
 5336SOL     OW27466   1.803   4.021   0.496 -0.3143 -0.3116  0.2207
 5336SOL    HW127467   1.767   4.019   0.407  0.1082  0.9969  0.0130
 5336SOL    HW227468   1.883   3.969   0.493  0.2107  0.3727  2.4368
 5337SOL     OW27469   1.034   0.320   8.810  0.0839 -1.0355 -0.0380
 5337SOL    HW127470   1.066   0.270   8.734  1.0123 -0.2622 -0.1511
 5337SOL    HW227471   1.104   0.380   8.834 -1.7772  0.4131  1.7875
 5338SOL     OW27472   1.383   4.354   2.185 -0.3283  0.0754 -0.2058
 5338SOL    HW127473   1.454   4.322   2.129 -0.3035 -1.3779  0.6572
 5338SOL    HW227474   1.382   4.448   2.164  1.0790  0.3128  0.7233
 5339SOL     OW27475   2.664   0.786   6.957  0.2664  0.3222 -0.7414
 5339SOL    HW127476   2.722   0.788   6.880 -0.7693 -0.2546 -1.5409
 5339SOL    HW227477   2.627   0.874   6.953  0.2842  0.3263 -0.8366
 5340SOL     OW27478   1.745   4.575   6.726 -0.2599 -0.0554 -0.4105
 5340SOL    HW127479   1.784   4.556   6.812 -3.1124 -1.3192  0.6008
 5340SOL    HW227480   1.791   4.654   6.697  2.1042 -1.0569  0.6144
 5341SOL     OW27481   0.206   2.794   0.594  0.2413 -0.5928  0.1766
 5341SOL    HW127482   0.125   2.764   0.635  0.9615 -1.4164  0.9900
 5341SOL    HW227483   0.244   2.714   0.557  0.5998 -0.0193 -0.6970
 5342SOL     OW27484   0.151   4.081  15.083  0.4305  0.1174  0.4451
 5342SOL    HW127485   0.176   4.031  15.006 -0.3425 -0.5248  0.6081
 5342SOL    HW227486   0.183   4.167  15.055  0.8465  0.1336  0.9575
 5343SOL     OW27487   3.928   2.520  10.813  0.0885  0.7293  0.7614
 5343SOL    HW127488   3.931   2.558  10.725 -1.0672  1.6439  1.1123
 5343SOL    HW227489   3.886   2.590  10.863 -0.3604  0.9787  0.0411
 5344SOL     OW27490   2.997   0.328   3.894 -0.6940  0.1786 -0.2965
 5344SOL    HW127491   2.996   0.365   3.805  0.8831 -0.5754 -0.6374
 5344SOL    HW227492   3.083   0.347   3.930  1.2498  0.4070 -5.0146
 5345SOL     OW27493   2.181   0.144  11.092 -0.0667  0.4920  0.4074
 5345SOL    HW127494   2.174   0.232  11.054 -1.7332 -0.1350 -0.7589
 5345SOL    HW227495   2.202   0.095  11.012  0.8367 -1.2183  1.7240
 5346SOL     OW27496   4.050   1.421   6.188  0.0003 -0.3883  0.3569
 5346SOL    HW127497   3.955   1.427   6.186 -0.0036 -0.1967  1.2133
 5346SOL    HW227498   4.065   1.347   6.247  1.2185  0.2753  0.8804
 5347SOL     OW27499   4.167   3.105   7.140 -0.0690  0.3760  0.1134
 5347SOL    HW127500   4.192   3.181   7.193  0.6982 -0.1626  0.5159
 5347SOL    HW227501   4.245   3.088   7.086  1.4545  2.3017  1.7038
 5348SOL     OW27502   3.184   1.858   3.249  0.4306 -0.2603 -0.7819
 5348SOL    HW127503   3.178   1.763   3.258  1.5834 -0.1437  1.1208
 5348SOL    HW227504   3.210   1.874   3.340  1.2751  1.3350 -1.3010
 5349SOL     OW27505   4.086   4.464   5.308  0.1423  0.0267 -0.2071
 5349SOL    HW127506   4.014   4.449   5.369  0.4588 -0.5173  0.0312
 5349SOL    HW227507   4.033   4.495   5.235  0.7597  1.4056 -0.0613
 5350SOL     OW27508   0.412   2.049   4.663  0.1667 -0.9817 -0.0208
 5350SOL    HW127509   0.449   2.098   4.736  0.6882  0.2459 -1.1241
 5350SOL    HW227510   0.479   2.049   4.595  3.0959  1.2006  2.8751
 5351SOL     OW27511   4.501   0.305   6.451 -0.1690 -0.5507  0.3538
 5351SOL    HW127512   4.542   0.300   6.365  0.0018 -0.6998  0.4413
 5351SOL    HW227513   4.476   0.213   6.457 -0.7246 -0.2683  2.6689
 5352SOL     OW27514   4.221   0.467   3.624  0.2750 -0.2177  0.2102
 5352SOL    HW127515   4.215   0.478   3.529 -2.0116  1.0757  0.4750
 5352SOL    HW227516   4.311   0.442   3.640  0.3173 -0.3039 -0.1668
 5353SOL     OW27517   4.197   0.856  10.623  0.7037 -0.2252  0.2149
 5353SOL    HW127518   4.117   0.804  10.624  0.4853  0.0958 -1.6331
 5353SOL    HW227519   4.161   0.941  10.646  0.8984 -0.1750  0.3372
 5354SOL     OW27520   2.822   2.156   4.234 -0.5138 -0.0586 -0.0180
 5354SOL    HW127521   2.834   2.225   4.298  1.7913 -0.5417  0.0574
 5354SOL    HW227522   2.882   2.191   4.168 -0.4587  0.7530  0.4691
 5355SOL     OW27523   0.485   3.897   9.699 -0.2691 -0.5893  0.3788
 5355SOL    HW127524   0.554   3.953   9.736 -1.4588  1.3585 -0.3757
 5355SOL    HW227525   0.431   3.951   9.642  1.5072  0.3981 -0.3634
 5356SOL     OW27526   0.348   3.269  16.517 -0.5194 -0.4778 -0.0365
 5356SOL    HW127527   0.338   3.288  16.610 -1.4406 -0.0287 -0.2346
 5356SOL    HW227528   0.256   3.253  16.496 -1.2817  1.0848  2.0978
 5357SOL     OW27529   1.241   1.037   8.348  0.3198 -0.0551 -0.2202
 5357SOL    HW127530   1.328   1.047   8.386  0.2289 -1.5520  0.4167
 5357SOL    HW227531   1.258   1.064   8.258  1.7067 -2.4501 -0.6796
 5358SOL     OW27532   1.303   1.767   0.923  0.5204  0.5096 -0.0195
 5358SOL    HW127533   1.321   1.708   0.850  2.7919 -0.6947  1.5165
 5358SOL    HW227534   1.232   1.729   0.976  1.3050 -0.0852  0.6030
 5359SOL     OW27535   3.216   2.369   8.649 -0.1134  0.1435  0.3111
 5359SOL    HW127536   3.192   2.444   8.594 -1.1504 -1.0100 -0.8115
 5359SOL    HW227537   3.297   2.400   8.688  0.6993 -2.1192  0.4058
 5360SOL     OW27538   3.126   0.251  14.549  0.1871  0.6695  0.4115
 5360SOL    HW127539   3.161   0.222  14.633  0.1156 -0.6724 -0.0122
 5360SOL    HW227540   3.063   0.318  14.574 -0.1214  1.0186 -1.2741
 5361SOL     OW27541   4.370   4.357   3.881  0.4910 -0.5688 -0.1173
 5361SOL    HW127542   4.361   4.410   3.802  0.5483 -4.2851 -2.5519
 5361SOL    HW227543   4.387   4.268   3.852  1.1894  0.0347 -1.5703
 5362SOL     OW27544   0.581   2.937   8.375  0.1380 -0.7261  0.2421
 5362SOL    HW127545   0.668   2.972   8.394 -0.7028  0.0699  2.5795
 5362SOL    HW227546   0.564   2.970   8.287 -0.8224 -2.5349 -0.2675
 5363SOL     OW27547   0.051   0.091   3.323 -0.3350 -0.3010  0.0511
 5363SOL    HW127548   0.004   0.160   3.369 -0.5411 -0.4610  0.0783
 5363SOL    HW227549   0.000   0.015   3.352 -0.5205 -0.8376 -1.6924
 5364SOL     OW27550   3.866   2.241   5.442  0.4757  0.1163  0.0229
 5364SOL    HW127551   3.876   2.146   5.446  0.1321 -0.0480 -3.1586
 5364SOL    HW227552   3.929   2.277   5.505  0.5248 -0.2546  0.1862
 5365SOL     OW27553   3.044   1.831   4.139  0.2116 -0.1910  0.1767
 5365SOL    HW127554   3.105   1.850   4.210  0.1485  0.7600 -0.0304
 5365SOL    HW227555   3.113   1.841   4.073 -0.2294 -2.2969 -0.6116
 5366SOL     OW27556   1.945   2.313   0.531  0.3303  0.0264 -0.3353
 5366SOL    HW127557   1.859   2.353   0.518  0.0581 -1.1162 -2.0022
 5366SOL    HW227558   1.974   2.365   0.606 -2.2558  2.0802 -0.7893
 5367SOL     OW27559   0.749   3.914   5.362 -0.1274 -0.1117 -0.4746
 5367SOL    HW127560   0.745   3.925   5.267 -1.4605  2.2027 -0.1628
 5367SOL    HW227561   0.657   3.928   5.388  0.0789  0.4947 -0.0553
 5368SOL     OW27562   4.371   0.889   2.333 -1.1048 -0.0113 -0.1435
 5368SOL    HW127563   4.317   0.930   2.265  0.2818  0.8149 -0.7339
 5368SOL    HW227564   4.458   0.910   2.298 -1.0572  1.0363  0.6100
 5369SOL     OW27565   2.769   0.388  14.554  0.0801 -0.7221  0.2019
 5369SOL    HW127566   2.818   0.398  14.472  0.4028  2.2227  0.7420
 5369SOL    HW227567   2.715   0.466  14.565  0.6931 -0.1777 -0.6129
 5370SOL     OW27568   1.833   3.383   2.003  0.5963  0.5720  0.6325
 5370SOL    HW127569   1.922   3.392   1.969  0.8189 -0.7070  0.8446
 5370SOL    HW227570   1.776   3.417   1.934 -0.6118  0.2993  1.4824
 5371SOL     OW27571   2.330   1.342   8.157  0.4629 -0.0831 -0.0233
 5371SOL    HW127572   2.276   1.353   8.078 -0.4017 -2.4019  0.2248
 5371SOL    HW227573   2.250   1.330   8.208 -0.4199 -0.1850 -1.4182
 5372SOL     OW27574   3.424   0.867   0.185 -0.2608 -0.5199  0.3638
 5372SOL    HW127575   3.358   0.851   0.118  0.3715  0.1635 -0.4278
 5372SOL    HW227576   3.383   0.926   0.247  0.2721  0.4604 -0.2214
 5373SOL     OW27577   2.440   1.801   7.578  0.5629  0.0612 -0.2379
 5373SOL    HW127578   2.492   1.739   7.526 -0.3355  0.2263 -1.3379
 5373SOL    HW227579   2.360   1.752   7.597 -0.2172  0.8407 -1.5832
 5374SOL     OW27580   0.262   0.402   8.548 -0.2253  0.3170  0.3979
 5374SOL    HW127581   0.326   0.382   8.615 -1.7418 -1.6905  1.2412
 5374SOL    HW227582   0.184   0.360   8.584 -1.0930  1.2861 -0.3411
 5375SOL     OW27583   0.489   2.700  12.305  0.2013 -0.0850 -0.3300
 5375SOL    HW127584   0.405   2.681  12.346  0.1003  1.5501  0.1991
 5375SOL    HW227585   0.486   2.794  12.290  1.3097 -0.0890 -0.5908
 5376SOL     OW27586   0.446   3.120   4.525  0.4279  0.0175  0.3911
 5376SOL    HW127587   0.428   3.142   4.617  0.0308 -1.3451  0.6312
 5376SOL    HW227588   0.388   3.046   4.507  0.0205  0.5392 -0.4146
 5377SOL     OW27589   1.243   3.381   8.576  0.3264  0.2475  0.4092
 5377SOL    HW127590   1.302   3.306   8.576 -1.6187 -1.2669 -1.0370
 5377SOL    HW227591   1.310   3.450   8.575  0.5895 -0.0215 -0.5054
 5378SOL     OW27592   3.206   1.609   6.393 -0.2863  0.0018  0.2045
 5378SOL    HW127593   3.212   1.526   6.439 -0.8951  0.8734  1.8495
 5378SOL    HW227594   3.178   1.578   6.307  2.0415  0.4081 -0.7039
 5379SOL     OW27595   0.070   4.518   8.344  0.4338  0.0225 -0.1615
 5379SOL    HW127596   0.086   4.582   8.414 -2.3187 -0.4153  0.8620
 5379SOL    HW227597   0.137   4.524   8.276  0.1014 -1.3508 -0.5958
 5380SOL     OW27598   0.705   0.332  10.553  0.0215 -0.5365  0.3041
 5380SOL    HW127599   0.650   0.265  10.512  2.2422 -1.7325 -0.7241
 5380SOL    HW227600   0.689   0.406  10.494  0.5198 -1.6584 -1.2484
 5381SOL     OW27601   1.325   3.976   3.408 -0.0468  0.0185  0.0805
 5381SOL    HW127602   1.325   3.965   3.503  0.3324 -0.9910 -0.0347
 5381SOL    HW227603   1.276   4.056   3.391  0.0853 -0.0860 -0.7857
 5382SOL     OW27604   2.399   0.466   0.369 -0.2176 -0.3569  0.3013
 5382SOL    HW127605   2.359   0.455   0.455  1.0014  0.1564  0.9279
 5382SOL    HW227606   2.352   0.543   0.337 -0.3098 -0.5214  0.0382
 5383SOL     OW27607   1.664   4.635  13.476 -0.2569  0.5103 -0.3784
 5383SOL    HW127608   1.588   4.609  13.424  0.1830  1.0830 -1.3044
 5383SOL    HW227609   1.651   0.006  13.471 -1.0244  0.4754  0.8940
 5384SOL     OW27610   3.770   1.431   7.875  0.2675  0.0055  0.2322
 5384SOL    HW127611   3.680   1.409   7.851  0.0024  0.3694  0.9073
 5384SOL    HW227612   3.780   1.357   7.934 -1.2949 -1.8175 -1.7801
 5385SOL     OW27613   4.632   4.568   8.789 -0.8071  0.3085 -0.6785
 5385SOL    HW127614   4.554   4.598   8.743 -0.5206 -0.1108 -1.4508
 5385SOL    HW227615   4.578   4.518   8.850 -0.8102  1.0062 -0.1111
 5386SOL     OW27616   1.125   2.447   6.618  0.2426 -0.2393  0.0934
 5386SOL    HW127617   1.214   2.457   6.584  0.5480  1.5373  1.4495
 5386SOL    HW227618   1.126   2.351   6.613  2.1481 -0.1477 -1.3879
 5387SOL     OW27619   3.192   1.813   4.391 -0.3113  0.0190 -0.0350
 5387SOL    HW127620   3.220   1.727   4.360  1.5974  0.6087  0.0633
 5387SOL    HW227621   3.166   1.788   4.480  2.2136  1.6275  1.1648
 5388SOL     OW27622   2.708   1.791   0.437 -0.3519 -0.1708  0.3809
 5388SOL    HW127623   2.669   1.798   0.524 -0.6300 -0.3527  0.2714
 5388SOL    HW227624   2.704   1.697   0.422  0.6223 -0.0790 -0.4619
 5389SOL     OW27625   1.211   3.328   4.401 -0.5065 -0.0252 -0.2050
 5389SOL    HW127626   1.298   3.301   4.431 -2.1457 -2.3809  2.3855
 5389SOL    HW227627   1.161   3.335   4.482  1.6824  0.5343  1.0904
 5390SOL     OW27628   3.699   3.131  15.884 -0.3199 -0.2451 -0.0167
 5390SOL    HW127629   3.740   3.180  15.955 -0.3798  0.1812 -0.2731
 5390SOL    HW227630   3.633   3.195  15.857  1.3371  1.6504  0.3859
 5391SOL     OW27631   4.185   3.621   6.767  0.5536  0.0028  0.4547
 5391SOL    HW127632   4.271   3.579   6.756  0.4217  0.0174 -0.6804
 5391SOL    HW227633   4.199   3.704   6.723 -0.2437  2.2053  4.3895
 5392SOL     OW27634   2.888   1.801   1.580 -0.3176  0.6302  0.1607
 5392SOL    HW127635   2.883   1.884   1.628 -1.5965  0.2097  0.7549
 5392SOL    HW227636   2.850   1.739   1.643  0.0527 -0.7183 -0.9438
 5393SOL     OW27637   0.648   0.980   8.492  0.3702 -0.6230 -0.1575
 5393SOL    HW127638   0.608   0.913   8.437  3.0245 -0.4920 -2.2383
 5393SOL    HW227639   0.700   1.022   8.424  2.0362  0.0104  1.5172
 5394SOL     OW27640   4.074   1.231   0.315 -0.1491 -0.1437 -0.0173
 5394SOL    HW127641   4.020   1.154   0.332 -1.5330  1.1851  1.6207
 5394SOL    HW227642   4.052   1.289   0.388 -1.6242 -1.8366  0.8774
 5395SOL     OW27643   3.103   2.558  14.476  0.7167 -0.0875 -0.4147
 5395SOL    HW127644   3.130   2.578  14.387 -1.1833 -0.5552 -1.0961
 5395SOL    HW227645   3.040   2.487  14.463  0.1792  0.6130 -1.6033
 5396SOL     OW27646   1.169   3.881   4.726  0.3982 -0.9700 -0.2236
 5396SOL    HW127647   1.155   3.885   4.821 -1.3402 -0.4034 -0.4955
 5396SOL    HW227648   1.262   3.893   4.707  0.3207 -0.8487 -0.5291
 5397SOL     OW27649   4.414   2.077   2.439  0.3879 -0.1544  0.3557
 5397SOL    HW127650   4.416   2.020   2.515 -0.1257 -2.3523 -1.2803
 5397SOL    HW227651   4.408   2.164   2.480  1.5040  0.6866 -1.2334
 5398SOL     OW27652   3.190   0.044  16.779 -0.1281 -0.1627 -0.4522
 5398SOL    HW127653   3.239   0.109  16.729  0.5101  0.5211  1.0380
 5398SOL    HW227654   3.263   0.005  16.829  1.1482  0.6467 -1.6846
 5399SOL     OW27655   2.488   0.991  15.496  0.7272  0.0243  0.5646
 5399SOL    HW127656   2.541   1.067  15.471  1.0921 -0.3795  0.1175
 5399SOL    HW227657   2.403   1.010  15.455 -0.2130 -1.3443  1.9014
 5400SOL     OW27658   0.139   4.514  12.396 -0.9046  0.3641  0.1558
 5400SOL    HW127659   0.138   4.591  12.340 -1.1635 -1.1110 -1.8749
 5400SOL    HW227660   0.092   4.445  12.349 -1.4919  0.3214  0.8061
 5401SOL     OW27661   4.352   4.381   2.640  0.1276 -0.1667 -0.0222
 5401SOL    HW127662   4.366   4.349   2.551 -0.4311  0.6332 -0.3905
 5401SOL    HW227663   4.257   4.390   2.647 -0.0741 -2.7187  0.8901
 5402SOL     OW27664   3.064   3.707   5.613  0.4046 -0.7261  0.1202
 5402SOL    HW127665   3.141   3.727   5.560  0.2225  1.3414  0.6246
 5402SOL    HW227666   3.007   3.676   5.543  0.5893 -2.1812  0.6186
 5403SOL     OW27667   0.959   0.936   5.879 -0.0523  0.0526 -0.3436
 5403SOL    HW127668   1.037   0.958   5.931 -0.6817  2.6715 -0.5180
 5403SOL    HW227669   0.904   0.885   5.939  0.8750  0.1863  0.6154
 5404SOL     OW27670   1.487   3.220  13.521  0.1860  0.0637  0.4025
 5404SOL    HW127671   1.479   3.287  13.454  0.7806  1.3490  1.5964
 5404SOL    HW227672   1.533   3.261  13.595 -0.4039 -0.3300  0.9929
 5405SOL     OW27673   1.636   1.262   7.494 -0.2819 -0.1970 -0.1706
 5405SOL    HW127674   1.665   1.284   7.406 -0.6629 -3.2650 -1.0661
 5405SOL    HW227675   1.606   1.173   7.476 -0.8511 -0.1424  0.4981
 5406SOL     OW27676   3.065   3.807   8.714 -0.1513 -0.2938  0.5064
 5406SOL    HW127677   3.140   3.806   8.654 -0.8923  1.4875 -0.4741
 5406SOL    HW227678   3.022   3.723   8.698 -1.2114 -0.2902  3.4782
 5407SOL     OW27679   1.549   3.254   2.640 -0.0661 -0.2749 -0.0514
 5407SOL    HW127680   1.631   3.232   2.596 -0.8511 -0.0560 -1.6092
 5407SOL    HW227681   1.526   3.343   2.614 -0.5660 -0.2342  0.5314
 5408SOL     OW27682   3.413   0.769  16.514  0.1106 -0.2628 -0.5795
 5408SOL    HW127683   3.321   0.763  16.490  0.1965 -0.5093 -0.8462
 5408SOL    HW227684   3.452   0.684  16.491 -1.0127 -0.7659 -0.6131
 5409SOL     OW27685   2.933   3.209   7.892 -0.2161 -0.6232 -0.8462
 5409SOL    HW127686   2.875   3.262   7.837 -3.6443 -0.2130  3.0963
 5409SOL    HW227687   2.972   3.273   7.952  0.7726 -0.6771 -1.4434
 5410SOL     OW27688   3.980   1.434   5.323  0.5898 -0.4754 -0.1562
 5410SOL    HW127689   3.956   1.389   5.243  0.2126 -1.9628  0.7940
 5410SOL    HW227690   4.073   1.435   5.301  0.4469  0.7824 -0.7141
 5411SOL     OW27691   4.151   1.624   5.031 -0.0395 -0.1483 -0.2696
 5411SOL    HW127692   4.113   1.711   5.029  0.0597 -0.0517  1.4249
 5411SOL    HW227693   4.091   1.568   4.982  1.7417 -1.0311 -1.4768
 5412SOL     OW27694   3.028   3.672   7.878 -0.2913 -0.2759 -0.0815
 5412SOL    HW127695   3.015   3.717   7.795 -0.7919 -0.9679 -0.3741
 5412SOL    HW227696   3.007   3.747   7.933  2.5824  0.2391  0.3492
 5413SOL     OW27697   2.320   0.046  11.494 -0.0253  0.3014 -0.6693
 5413SOL    HW127698   2.356   4.681  11.478  0.0268 -0.0425  1.3257
 5413SOL    HW227699   2.260   0.016  11.562  0.6299 -0.0838 -0.2561
 5414SOL     OW27700   3.587   3.642   0.401  0.0683 -0.4529 -0.1103
 5414SOL    HW127701   3.618   3.553   0.384  0.3926 -0.5258  0.8621
 5414SOL    HW227702   3.502   3.645   0.358 -0.5573  0.6343  1.2052
 5415SOL     OW27703   1.262   3.059  15.964  0.1756 -0.1524 -0.3215
 5415SOL    HW127704   1.292   2.985  15.912  0.9953 -0.5094  0.6638
 5415SOL    HW227705   1.208   3.017  16.031 -1.2224  0.2661 -1.1806
 5416SOL     OW27706   1.796   4.131   0.746  0.5583  0.1739 -0.2325
 5416SOL    HW127707   1.809   4.109   0.653 -0.4903 -0.8135 -0.1450
 5416SOL    HW227708   1.876   4.178   0.770  2.0332 -1.6733 -1.4125
 5417SOL     OW27709   0.926   2.800   2.506 -0.6984  0.4273 -0.5727
 5417SOL    HW127710   0.947   2.877   2.454  2.8655 -0.7983 -0.8752
 5417SOL    HW227711   0.868   2.840   2.572  1.2306  0.5064  1.0687
 5418SOL     OW27712   2.387   4.202  10.586 -0.5604 -0.0244  0.1244
 5418SOL    HW127713   2.435   4.220  10.666 -2.1568  0.7068  0.9115
 5418SOL    HW227714   2.377   4.288  10.546  0.4000  0.2029  0.3918
 5419SOL     OW27715   3.425   4.221   7.549 -0.3001 -0.0429  0.2465
 5419SOL    HW127716   3.398   4.280   7.619 -0.2728  0.9137 -0.5495
 5419SOL    HW227717   3.351   4.160   7.549  0.4701 -0.9906 -1.1275
 5420SOL     OW27718   4.098   3.420   5.253 -0.6686 -0.0196 -0.2343
 5420SOL    HW127719   4.127   3.367   5.179  0.1925 -2.4619  1.8600
 5420SOL    HW227720   4.111   3.510   5.225  0.6476  0.3962  1.6960
 5421SOL     OW27721   3.854   0.462   6.940  0.7763 -0.9384  0.3855
 5421SOL    HW127722   3.858   0.543   6.991  0.8325 -0.2630 -0.6825
 5421SOL    HW227723   3.759   0.456   6.937  0.6251  1.5636 -0.2724
 5422SOL     OW27724   0.131   2.486   8.681 -0.5140  0.4296 -0.2527
 5422SOL    HW127725   0.205   2.471   8.623 -0.8112 -0.2890 -0.4490
 5422SOL    HW227726   0.148   2.573   8.717 -0.4486 -0.7754  2.6676
 5423SOL     OW27727   1.294   2.747   1.774 -0.9041 -0.1008  0.0685
 5423SOL    HW127728   1.318   2.787   1.690  1.4559 -0.1531  0.7123
 5423SOL    HW227729   1.352   2.789   1.838  0.3136 -2.7303  0.7240
 5424SOL     OW27730   0.542   0.213   7.751  0.3797  0.6520 -0.3084
 5424SOL    HW127731   0.501   0.135   7.715  4.3711 -2.1279  1.1483
 5424SOL    HW227732   0.498   0.280   7.699 -0.4104 -0.3838 -0.9581
 5425SOL     OW27733   2.927   0.882  13.507 -0.3479 -0.2102  0.2201
 5425SOL    HW127734   3.011   0.899  13.463  0.8416 -3.0641  1.3778
 5425SOL    HW227735   2.960   0.858  13.594  1.0543  2.8303  0.5218
 5426SOL     OW27736   0.915   0.405   8.406 -0.2449  0.9302 -0.2995
 5426SOL    HW127737   0.933   0.314   8.428 -0.1099  1.4842  1.9058
 5426SOL    HW227738   0.925   0.401   8.311  0.7029 -1.7239 -0.0806
 5427SOL     OW27739   2.402   3.663   4.917  0.3162 -0.3669 -0.4853
 5427SOL    HW127740   2.317   3.688   4.953  1.0926 -0.4989  1.4566
 5427SOL    HW227741   2.369   3.594   4.859  1.5575 -1.3694  0.0020
 5428SOL     OW27742   2.551   1.910  16.301  0.0371 -0.4711  0.4237
 5428SOL    HW127743   2.551   1.994  16.346 -0.2325 -0.2220 -0.0480
 5428SOL    HW227744   2.571   1.937  16.212  0.9259 -0.0416  0.7558
 5429SOL     OW27745   1.951   2.525  11.834 -0.0117 -0.8386  0.0405
 5429SOL    HW127746   1.969   2.619  11.825 -0.9982 -0.6847 -0.3363
 5429SOL    HW227747   1.862   2.519  11.870 -0.5434  2.7428 -0.6485
 5430SOL     OW27748   3.051   2.949   5.699  0.5144  0.0904 -0.0645
 5430SOL    HW127749   3.063   2.966   5.792 -0.5751  0.3433  0.0297
 5430SOL    HW227750   2.990   2.875   5.702  0.7418 -0.1677 -1.5983
 5431SOL     OW27751   1.522   3.572   9.854  0.5147  0.6777 -0.7662
 5431SOL    HW127752   1.614   3.546   9.852  0.2274 -0.2787 -1.4645
 5431SOL    HW227753   1.492   3.536   9.771  1.2372 -0.1603 -0.6629
 5432SOL     OW27754   3.499   0.328  13.992 -0.0463  0.2705 -0.3238
 5432SOL    HW127755   3.417   0.281  14.007  0.3102 -0.2763 -0.0604
 5432SOL    HW227756   3.539   0.263  13.934  0.1844 -0.0354  0.1713
 5433SOL     OW27757   4.610   1.588   7.958  0.4935 -0.0882  0.0556
 5433SOL    HW127758   4.594   1.495   7.972  2.3604 -0.5230 -0.7484
 5433SOL    HW227759   4.694   1.591   8.003  0.4956 -0.1444  0.0559
 5434SOL     OW27760   2.572   3.787   4.620 -0.0603  0.0243  0.0261
 5434SOL    HW127761   2.609   3.815   4.703  2.1714 -0.2930 -0.8598
 5434SOL    HW227762   2.617   3.704   4.604 -1.0843 -1.0630  2.7540
 5435SOL     OW27763   0.889   3.600  10.845  0.6362 -0.6496  0.2845
 5435SOL    HW127764   0.878   3.614  10.751 -0.1324 -1.6722  0.2205
 5435SOL    HW227765   0.806   3.556  10.863  0.0934 -0.1628 -1.0238
 5436SOL     OW27766   3.920   2.267  12.193 -0.2510  0.0261  0.0027
 5436SOL    HW127767   3.845   2.212  12.172 -1.6856  1.1240  2.3134
 5436SOL    HW227768   3.940   2.245  12.284 -0.4267 -1.2767 -0.2728
 5437SOL     OW27769   1.616   3.161   5.734 -0.4708  0.1901 -0.2047
 5437SOL    HW127770   1.582   3.202   5.655  0.2218  1.3643  0.1133
 5437SOL    HW227771   1.532   3.151   5.779 -0.8197  0.3034 -0.8345
 5438SOL     OW27772   3.256   4.602  13.160  0.1393  0.2428  0.4425
 5438SOL    HW127773   3.160   4.597  13.163  0.3505 -3.0779  0.8422
 5438SOL    HW227774   3.260   4.695  13.137  0.2757  0.1991  0.2908
 5439SOL     OW27775   0.788   0.023  10.776 -0.3092 -0.3795 -0.3470
 5439SOL    HW127776   0.788   4.653  10.796  2.1443 -0.6628 -1.6194
 5439SOL    HW227777   0.878   0.035  10.745  0.0512  0.1654  0.9052
 5440SOL     OW27778   1.472   2.463   3.617  0.6670  0.1912  0.3676
 5440SOL    HW127779   1.531   2.470   3.692  0.1727 -1.0089  0.8712
 5440SOL    HW227780   1.516   2.490   3.536 -0.5842  2.1662  0.3383
 5441SOL     OW27781   2.807   0.355   5.329  0.3908  0.3309  0.1042
 5441SOL    HW127782   2.792   0.267   5.363  0.0079 -0.4521 -2.0582
 5441SOL    HW227783   2.871   0.345   5.259  1.0410 -3.3710  1.2436
 5442SOL     OW27784   1.694   4.116   2.127  0.9653 -0.2414  0.1954
 5442SOL    HW127785   1.682   4.047   2.192 -1.6779 -0.3933 -0.4388
 5442SOL    HW227786   1.708   4.197   2.175  0.5080  0.3370 -0.6473
 5443SOL     OW27787   1.993   3.878   0.258  0.4520 -0.5374  0.0539
 5443SOL    HW127788   1.943   3.954   0.226 -0.9658 -1.6998 -0.4674
 5443SOL    HW227789   1.936   3.804   0.238  1.5914 -1.6404  0.9881
 5444SOL     OW27790   0.739   0.440  11.936  0.2262  0.0513 -0.3376
 5444SOL    HW127791   0.657   0.458  11.890  2.0927  0.0001 -3.6851
 5444SOL    HW227792   0.788   0.522  11.930 -1.9309  1.3154 -0.9163
 5445SOL     OW27793   4.604   1.303   3.310 -0.1542  0.1948 -0.0106
 5445SOL    HW127794   4.623   1.396   3.323 -0.2814  0.5804 -2.5660
 5445SOL    HW227795   4.692   1.268   3.322 -0.3246 -0.1742  0.1613
 5446SOL     OW27796   3.749   2.980  14.023  0.3497 -0.0014  0.1594
 5446SOL    HW127797   3.692   3.057  14.024 -0.5759 -0.6575 -1.5337
 5446SOL    HW227798   3.701   2.917  13.969  2.5845 -0.3660 -1.3819
 5447SOL     OW27799   1.378   2.337   3.010  0.2841  0.4177  0.3821
 5447SOL    HW127800   1.325   2.261   2.987  0.5279  0.3679 -0.0129
 5447SOL    HW227801   1.346   2.387   2.935 -1.8227 -0.0584  0.9683
 5448SOL     OW27802   1.325   0.581   7.130  0.1282 -0.1805  0.2386
 5448SOL    HW127803   1.266   0.520   7.085  2.6836 -1.2900 -1.5882
 5448SOL    HW227804   1.335   0.653   7.067 -2.2947 -1.1217 -1.2135
 5449SOL     OW27805   0.653   3.918  16.840 -0.8120  0.3768  0.4259
 5449SOL    HW127806   0.714   3.992  16.845 -0.7864  0.2119  2.5152
 5449SOL    HW227807   0.641   3.896  16.932 -0.0215 -1.1577  0.1655
 5450SOL     OW27808   3.370   4.060   5.902  0.0526 -0.1144  0.2032
 5450SOL    HW127809   3.287   4.057   5.854 -1.0498  1.3818  2.0525
 5450SOL    HW227810   3.348   4.081   5.993 -0.2785  0.6520 -0.0530
 5451SOL     OW27811   0.744   0.161   7.909 -0.2911 -0.1358  0.3154
 5451SOL    HW127812   0.664   0.189   7.864  1.4221  1.6151 -1.6953
 5451SOL    HW227813   0.808   0.218   7.865  0.4317 -1.6744 -0.6477
 5452SOL     OW27814   3.514   1.500   8.041 -0.0267  0.3742 -0.1587
 5452SOL    HW127815   3.505   1.410   8.072  2.6515  0.3296  0.5344
 5452SOL    HW227816   3.598   1.527   8.078  0.5556 -1.2888 -0.2436
 5453SOL     OW27817   2.559   4.301   3.507 -0.3554 -0.1080 -0.4984
 5453SOL    HW127818   2.551   4.393   3.532 -0.0262 -0.9192  2.5167
 5453SOL    HW227819   2.631   4.310   3.444 -0.4068  0.0739 -0.5311
 5454SOL     OW27820   4.317   2.290   7.845  0.9673  0.0772  0.0846
 5454SOL    HW127821   4.364   2.215   7.881  0.5628 -0.5844 -0.7738
 5454SOL    HW227822   4.231   2.275   7.885 -0.1133  0.4212 -2.1220
 5455SOL     OW27823   1.913   3.840   3.594  0.7562 -0.1661  0.4452
 5455SOL    HW127824   1.990   3.858   3.540  0.5052  0.1616  0.1912
 5455SOL    HW227825   1.944   3.882   3.674  1.6520  1.5432 -0.7843
 5456SOL     OW27826   1.491   1.849   5.423  0.3254 -0.0689  0.3951
 5456SOL    HW127827   1.408   1.850   5.374  0.6178 -1.8933 -0.1337
 5456SOL    HW227828   1.488   1.930   5.475  0.2255  1.2191 -1.5811
 5457SOL     OW27829   0.215   3.875   4.022 -0.3188 -0.9801  0.1790
 5457SOL    HW127830   0.280   3.908   3.960  0.6281 -2.4165  0.4246
 5457SOL    HW227831   0.156   3.834   3.958 -0.3770  3.4826 -2.6010
 5458SOL     OW27832   2.940   3.106   4.566  0.6440 -0.6079 -0.0289
 5458SOL    HW127833   2.868   3.147   4.517  1.8516  0.9363 -0.5080
 5458SOL    HW227834   2.987   3.183   4.599 -0.3726  0.2893 -0.6459
 5459SOL     OW27835   0.336   1.349   4.773 -0.3032 -0.4311  0.1786
 5459SOL    HW127836   0.417   1.337   4.824 -0.7724 -0.3017  0.9540
 5459SOL    HW227837   0.375   1.345   4.686 -0.1596  0.7942  0.1873
 5460SOL     OW27838   0.424   2.139  11.116 -0.2970 -0.4983  0.2156
 5460SOL    HW127839   0.425   2.089  11.197 -0.9616 -2.5460 -1.0348
 5460SOL    HW227840   0.356   2.092  11.068  0.1681 -0.6777 -0.2689
 5461SOL     OW27841   3.270   1.117  15.681  0.3595 -0.0688 -0.0691
 5461SOL    HW127842   3.263   1.210  15.661 -0.8468 -0.5009 -1.6929
 5461SOL    HW227843   3.277   1.117  15.776  0.4693 -0.0941 -0.0766
 5462SOL     OW27844   3.781   2.133   6.754  0.5325  0.6197  0.1947
 5462SOL    HW127845   3.727   2.177   6.821 -0.9506 -2.4271  1.0151
 5462SOL    HW227846   3.745   2.182   6.680  0.2086 -1.5081 -1.0319
 5463SOL     OW27847   0.380   0.464  12.432 -0.0259 -0.1218 -0.5430
 5463SOL    HW127848   0.330   0.519  12.493 -0.4241 -0.7013 -0.3518
 5463SOL    HW227849   0.373   0.513  12.350 -0.4011 -3.6211 -2.5992
 5464SOL     OW27850   2.550   2.521   2.912  0.4749  0.1105 -0.3110
 5464SOL    HW127851   2.553   2.616   2.909 -1.3653  0.1459 -0.6702
 5464SOL    HW227852   2.502   2.503   2.831 -1.4866  0.5820  0.7407
 5465SOL     OW27853   4.355   4.265   6.239  0.1733  0.1190  0.2683
 5465SOL    HW127854   4.310   4.309   6.311 -2.0340 -1.7277  0.0284
 5465SOL    HW227855   4.340   4.326   6.167 -0.2822  1.1366  1.2319
 5466SOL     OW27856   2.099   2.365  15.509  0.4253  0.2016 -0.4030
 5466SOL    HW127857   2.078   2.458  15.499  2.3778  0.7045  0.2719
 5466SOL    HW227858   2.058   2.352  15.594  0.8154 -0.2682 -0.2878
 5467SOL     OW27859   2.616   2.788   3.219 -0.4295 -0.5387 -0.0756
 5467SOL    HW127860   2.618   2.835   3.136 -1.7562  1.4441  1.0256
 5467SOL    HW227861   2.552   2.835   3.272 -0.3368  0.1800 -0.6000
 5468SOL     OW27862   4.461   0.693   5.573 -0.2967 -0.3831  0.2164
 5468SOL    HW127863   4.431   0.681   5.483 -0.0962 -0.2402  0.1299
 5468SOL    HW227864   4.552   0.663   5.565 -0.1392  0.7817 -2.2024
 5469SOL     OW27865   1.947   4.110  12.708  0.1555  0.4103  0.4985
 5469SOL    HW127866   2.028   4.154  12.683  0.8804 -2.1289 -1.6457
 5469SOL    HW227867   1.893   4.179  12.747  0.3058 -0.2939  1.9866
 5470SOL     OW27868   4.619   2.471  17.254 -0.2485  0.1536 -0.2631
 5470SOL    HW127869   4.525   2.459  17.268 -0.3794  0.3477 -0.9891
 5470SOL    HW227870   4.634   2.393  17.201 -0.6096 -0.3897  0.4243
 5471SOL     OW27871   0.439   3.877   7.453 -0.0270  0.2060 -0.5331
 5471SOL    HW127872   0.419   3.802   7.509 -0.1928  0.3582 -0.3896
 5471SOL    HW227873   0.503   3.834   7.397  0.9276 -0.5463  1.1167
 5472SOL     OW27874   2.433   2.518   3.361 -0.4896 -0.2882  0.0863
 5472SOL    HW127875   2.402   2.556   3.279  0.9915  1.0524  0.1513
 5472SOL    HW227876   2.356   2.536   3.415 -1.7250  1.6931 -2.3446
 5473SOL     OW27877   3.954   3.868   8.188 -0.2852 -0.1549 -0.6301
 5473SOL    HW127878   3.918   3.842   8.273 -2.8643  1.7414 -1.1581
 5473SOL    HW227879   3.906   3.947   8.162  0.5013  0.7543  0.6869
 5474SOL     OW27880   3.333   0.430   7.217  0.0318  0.2559  0.2441
 5474SOL    HW127881   3.292   0.345   7.233 -1.0654  0.7480  0.0465
 5474SOL    HW227882   3.283   0.499   7.261  2.5675  0.5620  2.6683
 5475SOL     OW27883   2.159   1.602  10.486  0.3605  0.9281 -0.1265
 5475SOL    HW127884   2.108   1.568  10.560 -0.8106  2.3230 -0.2877
 5475SOL    HW227885   2.134   1.694  10.478  1.2360  0.9174 -3.0114
 5476SOL     OW27886   1.580   1.926  14.256 -0.5769  0.2748  0.4278
 5476SOL    HW127887   1.640   1.855  14.277 -0.5033 -0.0528 -0.9245
 5476SOL    HW227888   1.601   1.984  14.330  1.5537 -3.2530  2.6178
 5477SOL     OW27889   3.173   2.281   4.450  0.3528  0.1606  0.2414
 5477SOL    HW127890   3.222   2.208   4.413  0.1430 -0.5849  1.4309
 5477SOL    HW227891   3.236   2.334   4.498  1.7718 -1.0357 -0.2902
 5478SOL     OW27892   2.349   4.659   2.852  0.6407  0.1011  0.2840
 5478SOL    HW127893   2.379   0.025   2.834 -0.1353  0.3037 -0.0131
 5478SOL    HW227894   2.419   4.600   2.823  0.2736 -0.7479  1.1353
 5479SOL     OW27895   2.567   3.085   6.475 -0.1415  0.5060  0.2920
 5479SOL    HW127896   2.513   3.157   6.506 -1.1008 -0.6602  1.3336
 5479SOL    HW227897   2.500   3.019   6.493  1.4681 -1.8383 -2.1532
 5480SOL     OW27898   0.859   1.657   3.217 -0.2088  0.3485  0.3872
 5480SOL    HW127899   0.842   1.615   3.133 -2.3046  0.2426  0.8609
 5480SOL    HW227900   0.770   1.669   3.248 -0.9583  3.8210 -3.1670
 5481SOL     OW27901   4.188   3.509   8.671  0.1020  0.0125 -0.4096
 5481SOL    HW127902   4.283   3.499   8.680 -0.0880  1.4688  3.0634
 5481SOL    HW227903   4.176   3.594   8.628 -2.5349 -0.4356 -0.5242
 5482SOL     OW27904   3.383   3.340   5.868  0.0622  0.4546  0.2319
 5482SOL    HW127905   3.334   3.422   5.878  1.8679  1.2441  2.7939
 5482SOL    HW227906   3.350   3.293   5.792 -1.3269  2.8392 -0.6511
 5483SOL     OW27907   2.660   4.474   2.294  0.2466  0.0137 -0.4647
 5483SOL    HW127908   2.599   4.535   2.254 -0.7260 -1.2651 -0.9441
 5483SOL    HW227909   2.647   4.390   2.249  0.3106 -0.2964  0.0924
 5484SOL     OW27910   3.623   4.113   7.261 -0.0703  0.0469 -0.0646
 5484SOL    HW127911   3.550   4.109   7.199 -2.6316 -2.4965  3.0841
 5484SOL    HW227912   3.572   4.110   7.343 -2.2576 -0.1932 -1.4353
 5485SOL     OW27913   2.243   3.890  11.003  0.1206 -0.3786 -0.3869
 5485SOL    HW127914   2.175   3.857  11.062  0.9939 -0.9709  0.2854
 5485SOL    HW227915   2.314   3.826  10.994  0.2757 -0.2255 -0.2346
 5486SOL     OW27916   3.786   2.830   6.423  0.0762 -0.2644  0.8418
 5486SOL    HW127917   3.840   2.773   6.368  0.7419  1.0874  0.0948
 5486SOL    HW227918   3.705   2.817   6.374  0.4493 -0.4683  0.2859
 5487SOL     OW27919   3.454   0.461  15.470 -0.2780 -0.1778  0.7236
 5487SOL    HW127920   3.373   0.424  15.506 -1.3071  0.7531 -0.5982
 5487SOL    HW227921   3.419   0.473  15.381  0.2698  1.4578  0.7307
 5488SOL     OW27922   3.580   0.846   2.308  0.4263  0.2423 -0.0829
 5488SOL    HW127923   3.564   0.917   2.369 -1.2277  1.0698 -1.4626
 5488SOL    HW227924   3.672   0.849   2.283 -0.2802 -0.8685 -2.9239
 5489SOL     OW27925   3.346   0.560   3.092 -0.2547 -0.5747 -0.3022
 5489SOL    HW127926   3.288   0.528   3.023 -0.5661  1.3636 -0.9517
 5489SOL    HW227927   3.321   0.648   3.120 -2.4192 -1.2284 -0.1971
 5490SOL     OW27928   4.494   3.923   3.220 -0.1455  0.6502  0.1101
 5490SOL    HW127929   4.494   3.983   3.145  1.5360  2.6549  1.7234
 5490SOL    HW227930   4.581   3.884   3.216 -0.6321 -0.2853 -1.6650
 5491SOL     OW27931   4.157   0.206  17.432 -0.1671 -0.1205  0.1079
 5491SOL    HW127932   4.070   0.234  17.403  0.0822  1.4561  0.9037
 5491SOL    HW227933   4.150   0.192  17.527  0.4320  1.6159  0.4070
 5492SOL     OW27934   3.204   3.065   6.615 -0.4936 -0.7722 -0.1370
 5492SOL    HW127935   3.222   3.091   6.706  1.8362 -2.5300 -0.1162
 5492SOL    HW227936   3.287   3.046   6.572 -0.6494 -1.2918 -0.2079
 5493SOL     OW27937   0.519   4.504   2.042 -0.2595 -0.1929 -0.2304
 5493SOL    HW127938   0.519   4.415   2.076  1.1914  1.0038  2.8997
 5493SOL    HW227939   0.428   4.533   2.037 -0.3248 -0.8678 -3.0856
 5494SOL     OW27940   4.334   2.047   6.046 -0.4376  0.3833 -0.1101
 5494SOL    HW127941   4.260   1.993   6.076 -0.3227  0.7227  0.8009
 5494SOL    HW227942   4.373   1.985   5.984  0.4536  1.9500 -1.0913
 5495SOL     OW27943   0.707   3.934  11.362  0.1549 -0.0473 -0.9023
 5495SOL    HW127944   0.626   3.981  11.379 -0.4829 -1.5417  0.1653
 5495SOL    HW227945   0.745   3.972  11.283 -0.7380  1.0162 -0.8119
 5496SOL     OW27946   2.256   2.652   4.787  0.4170 -0.4983  0.1426
 5496SOL    HW127947   2.324   2.656   4.720  0.9847 -0.4445  0.7315
 5496SOL    HW227948   2.212   2.735   4.765 -0.6040 -0.9715  0.4025
 5497SOL     OW27949   1.730   2.444   2.678 -0.0192  0.5202 -0.4949
 5497SOL    HW127950   1.645   2.471   2.715 -0.1927 -2.6250  1.3452
 5497SOL    HW227951   1.726   2.350   2.694 -1.2638  0.1799 -2.8456
 5498SOL     OW27952   1.480   0.811  17.059 -0.2910 -0.5302 -0.0507
 5498SOL    HW127953   1.470   0.890  17.006  0.5937 -1.2933 -1.3612
 5498SOL    HW227954   1.564   0.781  17.024  1.0692  0.9302  1.9703
 5499SOL     OW27955   0.498   4.093  13.112  0.1292  0.2506 -0.6172
 5499SOL    HW127956   0.587   4.059  13.095  0.1736  0.8444 -1.5580
 5499SOL    HW227957   0.446   4.034  13.057  0.1472 -0.9917  0.6929
 5500SOL     OW27958   3.191   4.444   9.340  0.0676  0.4083  0.8741
 5500SOL    HW127959   3.137   4.517   9.309 -0.4016 -0.3696 -0.1198
 5500SOL    HW227960   3.201   4.398   9.257 -2.8576 -1.4340  1.5562
 5501SOL     OW27961   2.028   2.628  15.537  0.2118  0.0073 -0.1303
 5501SOL    HW127962   1.934   2.611  15.537  0.3038 -0.5315  0.8460
 5501SOL    HW227963   2.027   2.663  15.626 -1.1857  0.6390 -0.4035
 5502SOL     OW27964   1.960   1.808   1.817  0.7317 -0.0586 -0.2065
 5502SOL    HW127965   1.913   1.791   1.735  0.6415  0.6440 -0.2941
 5502SOL    HW227966   1.893   1.827   1.882 -0.0178 -2.6812 -0.1911
 5503SOL     OW27967   4.325   0.418   8.008  0.4647 -0.0617  0.1381
 5503SOL    HW127968   4.283   0.335   8.028 -0.3022  1.0799  3.2269
 5503SOL    HW227969   4.373   0.441   8.087 -0.2944  0.9725  0.2913
 5504SOL     OW27970   1.467   2.476   2.456  0.2674  0.1262 -0.1329
 5504SOL    HW127971   1.535   2.462   2.390  1.6936 -1.9554  1.7877
 5504SOL    HW227972   1.392   2.420   2.433  0.1540  0.2450 -0.0562
 5505SOL     OW27973   1.954   1.361   1.891  0.5212 -0.0272  0.5429
 5505SOL    HW127974   1.905   1.382   1.970  0.5693  3.5719 -0.3926
 5505SOL    HW227975   2.034   1.414   1.899  0.9418 -0.7793  1.3870
 5506SOL     OW27976   2.513   0.272   2.341 -0.4874  0.3502  0.5029
 5506SOL    HW127977   2.532   0.365   2.329  4.0459 -0.8868 -2.0715
 5506SOL    HW227978   2.460   0.274   2.421  1.8018  0.8543  2.0063
 5507SOL     OW27979   2.376   0.730  14.880 -0.5239  0.0855 -0.6591
 5507SOL    HW127980   2.425   0.679  14.816  1.4330 -1.4713  2.0611
 5507SOL    HW227981   2.310   0.774  14.827 -1.7566 -0.9955 -0.0322
 5508SOL     OW27982   4.645   4.112   1.272  0.3174 -0.0225  0.4788
 5508SOL    HW127983   4.599   4.029   1.265 -0.4005  0.3751  0.5031
 5508SOL    HW227984   0.001   4.099   1.220  0.2935 -0.1878  0.4846
 5509SOL     OW27985   1.013   2.892  11.802 -0.2161  0.4484 -0.4142
 5509SOL    HW127986   1.059   2.857  11.725  1.2852  0.0382  0.6621
 5509SOL    HW227987   1.044   2.982  11.812  0.5108  0.1182  0.3441
 5510SOL     OW27988   0.233   1.123   8.399 -0.5113  0.4131 -0.4813
 5510SOL    HW127989   0.167   1.112   8.468 -0.9840  1.0768 -0.8306
 5510SOL    HW227990   0.310   1.142   8.452 -0.0107  1.3208 -1.5445
 5511SOL     OW27991   2.725   1.074   7.944  0.7294 -0.0805  0.0012
 5511SOL    HW127992   2.681   1.140   7.997  0.1773 -1.1097  0.8168
 5511SOL    HW227993   2.706   1.091   7.852  1.2864  0.5510  0.0016
 5512SOL     OW27994   0.321   3.066   8.033 -0.0001  0.6909  0.0509
 5512SOL    HW127995   0.262   3.053   7.959  0.3555  1.5056 -0.3772
 5512SOL    HW227996   0.288   3.140   8.083  0.7064  0.3542  1.0100
 5513SOL     OW27997   0.135   1.723   8.882  0.3801 -0.0768  0.3030
 5513SOL    HW127998   0.144   1.654   8.816  0.3880 -2.5222  2.8549
 5513SOL    HW227999   0.053   1.764   8.856  0.8827  0.9813  0.3872
 5514SOL     OW28000   2.400   2.536   0.980  0.0212  1.0215  0.0559
 5514SOL    HW128001   2.463   2.522   1.051 -1.7379 -0.8916  1.2383
 5514SOL    HW228002   2.331   2.596   1.008 -1.3547 -1.3740  1.7999
 5515SOL     OW28003   1.862   4.300   9.885 -0.0149 -0.7240 -0.1741
 5515SOL    HW128004   1.878   4.363   9.956 -1.3905 -0.0828 -0.4222
 5515SOL    HW228005   1.929   4.317   9.820 -0.7828  2.4428 -0.1574
 5516SOL     OW28006   1.753   3.095   3.272 -0.4949 -0.9657 -0.0527
 5516SOL    HW128007   1.685   3.052   3.220 -1.0467 -0.8485  0.5647
 5516SOL    HW228008   1.726   3.071   3.361  0.7289 -0.5299  0.4276
 5517SOL     OW28009   2.465   1.267   9.326 -0.3267  0.2380 -0.5330
 5517SOL    HW128010   2.459   1.363   9.328 -0.0618  0.2860 -1.9362
 5517SOL    HW228011   2.418   1.234   9.403 -0.6568  0.0404 -0.8207
 5518SOL     OW28012   0.467   4.069  11.348 -0.2424 -0.0855 -1.4475
 5518SOL    HW128013   0.428   4.115  11.421  2.5597 -2.8880  1.8151
 5518SOL    HW228014   0.427   3.983  11.361 -0.2790  0.3184  1.0630
 5519SOL     OW28015   4.126   3.337   6.912 -0.0700  0.5135 -0.0638
 5519SOL    HW128016   4.169   3.290   6.841  0.1934  2.3219 -1.0926
 5519SOL    HW228017   4.150   3.427   6.889  0.2876  0.7391  1.1498
 5520SOL     OW28018   1.034   0.524   1.295  0.3695 -0.1307  0.0565
 5520SOL    HW128019   0.948   0.493   1.270 -0.0737  0.1722  1.2101
 5520SOL    HW228020   1.047   0.471   1.373 -1.3095 -1.3272 -0.4872
 5521SOL     OW28021   1.584   0.415  10.506  0.0149  0.0881 -0.1801
 5521SOL    HW128022   1.569   0.492  10.451  0.6954  0.4818  0.1824
 5521SOL    HW228023   1.551   0.451  10.589  2.5750  0.1639  0.8014
 5522SOL     OW28024   3.666   1.993   4.634 -0.0143 -0.2414  0.6990
 5522SOL    HW128025   3.636   1.916   4.586 -2.2185  0.8797  0.3058
 5522SOL    HW228026   3.748   2.015   4.589 -0.5533  1.7265  0.6936
 5523SOL     OW28027   0.684   1.292   2.273 -0.4406 -0.0335 -0.1065
 5523SOL    HW128028   0.734   1.310   2.353  3.2167 -3.2447 -1.6718
 5523SOL    HW228029   0.600   1.335   2.293  0.1852  1.1253  0.0343
 5524SOL     OW28030   2.667   0.794  11.053 -0.2694 -0.3130  0.4302
 5524SOL    HW128031   2.687   0.842  11.134  2.3953  0.1212 -0.4876
 5524SOL    HW228032   2.714   0.845  10.987  0.6282  0.4387  1.6183
 5525SOL     OW28033   0.617   3.983   2.537  0.4492 -0.2707  0.8524
 5525SOL    HW128034   0.639   4.022   2.622  1.3126  0.9067  0.0849
 5525SOL    HW228035   0.673   3.906   2.526  0.7116  0.1825 -1.0225
 5526SOL     OW28036   2.376   1.412   5.359  0.6376 -0.3361  0.3330
 5526SOL    HW128037   2.468   1.405   5.386  0.5200 -0.6310  0.6534
 5526SOL    HW228038   2.333   1.327   5.369 -2.3206  1.0330 -0.8052
 5527SOL     OW28039   1.821   3.990   8.057  0.1098 -0.1177 -0.1869
 5527SOL    HW128040   1.805   4.065   8.000  1.3075  1.4171  1.5111
 5527SOL    HW228041   1.806   3.915   8.000 -2.2858 -0.1012  0.3874
 5528SOL     OW28042   3.282   1.384   2.348 -0.8287 -0.2417 -0.1563
 5528SOL    HW128043   3.373   1.395   2.376 -1.6462  1.5700  1.8137
 5528SOL    HW228044   3.291   1.358   2.257  0.1736  0.4378 -0.2543
 5529SOL     OW28045   2.408   2.262   5.152  0.1446  0.0607 -0.2325
 5529SOL    HW128046   2.450   2.282   5.069 -0.3236 -0.2837 -0.5462
 5529SOL    HW228047   2.393   2.168   5.146 -2.4107  0.3336  2.0056
 5530SOL     OW28048   0.372   4.043   0.353 -0.1529  0.0825  0.3208
 5530SOL    HW128049   0.287   4.012   0.383 -0.2947 -0.8997 -1.0895
 5530SOL    HW228050   0.430   4.010   0.421  1.5733 -0.6995 -1.5103
 5531SOL     OW28051   3.577   0.211  10.398  0.2426 -0.0099  0.0164
 5531SOL    HW128052   3.484   0.233  10.411  0.3089  0.4127 -0.2304
 5531SOL    HW228053   3.586   0.131  10.450 -1.0229 -0.0541  0.1722
 5532SOL     OW28054   2.576   2.482   1.196  0.0313  0.1718 -0.0658
 5532SOL    HW128055   2.618   2.508   1.279  1.1499 -1.3785 -0.1438
 5532SOL    HW228056   2.605   2.391   1.185 -1.6903 -0.5703  1.4382
 5533SOL     OW28057   4.637   3.256   3.255  0.0739  0.2330 -0.1952
 5533SOL    HW128058   4.678   3.302   3.182 -0.6739 -0.6885 -1.1922
 5533SOL    HW228059   4.706   3.269   3.320  0.3209  0.2673 -0.4618
 5534SOL     OW28060   4.006   4.146  14.575  0.1376  0.3057 -0.3951
 5534SOL    HW128061   3.959   4.176  14.497 -2.7563 -0.0030  1.2374
 5534SOL    HW228062   4.068   4.217  14.594  0.5308 -0.4748  1.1942
 5535SOL     OW28063   0.307   1.635   0.122 -0.2298  0.3280 -0.1874
 5535SOL    HW128064   0.293   1.541   0.135 -0.8594  0.5831  1.0015
 5535SOL    HW228065   0.223   1.666   0.087  0.1140  2.0800  0.5277
 5536SOL     OW28066   1.893   4.384   8.666 -0.5067  0.0465 -0.0211
 5536SOL    HW128067   1.820   4.332   8.632  1.1192 -0.9808 -1.9209
 5536SOL    HW228068   1.920   4.413   8.579 -0.1043 -1.6728 -0.4712
 5537SOL     OW28069   0.167   3.083   9.206  0.7473  0.5251  0.1250
 5537SOL    HW128070   0.160   3.120   9.295  1.2148  1.6830 -0.3189
 5537SOL    HW228071   0.248   3.130   9.187 -0.3757  2.9220  1.2411
 5538SOL     OW28072   0.837   0.782   8.157 -0.3565  0.2565 -0.2921
 5538SOL    HW128073   0.772   0.799   8.089 -0.6211 -0.8508 -0.3146
 5538SOL    HW228074   0.922   0.809   8.122 -0.0430  0.9372  1.0085
 5539SOL     OW28075   1.933   0.188   6.144 -0.6466 -0.8576 -0.1871
 5539SOL    HW128076   2.022   0.175   6.111 -0.5712  1.8995 -1.0999
 5539SOL    HW228077   1.914   0.277   6.114  0.5604 -0.8017 -0.8073
 5540SOL     OW28078   3.067   1.349   2.779 -0.2974  0.4006  0.4529
 5540SOL    HW128079   3.159   1.323   2.774 -0.3370  0.0543  1.4451
 5540SOL    HW228080   3.041   1.357   2.688 -0.3682 -0.4041  0.4041
 5541SOL     OW28081   1.123   2.874  16.126 -0.0680 -0.0023 -0.1240
 5541SOL    HW128082   1.036   2.873  16.086 -0.2033 -0.2056  0.1737
 5541SOL    HW228083   1.144   2.781  16.120  0.9700  0.1032  1.7807
 5542SOL     OW28084   0.784   0.223   1.671 -0.2312  0.3466 -0.1116
 5542SOL    HW128085   0.718   0.240   1.739 -0.9214 -0.9524 -0.4408
 5542SOL    HW228086   0.859   0.199   1.725  0.1993  0.8269 -0.4947
 5543SOL     OW28087   4.211   2.203   4.077  0.4591 -0.0765  0.6460
 5543SOL    HW128088   4.122   2.171   4.061  0.4276  1.9521 -3.5347
 5543SOL    HW228089   4.227   2.166   4.163  0.5661 -2.9104 -0.5947
 5544SOL     OW28090   2.620   4.159   8.351  0.4781  0.4518  0.4835
 5544SOL    HW128091   2.551   4.212   8.312  0.8377  0.0143 -0.7284
 5544SOL    HW228092   2.656   4.224   8.412  0.6388  2.4498 -1.7355
 5545SOL     OW28093   4.593   4.293  14.728 -0.0350 -0.6700  0.2040
 5545SOL    HW128094   4.625   4.250  14.807  0.8231  0.4371  0.4532
 5545SOL    HW228095   4.509   4.251  14.714  0.6186 -0.4328 -4.4052
 5546SOL     OW28096   4.060   0.446  16.347  0.1512  0.4973  0.0536
 5546SOL    HW128097   3.988   0.501  16.316  0.6335  1.9260  1.5141
 5546SOL    HW228098   4.137   0.501  16.334  0.4703  0.1080  0.3057
 5547SOL     OW28099   3.895   1.640  15.911 -0.3863  0.3213 -0.3292
 5547SOL    HW128100   3.920   1.555  15.876  1.0020  0.8018 -0.5016
 5547SOL    HW228101   3.938   1.704  15.854  2.2480 -1.0713  0.1066
 5548SOL     OW28102   2.019   2.103   3.866 -0.4998 -0.3231 -0.0948
 5548SOL    HW128103   1.936   2.059   3.848 -1.2884  1.8129 -1.6575
 5548SOL    HW228104   2.072   2.049   3.808 -0.1237 -1.0120  0.8752
 5549SOL     OW28105   4.169   0.195   4.144 -0.2700 -0.2601 -0.1597
 5549SOL    HW128106   4.195   0.103   4.137  0.0877 -0.2349  0.8125
 5549SOL    HW228107   4.247   0.246   4.123 -0.7719  1.9637  3.4111
 5550SOL     OW28108   0.664   2.580   4.610  0.1133 -0.3690 -0.4111
 5550SOL    HW128109   0.631   2.606   4.524 -0.9069  0.2497  0.1817
 5550SOL    HW228110   0.756   2.568   4.584 -0.2878 -0.6818 -1.6883
 5551SOL     OW28111   3.699   0.835   8.340 -0.0270 -0.0549  0.2911
 5551SOL    HW128112   3.750   0.873   8.411  0.5646 -2.5353  1.1845
 5551SOL    HW228113   3.659   0.765   8.391 -2.7757  1.6894  0.5210
 5552SOL     OW28114   2.892   2.366  16.916  0.1684  0.4237 -0.4018
 5552SOL    HW128115   2.852   2.316  16.844 -1.5803 -0.1297  0.9690
 5552SOL    HW228116   2.948   2.431  16.872 -0.5273  0.8743 -0.6152
 5553SOL     OW28117   1.482   1.076  17.006 -0.4622 -0.2902 -0.3807
 5553SOL    HW128118   1.490   1.168  17.030 -0.4660 -0.0958 -1.1511
 5553SOL    HW228119   1.526   1.064  16.922 -1.4429 -0.8168 -0.8129
 5554SOL     OW28120   2.119   1.439  12.199 -0.3551 -0.0532  0.2958
 5554SOL    HW128121   2.037   1.488  12.198 -1.1838 -1.4281  0.4748
 5554SOL    HW228122   2.091   1.368  12.140  0.7159 -0.8617  0.7655
 5555SOL     OW28123   2.169   2.118   0.603 -0.0657  0.0455 -0.3470
 5555SOL    HW128124   2.118   2.123   0.684 -0.0943 -0.2221 -0.3494
 5555SOL    HW228125   2.108   2.167   0.548 -0.1731  0.6187  0.2762
 5556SOL     OW28126   2.891   3.122   6.138  0.4606  0.0690  0.8634
 5556SOL    HW128127   2.815   3.110   6.195  0.0721  3.4240  1.0844
 5556SOL    HW228128   2.958   3.137   6.204  0.9325  1.7962 -0.0050
 5557SOL     OW28129   0.009   2.746   3.624 -0.2015 -0.3275  0.0986
 5557SOL    HW128130   4.660   2.683   3.616 -0.9808  0.5389  0.3031
 5557SOL    HW228131   4.695   2.811   3.683  1.4125  2.4783 -1.9785
 5558SOL     OW28132   2.753   1.232   4.997  0.6150 -0.1543 -0.0079
 5558SOL    HW128133   2.687   1.178   5.041  0.7768  0.4999  1.0320
 5558SOL    HW228134   2.768   1.168   4.927  0.3150  0.0174 -0.2295
 5559SOL     OW28135   0.479   2.867   9.237 -0.2948  0.1070  0.2667
 5559SOL    HW128136   0.399   2.825   9.269  0.6577 -2.3345 -0.6201
 5559SOL    HW228137   0.521   2.802   9.181  0.0607  1.2682 -0.8064
 5560SOL     OW28138   4.383   1.170   6.242  0.0084 -0.4983  0.3888
 5560SOL    HW128139   4.445   1.098   6.251  0.9118  0.1607 -0.7163
 5560SOL    HW228140   4.320   1.137   6.178  0.8862  0.5848 -1.0168
 5561SOL     OW28141   3.094   2.924  10.835 -0.4116 -0.0810  0.1731
 5561SOL    HW128142   3.079   2.866  10.761  3.1645 -0.5047 -0.2448
 5561SOL    HW228143   3.059   3.008  10.805  0.2845 -0.3204 -1.3430
 5562SOL     OW28144   0.985   4.651  13.246  0.4040 -0.3408 -0.2904
 5562SOL    HW128145   1.000   4.706  13.323  3.1247 -1.8479  0.2696
 5562SOL    HW228146   0.895   4.623  13.258  0.2952  0.2550  0.2600
 5563SOL     OW28147   1.707   1.169   9.949 -0.4840 -0.1356  0.4055
 5563SOL    HW128148   1.744   1.122   9.874  0.7677  0.6742  0.5137
 5563SOL    HW228149   1.633   1.114   9.975 -1.2309  1.1664  1.0063
 5564SOL     OW28150   1.630   2.350   4.400  0.1517 -0.6496 -0.0099
 5564SOL    HW128151   1.660   2.259   4.404  1.5544 -0.1408  1.1649
 5564SOL    HW228152   1.570   2.350   4.326  1.1177 -1.5936 -0.8014
 5565SOL     OW28153   3.230   2.900   8.550  0.0717 -0.1988  0.1007
 5565SOL    HW128154   3.193   2.914   8.463  2.9776  1.1505 -0.9320
 5565SOL    HW228155   3.168   2.838   8.589 -0.6818 -0.6458 -1.8254
 5566SOL     OW28156   0.233   2.883   1.238 -0.4152 -0.4652  0.1263
 5566SOL    HW128157   0.258   2.838   1.158 -2.8851 -1.7374  0.0864
 5566SOL    HW228158   0.311   2.926   1.273 -1.0508  0.0804  0.8954
 5567SOL     OW28159   0.170   3.697   9.032 -0.5648  0.1907  0.0978
 5567SOL    HW128160   0.100   3.724   8.973 -0.0212  0.2391 -0.5268
 5567SOL    HW228161   0.163   3.773   9.089 -0.3173  0.7642 -0.6337
 5568SOL     OW28162   3.999   3.327   5.861  0.1638 -0.0204  0.9216
 5568SOL    HW128163   3.935   3.364   5.800 -0.9402  0.4090  2.3534
 5568SOL    HW228164   4.022   3.406   5.909  0.9173 -0.3851  1.1667
 5569SOL     OW28165   4.089   3.897   7.614 -0.2892 -0.0108  0.0191
 5569SOL    HW128166   4.033   3.898   7.691 -1.5679 -4.0937 -0.8634
 5569SOL    HW228167   4.120   3.987   7.620 -0.8215  0.2203 -0.6112
 5570SOL     OW28168   0.957   3.322   0.089 -0.2759  0.1713  0.5778
 5570SOL    HW128169   0.976   3.394   0.149  0.1731  1.7141 -1.4117
 5570SOL    HW228170   0.901   3.366   0.025 -0.4155  0.0392  0.6093
 5571SOL     OW28171   3.187   4.315   9.108  0.4526 -0.1651 -0.0988
 5571SOL    HW128172   3.133   4.262   9.049 -1.0983  0.8411  0.4260
 5571SOL    HW228173   3.276   4.293   9.082  0.9373  0.4815  1.0416
 5572SOL     OW28174   0.318   3.406   6.247 -0.2753  0.0670  0.1155
 5572SOL    HW128175   0.313   3.311   6.254 -0.5425 -0.0587 -2.0514
 5572SOL    HW228176   0.387   3.427   6.311  1.0815 -1.2978 -0.9201
 5573SOL     OW28177   3.560   0.993  11.511 -0.2700 -0.4833 -0.0764
 5573SOL    HW128178   3.474   0.985  11.552 -0.4901 -2.1803 -0.8973
 5573SOL    HW228179   3.553   1.072  11.457 -2.5690  0.0287  0.9838
 5574SOL     OW28180   0.444   3.394  12.150  0.1555 -0.1118  0.3665
 5574SOL    HW128181   0.357   3.389  12.111  0.1319 -0.3312  0.4499
 5574SOL    HW228182   0.481   3.459  12.091  1.1054 -1.3492 -0.3953
 5575SOL     OW28183   1.621   3.144   0.451 -0.0526 -0.5234 -0.2543
 5575SOL    HW128184   1.565   3.081   0.406  1.4440 -1.3420 -0.9859
 5575SOL    HW228185   1.631   3.217   0.389 -0.8022 -1.9267 -2.0340
 5576SOL     OW28186   0.042   1.734   0.078 -0.0052  0.2185  0.2190
 5576SOL    HW128187   0.032   1.826   0.104  0.8638  0.5285 -0.5258
 5576SOL    HW228188   4.687   1.704   0.125  1.4206 -2.4953  0.8303
 5577SOL     OW28189   2.344   1.486  17.610 -0.3451 -0.2389 -0.5787
 5577SOL    HW128190   2.433   1.451  17.619 -0.0641  0.5834 -0.2161
 5577SOL    HW228191   2.367   1.578  17.620 -0.3941 -0.1986 -0.8374
 5578SOL     OW28192   4.254   1.406   8.215  0.1639 -0.8559 -0.5445
 5578SOL    HW128193   4.296   1.342   8.157 -1.8142 -2.8345  0.1712
 5578SOL    HW228194   4.318   1.399   8.286 -0.6320  0.5711  0.3190
 5579SOL     OW28195   2.861   0.296   9.680  0.1183  0.5815  0.0555
 5579SOL    HW128196   2.947   0.321   9.713  0.3855  0.1839 -0.3374
 5579SOL    HW228197   2.852   0.286   9.585 -0.3956 -0.6751  0.2268
 5580SOL     OW28198   3.374   3.392   7.384 -0.4434 -0.3009  1.0920
 5580SOL    HW128199   3.405   3.403   7.294 -4.0632 -0.7826 -0.2378
 5580SOL    HW228200   3.370   3.482   7.416 -1.4815  0.5277 -1.3735
 5581SOL     OW28201   1.186   3.131   8.394 -0.0680  0.2883  0.0319
 5581SOL    HW128202   1.136   3.070   8.339 -2.1402  1.2883  0.8008
 5581SOL    HW228203   1.191   3.204   8.332  0.0822  1.2731  1.1930
 5582SOL     OW28204   3.209   0.505   6.505 -0.5522  0.2454 -0.5249
 5582SOL    HW128205   3.232   0.553   6.584  0.1129 -1.2086  0.1598
 5582SOL    HW228206   3.286   0.518   6.449 -1.3937  0.6882 -1.5932
 5583SOL     OW28207   2.174   3.055   5.860  0.6245 -0.1525  0.1680
 5583SOL    HW128208   2.164   3.145   5.830  2.1004 -0.3913 -1.0173
 5583SOL    HW228209   2.122   2.999   5.802 -0.2870  1.6589 -0.7481
 5584SOL     OW28210   1.490   3.161   5.496 -0.3720 -0.4739 -0.1659
 5584SOL    HW128211   1.509   3.069   5.481  1.5155 -0.4513  1.9884
 5584SOL    HW228212   1.413   3.181   5.443  0.5730  0.2849 -1.2629
 5585SOL     OW28213   1.620   4.690   7.936  0.5751 -0.0203  0.1198
 5585SOL    HW128214   1.655   4.601   7.930 -1.0874 -0.6011 -0.7864
 5585SOL    HW228215   1.600   4.686   8.030  0.6449  1.4235  0.1962
 5586SOL     OW28216   0.614   1.291  14.030  0.2656 -0.4045 -0.5904
 5586SOL    HW128217   0.613   1.345  14.109 -1.2474 -0.9725 -0.2338
 5586SOL    HW228218   0.526   1.258  14.017 -0.1667  1.3968 -2.1636
 5587SOL     OW28219   0.141   2.467  11.092 -0.4396 -0.1817 -0.0461
 5587SOL    HW128220   0.164   2.412  11.017  2.2829  1.8053 -0.6534
 5587SOL    HW228221   0.218   2.458  11.147 -0.8232 -1.2890  0.3133
 5588SOL     OW28222   1.408   4.226   9.595 -0.4744  0.6601 -0.0386
 5588SOL    HW128223   1.348   4.152   9.586 -0.5902  0.6362  0.9509
 5588SOL    HW228224   1.365   4.274   9.666  1.0239  1.4001  0.3574
 5589SOL     OW28225   1.676   3.475   1.801 -0.2063  0.5770 -0.0157
 5589SOL    HW128226   1.643   3.555   1.761 -1.2310 -0.6375 -1.6241
 5589SOL    HW228227   1.620   3.419   1.747  1.9264 -0.3840 -1.2171
 5590SOL     OW28228   3.878   0.112   8.650  0.2267  0.4970 -0.2427
 5590SOL    HW128229   3.918   0.169   8.585  1.7796 -0.3732 -0.0599
 5590SOL    HW228230   3.809   0.175   8.672  0.0118  0.1051  0.2114
 5591SOL     OW28231   1.562   2.612   6.853 -0.5276 -0.8510  0.3969
 5591SOL    HW128232   1.598   2.681   6.797  1.4465 -2.6301 -0.5045
 5591SOL    HW228233   1.622   2.538   6.846 -1.2098 -1.3771  0.1621
 5592SOL     OW28234   1.826   3.176   2.396  0.4680 -0.1855  0.1211
 5592SOL    HW128235   1.830   3.261   2.352  0.2808 -0.5759 -0.6550
 5592SOL    HW228236   1.903   3.178   2.454  1.4580 -0.4464 -1.1783
 5593SOL     OW28237   0.533   1.712  16.629 -0.2207  0.0801 -0.2957
 5593SOL    HW128238   0.541   1.776  16.700 -0.9902  1.6946 -1.6542
 5593SOL    HW228239   0.605   1.728  16.569  0.6745 -0.7339  0.5720
 5594SOL     OW28240   2.567   2.987  13.188 -0.3480 -0.1975 -0.4166
 5594SOL    HW128241   2.508   3.048  13.231 -1.9885 -0.5073 -2.2451
 5594SOL    HW228242   2.651   3.033  13.193 -1.3634  1.8912 -2.4435
 5595SOL     OW28243   3.858   3.866   6.096 -0.1175  0.2201 -0.4460
 5595SOL    HW128244   3.787   3.803   6.108  1.1854 -1.0437  0.7044
 5595SOL    HW228245   3.872   3.911   6.179  0.0202 -0.7591  0.0638
 5596SOL     OW28246   0.268   0.702   3.479 -0.1167 -0.2378  0.4290
 5596SOL    HW128247   0.343   0.730   3.426 -0.2710  1.3628  1.0527
 5596SOL    HW228248   0.305   0.627   3.525 -2.0935 -0.2759  1.9345
 5597SOL     OW28249   0.095   4.381   4.929 -0.2999  0.0172  0.0713
 5597SOL    HW128250   0.148   4.458   4.906 -0.4864  0.2173  0.3056
 5597SOL    HW228251   0.013   4.419   4.960 -0.9847 -1.5008  0.0954
 5598SOL     OW28252   1.398   0.793   6.986  0.1948  0.1643 -0.4686
 5598SOL    HW128253   1.412   0.883   6.957 -2.3500  0.1817 -1.6623
 5598SOL    HW228254   1.391   0.757   6.898  0.3366 -0.1950 -0.3331
 5599SOL     OW28255   2.842   1.770   7.238 -0.3534 -0.4103  0.3172
 5599SOL    HW128256   2.791   1.844   7.204  0.0840  0.8207  2.3353
 5599SOL    HW228257   2.775   1.734   7.295  0.5114 -0.1181  1.5116
 5600SOL     OW28258   2.481   1.527  10.324  0.0558  0.1862 -0.3301
 5600SOL    HW128259   2.483   1.495  10.234 -1.8354  0.3886 -0.4491
 5600SOL    HW228260   2.467   1.621  10.312  1.1162  0.4878  0.6953
 5601SOL     OW28261   2.312   2.936   5.573 -0.1390 -0.0807  0.0456
 5601SOL    HW128262   2.311   3.030   5.555  1.6656 -0.2095 -0.6559
 5601SOL    HW228263   2.223   2.917   5.543  0.1634  0.8837 -1.4321
 5602SOL     OW28264   2.433   3.976   7.173  0.4624 -0.0788 -0.1334
 5602SOL    HW128265   2.415   3.998   7.264  1.4120 -1.2198  0.3241
 5602SOL    HW228266   2.352   4.002   7.128  0.8050 -0.1862 -0.8165
 5603SOL     OW28267   2.734   4.327  12.801  0.2656  0.1501 -0.4402
 5603SOL    HW128268   2.761   4.368  12.719  2.2686 -0.5189 -0.1314
 5603SOL    HW228269   2.656   4.371  12.834 -0.0433  0.9301 -2.2046
 5604SOL     OW28270   1.798   0.877   8.385 -0.1216  0.0007  0.0411
 5604SOL    HW128271   1.768   0.953   8.335 -0.1135 -1.8798 -2.8198
 5604SOL    HW228272   1.890   0.897   8.398  0.3299 -1.6254 -0.5941
 5605SOL     OW28273   4.421   1.446   8.710 -0.6025  0.4458  0.3990
 5605SOL    HW128274   4.358   1.383   8.676 -0.3909  0.9109 -0.8550
 5605SOL    HW228275   4.447   1.494   8.632  2.0173 -0.2643  0.8482
 5606SOL     OW28276   4.498   0.667   3.431 -0.3270  0.1771  0.7741
 5606SOL    HW128277   4.511   0.581   3.391  0.2394  0.2458  0.8178
 5606SOL    HW228278   4.588   0.700   3.435 -0.2724  0.2728 -1.4639
 5607SOL     OW28279   3.621   0.803   4.360  0.5914 -0.0152 -0.0280
 5607SOL    HW128280   3.663   0.718   4.349 -1.9224 -1.2755  0.0656
 5607SOL    HW228281   3.691   0.854   4.320 -0.1503  0.0969 -1.1851
 5608SOL     OW28282   1.498   3.486  11.722 -0.1328  0.5032 -0.1699
 5608SOL    HW128283   1.455   3.560  11.680 -0.4067 -0.0859 -0.9421
 5608SOL    HW228284   1.585   3.514  11.692  1.3226 -2.2244  1.5197
 5609SOL     OW28285   0.380   2.502   6.959  0.1283  0.0035  0.3947
 5609SOL    HW128286   0.387   2.418   7.003  1.3203  0.0311  0.2627
 5609SOL    HW228287   0.310   2.543   7.009 -0.6000  1.3058 -1.6710
 5610SOL     OW28288   0.556   3.110   9.043  0.0500 -0.1608 -0.0196
 5610SOL    HW128289   0.481   3.120   8.985 -1.9332  1.5095  2.8393
 5610SOL    HW228290   0.547   3.036   9.104  1.0640 -0.4826 -0.2681
 5611SOL     OW28291   3.140   3.330   6.181 -0.4179  0.1442 -0.2128
 5611SOL    HW128292   3.120   3.406   6.235  0.7471  1.2153 -1.2805
 5611SOL    HW228293   3.226   3.364   6.155  0.2759 -0.5209  1.1931
 5612SOL     OW28294   4.632   1.778   3.108  0.1552  0.3582  0.4698
 5612SOL    HW128295   4.580   1.856   3.122  0.6379  0.8493 -0.5051
 5612SOL    HW228296   4.561   1.714   3.119 -0.6726  1.1658 -0.1713
 5613SOL     OW28297   0.799   1.336   2.544  0.7758 -0.1643 -0.0091
 5613SOL    HW128298   0.858   1.410   2.558 -0.2192  0.6277 -0.0212
 5613SOL    HW228299   0.862   1.268   2.565 -0.1667 -0.5245  1.6606
 5614SOL     OW28300   4.394   1.517   2.304 -0.2353  0.0243  0.0204
 5614SOL    HW128301   4.470   1.558   2.345  0.7568 -0.9419 -0.8257
 5614SOL    HW228302   4.391   1.434   2.352 -3.1711  1.1940  1.7997
 5615SOL     OW28303   0.440   2.942  13.481  0.0258  0.1612 -0.5014
 5615SOL    HW128304   0.511   2.899  13.432 -0.2232 -0.3403 -0.4188
 5615SOL    HW228305   0.389   2.863  13.496 -0.1418  0.7294  1.8157
 5616SOL     OW28306   0.658   0.696  16.512 -0.3933  0.1305 -0.7903
 5616SOL    HW128307   0.667   0.788  16.486  0.4984 -0.2192 -1.7364
 5616SOL    HW228308   0.568   0.697  16.543 -0.0713  0.8938  0.1169
 5617SOL     OW28309   1.311   0.839   5.760 -0.1797 -0.2803  0.2080
 5617SOL    HW128310   1.352   0.881   5.836  0.9097 -0.5584 -0.2284
 5617SOL    HW228311   1.361   0.757   5.757  2.2354  1.2420 -0.5090
 5618SOL     OW28312   0.876   1.580   7.463  0.2416 -0.1911 -0.2767
 5618SOL    HW128313   0.918   1.647   7.516 -0.4339 -0.0482  0.0878
 5618SOL    HW228314   0.784   1.591   7.487 -0.4463  1.1790 -3.6082
 5619SOL     OW28315   3.709   0.283   8.780  0.5699  0.6205  0.1881
 5619SOL    HW128316   3.639   0.345   8.761 -0.5746 -0.2535  1.5365
 5619SOL    HW228317   3.671   0.249   8.861 -0.1413  1.0356  0.0204
 5620SOL     OW28318   1.096   1.988   3.237 -0.3170  0.5513  0.0013
 5620SOL    HW128319   1.160   2.001   3.167 -0.8459  2.0847 -0.2102
 5620SOL    HW228320   1.017   2.010   3.188  0.0349  0.7386 -0.4892
 5621SOL     OW28321   0.607   4.705   8.045  0.0420 -0.0730  0.7621
 5621SOL    HW128322   0.673   0.043   8.012 -0.8304  0.4726  0.0322
 5621SOL    HW228323   0.526   0.033   8.041  0.3105  0.1132 -2.2629
 5622SOL     OW28324   2.495   4.570   7.938 -0.1667  0.3366 -0.3476
 5622SOL    HW128325   2.410   4.615   7.944 -0.4192 -0.3089  0.9207
 5622SOL    HW228326   2.545   4.641   7.899  0.6389 -0.3015 -0.4761
 5623SOL     OW28327   0.096   3.218  16.418  0.4611 -0.1107 -0.3665
 5623SOL    HW128328   0.001   3.212  16.407  0.2458 -1.5753  2.3061
 5623SOL    HW228329   0.112   3.275  16.342 -1.2206  0.2663 -0.4583
 5624SOL     OW28330   4.576   3.101   0.340 -0.4225  0.9391  0.0303
 5624SOL    HW128331   4.662   3.079   0.304 -1.2255  2.2558 -2.6315
 5624SOL    HW228332   4.603   3.170   0.402  0.5868  0.5869 -0.0203
 5625SOL     OW28333   2.705   1.652  17.439  0.5396 -0.0073  0.1286
 5625SOL    HW128334   2.712   1.742  17.407  1.2178 -0.9625 -2.4051
 5625SOL    HW228335   2.710   1.683  17.530 -0.8958 -1.0148  0.5533
 5626SOL     OW28336   1.214   2.405  14.492  0.5126  0.3567  0.3651
 5626SOL    HW128337   1.281   2.431  14.430 -0.2723 -2.1701 -1.5462
 5626SOL    HW228338   1.263   2.385  14.572  1.0903 -0.8979 -0.3120
 5627SOL     OW28339   2.215   0.570   8.329 -0.2671 -0.0435  0.6264
 5627SOL    HW128340   2.216   0.665   8.320 -0.1489 -0.2978 -2.0860
 5627SOL    HW228341   2.259   0.542   8.249 -1.1521  1.6201 -0.4433
 5628SOL     OW28342   1.474   2.835   9.057  0.2548  0.1533  0.0616
 5628SOL    HW128343   1.545   2.844   9.121  1.4036  1.2712 -1.3817
 5628SOL    HW228344   1.464   2.740   9.064  1.1246  0.0581 -0.0872
 5629SOL     OW28345   4.094   0.356   7.484 -0.4152 -0.4932 -0.2085
 5629SOL    HW128346   4.015   0.409   7.480  0.9231  1.4726 -0.8277
 5629SOL    HW228347   4.145   0.393   7.412 -1.3278  0.6403 -0.2720
 5630SOL     OW28348   0.213   0.492  12.098 -0.4275  0.1368  1.1242
 5630SOL    HW128349   0.146   0.547  12.057 -0.0197  1.9386  2.9035
 5630SOL    HW228350   0.291   0.544  12.078 -0.1682 -1.0937 -1.1842
 5631SOL     OW28351   0.057   0.004   7.603 -0.5850  0.2490 -0.0975
 5631SOL    HW128352   4.698   0.048   7.629 -0.1831  1.1895 -0.4115
 5631SOL    HW228353   0.034   4.635   7.611 -0.2259  0.2600  1.1107
 5632SOL     OW28354   2.602   0.330  14.930 -0.2514  0.2909  0.0302
 5632SOL    HW128355   2.688   0.309  14.967 -0.7431 -0.5243  0.6911
 5632SOL    HW228356   2.602   0.272  14.853  0.5668  0.7288 -0.3029
 5633SOL     OW28357   0.811   4.152  10.270 -0.4887  0.2971  0.3766
 5633SOL    HW128358   0.873   4.221  10.249  0.4876 -0.6723  0.0796
 5633SOL    HW228359   0.796   4.119  10.181 -2.2060  2.1859 -0.0338
 5634SOL     OW28360   0.521   4.594  10.526 -0.0120 -0.2169  0.5967
 5634SOL    HW128361   0.495   4.656  10.594 -0.9361 -1.2448  1.1890
 5634SOL    HW228362   0.610   4.578  10.557 -0.1402 -0.5655  0.7931
 5635SOL     OW28363   3.182   2.574   3.271 -0.2646  0.4645  0.2952
 5635SOL    HW128364   3.204   2.559   3.179  2.0907 -1.7421  1.2220
 5635SOL    HW228365   3.187   2.489   3.314 -1.1845  0.9487  1.3439
 5636SOL     OW28366   0.986   1.446  10.745 -0.5215  0.3394 -0.2578
 5636SOL    HW128367   0.979   1.515  10.679  0.9468 -1.2483 -2.0570
 5636SOL    HW228368   0.967   1.368  10.693 -0.4454  0.2862 -0.2042
 5637SOL     OW28369   3.990   2.170   6.085 -0.1460 -0.1055 -0.2114
 5637SOL    HW128370   3.954   2.133   6.005  1.5584  0.0467 -1.0465
 5637SOL    HW228371   4.070   2.218   6.065  0.2224 -0.1012  1.2383
 5638SOL     OW28372   4.238   2.386   8.850  0.3076 -0.0436  0.2479
 5638SOL    HW128373   4.224   2.456   8.914  1.3910  0.2259  0.1802
 5638SOL    HW228374   4.333   2.384   8.849  0.2412 -0.7451 -2.5396
 5639SOL     OW28375   4.710   1.404  11.946  0.4682  0.1003  0.2207
 5639SOL    HW128376   0.068   1.376  11.902  0.1333 -2.9974  1.6067
 5639SOL    HW228377   0.023   1.398  12.035  0.5411 -1.6088  0.0743
 5640SOL     OW28378   4.034   2.030   6.309 -0.1241  0.9039 -0.2213
 5640SOL    HW128379   4.101   1.963   6.295 -0.1786  0.4906  1.4756
 5640SOL    HW228380   4.008   2.065   6.224  0.8820  3.3745  0.4544
 5641SOL     OW28381   3.977   1.317  10.923  0.2045  0.4610 -0.3118
 5641SOL    HW128382   3.963   1.381  10.992  0.1743  0.9365 -0.7586
 5641SOL    HW228383   4.068   1.326  10.894 -0.0973  0.3881 -1.2918
 5642SOL     OW28384   2.019   3.285   2.726 -0.0044 -0.5542  0.2434
 5642SOL    HW128385   2.017   3.206   2.780  2.4940 -2.1273 -1.9685
 5642SOL    HW228386   1.933   3.325   2.742  0.1368  0.3122 -1.1878
 5643SOL     OW28387   4.151   1.167   7.661  0.9665 -0.1149 -0.8416
 5643SOL    HW128388   4.233   1.118   7.649  0.7726 -0.2268 -1.6542
 5643SOL    HW228389   4.171   1.254   7.627  0.9084  0.4449  0.5699
 5644SOL     OW28390   2.321   0.798  14.453 -0.1448  0.2574 -0.4778
 5644SOL    HW128391   2.347   0.708  14.432  1.2090  0.5780 -0.1852
 5644SOL    HW228392   2.306   0.830  14.365  0.1591 -0.1032 -0.6616
 5645SOL     OW28393   2.295   4.451   6.651 -0.2775 -0.0973  0.0196
 5645SOL    HW128394   2.232   4.436   6.722  0.5496 -0.5644  0.6614
 5645SOL    HW228395   2.377   4.473   6.696  0.8247  0.0685 -2.0600
 5646SOL     OW28396   4.055   0.278   1.279 -0.5020  0.0296  0.0628
 5646SOL    HW128397   4.045   0.373   1.282  1.4010  0.1925  1.5722
 5646SOL    HW228398   4.105   0.268   1.198  2.3178  0.7688  1.7166
 5647SOL     OW28399   2.433   1.874  15.868  0.4426 -0.7244  0.1301
 5647SOL    HW128400   2.459   1.809  15.933 -0.7503  2.0384  3.3594
 5647SOL    HW228401   2.479   1.830  15.797 -1.1175 -0.4287 -1.0810
 5648SOL     OW28402   3.230   0.718   2.513 -0.2179 -0.0581 -0.1346
 5648SOL    HW128403   3.152   0.675   2.480  0.4945 -0.3386 -1.4437
 5648SOL    HW228404   3.297   0.666   2.470 -0.5128 -1.1679  0.7675
 5649SOL     OW28405   0.522   3.919   7.860  0.6417  0.3602 -0.0517
 5649SOL    HW128406   0.549   3.827   7.858 -1.0320 -0.1119 -0.5810
 5649SOL    HW228407   0.430   3.909   7.835  1.0057  1.7187 -1.9045
 5650SOL     OW28408   2.743   3.073   5.561  0.0764  0.1655  0.4134
 5650SOL    HW128409   2.791   3.071   5.478  3.2006  1.1403  2.2028
 5650SOL    HW228410   2.742   2.978   5.575 -0.7441  0.0059 -0.7595
 5651SOL     OW28411   2.237   4.636   7.323  0.0812 -0.2128 -0.2440
 5651SOL    HW128412   2.272   4.600   7.405  1.1577  1.1599 -0.1033
 5651SOL    HW228413   2.154   4.656   7.365  0.4741 -0.3436  0.5884
 5652SOL     OW28414   0.102   3.577   3.821  0.1574 -0.1730  0.3202
 5652SOL    HW128415   0.021   3.554   3.866  0.6497 -0.6877  0.9351
 5652SOL    HW228416   0.089   3.672   3.824  0.0181 -0.2045  0.7040
 5653SOL     OW28417   2.457   3.791   6.266  0.0076 -0.2032 -0.4094
 5653SOL    HW128418   2.477   3.883   6.281  3.3865 -0.7745 -1.4503
 5653SOL    HW228419   2.364   3.808   6.248 -0.0698 -2.3226 -2.0353
 5654SOL     OW28420   1.463   3.184   6.161 -0.0760  0.2551 -0.5170
 5654SOL    HW128421   1.428   3.147   6.242 -0.7915  2.7190  0.3179
 5654SOL    HW228422   1.406   3.258   6.139  2.9647  2.8233  0.1717
 5655SOL     OW28423   4.459   4.524   6.542  0.5838  0.1890 -0.0689
 5655SOL    HW128424   4.520   4.463   6.501 -0.6178 -0.7272 -0.4914
 5655SOL    HW228425   4.378   4.483   6.511  0.1750  2.5040 -2.0108
 5656SOL     OW28426   1.743   2.349   9.053  0.0399  0.0546  0.1021
 5656SOL    HW128427   1.786   2.316   9.132  1.1517  0.9796 -0.1293
 5656SOL    HW228428   1.811   2.409   9.024 -0.3089  0.4806  0.1559
 5657SOL     OW28429   3.055   2.054   4.759 -0.2790  0.3516 -0.0788
 5657SOL    HW128430   3.018   1.977   4.803  1.3108 -0.4667 -0.1840
 5657SOL    HW228431   3.004   2.056   4.677  0.3680  1.0883 -0.4600
 5658SOL     OW28432   1.804   3.448   0.055 -0.0751  0.1228  0.1956
 5658SOL    HW128433   1.889   3.486   0.034 -0.0147 -0.4504 -0.6125
 5658SOL    HW228434   1.763   3.435  17.664  0.1275  0.9839 -0.0353
 5659SOL     OW28435   0.620   1.066  14.959  0.1330 -0.5278  0.1234
 5659SOL    HW128436   0.645   0.974  14.970 -1.5294 -0.9575  0.2894
 5659SOL    HW228437   0.545   1.073  15.019 -0.5687 -2.0078 -0.5734
 5660SOL     OW28438   3.026   3.631   9.232  0.9716 -0.0229 -0.3245
 5660SOL    HW128439   3.035   3.701   9.296 -2.9776  0.0348  0.2004
 5660SOL    HW228440   3.100   3.572   9.243  0.7685 -0.4627 -1.2784
 5661SOL     OW28441   0.771   2.998  12.154  0.1783  0.5403  0.0993
 5661SOL    HW128442   0.815   3.064  12.208 -0.3330  1.1948 -0.2832
 5661SOL    HW228443   0.683   3.014  12.189 -0.5271  0.3361 -1.5940
 5662SOL     OW28444   0.688   4.356   4.271  0.0167 -0.5843 -0.0296
 5662SOL    HW128445   0.655   4.372   4.359 -1.1539 -0.7560 -0.4295
 5662SOL    HW228446   0.752   4.426   4.258  0.6694 -1.2099 -0.2223
 5663SOL     OW28447   2.710   2.671   7.025 -0.3167 -0.7887 -0.0674
 5663SOL    HW128448   2.635   2.613   7.032 -0.4792 -0.7151 -1.1638
 5663SOL    HW228449   2.694   2.711   6.939  0.6324  0.7687  0.4638
 5664SOL     OW28450   3.161   2.320  14.784 -0.4793 -0.4919 -0.0857
 5664SOL    HW128451   3.249   2.286  14.769 -0.7238 -1.8102  1.4632
 5664SOL    HW228452   3.114   2.261  14.725  0.0026 -0.5080 -0.4569
 5665SOL     OW28453   2.138   3.424   7.798 -0.1245 -0.1780  0.3169
 5665SOL    HW128454   2.129   3.334   7.765 -0.6313 -0.0831  0.1984
 5665SOL    HW228455   2.171   3.464   7.718 -2.2300  1.4972  0.2886
 5666SOL     OW28456   0.810   3.951   7.501 -0.8724  0.1815  0.4410
 5666SOL    HW128457   0.756   3.885   7.458  0.0764  0.1658 -0.7194
 5666SOL    HW228458   0.892   3.903   7.509 -0.6526  0.4007 -0.6175
 5667SOL     OW28459   4.454   0.187   4.987 -0.1052  0.1739  0.2748
 5667SOL    HW128460   4.375   0.241   4.996  1.1797  1.9386  0.9610
 5667SOL    HW228461   4.478   0.207   4.897  2.1323  0.2483  0.8756
 5668SOL     OW28462   1.555   2.511  14.853 -0.0378 -0.2599 -0.3604
 5668SOL    HW128463   1.533   2.420  14.833  0.9040 -0.5883  0.0910
 5668SOL    HW228464   1.590   2.504  14.942  1.0001  0.5509 -0.7004
 5669SOL     OW28465   2.860   0.989   6.388 -0.2382 -0.8859 -0.6129
 5669SOL    HW128466   2.927   1.026   6.331 -1.3894  1.5747 -0.3759
 5669SOL    HW228467   2.879   1.029   6.473  0.4839 -0.2031 -1.1071
 5670SOL     OW28468   0.140   2.605   2.286 -0.6489 -0.1352 -0.3451
 5670SOL    HW128469   0.079   2.675   2.261 -0.9737 -1.1030 -2.2557
 5670SOL    HW228470   0.131   2.553   2.206  0.0547 -0.2862 -0.3257
 5671SOL     OW28471   0.393   1.904   0.597  0.5622 -0.1074  0.1622
 5671SOL    HW128472   0.382   1.921   0.504  1.7368  0.8601  0.1978
 5671SOL    HW228473   0.438   1.820   0.587  1.4790  0.3522  0.3994
 5672SOL     OW28474   0.353   0.467   5.118  0.2993 -0.5403  0.1891
 5672SOL    HW128475   0.424   0.408   5.091 -0.5324 -1.4303 -0.0352
 5672SOL    HW228476   0.391   0.553   5.098  1.3191 -0.3265  2.9357
 5673SOL     OW28477   2.193   0.649   0.718  0.4453 -0.6404  0.1617
 5673SOL    HW128478   2.219   0.735   0.687 -1.6100 -0.2266 -0.3811
 5673SOL    HW228479   2.099   0.657   0.735  0.5111  0.1184  0.1523
 5674SOL     OW28480   4.131   4.673   7.866  0.9294 -0.3737  0.3268
 5674SOL    HW128481   4.171   4.611   7.928 -0.2403 -1.0216  0.4313
 5674SOL    HW228482   4.077   0.006   7.920 -2.7760 -2.8061 -0.8180
 5675SOL     OW28483   3.855   4.511   5.153 -0.2504  0.4264 -0.5696
 5675SOL    HW128484   3.815   4.468   5.078  3.6012 -0.5344 -2.0871
 5675SOL    HW228485   3.780   4.543   5.203  0.7446  1.9069 -0.0344
 5676SOL     OW28486   2.371   2.587   8.344  0.3643 -0.0220  0.3804
 5676SOL    HW128487   2.360   2.523   8.414 -0.5072  1.7450  1.8574
 5676SOL    HW228488   2.427   2.536   8.285  1.6195  0.4097  1.1987
 5677SOL     OW28489   0.333   0.669  15.034  0.5253 -0.2897 -0.3119
 5677SOL    HW128490   0.274   0.615  14.983  1.9571 -3.1344  1.0103
 5677SOL    HW228491   0.310   0.754  14.998 -0.6096 -0.5073 -0.1074
 5678SOL     OW28492   2.644   2.428  16.495 -0.1515  0.5169  0.4557
 5678SOL    HW128493   2.723   2.472  16.527 -0.9124  1.5048  0.9738
 5678SOL    HW228494   2.587   2.439  16.571  0.2781  1.2238  0.6805
 5679SOL     OW28495   1.370   0.338   0.381  0.1044  0.2622  0.0802
 5679SOL    HW128496   1.279   0.368   0.380  0.1314  0.3005 -1.9156
 5679SOL    HW228497   1.418   0.420   0.381  1.6344 -0.6436 -0.8775
 5680SOL     OW28498   0.032   3.300   6.073 -0.7594 -0.2670 -0.1645
 5680SOL    HW128499   0.063   3.216   6.105 -1.2616 -0.1903  0.5191
 5680SOL    HW228500   4.689   3.265   6.013 -1.9146  1.5101  0.0582
 5681SOL     OW28501   2.447   1.562  16.801 -0.2597 -0.4983 -0.2793
 5681SOL    HW128502   2.402   1.522  16.875  1.0702 -1.6287 -0.0889
 5681SOL    HW228503   2.461   1.646  16.845 -0.2685 -0.0937 -1.0477
 5682SOL     OW28504   2.612   4.641   7.196 -0.1856 -0.2417  0.3537
 5682SOL    HW128505   2.570   0.003   7.190 -2.1552 -1.1543  1.3364
 5682SOL    HW228506   2.691   4.651   7.250 -1.1666 -0.1505  1.7685
 5683SOL     OW28507   4.481   1.032   9.039 -0.1619  0.3496  0.5798
 5683SOL    HW128508   4.513   1.002   8.954 -1.3345 -0.4061  0.4045
 5683SOL    HW228509   4.544   0.983   9.090 -0.2885  0.7071  1.0778
 5684SOL     OW28510   1.588   2.780   4.555 -0.0767  0.2680 -0.3685
 5684SOL    HW128511   1.627   2.710   4.502 -1.2454 -2.1580  1.9714
 5684SOL    HW228512   1.664   2.837   4.570  2.1070 -2.9511  0.7731
 5685SOL     OW28513   0.495   1.668   5.110 -0.7007  0.0290  0.1297
 5685SOL    HW128514   0.454   1.633   5.189 -0.8846 -0.2670 -0.0938
 5685SOL    HW228515   0.436   1.741   5.091 -1.8103 -1.1897 -1.0875
 5686SOL     OW28516   3.742   2.250   6.443  0.3512  0.2072  0.5656
 5686SOL    HW128517   3.743   2.157   6.421 -0.2873  0.4471 -0.4865
 5686SOL    HW228518   3.830   2.262   6.478  1.0381 -1.0360 -0.7415
 5687SOL     OW28519   3.324   3.395   3.854 -0.0323  0.0806 -0.0004
 5687SOL    HW128520   3.236   3.410   3.818  0.2872  0.2867 -0.7069
 5687SOL    HW228521   3.338   3.313   3.806  0.4316 -0.0980  0.4438
 5688SOL     OW28522   2.797   3.682   2.017 -0.4347  1.1023 -0.1766
 5688SOL    HW128523   2.855   3.616   2.055 -1.0894  1.5743  1.6561
 5688SOL    HW228524   2.862   3.720   1.958  0.9330 -1.1278 -0.1094
 5689SOL     OW28525   1.749   2.016  17.521 -0.3630  0.6044  0.4610
 5689SOL    HW128526   1.785   2.078  17.584 -3.2957  3.8201 -0.9701
 5689SOL    HW228527   1.831   1.970  17.504 -0.1634  1.1674 -0.1291
 5690SOL     OW28528   3.707   3.711   5.082 -0.4230 -0.0537 -0.6396
 5690SOL    HW128529   3.617   3.743   5.087 -1.1471 -2.2791  0.1703
 5690SOL    HW228530   3.738   3.736   5.169  0.7578  0.4242 -1.1901
 5691SOL     OW28531   0.263   3.341   7.842 -0.1439 -0.0507 -0.1046
 5691SOL    HW128532   0.229   3.405   7.779 -0.2118  1.3094  1.3352
 5691SOL    HW228533   0.217   3.263   7.811  0.1042  0.2700 -1.3128
 5692SOL     OW28534   4.012   1.127  13.829 -0.3523  0.1463  0.0548
 5692SOL    HW128535   4.034   1.052  13.885 -4.2697  0.0266  1.4504
 5692SOL    HW228536   4.091   1.119  13.777 -1.2229  0.8545 -1.3617
 5693SOL     OW28537   1.586   2.285   8.361 -0.3634 -0.2706 -0.2609
 5693SOL    HW128538   1.542   2.275   8.276  0.1122 -1.0335 -0.4185
 5693SOL    HW228539   1.521   2.300   8.430  0.3857  2.7183 -0.2357
 5694SOL     OW28540   4.458   4.160  17.282 -0.2406  0.6231 -0.3496
 5694SOL    HW128541   4.455   4.219  17.207 -1.0403  1.5525  0.4073
 5694SOL    HW228542   4.502   4.224  17.339  0.0080  0.8319 -0.7771
 5695SOL     OW28543   2.340   2.996   1.379 -0.4063 -0.1274 -0.4566
 5695SOL    HW128544   2.415   3.053   1.397  0.4035 -0.6403 -2.1340
 5695SOL    HW228545   2.372   2.944   1.305 -0.0249 -0.9627  0.2839
 5696SOL     OW28546   1.029   1.331  10.138  0.3669  0.1629  0.3116
 5696SOL    HW128547   1.070   1.414  10.159 -0.1308  0.8887 -1.5341
 5696SOL    HW228548   1.069   1.258  10.185  0.8064 -1.2446 -2.2125
 5697SOL     OW28549   1.087   1.567  10.217 -0.1861  0.0904 -0.0173
 5697SOL    HW128550   1.044   1.644  10.181  0.2571 -0.1774 -1.1287
 5697SOL    HW228551   1.181   1.583  10.205  0.0683 -1.2125  0.2407
 5698SOL     OW28552   0.353   2.610   6.180 -0.3335 -0.0308 -0.1161
 5698SOL    HW128553   0.384   2.523   6.155  1.4457  0.6550 -0.2320
 5698SOL    HW228554   0.359   2.648   6.092  0.5662 -1.6010 -0.7320
 5699SOL     OW28555   2.100   1.587   0.887 -0.0407 -0.3405 -0.2575
 5699SOL    HW128556   2.070   1.669   0.928  1.7706  0.1940  0.0030
 5699SOL    HW228557   2.097   1.523   0.957  0.3157 -1.2115 -1.0459
 5700SOL     OW28558   0.946   3.957  15.776 -0.3691 -0.4007 -0.5141
 5700SOL    HW128559   0.894   4.023  15.822 -1.3576 -0.6446 -1.2976
 5700SOL    HW228560   0.978   3.915  15.856 -1.6757 -0.0147  0.2133
 5701SOL     OW28561   4.402   1.109   3.131  0.0984 -0.3920  0.1182
 5701SOL    HW128562   4.452   1.161   3.195  0.6475  1.9093 -2.1518
 5701SOL    HW228563   4.453   1.028   3.127  0.4521 -0.1191 -0.9345
 5702SOL     OW28564   3.056   1.022   0.359 -0.2353 -0.1601 -1.0712
 5702SOL    HW128565   2.980   1.081   0.367 -0.7006 -0.7854 -0.9179
 5702SOL    HW228566   3.038   0.979   0.276  1.5784  1.1289 -2.1247
 5703SOL     OW28567   3.218   3.797   2.949 -0.0029  0.3167 -0.1851
 5703SOL    HW128568   3.168   3.774   3.027  1.1431  4.3279  1.7712
 5703SOL    HW228569   3.284   3.852   2.990  1.6544  0.1096 -2.5669
 5704SOL     OW28570   4.346   3.144  16.862 -0.2359 -0.0277  0.1854
 5704SOL    HW128571   4.347   3.068  16.921  0.9113  0.8542  1.3265
 5704SOL    HW228572   4.387   3.099  16.788  1.8254  2.0535  0.0253
 5705SOL     OW28573   1.912   2.525   8.200  0.2040 -0.1771 -0.1121
 5705SOL    HW128574   1.904   2.430   8.191 -0.4658 -0.1327  0.0565
 5705SOL    HW228575   2.007   2.536   8.187  0.4059 -0.0099  1.4664
 5706SOL     OW28576   3.023   2.704   3.801 -0.4209  1.1265  0.1662
 5706SOL    HW128577   3.047   2.616   3.831 -0.9161  0.5065 -1.2860
 5706SOL    HW228578   2.928   2.697   3.790 -0.0992 -1.0211 -1.2625
 5707SOL     OW28579   0.242   2.219   5.425 -0.3418 -0.5115  0.1433
 5707SOL    HW128580   0.178   2.267   5.478  0.8438 -0.5795  1.6585
 5707SOL    HW228581   0.200   2.234   5.341  1.9814 -1.3735 -1.1714
 5708SOL     OW28582   2.126   1.926   8.943 -0.5210  0.0403  0.5589
 5708SOL    HW128583   2.083   1.987   9.004  1.0483 -0.1632  1.8815
 5708SOL    HW228584   2.202   1.902   8.997 -1.2987 -2.7466  0.4236
 5709SOL     OW28585   0.517   0.505  16.740 -0.8847 -0.1265  0.1441
 5709SOL    HW128586   0.573   0.508  16.818 -0.4002 -0.9925 -0.1687
 5709SOL    HW228587   0.479   0.593  16.740  2.3847  1.2911 -1.8917
 5710SOL     OW28588   0.080   2.778   2.817  0.1536  0.7704 -0.5477
 5710SOL    HW128589   0.069   2.736   2.903  3.5813  0.3232 -0.3199
 5710SOL    HW228590   0.019   2.729   2.762  0.7374  0.3577 -0.8339
 5711SOL     OW28591   3.261   3.000   6.916  0.2948  0.0256 -0.4349
 5711SOL    HW128592   3.232   2.973   7.003 -0.3136  1.5636 -0.1717
 5711SOL    HW228593   3.191   2.958   6.866  0.2217  0.2992 -0.5619
 5712SOL     OW28594   0.756   4.249   4.587 -0.5356  0.3414 -0.3129
 5712SOL    HW128595   0.762   4.184   4.657 -0.4361 -1.6947 -2.1932
 5712SOL    HW228596   0.663   4.239   4.565 -0.3340 -0.0530 -0.9688
 5713SOL     OW28597   4.146   0.044   5.996  0.1364 -0.1993 -0.5181
 5713SOL    HW128598   4.185   0.014   6.078 -0.3927  1.2253  0.2610
 5713SOL    HW228599   4.210   0.019   5.930  0.4403  0.6564 -0.5524
 5714SOL     OW28600   2.267   0.441   3.883 -0.5618  0.1758  0.1915
 5714SOL    HW128601   2.173   0.454   3.878 -0.7006 -0.8779  0.0678
 5714SOL    HW228602   2.300   0.523   3.920 -0.6321 -0.4500  1.6233
 5715SOL     OW28603   1.784   1.005   9.736  0.3055  0.0209 -0.0922
 5715SOL    HW128604   1.810   0.917   9.760  0.1421 -0.1348 -0.4772
 5715SOL    HW228605   1.813   1.015   9.645 -1.8018  2.5018 -0.5075
 5716SOL     OW28606   4.102   3.821   3.833 -0.3919 -0.0970 -0.1879
 5716SOL    HW128607   4.097   3.904   3.787 -3.4581  0.6391  1.4964
 5716SOL    HW228608   4.010   3.798   3.826  0.0118 -2.1644  1.0678
 5717SOL     OW28609   0.668   2.616   9.941 -0.1462 -0.1068  0.4745
 5717SOL    HW128610   0.736   2.667   9.896  0.9328 -2.2436 -0.2989
 5717SOL    HW228611   0.663   2.536   9.890  2.7390  1.8912 -2.9315
 5718SOL     OW28612   0.867   2.123   9.777  0.0149  0.0633  0.5372
 5718SOL    HW128613   0.871   2.213   9.808 -1.9075  0.5686 -0.6838
 5718SOL    HW228614   0.862   2.145   9.684 -1.4970  0.9972  0.8550
 5719SOL     OW28615   3.234   2.443   1.783 -0.0465  0.4791  0.2370
 5719SOL    HW128616   3.188   2.509   1.730  1.4044  2.1815  1.1267
 5719SOL    HW228617   3.277   2.382   1.722  0.4343  0.1265  0.9276
 5720SOL     OW28618   3.363   2.932   7.495  0.0870 -0.1248 -0.0699
 5720SOL    HW128619   3.414   2.922   7.414  0.8157  0.7995  0.2713
 5720SOL    HW228620   3.333   2.842   7.501  4.1098 -1.2398  3.1289
 5721SOL     OW28621   3.253   1.735   3.849 -0.5751  0.4573 -0.0144
 5721SOL    HW128622   3.278   1.646   3.874  0.7267  0.7407 -0.3330
 5721SOL    HW228623   3.194   1.707   3.780 -1.1094 -0.2598  0.7346
 5722SOL     OW28624   4.621   4.306   8.399  0.0695  0.2102 -0.4714
 5722SOL    HW128625   4.667   4.242   8.345  0.4274 -0.0161  0.1051
 5722SOL    HW228626   4.682   4.380   8.398 -0.5419  0.7473  1.1873
 5723SOL     OW28627   4.433   4.154   4.893  0.1286 -0.1026 -0.1301
 5723SOL    HW128628   4.495   4.092   4.855 -0.0988  0.5430 -1.5538
 5723SOL    HW228629   4.450   4.230   4.837 -1.8361  0.3319 -0.1347
 5724SOL     OW28630   1.430   2.808   4.900  0.2462  0.3268  0.5080
 5724SOL    HW128631   1.413   2.714   4.893 -0.0012  0.4192 -0.1273
 5724SOL    HW228632   1.521   2.821   4.872  0.1164 -2.8236 -1.3817
 5725SOL     OW28633   1.925   4.664   4.153  0.3222 -0.2769  0.3147
 5725SOL    HW128634   1.957   4.676   4.243 -2.0233  3.6911  0.5865
 5725SOL    HW228635   1.997   4.633   4.099 -0.0116 -0.1580 -0.1920
 5726SOL     OW28636   1.774   1.447  11.375 -0.6700  0.6919 -0.0544
 5726SOL    HW128637   1.693   1.462  11.326 -0.6931  1.4305  0.1982
 5726SOL    HW228638   1.818   1.377  11.328  0.1306  1.0939  0.1089
 5727SOL     OW28639   3.184   4.692   2.164 -0.0539 -0.0618  0.2434
 5727SOL    HW128640   3.225   4.621   2.115 -1.1648 -0.2068 -0.4672
 5727SOL    HW228641   3.223   0.048   2.128 -1.2673  1.1391  1.5329
 5728SOL     OW28642   1.052   3.761   3.735 -0.3737 -0.5403  0.1257
 5728SOL    HW128643   1.081   3.842   3.695 -0.5747  0.3586  1.7989
 5728SOL    HW228644   1.128   3.749   3.792  0.0053  1.0208 -0.0722
 5729SOL     OW28645   1.811   4.549  16.279 -0.0784 -0.0071 -0.0338
 5729SOL    HW128646   1.815   4.608  16.204 -3.5432 -0.4528 -0.5835
 5729SOL    HW228647   1.719   4.564  16.303 -0.6104  1.0685 -2.7188
 5730SOL     OW28648   0.547   3.096   0.745 -0.2294 -0.2968  0.6630
 5730SOL    HW128649   0.470   3.116   0.691 -0.0159 -0.9835  0.1085
 5730SOL    HW228650   0.538   3.166   0.810  0.8610 -0.9513  1.5306
 5731SOL     OW28651   4.681   2.636   2.613 -0.1458 -0.0876  0.0194
 5731SOL    HW128652   4.619   2.637   2.540  2.6955  0.7653 -2.3839
 5731SOL    HW228653   0.004   2.556   2.587 -0.4048 -0.4768  0.7766
 5732SOL     OW28654   2.980   2.114   3.540 -0.3409  0.4237 -0.5090
 5732SOL    HW128655   3.047   2.046   3.541 -0.7044  0.1181  2.0110
 5732SOL    HW228656   2.918   2.074   3.479  0.4656 -0.8107 -0.5177
 5733SOL     OW28657   1.969   3.743   6.280 -0.5385 -0.4003 -0.0341
 5733SOL    HW128658   1.878   3.730   6.253 -1.2735  1.1891  1.7201
 5733SOL    HW228659   1.987   3.672   6.342 -1.6170 -1.5249 -0.9877
 5734SOL     OW28660   3.214   4.562   7.367 -0.2640 -0.1176  0.2628
 5734SOL    HW128661   3.168   4.530   7.445 -1.2466  1.9924  0.5493
 5734SOL    HW228662   3.218   4.658   7.370  0.0292 -0.0458 -2.7604
 5735SOL     OW28663   2.626   3.100   6.192 -0.2386  0.1815 -0.2911
 5735SOL    HW128664   2.596   3.058   6.272  1.0024 -0.6991 -0.2921
 5735SOL    HW228665   2.595   3.031   6.133  0.2911  0.2689 -0.6802
 5736SOL     OW28666   0.753   1.100   4.011  0.0643 -0.1287 -0.2300
 5736SOL    HW128667   0.817   1.170   3.995  1.3229 -1.1878  0.2193
 5736SOL    HW228668   0.780   1.024   3.960  2.0768 -0.2518  1.0464
 5737SOL     OW28669   3.522   3.814   8.269 -0.2319 -0.1350  0.3279
 5737SOL    HW128670   3.550   3.743   8.327 -0.7747  0.5444  1.4291
 5737SOL    HW228671   3.484   3.880   8.327 -0.5341  0.5601 -0.6559
 5738SOL     OW28672   4.274   2.223  13.996 -0.2956  0.5451 -0.0245
 5738SOL    HW128673   4.282   2.238  14.090 -0.2111  2.9710 -0.4253
 5738SOL    HW228674   4.215   2.147  13.997  2.8919 -1.9797 -2.3450
 5739SOL     OW28675   1.260   0.515  14.578 -0.2545  0.2084  0.4843
 5739SOL    HW128676   1.269   0.562  14.661 -2.6688 -1.5165  1.7239
 5739SOL    HW228677   1.165   0.505  14.578 -0.2936  0.5853 -0.6015
 5740SOL     OW28678   1.052   4.085  10.520 -0.5347  0.8909 -0.1712
 5740SOL    HW128679   0.985   4.018  10.530 -0.6697  1.0853  0.2517
 5740SOL    HW228680   1.130   4.034  10.500 -1.5122  0.1182 -1.9089
 5741SOL     OW28681   3.041   1.061   2.615  0.1111 -0.1467 -0.1757
 5741SOL    HW128682   3.016   1.149   2.586  0.7608  0.7533  1.9823
 5741SOL    HW228683   3.136   1.061   2.598  0.0219 -0.2433 -0.6861
 5742SOL     OW28684   1.088   0.127   5.649  0.8842  0.7467 -0.0072
 5742SOL    HW128685   1.160   0.186   5.625  0.9682  0.3363 -0.7758
 5742SOL    HW228686   1.020   0.149   5.586 -1.2564 -0.9274  1.7132
 5743SOL     OW28687   4.058   0.035  11.183 -0.2850  0.2551 -0.1518
 5743SOL    HW128688   4.031   0.127  11.173  1.4863  0.9474  1.4742
 5743SOL    HW228689   4.032   0.025  11.275 -1.4643 -0.0997 -0.5206
 5744SOL     OW28690   3.100   1.547   5.272  0.1810  0.5130  0.1528
 5744SOL    HW128691   3.101   1.592   5.188 -0.7723  2.4276  1.1441
 5744SOL    HW228692   3.129   1.468   5.227 -2.8333 -0.0614 -0.7730
 5745SOL     OW28693   4.382   2.795   8.168 -0.5076  0.2959  0.3418
 5745SOL    HW128694   4.452   2.770   8.228  0.7203  1.9503 -0.4315
 5745SOL    HW228695   4.342   2.709   8.151  1.2060 -0.3832 -0.2247
 5746SOL     OW28696   3.708   2.850   6.957 -0.5485  0.2275 -0.5087
 5746SOL    HW128697   3.624   2.896   6.966 -1.2236 -1.1326  0.2187
 5746SOL    HW228698   3.755   2.920   6.911  2.6405 -0.6314  1.4902
 5747SOL     OW28699   0.433   0.766   5.129 -0.2413 -0.5011  0.2863
 5747SOL    HW128700   0.496   0.735   5.064  0.8130 -1.4284  1.7428
 5747SOL    HW228701   0.494   0.811   5.188 -0.7989 -1.6374  1.7211
 5748SOL     OW28702   3.832   2.069   8.443 -0.2642 -0.1631 -0.4050
 5748SOL    HW128703   3.797   2.101   8.527 -0.6584 -0.4063 -0.4748
 5748SOL    HW228704   3.796   1.982   8.456  0.7569 -0.8795 -2.4249
 5749SOL     OW28705   0.548   2.260   2.911 -0.2010  0.2678 -0.4376
 5749SOL    HW128706   0.483   2.226   2.850 -0.1538  0.4266 -0.5770
 5749SOL    HW228707   0.618   2.285   2.851 -1.6122  3.3189 -0.7911
 5750SOL     OW28708   1.059   0.199  11.728 -0.0805  0.0945  0.0398
 5750SOL    HW128709   1.019   0.150  11.656 -0.9719 -0.0692  0.6431
 5750SOL    HW228710   1.132   0.144  11.757 -1.3635 -0.2065  2.7258
 5751SOL     OW28711   3.044   0.407   5.809 -0.5592  0.3159  0.2402
 5751SOL    HW128712   2.970   0.361   5.772 -0.3096  0.0945  0.0219
 5751SOL    HW228713   3.021   0.408   5.902  0.0655 -0.0405  0.4002
 5752SOL     OW28714   1.651   2.856   9.272 -0.2922  0.0263 -0.5512
 5752SOL    HW128715   1.732   2.826   9.231 -1.9105 -0.9491 -3.1174
 5752SOL    HW228716   1.650   2.794   9.345  1.7436  1.1332  0.3914
 5753SOL     OW28717   0.334   3.842   9.272  0.2609  0.0288  0.5536
 5753SOL    HW128718   0.265   3.823   9.336  0.3695 -2.4453 -0.0477
 5753SOL    HW228719   0.342   3.936   9.287 -0.0700  0.0587  0.5483
 5754SOL     OW28720   3.175   1.409   7.841  0.0698 -0.2890 -0.0697
 5754SOL    HW128721   3.244   1.470   7.815  0.0673 -0.8852 -1.4396
 5754SOL    HW228722   3.238   1.352   7.886 -0.1815 -0.7441 -0.2991
 5755SOL     OW28723   1.757   1.178  10.755 -0.0907  0.6026  0.1001
 5755SOL    HW128724   1.691   1.117  10.786  0.2599 -1.6169 -3.5503
 5755SOL    HW228725   1.748   1.244  10.824 -0.5591  0.7757 -0.1258
 5756SOL     OW28726   1.721   1.902   1.935  0.8239 -0.0436 -0.5337
 5756SOL    HW128727   1.744   1.886   2.027  1.5123 -0.7449 -0.8306
 5756SOL    HW228728   1.625   1.902   1.940  0.8547  1.7733 -0.0465
 5757SOL     OW28729   1.849   3.043   5.967 -0.1039 -0.1144 -0.2762
 5757SOL    HW128730   1.789   3.017   6.037  2.1461  0.3233  1.8251
 5757SOL    HW228731   1.832   3.137   5.980  0.5214  0.1353 -1.2700
 5758SOL     OW28732   0.241   0.829   8.397 -0.0695 -0.2346  0.2072
 5758SOL    HW128733   0.213   0.794   8.312 -2.0109 -1.2470  1.2639
 5758SOL    HW228734   0.221   0.922   8.385 -1.5753 -0.5437  0.3173
 5759SOL     OW28735   0.900   3.793   1.956  0.2033 -0.2380 -0.3042
 5759SOL    HW128736   0.823   3.849   1.955  0.5826  0.2666 -1.3437
 5759SOL    HW228737   0.921   3.800   2.049 -0.5504 -0.3716 -0.1285
 5760SOL     OW28738   0.386   0.722   9.113 -0.4646  0.6438 -0.5381
 5760SOL    HW128739   0.449   0.768   9.167 -0.7295 -0.7327  0.9435
 5760SOL    HW228740   0.311   0.748   9.167  0.4057  1.5025  0.2542
 5761SOL     OW28741   2.432   3.888  14.959 -0.0217 -0.2020  0.4502
 5761SOL    HW128742   2.513   3.873  14.910  0.2941  1.3695  0.5034
 5761SOL    HW228743   2.481   3.921  15.034 -0.3178 -0.2657  0.6740
 5762SOL     OW28744   0.237   3.663  16.086  0.3994 -0.0735  0.9355
 5762SOL    HW128745   0.274   3.575  16.080  0.9431  0.3067 -1.5777
 5762SOL    HW228746   0.276   3.693  16.168 -0.7422 -0.2009  1.5215
 5763SOL     OW28747   4.027   0.795   8.135  0.1113  0.0586 -0.1340
 5763SOL    HW128748   4.121   0.811   8.129 -0.2178  1.3729 -1.5930
 5763SOL    HW228749   4.027   0.700   8.149  1.7790  0.1048  0.2568
 5764SOL     OW28750   4.608   0.118  12.904  0.0425 -0.3086  0.0741
 5764SOL    HW128751   4.621   0.181  12.975  0.3085  0.8763 -1.0222
 5764SOL    HW228752   4.700   0.109  12.880 -0.0768  0.9887 -0.8633
 5765SOL     OW28753   4.084   1.070  12.335 -0.7933  0.2747  0.4953
 5765SOL    HW128754   3.999   1.066  12.291 -0.2350  2.1986 -0.7949
 5765SOL    HW228755   4.067   1.011  12.408  2.0365 -0.5033  0.5110
 5766SOL     OW28756   4.220   1.051   5.314  0.3306 -0.1742  0.2701
 5766SOL    HW128757   4.183   0.963   5.316  2.1821 -0.9557  0.1436
 5766SOL    HW228758   4.290   1.049   5.379 -0.0094 -1.0840  0.6028
 5767SOL     OW28759   3.056   4.187   6.207 -0.0514  0.3244  0.5282
 5767SOL    HW128760   2.993   4.138   6.155 -1.5958  3.4881 -0.5711
 5767SOL    HW228761   3.057   4.272   6.163  0.8931 -0.8659 -1.7715
 5768SOL     OW28762   2.874   0.207  16.050  0.3170 -0.2136  0.0752
 5768SOL    HW128763   2.969   0.193  16.048  0.3426 -0.0926  0.5563
 5768SOL    HW228764   2.841   0.122  16.080  2.7628 -1.1648  0.1089
 5769SOL     OW28765   3.624   1.156  12.835  0.4026 -1.0043  0.0373
 5769SOL    HW128766   3.627   1.136  12.741  0.5940 -1.4784  0.1436
 5769SOL    HW228767   3.702   1.208  12.848 -0.2573 -0.5526  2.1438
 5770SOL     OW28768   0.445   3.112   1.210  0.0141 -0.0477  0.4712
 5770SOL    HW128769   0.512   3.099   1.143 -0.3027 -2.0253  0.5412
 5770SOL    HW228770   0.501   3.147   1.279 -0.6074  1.9156 -0.0060
 5771SOL     OW28771   1.288   2.248  16.617  0.3760 -0.2646  0.2451
 5771SOL    HW128772   1.210   2.268  16.565 -1.3449 -1.7059  2.3005
 5771SOL    HW228773   1.342   2.326  16.600  1.8478 -1.5186 -0.8689
 5772SOL     OW28774   2.528   4.658   8.969  0.0602 -0.0888 -0.1921
 5772SOL    HW128775   2.470   4.582   8.978  1.5028 -1.0963  0.6180
 5772SOL    HW228776   2.576   4.659   9.051  0.0016  4.4643 -0.2534
 5773SOL     OW28777   1.142   4.127  16.289 -1.0010 -0.1518  0.1281
 5773SOL    HW128778   1.236   4.139  16.299 -0.4373 -2.7702 -1.7881
 5773SOL    HW228779   1.126   4.075  16.368 -1.7034 -0.5328 -0.2581
 5774SOL     OW28780   1.366   1.584   6.731 -0.0978 -0.3619  0.3222
 5774SOL    HW128781   1.342   1.493   6.713 -0.7580 -0.2957  0.8641
 5774SOL    HW228782   1.432   1.582   6.801  1.4529 -3.9446 -1.2617
 5775SOL     OW28783   1.783   2.978   1.214 -0.0472  0.4585  0.2835
 5775SOL    HW128784   1.878   2.980   1.221  0.0231 -0.1223 -0.5505
 5775SOL    HW228785   1.778   3.036   1.139 -1.0022 -0.1282 -0.1169
 5776SOL     OW28786   4.603   0.993   8.411 -0.2266 -0.5806  0.1618
 5776SOL    HW128787   4.677   1.017   8.468 -0.6349 -0.5318  0.6679
 5776SOL    HW228788   4.539   1.053   8.451 -0.9290 -1.8110  0.8680
 5777SOL     OW28789   2.951   2.315   1.020  0.1704  0.1352 -0.2727
 5777SOL    HW128790   2.882   2.294   0.957  0.8702 -0.5984 -0.7794
 5777SOL    HW228791   2.936   2.410   1.024  0.8194  0.3238 -2.4204
 5778SOL     OW28792   1.494   2.535  13.424  0.5873  0.5024  0.0223
 5778SOL    HW128793   1.476   2.452  13.468  2.5204  0.4435  0.6865
 5778SOL    HW228794   1.409   2.549  13.382  0.1097 -0.1441  0.7871
 5779SOL     OW28795   0.423   2.026  14.347 -0.3392 -0.0602  0.1196
 5779SOL    HW128796   0.368   1.953  14.375 -0.0078 -0.5766 -0.6027
 5779SOL    HW228797   0.488   1.979  14.295 -1.1381 -2.4056  1.2562
 5780SOL     OW28798   1.447   4.297   2.516  0.2273  0.0519  0.3238
 5780SOL    HW128799   1.526   4.285   2.568  1.0691 -0.5102 -1.0798
 5780SOL    HW228800   1.401   4.366   2.563  0.6459 -0.9228  2.1594
 5781SOL     OW28801   2.972   4.273   6.476 -0.4244  0.1040  0.5936
 5781SOL    HW128802   3.010   4.256   6.390 -1.3408  1.7686 -0.1388
 5781SOL    HW228803   2.961   4.183   6.504 -1.3157  0.1493  0.3920
 5782SOL     OW28804   0.993   3.864   1.024 -0.9836  0.1167  0.8006
 5782SOL    HW128805   0.971   3.870   0.932  1.8900  0.8107  0.1543
 5782SOL    HW228806   1.006   3.770   1.029  1.6691  0.4373  0.2332
 5783SOL     OW28807   2.558   2.754   5.609 -0.7919 -0.2844  0.1109
 5783SOL    HW128808   2.499   2.829   5.601 -1.8303 -1.0501  0.7552
 5783SOL    HW228809   2.620   2.772   5.538  1.6422  1.5260  2.6649
 5784SOL     OW28810   1.761   4.342   0.273  0.0413 -0.0934 -0.3713
 5784SOL    HW128811   1.713   4.380   0.346 -0.7364  0.3021 -1.0829
 5784SOL    HW228812   1.716   4.383   0.199 -0.7312  0.6905  0.5292
 5785SOL     OW28813   4.497   0.428   7.490  0.8432 -0.1598  0.7765
 5785SOL    HW128814   4.565   0.493   7.473 -1.4127  2.4362  1.6353
 5785SOL    HW228815   4.421   0.486   7.498  1.6932  0.9524  0.7078
 5786SOL     OW28816   0.603   3.715  17.572  0.2242 -0.9544 -0.2351
 5786SOL    HW128817   0.560   3.668  17.501 -2.5668  1.6509 -0.2819
 5786SOL    HW228818   0.572   3.669  17.650  0.4783 -0.2527  0.2874
 5787SOL     OW28819   3.778   4.212   5.856 -0.3814 -0.5307  0.3979
 5787SOL    HW128820   3.756   4.133   5.806  1.2365 -0.5136 -0.3443
 5787SOL    HW228821   3.854   4.180   5.905 -1.1511  0.5215  2.2920
 5788SOL     OW28822   3.919   4.494   3.253 -0.1892 -0.5506  0.8628
 5788SOL    HW128823   3.956   4.581   3.269 -0.4698  0.0752 -1.8793
 5788SOL    HW228824   3.944   4.476   3.163  0.0241 -1.5799  1.1294
 5789SOL     OW28825   3.534   3.435  17.610  0.1371  0.0633 -0.0746
 5789SOL    HW128826   3.488   3.462  17.530 -1.3810 -1.1446  0.3818
 5789SOL    HW228827   3.601   3.502  17.594 -0.2832 -0.0481 -2.3688
 5790SOL     OW28828   4.432   3.515   3.244 -0.3805 -0.1873  0.4774
 5790SOL    HW128829   4.414   3.577   3.173  2.2118  0.4183  0.3524
 5790SOL    HW228830   4.460   3.435   3.199  0.5195  0.0750  0.5723
 5791SOL     OW28831   1.807   1.781   7.013 -0.4545  0.3824 -0.3336
 5791SOL    HW128832   1.850   1.857   7.052  0.7765  0.4820 -1.9263
 5791SOL    HW228833   1.756   1.740   7.083  2.3061 -2.9121 -0.2728
 5792SOL     OW28834   2.776   2.915   5.895  0.5165 -0.0520  0.4688
 5792SOL    HW128835   2.841   2.925   5.965  0.1788  2.6566  0.4159
 5792SOL    HW228836   2.823   2.864   5.829  1.2503  0.5896  0.5010
 5793SOL     OW28837   1.695   1.555   5.797 -0.6604  0.1965  0.4854
 5793SOL    HW128838   1.693   1.543   5.892  2.4892 -1.2700  0.3752
 5793SOL    HW228839   1.784   1.588   5.782  0.0815 -2.9110 -2.0293
 5794SOL     OW28840   2.825   0.032   3.639 -0.1855  0.2726 -0.6366
 5794SOL    HW128841   2.835   0.125   3.619 -3.1759  0.7828  0.1128
 5794SOL    HW228842   2.730   0.017   3.633 -0.4354  1.3188  0.7020
 5795SOL     OW28843   3.207   4.123   8.605 -0.2160  0.3744 -0.1127
 5795SOL    HW128844   3.206   4.079   8.690  1.0994  0.7999  0.1416
 5795SOL    HW228845   3.188   4.211   8.639 -0.8512 -0.0796  0.6831
 5796SOL     OW28846   3.607   0.158  17.524  0.1396  0.1264 -0.3751
 5796SOL    HW128847   3.631   0.108  17.601 -1.4000  1.9651  1.2966
 5796SOL    HW228848   3.689   0.207  17.515  1.0171 -1.4001 -0.6089
 5797SOL     OW28849   3.927   1.941   6.615  0.4365 -0.2854 -0.2249
 5797SOL    HW128850   4.005   1.931   6.671  0.4407 -0.7693 -0.3187
 5797SOL    HW228851   3.884   2.004   6.672 -0.8850 -0.6643 -0.8189
 5798SOL     OW28852   2.053   2.630   5.003 -0.1320 -0.3408 -0.7034
 5798SOL    HW128853   2.118   2.569   5.038 -0.0351  1.6114  2.5006
 5798SOL    HW228854   2.104   2.708   5.024  1.6873 -1.4960 -0.8442
 5799SOL     OW28855   3.733   4.640   4.047  0.3742 -0.0868  0.1299
 5799SOL    HW128856   3.732   4.546   4.062 -0.5245  0.1788  1.6783
 5799SOL    HW228857   3.828   4.647   4.041  0.3651  0.3932  0.5316
 5800SOL     OW28858   2.071   1.040  12.783 -0.5234 -0.1376 -0.5620
 5800SOL    HW128859   2.124   1.086  12.719 -0.7889  1.7437  0.5755
 5800SOL    HW228860   2.023   1.113  12.823 -2.7641 -1.6973 -0.3831
 5801SOL     OW28861   0.995   0.616   4.697 -0.4039 -0.5047  0.1509
 5801SOL    HW128862   1.057   0.649   4.632  0.3038  0.5277  1.3555
 5801SOL    HW228863   0.930   0.686   4.688 -2.1670 -1.7269  3.5253
 5802SOL     OW28864   1.792   3.343   4.141  0.1633  0.1817  0.6150
 5802SOL    HW128865   1.818   3.337   4.049 -0.9534 -1.9624  0.4447
 5802SOL    HW228866   1.698   3.336   4.127  0.2791 -1.3934  0.5864
 5803SOL     OW28867   0.208   0.470   5.692  0.5984 -0.1635  0.1558
 5803SOL    HW128868   0.256   0.441   5.615 -0.8285 -1.8435 -0.1085
 5803SOL    HW228869   0.275   0.491   5.757 -1.5863  1.6493  1.8534
 5804SOL     OW28870   2.457   1.288   6.786 -0.1064 -0.0032  0.3366
 5804SOL    HW128871   2.481   1.284   6.694 -1.5412  0.4956 -0.0718
 5804SOL    HW228872   2.488   1.376   6.808  1.5861 -0.4437 -0.2967
 5805SOL     OW28873   4.149   1.681   3.313  1.0226  0.3995  0.1671
 5805SOL    HW128874   4.054   1.685   3.314  1.0438  0.7510  1.2737
 5805SOL    HW228875   4.152   1.588   3.336  2.1679  0.4000  0.0406
 5806SOL     OW28876   4.039   1.175   8.240 -0.2183  0.3032  0.3748
 5806SOL    HW128877   3.945   1.190   8.252 -0.2514  0.7232 -0.4137
 5806SOL    HW228878   4.065   1.267   8.234 -0.2209  0.1936 -1.2192
 5807SOL     OW28879   1.853   3.620   9.411 -0.0708  0.1222 -0.0445
 5807SOL    HW128880   1.916   3.603   9.342  1.6052  0.3939  1.4119
 5807SOL    HW228881   1.855   3.716   9.405  2.9539  0.0269 -0.3444
 5808SOL     OW28882   1.849   0.400   3.347 -0.0978  0.1617 -0.1600
 5808SOL    HW128883   1.917   0.355   3.298 -0.5638  0.9769 -1.5586
 5808SOL    HW228884   1.794   0.329   3.381  1.2889 -0.6300  0.4267
 5809SOL     OW28885   2.861   0.060   4.197 -0.1262  0.3020  0.7515
 5809SOL    HW128886   2.846   0.059   4.103 -4.7164 -0.4400  1.4884
 5809SOL    HW228887   2.952   0.034   4.203  0.2589  1.5646  0.4066
 5810SOL     OW28888   2.292   0.202   0.091 -0.4677 -0.2045 -0.2254
 5810SOL    HW128889   2.251   0.165   0.170  1.3336 -0.2824  0.6737
 5810SOL    HW228890   2.282   0.125   0.035 -5.3540  1.9251 -2.2540
 5811SOL     OW28891   4.106   2.498   7.576  0.5943  0.3013 -0.1672
 5811SOL    HW128892   4.173   2.488   7.508  2.6844  0.2396  1.8702
 5811SOL    HW228893   4.040   2.558   7.541 -1.0938 -0.1339  2.2971
 5812SOL     OW28894   0.302   3.145   8.546  0.2466  0.5081  0.0795
 5812SOL    HW128895   0.303   3.237   8.518 -0.1186  1.4996  3.2834
 5812SOL    HW228896   0.208   3.132   8.556  0.0978  1.9164  0.5321
 5813SOL     OW28897   1.583   1.865   8.419  0.0155 -0.0303 -0.4650
 5813SOL    HW128898   1.512   1.886   8.480 -0.6769  1.6530 -1.8472
 5813SOL    HW228899   1.628   1.797   8.467  0.3441 -0.0783 -0.8389
 5814SOL     OW28900   0.428   1.400   7.281 -0.2552  0.4140  0.1814
 5814SOL    HW128901   0.351   1.373   7.230  0.5118 -0.4332 -0.5268
 5814SOL    HW228902   0.461   1.313   7.302  1.2504  1.0941  0.6126
 5815SOL     OW28903   0.454   1.220  16.819  0.0968 -0.1328 -0.1683
 5815SOL    HW128904   0.382   1.268  16.861 -0.3219 -0.9275  0.0276
 5815SOL    HW228905   0.496   1.295  16.777 -0.1158  0.7317  1.1627
 5816SOL     OW28906   2.552   3.411   8.233 -0.2595 -0.3961  0.3856
 5816SOL    HW128907   2.558   3.449   8.321 -0.3772  0.7032 -0.0727
 5816SOL    HW228908   2.616   3.463   8.185 -0.5445 -2.6973 -2.4517
 5817SOL     OW28909   2.285   0.629  10.672  0.2861 -0.4010  0.0989
 5817SOL    HW128910   2.308   0.709  10.625 -1.2579 -0.1747 -0.2714
 5817SOL    HW228911   2.360   0.637  10.732 -0.5585  2.1180  0.7736
 5818SOL     OW28912   2.846   1.032   5.526 -0.6942  0.7147  0.2212
 5818SOL    HW128913   2.810   1.015   5.613 -0.3995 -0.3308  0.1352
 5818SOL    HW228914   2.766   1.070   5.489  0.1005  0.1767 -2.0408
 5819SOL     OW28915   3.247   3.569  10.650 -0.3272  0.4373  0.7484
 5819SOL    HW128916   3.255   3.477  10.676 -1.3109  0.6153  1.7046
 5819SOL    HW228917   3.224   3.616  10.731 -3.1212 -0.8425  0.7017
 5820SOL     OW28918   2.492   1.890   4.407  0.0804 -0.7617 -0.1575
 5820SOL    HW128919   2.491   1.844   4.323 -1.2385 -0.0957 -0.5182
 5820SOL    HW228920   2.583   1.882   4.433 -0.4802 -0.5555  1.9016
 5821SOL     OW28921   1.669   4.201   8.636  0.7389  0.0039  0.3088
 5821SOL    HW128922   1.680   4.183   8.729  0.2325  2.1135  0.7836
 5821SOL    HW228923   1.642   4.113   8.611 -0.4642  1.1946 -2.6427
 5822SOL     OW28924   0.629   1.936   4.542  0.2057 -0.1590  0.0072
 5822SOL    HW128925   0.595   1.870   4.602 -0.1833  1.9148  2.0639
 5822SOL    HW228926   0.720   1.950   4.569  0.5324 -2.7277  0.2250
 5823SOL     OW28927   0.707   0.496  10.329 -0.1462  0.3411 -0.9000
 5823SOL    HW128928   0.657   0.567  10.290  0.1767  0.1991 -1.5612
 5823SOL    HW228929   0.699   0.438  10.254  0.6848  2.0519 -2.3045
 5824SOL     OW28930   0.343   2.372   7.616  0.0528  0.1461 -0.5370
 5824SOL    HW128931   0.267   2.341   7.665  0.5288  0.8801  0.6774
 5824SOL    HW228932   0.352   2.301   7.552 -2.0870 -0.5786 -0.0292
 5825SOL     OW28933   4.186   4.094   3.927  0.0679 -0.0905  0.3544
 5825SOL    HW128934   4.143   4.094   4.012 -0.5034  1.2536  0.0659
 5825SOL    HW228935   4.256   4.029   3.923 -0.0257  0.0908 -3.7093
 5826SOL     OW28936   1.333   0.313   9.881  1.1775 -0.1656  0.0114
 5826SOL    HW128937   1.352   0.399   9.918 -1.9180  1.9478 -3.3049
 5826SOL    HW228938   1.410   0.266   9.912 -0.0031 -2.0711  0.1057
 5827SOL     OW28939   0.347   0.811   2.684 -0.3230  0.1715 -0.5120
 5827SOL    HW128940   0.261   0.779   2.657 -1.1552  2.6148 -0.7355
 5827SOL    HW228941   0.410   0.746   2.653 -0.3819 -0.1308 -0.0033
 5828SOL     OW28942   4.687   2.971   4.569 -0.1528 -0.1128  0.1914
 5828SOL    HW128943   4.708   2.878   4.575  0.2396  0.0662  1.6158
 5828SOL    HW228944   0.055   3.001   4.574  0.2960 -1.5913  0.7966
 5829SOL     OW28945   3.307   0.722   6.633 -0.2643 -0.2912 -0.5402
 5829SOL    HW128946   3.336   0.789   6.571 -0.0634 -0.9055 -1.1026
 5829SOL    HW228947   3.239   0.782   6.663 -2.1109 -2.5869 -0.1440
 5830SOL     OW28948   1.071   0.986   4.042  0.5369 -0.4867 -0.0030
 5830SOL    HW128949   1.075   0.953   4.132  0.2462  2.1934  0.9831
 5830SOL    HW228950   1.164   0.983   4.019  0.6955  0.5453  0.5321
 5831SOL     OW28951   0.127   3.673   9.506  0.2990  0.2368  0.1091
 5831SOL    HW128952   0.203   3.645   9.557 -1.2400 -1.2812  1.5828
 5831SOL    HW228953   0.147   3.627   9.424  0.8643  1.5212 -0.4683
 5832SOL     OW28954   1.084   3.141  16.365 -0.4769  0.4104 -0.2318
 5832SOL    HW128955   1.091   3.080  16.291 -2.5231  0.4935 -0.5153
 5832SOL    HW228956   1.175   3.164  16.378 -0.8243  2.6622 -1.7031
 5833SOL     OW28957   1.436   3.924   2.784 -0.3410 -0.4093  0.7634
 5833SOL    HW128958   1.427   3.881   2.869  0.0984 -0.1572  0.9357
 5833SOL    HW228959   1.345   3.941   2.761  0.3141 -0.0938 -1.5928
 5834SOL     OW28960   3.949   2.332   5.009  0.5408 -0.0324 -0.1964
 5834SOL    HW128961   3.895   2.343   5.087 -0.0274 -0.4332 -0.5333
 5834SOL    HW228962   3.960   2.237   5.016 -1.1414 -0.3371 -1.8869
 5835SOL     OW28963   3.555   0.696  15.592  0.2092  0.3053 -0.5516
 5835SOL    HW128964   3.515   0.613  15.566  0.6418 -0.3934  1.0119
 5835SOL    HW228965   3.483   0.751  15.563 -0.9272  0.1312  1.9214
 5836SOL     OW28966   4.510   3.383   0.824 -0.0632  0.2363 -0.5749
 5836SOL    HW128967   4.548   3.307   0.868 -0.4139  0.6432  0.4412
 5836SOL    HW228968   4.560   3.387   0.743 -0.0287  1.1889 -0.5048
 5837SOL     OW28969   2.390   3.164   2.823  0.0631  0.1416 -0.0027
 5837SOL    HW128970   2.367   3.119   2.741  3.8832 -0.1883 -0.9080
 5837SOL    HW228971   2.455   3.233   2.805  1.6879 -1.5448 -0.6608
 5838SOL     OW28972   3.098   1.990   8.546 -0.3985  0.1685  0.0881
 5838SOL    HW128973   3.035   1.928   8.583  1.1828 -0.7176  1.2489
 5838SOL    HW228974   3.164   2.009   8.612 -0.1963 -1.3459  0.3200
 5839SOL     OW28975   3.096   4.121   7.589  0.0945 -0.6550 -0.0730
 5839SOL    HW128976   3.083   4.099   7.681 -0.0662  1.9710  0.5457
 5839SOL    HW228977   3.014   4.164   7.566 -0.1950  0.1692  2.4314
 5840SOL     OW28978   0.188   0.567   3.211 -0.4338  0.4573 -0.2312
 5840SOL    HW128979   0.181   0.512   3.134  1.8148  0.1386 -0.2258
 5840SOL    HW228980   0.266   0.530   3.252  0.5497 -0.3118 -2.8100
 5841SOL     OW28981   0.385   2.880   8.540 -0.0521 -0.5927 -0.3411
 5841SOL    HW128982   0.451   2.883   8.471 -0.4314  0.2448 -0.6614
 5841SOL    HW228983   0.351   2.967   8.520  0.6727  0.1515  1.6859
 5842SOL     OW28984   0.534   0.427  16.496 -0.1756 -0.3667  0.2468
 5842SOL    HW128985   0.585   0.507  16.483 -0.7639 -0.2102 -1.1262
 5842SOL    HW228986   0.536   0.433  16.592 -1.2244 -1.2941  0.3333
 5843SOL     OW28987   0.540   4.274   2.213 -0.2917 -0.5647  0.4032
 5843SOL    HW128988   0.546   4.314   2.299  0.7810  0.9169 -0.3563
 5843SOL    HW228989   0.598   4.198   2.210  1.7672  0.8953  2.6702
 5844SOL     OW28990   0.069   1.779   7.776 -0.3303 -0.0440 -0.4119
 5844SOL    HW128991   0.106   1.753   7.860  0.1227  1.9391  0.0161
 5844SOL    HW228992   4.699   1.758   7.783 -1.5098  5.0857 -0.3385
 5845SOL     OW28993   3.841   3.251   5.197 -0.4308 -0.4837  0.3640
 5845SOL    HW128994   3.929   3.268   5.231 -0.6072 -1.2372  1.1963
 5845SOL    HW228995   3.822   3.171   5.246 -0.5488 -1.3950 -1.1749
 5846SOL     OW28996   4.142   3.879   0.591  0.1563 -0.2874  0.0739
 5846SOL    HW128997   4.151   3.973   0.604  1.2701 -0.5666  1.2500
 5846SOL    HW228998   4.163   3.879   0.497 -0.4793 -0.4180 -0.0647
 5847SOL     OW28999   1.044   3.204   3.823  0.6237  0.6282  0.3010
 5847SOL    HW129000   0.980   3.202   3.894 -1.1263  1.9896 -1.2348
 5847SOL    HW229001   1.071   3.296   3.820  0.0279  0.7844 -0.1611
 5848SOL     OW29002   2.343   1.913   1.124  0.2727 -0.1029  0.2436
 5848SOL    HW129003   2.336   1.882   1.034  0.7562  0.6423 -0.0481
 5848SOL    HW229004   2.421   1.864   1.151  0.6731  1.3766  1.8131
 5849SOL     OW29005   1.662   1.519  11.612 -0.3934 -0.0745 -0.4917
 5849SOL    HW129006   1.706   1.504  11.529  0.7317  3.2994 -0.4901
 5849SOL    HW229007   1.590   1.457  11.602 -1.6616  1.4203 -0.6412
 5850SOL     OW29008   2.119   3.889   3.782 -0.5919 -0.1793 -0.5785
 5850SOL    HW129009   2.198   3.922   3.826  0.1797 -0.0531 -2.0574
 5850SOL    HW229010   2.107   3.806   3.828 -2.2771 -1.0269 -2.5571
 5851SOL     OW29011   3.961   2.248  11.592  0.3616  0.0984  0.2166
 5851SOL    HW129012   3.924   2.166  11.626 -0.3808  1.1957  2.0844
 5851SOL    HW229013   4.023   2.217  11.526  0.6314  0.8934  0.1003
 5852SOL     OW29014   2.226   4.391   5.748 -0.1712  0.7451  0.1807
 5852SOL    HW129015   2.268   4.475   5.766  0.8084  0.3950 -0.4964
 5852SOL    HW229016   2.238   4.340   5.828  1.5388  0.9980  0.0877
 5853SOL     OW29017   0.868   0.868  15.487  0.1552  0.0790  0.1526
 5853SOL    HW129018   0.775   0.864  15.505 -0.1294  1.3495 -1.0009
 5853SOL    HW229019   0.893   0.948  15.534 -0.9658  0.8609 -0.6045
 5854SOL     OW29020   0.355   3.303   9.169 -0.1104  0.1035 -0.4684
 5854SOL    HW129021   0.411   3.345   9.235 -0.3968  0.0256 -0.1783
 5854SOL    HW229022   0.402   3.316   9.086  0.9970 -1.4187 -0.0755
 5855SOL     OW29023   1.234   1.904  12.164  0.2872  0.4838 -0.3609
 5855SOL    HW129024   1.240   1.982  12.109  0.0519 -0.4308 -1.6684
 5855SOL    HW229025   1.301   1.922  12.230 -0.4997 -0.3646  0.6850
 5856SOL     OW29026   0.134   1.210   2.655 -0.5249 -0.3278  0.0656
 5856SOL    HW129027   0.056   1.256   2.624  0.3643 -0.0447 -1.7208
 5856SOL    HW229028   0.133   1.237   2.747 -2.3717 -0.7774  0.1663
 5857SOL     OW29029   4.640   1.683   2.658  0.3609 -0.7568 -0.0773
 5857SOL    HW129030   4.574   1.682   2.728  1.3808 -0.2269  0.9027
 5857SOL    HW229031   4.683   1.766   2.678  2.5797 -1.6685 -1.0663
 5858SOL     OW29032   1.345   2.494   6.478 -0.3384 -0.6419 -0.2291
 5858SOL    HW129033   1.383   2.414   6.442  0.2993  0.3512 -1.7713
 5858SOL    HW229034   1.388   2.568   6.435  0.0377 -0.7080  0.0272
 5859SOL     OW29035   4.206   3.761   5.533 -0.3433 -0.1956  0.2056
 5859SOL    HW129036   4.225   3.849   5.564  0.6516  0.3647 -1.9829
 5859SOL    HW229037   4.113   3.774   5.517 -0.0654  0.8731 -0.5362
 5860SOL     OW29038   2.747   1.280   7.307  0.2934 -0.4411 -0.5581
 5860SOL    HW129039   2.797   1.226   7.368 -0.9329 -0.0303  0.8215
 5860SOL    HW229040   2.727   1.355   7.362  1.5002 -0.6082  0.0969
 5861SOL     OW29041   3.693   4.624   4.395 -0.0574  0.1638  0.3715
 5861SOL    HW129042   3.789   4.624   4.392 -0.0883  2.0556 -0.8217
 5861SOL    HW229043   3.679   4.684   4.322  0.4863  0.1067  0.2207
 5862SOL     OW29044   2.640   3.437   6.057 -0.3179  0.0124 -0.2701
 5862SOL    HW129045   2.720   3.440   6.005 -0.0751  0.2269  0.1177
 5862SOL    HW229046   2.611   3.528   6.048  2.1825  1.0802  2.6817
 5863SOL     OW29047   3.959   1.092  14.617 -0.3931 -0.6474  0.0731
 5863SOL    HW129048   4.014   1.092  14.695  0.3291  0.6342 -0.4261
 5863SOL    HW229049   3.895   1.029  14.652 -1.1989  0.8246  1.2644
 5864SOL     OW29050   4.395   3.772   3.911 -0.3653 -0.2765  0.5421
 5864SOL    HW129051   4.303   3.776   3.937 -0.5806  2.1829 -0.5758
 5864SOL    HW229052   4.389   3.747   3.819  0.6091 -1.6681  0.8459
 5865SOL     OW29053   0.002   3.960   5.931  0.0379 -0.2274 -0.3450
 5865SOL    HW129054   0.036   3.870   5.933  1.1153  0.1736 -0.9646
 5865SOL    HW229055   4.671   3.965   5.853  1.1641  0.5236 -1.0647
 5866SOL     OW29056   4.192   1.169   8.720 -0.1251 -0.4427  0.2801
 5866SOL    HW129057   4.146   1.241   8.678 -0.4138 -0.7966 -0.0097
 5866SOL    HW229058   4.181   1.195   8.811 -0.5082  1.2279 -0.2531
 5867SOL     OW29059   3.535   4.108   8.026 -0.1149  0.2675 -0.6158
 5867SOL    HW129060   3.540   4.016   7.999 -1.4089 -0.6253  2.1676
 5867SOL    HW229061   3.467   4.158   7.981 -0.2210  0.6185 -0.0678
 5868SOL     OW29062   2.200   3.771  14.969 -0.1220  0.3789  0.7980
 5868SOL    HW129063   2.277   3.823  14.947 -0.0225 -0.3610 -0.6116
 5868SOL    HW229064   2.235   3.682  14.962 -3.5601 -0.7516 -1.7795
 5869SOL     OW29065   0.034   0.797  14.811 -0.2644  0.7125  0.0024
 5869SOL    HW129066   0.066   0.713  14.777  0.9598  1.0285  0.3592
 5869SOL    HW229067   4.721   0.838  14.733  0.6706  1.1563 -0.1967
 5870SOL     OW29068   4.457   1.650   4.784  0.8358  0.0973  0.6546
 5870SOL    HW129069   4.456   1.720   4.849 -2.4959 -0.3068  1.0205
 5870SOL    HW229070   4.470   1.571   4.837  0.0044 -0.6432 -0.2362
 5871SOL     OW29071   2.605   3.938  15.203  0.1921 -0.0070 -0.0681
 5871SOL    HW129072   2.674   3.989  15.245 -0.5066  0.4372  0.5530
 5871SOL    HW229073   2.536   3.957  15.267 -0.7312 -0.0288 -1.0609
 5872SOL     OW29074   1.108   0.922   0.425 -0.2223  0.1231  0.1986
 5872SOL    HW129075   1.147   0.928   0.337 -0.4397  0.9438  0.1557
 5872SOL    HW229076   1.027   0.873   0.413  0.0470 -0.1359 -0.5720
 5873SOL     OW29077   1.773   1.927   4.688  0.2252  0.0180 -0.4481
 5873SOL    HW129078   1.701   1.963   4.637  2.2303  1.4330 -2.2895
 5873SOL    HW229079   1.848   1.941   4.630  2.1039 -0.9798  1.7343
 5874SOL     OW29080   0.493   2.072   4.357  0.1992  0.4327 -0.0916
 5874SOL    HW129081   0.552   2.013   4.404  0.4961 -1.6924 -3.1278
 5874SOL    HW229082   0.561   2.129   4.321  0.3422 -0.0832 -0.6347
 5875SOL     OW29083   3.980   0.451   9.011  0.2547 -0.0947 -0.1368
 5875SOL    HW129084   3.940   0.471   8.927  0.5772 -1.4548 -0.6198
 5875SOL    HW229085   3.960   0.530   9.061  0.6267  0.2937 -0.6062
 5876SOL     OW29086   0.028   3.572   8.583  0.1006 -0.2296 -0.1352
 5876SOL    HW129087   4.709   3.621   8.654  0.1039  0.7951 -0.8454
 5876SOL    HW229088   0.091   3.635   8.548 -3.2158  2.2372 -1.6621
 5877SOL     OW29089   2.758   3.594   8.198 -0.2398  0.0958 -0.3127
 5877SOL    HW129090   2.750   3.680   8.241  1.0886 -1.5302  3.2245
 5877SOL    HW229091   2.803   3.550   8.270 -0.7728  0.1495  0.0534
 5878SOL     OW29092   3.704   1.523   8.821 -0.3140  0.2475 -0.5041
 5878SOL    HW129093   3.615   1.538   8.788  0.0423  3.0528 -0.1888
 5878SOL    HW229094   3.681   1.538   8.913  1.2255  0.2968 -0.1372
 5879SOL     OW29095   4.317   2.208   3.838  0.1354  0.1586 -0.0534
 5879SOL    HW129096   4.248   2.258   3.795  3.4417  4.0777 -0.7637
 5879SOL    HW229097   4.285   2.208   3.928  1.0459 -0.7727  0.2705
 5880SOL     OW29098   2.892   3.075  16.236 -0.6522 -0.2490 -0.2167
 5880SOL    HW129099   2.979   3.095  16.271 -0.9747  0.2268  0.3317
 5880SOL    HW229100   2.843   3.066  16.318 -0.7537  0.8868 -0.1466
 5881SOL     OW29101   2.605   1.128   6.343  0.1000  0.1242 -0.0819
 5881SOL    HW129102   2.679   1.075   6.374  0.3362  1.2334  1.2571
 5881SOL    HW229103   2.617   1.121   6.249  0.3553  0.1200 -0.0507
 5882SOL     OW29104   3.799   1.335   0.874 -0.7634 -0.5698 -0.0844
 5882SOL    HW129105   3.776   1.415   0.828 -1.2856 -1.7856 -1.9322
 5882SOL    HW229106   3.894   1.346   0.879 -1.1979  2.4139  1.7403
 5883SOL     OW29107   2.836   1.021  10.346  0.0857 -0.4698 -0.1453
 5883SOL    HW129108   2.745   1.038  10.325  0.4006  0.1841 -0.9724
 5883SOL    HW229109   2.839   1.070  10.428 -1.6246 -2.2069  0.9538
 5884SOL     OW29110   0.449   3.457   4.932  0.3851 -0.2921  0.2899
 5884SOL    HW129111   0.445   3.552   4.919  1.2281 -0.0542  1.7608
 5884SOL    HW229112   0.373   3.452   4.990  0.1605 -0.1953 -0.0001
 5885SOL     OW29113   3.041   1.423   3.788  0.3680  0.6215  0.0321
 5885SOL    HW129114   3.117   1.452   3.838 -0.4162 -0.9109  2.0981
 5885SOL    HW229115   3.001   1.507   3.768  1.9568  1.6633  1.2911
 5886SOL     OW29116   0.250   0.872   7.942  0.2518 -0.4321 -0.6550
 5886SOL    HW129117   0.249   0.809   7.870 -0.4537 -0.0717 -0.9526
 5886SOL    HW229118   0.302   0.949   7.918  0.9306 -0.7230 -0.1415
 5887SOL     OW29119   1.425   0.943  15.378  0.5423 -0.2193 -0.1155
 5887SOL    HW129120   1.467   0.942  15.464 -2.0352 -1.7319  1.1169
 5887SOL    HW229121   1.335   0.922  15.404 -0.2728  1.5453 -1.4499
 5888SOL     OW29122   4.579   1.507  11.491  0.3210  0.5605 -0.1398
 5888SOL    HW129123   4.608   1.443  11.426  1.3140 -0.0099  0.8676
 5888SOL    HW229124   4.581   1.593  11.448 -1.3662  1.2668  1.1858
 5889SOL     OW29125   1.979   4.111   7.678 -0.3009  0.9647 -0.4731
 5889SOL    HW129126   2.069   4.092   7.703 -1.3114  0.1658  2.5044
 5889SOL    HW229127   1.929   4.037   7.714  0.3193  1.0000  0.4449
 5890SOL     OW29128   3.749   1.954  17.285  0.3765  0.1325 -0.0650
 5890SOL    HW129129   3.691   1.996  17.349  0.4381  1.6292 -0.9873
 5890SOL    HW229130   3.746   1.865  17.320 -2.3851  1.5271  3.2468
 5891SOL     OW29131   2.570   1.705  16.024  0.0487  0.0196  0.0202
 5891SOL    HW129132   2.550   1.683  16.115 -3.0796  0.0092 -0.6508
 5891SOL    HW229133   2.623   1.631  15.996  4.0370  2.0740  2.1618
 5892SOL     OW29134   3.287   0.415   8.964  0.2818 -0.0974  0.1265
 5892SOL    HW129135   3.364   0.454   9.006 -1.3729  1.0890  2.0433
 5892SOL    HW229136   3.226   0.488   8.958  0.6396  0.2046  0.1294
 5893SOL     OW29137   0.468   1.870  11.587 -0.2168 -0.1486 -0.6013
 5893SOL    HW129138   0.514   1.836  11.510 -1.9577 -0.4103 -1.5319
 5893SOL    HW229139   0.453   1.959  11.555  2.1888  0.5833  0.3070
 5894SOL     OW29140   2.149   1.826  14.482  0.1473  0.0110  0.7092
 5894SOL    HW129141   2.216   1.876  14.529 -0.3829  0.3067  1.1521
 5894SOL    HW229142   2.142   1.859  14.393  2.1182  1.1074  0.9505
 5895SOL     OW29143   2.982   3.154   7.048 -0.7462  0.2084  0.2812
 5895SOL    HW129144   3.026   3.082   7.095  1.0751  0.4304 -1.0742
 5895SOL    HW229145   2.893   3.148   7.083 -0.8764  1.1816  0.1163
 5896SOL     OW29146   3.829   3.878   3.887 -0.2773  0.3756 -0.1000
 5896SOL    HW129147   3.839   3.937   3.812 -0.6252  0.5476 -0.0100
 5896SOL    HW229148   3.759   3.826   3.847 -0.6812 -0.9268  2.2903
 5897SOL     OW29149   2.884   1.831   1.871  0.1861 -0.3807 -0.3650
 5897SOL    HW129150   2.970   1.856   1.835 -1.2486  3.5715 -1.1254
 5897SOL    HW229151   2.900   1.752   1.922  0.5957  0.6337  1.1081
 5898SOL     OW29152   0.800   2.185   5.695 -0.3705 -0.4470 -0.0909
 5898SOL    HW129153   0.715   2.227   5.682 -1.1420 -2.2329 -0.8009
 5898SOL    HW229154   0.790   2.101   5.651  0.8386 -1.3425  1.3708
 5899SOL     OW29155   4.165   3.333  13.847 -0.7098  0.4205  0.4129
 5899SOL    HW129156   4.225   3.403  13.873  1.0076 -1.2832  0.9633
 5899SOL    HW229157   4.082   3.381  13.857 -0.3386  0.5289  3.0383
 5900SOL     OW29158   2.880   3.617   6.884 -0.1717  0.0971  0.1327
 5900SOL    HW129159   2.915   3.566   6.957  0.0606 -1.6420 -1.1782
 5900SOL    HW229160   2.916   3.569   6.809  0.8790 -1.7900  1.8608
 5901SOL     OW29161   3.197   1.107  14.911 -0.3142 -0.4272 -0.3407
 5901SOL    HW129162   3.130   1.168  14.940  1.3968  0.9909  0.6552
 5901SOL    HW229163   3.170   1.111  14.819 -0.3090  1.4815 -0.2524
 5902SOL     OW29164   4.458   4.411   7.750 -0.1728 -0.2014 -0.3396
 5902SOL    HW129165   4.403   4.366   7.813  1.7016  0.4954  1.7889
 5902SOL    HW229166   4.424   4.386   7.664 -1.1124 -1.2906  0.3544
 5903SOL     OW29167   0.623   2.228   9.470 -0.1828  0.2294  0.1510
 5903SOL    HW129168   0.654   2.138   9.456  1.3553  0.5644  1.4107
 5903SOL    HW229169   0.545   2.221   9.524 -0.1328 -0.7244  0.0990
 5904SOL     OW29170   4.629   4.589  13.368 -0.2795 -0.0280 -0.2333
 5904SOL    HW129171   4.583   4.505  13.358  2.4927 -1.6402  0.4377
 5904SOL    HW229172   4.554   4.648  13.362 -1.0715 -0.9373  0.6341
 5905SOL     OW29173   1.569   2.061   5.574  0.4228 -0.0875 -0.1266
 5905SOL    HW129174   1.515   2.106   5.510 -1.0798  0.5153  1.5548
 5905SOL    HW229175   1.624   2.139   5.587 -2.1716  2.0452 -1.8640
 5906SOL     OW29176   3.419   2.993   8.918  0.4172  0.0691 -0.3419
 5906SOL    HW129177   3.354   2.938   8.961  0.7978 -0.5295 -0.5317
 5906SOL    HW229178   3.483   2.922   8.905  0.1372 -0.3990  0.9088
 5907SOL     OW29179   2.023   1.605   5.555  0.2151  0.3689 -0.4015
 5907SOL    HW129180   1.957   1.603   5.486 -1.5002 -0.0336  1.2465
 5907SOL    HW229181   2.075   1.526   5.538  1.9247  0.7278  3.0585
 5908SOL     OW29182   1.890   3.214  13.293  0.6194 -0.2296  0.3455
 5908SOL    HW129183   1.939   3.218  13.376 -0.5582 -1.6555  1.0969
 5908SOL    HW229184   1.833   3.290  13.289 -1.2083 -1.6589 -0.4083
 5909SOL     OW29185   1.699   0.788  11.373 -0.0317  0.6952 -0.0285
 5909SOL    HW129186   1.759   0.738  11.318  0.8031  0.0397  1.4830
 5909SOL    HW229187   1.754   0.866  11.385  1.9651 -0.7224  0.0732
 5910SOL     OW29188   1.897   3.588   3.730  0.2414  0.3666 -0.4717
 5910SOL    HW129189   1.964   3.628   3.786 -0.6608  0.2283  0.6969
 5910SOL    HW229190   1.891   3.666   3.674 -1.0426  1.1595  0.8034
 5911SOL     OW29191   1.669   4.163   7.154  0.0960 -0.1547  0.1190
 5911SOL    HW129192   1.575   4.174   7.168  0.0155 -0.5843 -0.0734
 5911SOL    HW229193   1.667   4.157   7.058  2.1487  1.2026  0.0011
 5912SOL     OW29194   2.448   2.110   9.151  0.0939 -0.4303 -0.5625
 5912SOL    HW129195   2.494   2.117   9.235 -1.6224  0.6844  0.2705
 5912SOL    HW229196   2.404   2.026   9.161  3.4532 -2.1330 -0.1629
 5913SOL     OW29197   0.636   4.254   9.634  0.3315  0.1111 -0.2562
 5913SOL    HW129198   0.730   4.272   9.634  0.8497 -2.5988 -0.2216
 5913SOL    HW229199   0.631   4.177   9.690  1.4536 -0.7187 -1.2910
 5914SOL     OW29200   0.485   1.696   7.092  0.2114  0.6878  0.0636
 5914SOL    HW129201   0.523   1.713   7.006  2.1253 -0.4858  0.6738
 5914SOL    HW229202   0.561   1.699   7.150 -0.3133  1.2117  0.7296
 5915SOL     OW29203   2.770   1.892   4.370  0.1124  0.4016 -0.1214
 5915SOL    HW129204   2.810   1.849   4.294  1.9803 -0.0330  1.0950
 5915SOL    HW229205   2.760   1.982   4.340  1.2194  0.7376  0.5153
 5916SOL     OW29206   4.606   1.076   5.186 -0.0267 -0.0082 -0.5133
 5916SOL    HW129207   4.621   1.031   5.269 -0.5126  1.5110  0.3983
 5916SOL    HW229208   4.657   1.014   5.134  1.0462 -0.8151  1.4655
 5917SOL     OW29209   4.711   3.225   1.135  0.2799 -0.3604  0.4657
 5917SOL    HW129210   4.625   3.194   1.161  0.3560 -1.1461 -0.2193
 5917SOL    HW229211   0.003   3.160   1.067 -1.2158 -0.4970  0.2693
 5918SOL     OW29212   0.176   4.560  13.788 -1.2810  0.0351  0.2258
 5918SOL    HW129213   0.106   4.500  13.812  0.6107 -2.0551  0.5006
 5918SOL    HW229214   0.167   4.576  13.694 -1.2648  1.0052  0.3856
 5919SOL     OW29215   3.981   0.540   6.407  0.0547 -0.1561  0.5477
 5919SOL    HW129216   3.939   0.553   6.492 -0.7321 -0.9319  0.2863
 5919SOL    HW229217   3.911   0.502   6.353 -0.9675  0.2565  1.5772
 5920SOL     OW29218   4.538   0.465  11.218  0.5101 -0.3942  0.1352
 5920SOL    HW129219   4.589   0.476  11.138 -0.4795  1.8251 -0.1890
 5920SOL    HW229220   4.575   0.535  11.272  0.1999  1.0081 -1.4596
 5921SOL     OW29221   2.135   1.608   1.925 -0.2047  0.6602  0.2870
 5921SOL    HW129222   2.185   1.665   1.984  1.5103 -0.3283 -0.2378
 5921SOL    HW229223   2.087   1.670   1.870 -0.2376 -1.0220 -1.5686
 5922SOL     OW29224   3.775   1.593   4.758  0.4307 -0.0272 -0.0976
 5922SOL    HW129225   3.711   1.653   4.718 -1.4146 -0.7595  1.7315
 5922SOL    HW229226   3.841   1.660   4.777 -0.7817  1.8600 -2.5336
 5923SOL     OW29227   1.786   2.871   1.507 -0.0482  0.5137  0.3394
 5923SOL    HW129228   1.745   2.909   1.430  0.6310  1.3005  0.3558
 5923SOL    HW229229   1.732   2.909   1.576 -1.7854 -2.1131  0.4209
 5924SOL     OW29230   1.093   1.179   7.137  0.0917 -0.3655 -0.4580
 5924SOL    HW129231   1.013   1.130   7.151  1.2607 -2.1741 -0.1000
 5924SOL    HW229232   1.052   1.264   7.153 -0.8813 -1.2512  1.6885
 5925SOL     OW29233   3.356   0.683  11.559 -0.3903  1.1891 -0.0340
 5925SOL    HW129234   3.307   0.689  11.477  0.5295 -0.3438 -0.6921
 5925SOL    HW229235   3.351   0.772  11.594 -0.7744  1.4057 -0.6391
 5926SOL     OW29236   3.505   1.938   3.533 -0.3796 -0.1973  0.2788
 5926SOL    HW129237   3.543   1.857   3.567  0.6430 -0.4506 -1.4828
 5926SOL    HW229238   3.561   1.945   3.455 -1.6316 -1.5080 -0.7291
 5927SOL     OW29239   4.352   0.649  17.193 -0.4188 -0.3200 -0.1697
 5927SOL    HW129240   4.397   0.589  17.134  0.7333  0.2091  0.1699
 5927SOL    HW229241   4.394   0.629  17.277  0.2232 -0.4266 -0.5159
 5928SOL     OW29242   1.282   3.650   1.896 -0.0238  0.0729  0.1006
 5928SOL    HW129243   1.327   3.709   1.956  0.8021 -1.2523  0.7789
 5928SOL    HW229244   1.311   3.689   1.813 -1.5386  0.6109 -0.1774
 5929SOL     OW29245   0.162   4.665   6.848 -0.2829  0.2997  0.1506
 5929SOL    HW129246   0.110   4.597   6.806 -0.6911  0.0864  1.0032
 5929SOL    HW229247   0.187   4.717   6.771 -2.7581  1.4331  0.1258
 5930SOL     OW29248   0.363   4.107  17.039 -0.2967  0.0571  0.4559
 5930SOL    HW129249   0.406   4.189  17.019  2.4020 -1.5736 -0.4362
 5930SOL    HW229250   0.342   4.137  17.127  0.4022  0.9349  0.3253
 5931SOL     OW29251   3.020   2.666  14.077 -0.2670  0.2874  0.3955
 5931SOL    HW129252   2.927   2.680  14.058  0.4226 -0.2265 -3.3870
 5931SOL    HW229253   3.047   2.653  13.986 -0.2693  0.5342  0.3599
 5932SOL     OW29254   0.201   1.991   2.542 -0.2532  0.1261  0.7605
 5932SOL    HW129255   0.171   1.917   2.488 -0.6287  0.8096  0.0352
 5932SOL    HW229256   0.195   2.065   2.482 -0.4888 -1.2049 -0.8689
 5933SOL     OW29257   2.512   3.618   3.628 -0.5480  0.3609 -0.3085
 5933SOL    HW129258   2.461   3.573   3.561 -0.4696  1.4152 -1.0857
 5933SOL    HW229259   2.577   3.550   3.646 -0.9403 -0.1022 -0.6349
 5934SOL     OW29260   1.447   2.761   5.182 -0.0326  0.0645  0.3264
 5934SOL    HW129261   1.446   2.797   5.093  1.3308  0.0320  0.2888
 5934SOL    HW229262   1.541   2.767   5.201 -0.1563  2.4510  0.1667
 5935SOL     OW29263   2.760   0.596   7.878  0.4246 -0.2997  0.4042
 5935SOL    HW129264   2.681   0.650   7.881  1.2378  0.8157  1.6782
 5935SOL    HW229265   2.734   0.526   7.937 -0.4607 -1.7074 -1.6333
 5936SOL     OW29266   1.983   1.898   3.502  0.0142 -0.0265 -0.2090
 5936SOL    HW129267   1.948   1.937   3.422  0.3104  0.5477 -0.0548
 5936SOL    HW229268   2.007   1.814   3.463  1.7808 -0.0432  0.9246
 5937SOL     OW29269   2.849   2.756   6.148  0.2538  0.5903 -0.0858
 5937SOL    HW129270   2.866   2.744   6.241  0.0154  1.6393  0.0931
 5937SOL    HW229271   2.916   2.817   6.116  1.3244 -0.5638 -0.0543
 5938SOL     OW29272   4.058   3.027   3.917 -0.0266 -0.1432 -0.6198
 5938SOL    HW129273   4.000   3.073   3.977 -0.4574 -1.1971 -0.2140
 5938SOL    HW229274   4.114   3.093   3.876  0.7824  0.1783  1.0407
 5939SOL     OW29275   2.091   4.651   5.867 -0.0205  0.0490 -0.2226
 5939SOL    HW129276   2.185   4.646   5.850  0.2587 -0.8975  1.5654
 5939SOL    HW229277   2.068   4.562   5.840  0.1708 -0.4343  1.2222
 5940SOL     OW29278   0.854   0.794  10.288  0.2792 -0.3675  0.0611
 5940SOL    HW129279   0.890   0.705  10.280 -1.1819 -0.9128 -0.5572
 5940SOL    HW229280   0.906   0.835  10.356  0.8681  0.7438 -1.0668
 5941SOL     OW29281   1.066   3.671  11.844 -0.3494  0.0332 -0.5844
 5941SOL    HW129282   1.100   3.670  11.933 -1.8665  1.2213 -0.0000
 5941SOL    HW229283   0.994   3.728  11.868  0.6356  0.9039  0.2759
 5942SOL     OW29284   1.911   2.878  12.043 -0.3253  0.5488 -0.0595
 5942SOL    HW129285   1.859   2.838  12.112  0.1023 -2.0893 -1.2714
 5942SOL    HW229286   1.846   2.921  11.988  1.5421  0.7106 -2.1695
 5943SOL     OW29287   1.125   0.876  13.559 -0.5792 -0.1098  0.3833
 5943SOL    HW129288   1.053   0.934  13.586 -0.6578 -0.5044  1.0271
 5943SOL    HW229289   1.187   0.896  13.629  0.5972  3.4367 -1.6514
 5944SOL     OW29290   2.185   2.332  11.491 -0.0686  0.8261  0.7650
 5944SOL    HW129291   2.164   2.255  11.438  0.0086  2.8104 -2.1067
 5944SOL    HW229292   2.202   2.391  11.418  0.4176 -0.4270 -0.1230
 5945SOL     OW29293   2.390   4.346   6.426 -0.3427 -0.9886 -0.0741
 5945SOL    HW129294   2.474   4.388   6.412  0.0055 -2.0105 -1.0326
 5945SOL    HW229295   2.372   4.395   6.506 -1.6826  0.9183 -1.5366
 5946SOL     OW29296   1.122   4.557   6.214 -0.1565 -0.2012  0.5618
 5946SOL    HW129297   1.041   4.595   6.249 -1.2724  0.0203 -2.2999
 5946SOL    HW229298   1.188   4.610   6.259 -0.9131  1.5217 -0.3509
 5947SOL     OW29299   0.797   1.022   1.136 -0.0191 -1.0911 -0.1374
 5947SOL    HW129300   0.814   0.936   1.173 -0.6754 -0.4387  1.6854
 5947SOL    HW229301   0.739   1.064   1.200  1.2213  1.7664 -0.8664
 5948SOL     OW29302   2.595   3.050   5.143 -0.1198  0.0972 -0.2289
 5948SOL    HW129303   2.682   3.068   5.180 -0.3323  0.8173 -0.0698
 5948SOL    HW229304   2.579   2.965   5.185  0.8851  0.2446  0.4508
 5949SOL     OW29305   1.678   0.254   8.272 -0.3711  0.6258 -0.1169
 5949SOL    HW129306   1.620   0.304   8.330  1.5325 -2.3530  4.3222
 5949SOL    HW229307   1.662   0.161   8.288  1.6999  0.3429  0.2401
 5950SOL     OW29308   3.591   1.757   3.133  0.3275 -0.0349  0.0221
 5950SOL    HW129309   3.568   1.666   3.153 -3.0757  0.5276 -1.2472
 5950SOL    HW229310   3.569   1.766   3.041 -1.8793 -0.8714  0.4559
 5951SOL     OW29311   0.414   2.983   9.695 -0.2368  0.0510 -0.3101
 5951SOL    HW129312   0.380   3.030   9.619 -1.3866 -0.6222 -0.2176
 5951SOL    HW229313   0.507   3.003   9.684 -0.8262  2.8944 -0.0710
 5952SOL     OW29314   3.418   2.243  14.718 -0.2809 -0.8143  0.3222
 5952SOL    HW129315   3.417   2.240  14.623 -0.2078 -0.7376  0.3189
 5952SOL    HW229316   3.438   2.151  14.737 -1.0554 -1.6888 -3.1546
 5953SOL     OW29317   4.312   0.566   4.324 -0.3566 -0.0116 -0.3595
 5953SOL    HW129318   4.381   0.537   4.265 -0.5120 -0.7392 -0.1827
 5953SOL    HW229319   4.265   0.622   4.263  1.5830  1.5575 -0.4379
 5954SOL     OW29320   1.500   0.317   3.552  0.0592 -0.1352  0.4585
 5954SOL    HW129321   1.548   0.286   3.629  1.5888 -1.8746 -1.1742
 5954SOL    HW229322   1.537   0.274   3.475 -1.2585  0.1996 -0.3511
 5955SOL     OW29323   4.589   4.437   2.056 -0.1887 -0.1111  0.1107
 5955SOL    HW129324   4.534   4.387   2.115 -1.0129  0.8894  0.1939
 5955SOL    HW229325   4.669   4.444   2.108 -0.4683  2.9324  0.1580
 5956SOL     OW29326   2.591   1.273   8.096 -0.6038 -0.6814  0.0683
 5956SOL    HW129327   2.621   1.363   8.110 -0.4025 -0.8328  0.5999
 5956SOL    HW229328   2.498   1.296   8.096 -0.0031  1.7265 -0.9050
 5957SOL     OW29329   1.465   1.469   5.445  0.2011  0.7047  0.2175
 5957SOL    HW129330   1.470   1.448   5.539 -1.4089 -1.9526 -0.2987
 5957SOL    HW229331   1.549   1.513   5.438  0.5646  0.3998  2.4652
 5958SOL     OW29332   3.235   2.471   3.008 -0.1422  0.4762  0.2018
 5958SOL    HW129333   3.223   2.565   2.992  1.1364  0.2039 -2.3488
 5958SOL    HW229334   3.249   2.428   2.924 -0.7282  1.3488 -0.3515
 5959SOL     OW29335   2.018   0.967   8.996  0.7991  0.3738  0.6133
 5959SOL    HW129336   1.949   0.916   8.952  0.2907  0.2871  1.5153
 5959SOL    HW229337   1.995   0.961   9.089 -1.2009 -1.6931 -0.0040
 5960SOL     OW29338   3.194   1.171  11.491 -0.3703 -0.1888  0.1379
 5960SOL    HW129339   3.108   1.210  11.478  0.3382  1.5688  0.8064
 5960SOL    HW229340   3.250   1.247  11.479  2.1016 -1.8800  1.0701
 5961SOL     OW29341   4.555   0.160   2.237 -0.2652 -0.8248 -0.7761
 5961SOL    HW129342   4.476   0.125   2.195 -0.8991 -2.4886  1.8099
 5961SOL    HW229343   4.551   0.255   2.228 -0.3261 -0.7283  0.3530
 5962SOL     OW29344   0.263   0.809  17.630  0.3732  0.0893 -0.2951
 5962SOL    HW129345   0.297   0.898  17.618  0.5854 -0.1942 -1.8009
 5962SOL    HW229346   0.305   0.758  17.562  1.5757  0.1705  0.3936
 5963SOL     OW29347   2.648   4.008   3.262 -0.1489  0.3392 -0.1284
 5963SOL    HW129348   2.661   4.103   3.260  0.5445  0.2129 -1.6237
 5963SOL    HW229349   2.565   4.006   3.309  0.2910  0.5553  0.6429
 5964SOL     OW29350   3.487   0.121   8.071 -0.3101  0.2665 -0.5913
 5964SOL    HW129351   3.573   0.088   8.098 -1.0161 -0.5724  0.6353
 5964SOL    HW229352   3.507   0.129   7.978 -1.5826  0.8234 -0.8190
 5965SOL     OW29353   1.561   0.178   5.483  0.0048  0.2673 -0.2341
 5965SOL    HW129354   1.592   0.116   5.417  0.5164 -1.3171  1.4800
 5965SOL    HW229355   1.638   0.229   5.510  0.3789  1.1843 -3.0708
 5966SOL     OW29356   4.329   1.592  15.217  0.1381  0.0273 -0.4733
 5966SOL    HW129357   4.319   1.680  15.181 -0.3401  0.0516 -0.2772
 5966SOL    HW229358   4.250   1.579  15.269  1.4443 -0.4254  1.4069
 5967SOL     OW29359   1.317   4.095   2.362  0.4433  0.0827 -0.1868
 5967SOL    HW129360   1.376   4.156   2.406  0.5189  0.9468 -1.4779
 5967SOL    HW229361   1.306   4.140   2.278 -0.0875  1.2269  0.4899
 5968SOL     OW29362   4.636   4.613  16.224 -0.2985  0.1444 -0.0038
 5968SOL    HW129363   4.638   4.684  16.160 -0.2461  0.9451  0.9042
 5968SOL    HW229364   4.674   4.655  16.301 -0.6299  0.4593 -0.0139
 5969SOL     OW29365   1.672   3.458   0.723 -0.1773  0.5206 -0.8623
 5969SOL    HW129366   1.676   3.546   0.684 -0.4848  1.1446  0.4951
 5969SOL    HW229367   1.576   3.450   0.724 -0.2773  1.9826  1.6248
 5970SOL     OW29368   2.733   1.518   6.778  0.4894 -0.1026  0.4331
 5970SOL    HW129369   2.647   1.557   6.767  1.3554  1.9986  1.1704
 5970SOL    HW229370   2.716   1.436   6.825  2.6672  0.5002  2.3094
 5971SOL     OW29371   2.749   3.265  14.107  0.2930  0.0415 -0.3639
 5971SOL    HW129372   2.665   3.257  14.152  0.7697 -0.6109  0.4189
 5971SOL    HW229373   2.809   3.283  14.179 -2.1291 -0.7033  1.8100
 5972SOL     OW29374   2.557   2.722   5.883  0.0686  0.2160  0.7074
 5972SOL    HW129375   2.598   2.807   5.899  0.1887 -0.0491  1.8396
 5972SOL    HW229376   2.573   2.719   5.789 -0.4624 -0.7060  0.6541
 5973SOL     OW29377   2.721   4.119  12.214 -0.0998 -0.5121 -0.3589
 5973SOL    HW129378   2.645   4.176  12.214 -0.0529 -0.4267 -2.7586
 5973SOL    HW229379   2.773   4.168  12.150 -0.6107  0.4888 -0.0004
 5974SOL     OW29380   2.305   1.170   5.420  1.1540  0.4940  0.5603
 5974SOL    HW129381   2.299   1.105   5.491 -1.7566  1.5693  1.2852
 5974SOL    HW229382   2.263   1.130   5.344  2.5836 -0.6952  0.3855
 5975SOL     OW29383   0.979   0.524  12.213  0.0999 -0.0692  0.2457
 5975SOL    HW129384   1.056   0.520  12.270  0.0647  1.4011  0.3833
 5975SOL    HW229385   0.938   0.606  12.239  1.9797  1.3552 -1.3570
 5976SOL     OW29386   3.612   0.522   4.538 -0.6609 -0.5571  0.7210
 5976SOL    HW129387   3.627   0.457   4.607  1.5217 -0.5655  0.2304
 5976SOL    HW229388   3.648   0.479   4.461 -1.2540  1.2350 -0.5591
 5977SOL     OW29389   2.271   0.747   3.925 -0.3783  0.1809  0.6357
 5977SOL    HW129390   2.346   0.786   3.970 -0.0613  0.1402  0.1402
 5977SOL    HW229391   2.208   0.790   3.983  1.4363 -1.3264  3.7285
 5978SOL     OW29392   4.157   0.340   6.704  0.1724  0.0140  0.0533
 5978SOL    HW129393   4.229   0.278   6.700  1.3490  1.5212 -1.9498
 5978SOL    HW229394   4.093   0.289   6.655 -3.1267  2.4624  1.8379
 5979SOL     OW29395   0.996   4.244   4.133  0.5911 -0.1311 -0.5090
 5979SOL    HW129396   0.964   4.275   4.217 -1.3280  1.1489 -1.7169
 5979SOL    HW229397   0.953   4.158   4.126  0.3720 -0.2072  1.9089
 5980SOL     OW29398   4.019   0.510  17.193 -0.7931  0.3034  0.0287
 5980SOL    HW129399   4.093   0.568  17.211 -1.7487  1.3565  0.5889
 5980SOL    HW229400   3.964   0.564  17.137  0.3502  3.0987  1.5968
 5981SOL     OW29401   0.165   1.120   4.891 -0.1974 -0.3814 -0.5049
 5981SOL    HW129402   0.121   1.140   4.808 -0.1030 -0.0983 -0.4891
 5981SOL    HW229403   0.236   1.184   4.882 -0.4244 -0.0516  0.0763
 5982SOL     OW29404   0.385   0.049   4.464 -0.1251  0.1602 -0.1826
 5982SOL    HW129405   0.365   0.119   4.402 -2.0426 -0.9689 -0.8369
 5982SOL    HW229406   0.313   0.051   4.527 -2.3609  0.7392 -2.7936
 5983SOL     OW29407   4.003   4.663   1.844  0.0668 -0.0226 -0.4272
 5983SOL    HW129408   4.022   4.595   1.780 -1.0213  0.2982 -1.0915
 5983SOL    HW229409   4.074   4.658   1.908  0.5220  1.4028 -0.8286
 5984SOL     OW29410   4.337   2.938   4.734  0.2553 -0.2906 -0.3355
 5984SOL    HW129411   4.323   2.976   4.821  0.4704 -0.8575 -0.0522
 5984SOL    HW229412   4.410   2.886   4.768  0.1764  0.9267  1.6811
 5985SOL     OW29413   3.911   3.779   0.711 -0.0287  0.3558 -0.2020
 5985SOL    HW129414   3.855   3.854   0.689  1.1934  1.0478 -0.9433
 5985SOL    HW229415   3.987   3.813   0.663  0.5034 -1.1401 -0.3909
 5986SOL     OW29416   4.710   2.228  10.939 -0.7619 -0.2526  0.2292
 5986SOL    HW129417   0.037   2.283  10.879  0.7412 -0.7452  1.0503
 5986SOL    HW229418   4.669   2.292  10.997  0.1124 -1.2582  1.9532
 5987SOL     OW29419   1.457   3.247   4.506 -0.9153  0.2578  0.3133
 5987SOL    HW129420   1.473   3.153   4.513 -0.8349  0.3815  1.7162
 5987SOL    HW229421   1.521   3.294   4.558 -0.2762 -0.5797  0.2891
 5988SOL     OW29422   1.101   3.597   2.478 -0.0002 -0.6322  0.0277
 5988SOL    HW129423   1.159   3.672   2.464  0.9216 -1.6021 -1.2496
 5988SOL    HW229424   1.046   3.592   2.401  0.3869  0.0071 -0.2890
 5989SOL     OW29425   0.788   4.168  16.842  0.4693  0.7000  0.2599
 5989SOL    HW129426   0.834   4.229  16.784 -0.5902  0.0971 -1.2224
 5989SOL    HW229427   0.851   4.176  16.913  0.6268  0.5339  0.1389
 5990SOL     OW29428   2.218   4.671   7.746  0.5042 -0.1609  0.2862
 5990SOL    HW129429   2.256   4.712   7.823  0.2713  1.3161 -0.3832
 5990SOL    HW229430   2.138   4.630   7.777 -1.6616  4.0583  0.3596
 5991SOL     OW29431   1.189   0.881   5.173 -0.4504  0.5506  0.1938
 5991SOL    HW129432   1.152   0.965   5.145  1.7154  1.5549  0.3421
 5991SOL    HW229433   1.183   0.888   5.268  0.5946  2.2572  0.1385
 5992SOL     OW29434   3.823   1.003   2.739  0.4745 -0.0782  0.0239
 5992SOL    HW129435   3.847   0.992   2.831 -2.6191 -1.0127  0.7069
 5992SOL    HW229436   3.813   1.098   2.736 -0.1437 -0.1110  1.2044
 5993SOL     OW29437   1.379   2.066  12.662 -0.0416 -0.3639  0.0948
 5993SOL    HW129438   1.327   2.088  12.740  0.0363  0.5046 -0.0924
 5993SOL    HW229439   1.461   2.114  12.676 -0.7834  0.7421  0.6785
 5994SOL     OW29440   4.723   3.379   9.049  0.1118  0.1698  0.0895
 5994SOL    HW129441   4.668   3.305   9.074  0.6745 -0.1060  0.4814
 5994SOL    HW229442   4.681   3.457   9.086  1.2396  0.3530  0.9753
 5995SOL     OW29443   1.622   1.866   5.959  0.6688 -0.0635  0.2288
 5995SOL    HW129444   1.630   1.880   5.864  1.0685 -1.6819  0.0313
 5995SOL    HW229445   1.712   1.837   5.971  0.6065 -0.6516 -0.7324
 5996SOL     OW29446   3.297   0.770   7.848  0.6396 -0.2344  0.0959
 5996SOL    HW129447   3.304   0.857   7.808 -1.6628  0.3417  0.9854
 5996SOL    HW229448   3.206   0.758   7.819  1.1062  1.9519 -2.2908
 5997SOL     OW29449   0.712   3.518   7.510 -0.3693 -0.4602  0.6382
 5997SOL    HW129450   0.656   3.528   7.587 -0.7647 -0.7216  0.3851
 5997SOL    HW229451   0.692   3.433   7.469  0.5579 -0.4613  0.1895
 5998SOL     OW29452   0.757   4.044  12.974 -0.4275 -0.3370 -0.0416
 5998SOL    HW129453   0.750   4.132  12.938  0.3776  0.7035  2.3310
 5998SOL    HW229454   0.737   3.985  12.901 -1.5403 -0.3203  0.2561
 5999SOL     OW29455   0.785   3.115   6.652 -0.6186 -0.8368  0.5095
 5999SOL    HW129456   0.775   3.195   6.600  2.4922 -1.0088 -0.3333
 5999SOL    HW229457   0.864   3.079   6.611  0.9002  0.9226  1.9155
 6000SOL     OW29458   2.201   0.548   4.338  0.3795  0.4403 -0.2648
 6000SOL    HW129459   2.279   0.589   4.302 -1.2152  3.1313 -0.6373
 6000SOL    HW229460   2.158   0.627   4.370  0.6509  0.3090  0.4216
 6001SOL     OW29461   1.251   1.083  10.665  0.6113  0.0789 -0.2179
 6001SOL    HW129462   1.326   1.079  10.725  0.3793  1.7394  0.1846
 6001SOL    HW229463   1.216   0.994  10.672 -2.1660  1.0891 -1.4252
 6002SOL     OW29464   2.685   4.621   6.406 -0.5464  0.2966 -0.1739
 6002SOL    HW129465   2.746   4.613   6.479  0.5697  0.6342 -1.0693
 6002SOL    HW229466   2.671   4.534   6.369  0.6336  0.0502 -0.0350
 6003SOL     OW29467   3.779   0.719   3.969  0.1859  0.0132 -0.1278
 6003SOL    HW129468   3.702   0.770   3.945 -0.7390 -1.5975 -0.5898
 6003SOL    HW229469   3.839   0.775   4.019 -0.7176  1.2284 -0.4104
 6004SOL     OW29470   1.787   4.236  11.585 -0.1130 -0.6625 -0.3769
 6004SOL    HW129471   1.870   4.218  11.630 -1.1737  0.6728  2.0773
 6004SOL    HW229472   1.757   4.145  11.585 -0.8749 -0.3951 -3.1874
 6005SOL     OW29473   3.027   3.082   1.609 -0.4552  0.3860  0.0657
 6005SOL    HW129474   3.116   3.105   1.634 -1.2622  1.8192  1.5906
 6005SOL    HW229475   3.044   3.016   1.541 -0.0720 -1.9530  2.4167
 6006SOL     OW29476   2.764   3.545   4.958 -1.0175  0.4451 -0.7591
 6006SOL    HW129477   2.776   3.464   4.908 -0.5238  0.6813 -1.0135
 6006SOL    HW229478   2.723   3.511   5.037 -0.6197  1.6100 -0.0543
 6007SOL     OW29479   4.490   3.379   6.529  0.0309 -0.5321  0.2174
 6007SOL    HW129480   4.420   3.408   6.470  0.0683  1.7839  1.3039
 6007SOL    HW229481   4.564   3.420   6.484  0.2990 -0.4977  0.6901
 6008SOL     OW29482   3.498   3.263   5.416  0.7195 -0.8997 -0.1368
 6008SOL    HW129483   3.504   3.248   5.322  0.9203  3.0132 -0.7458
 6008SOL    HW229484   3.583   3.295   5.446  1.8798 -1.9502 -2.2587
 6009SOL     OW29485   0.173   3.491   0.786  0.8340  0.1439 -0.3351
 6009SOL    HW129486   0.129   3.491   0.870  2.2512 -0.8808  0.3982
 6009SOL    HW229487   0.104   3.491   0.719  2.1899  3.4506 -1.7605
 6010SOL     OW29488   4.159   0.521  12.831  0.1236  0.0165  0.2897
 6010SOL    HW129489   4.113   0.444  12.865  1.7879 -0.9794  0.2776
 6010SOL    HW229490   4.236   0.483  12.788  0.8527 -0.3614  1.9169
 6011SOL     OW29491   1.153   0.351   6.408 -0.6835  0.1398 -0.0018
 6011SOL    HW129492   1.243   0.329   6.430 -1.4218 -2.7458  0.1602
 6011SOL    HW229493   1.109   0.269   6.382  1.5661 -1.7941  2.3402
 6012SOL     OW29494   3.622   3.115   8.342  0.1131 -0.0164  0.0586
 6012SOL    HW129495   3.613   3.153   8.255  3.1232 -2.4702 -1.3601
 6012SOL    HW229496   3.647   3.024   8.327 -1.2679 -0.6719  1.6984
 6013SOL     OW29497   0.657   3.760   6.772  0.1744  0.2263 -0.4330
 6013SOL    HW129498   0.746   3.780   6.800 -0.5721  1.4212  1.0587
 6013SOL    HW229499   0.628   3.691   6.832 -1.6490  0.7616 -0.6951
 6014SOL     OW29500   4.502   2.610   7.529  0.1249  0.8649 -0.2512
 6014SOL    HW129501   4.439   2.543   7.503 -1.2987  1.8942  0.6089
 6014SOL    HW229502   4.583   2.561   7.514 -1.3784 -1.1677 -1.8322
 6015SOL     OW29503   3.716   4.367   4.073  0.1307  0.3488 -0.3063
 6015SOL    HW129504   3.701   4.344   4.165  0.2173  3.2871  0.4285
 6015SOL    HW229505   3.746   4.284   4.035  1.3349  0.1596  1.0461
 6016SOL     OW29506   3.393   4.456   7.686 -0.2223  0.0728 -0.1865
 6016SOL    HW129507   3.435   4.530   7.643 -0.9812  1.2600  1.0859
 6016SOL    HW229508   3.423   4.464   7.777  0.9737 -0.4044 -0.5380
 6017SOL     OW29509   0.195   1.805  11.599  0.3100 -0.5839 -0.0945
 6017SOL    HW129510   0.276   1.851  11.577  0.0595  0.1956  0.6315
 6017SOL    HW229511   0.210   1.714  11.572  1.9368 -0.9103  1.8932
 6018SOL     OW29512   2.407   2.325   3.834  0.1637  0.0409  0.4595
 6018SOL    HW129513   2.371   2.366   3.756 -1.1269  1.2651  1.6917
 6018SOL    HW229514   2.422   2.238   3.795 -0.4073  0.2357 -0.1870
 6019SOL     OW29515   4.227   1.992   5.246  0.0014 -0.2435  0.1991
 6019SOL    HW129516   4.290   1.936   5.201  0.3336  1.2968 -1.2349
 6019SOL    HW229517   4.217   2.059   5.179 -1.0495 -0.4245  0.1826
 6020SOL     OW29518   0.775   4.013  15.186 -0.2931 -0.9500  0.7920
 6020SOL    HW129519   0.688   4.045  15.165 -0.9120 -2.0485  1.6295
 6020SOL    HW229520   0.825   4.043  15.110  1.2363 -3.0013  0.9868
 6021SOL     OW29521   1.118   4.125   3.829  0.4520  0.8679 -0.0892
 6021SOL    HW129522   1.173   4.133   3.751 -3.0693 -0.4371 -2.7220
 6021SOL    HW229523   1.135   4.210   3.869  0.9839 -0.0515  1.6754
 6022SOL     OW29524   0.861   1.134   8.639 -0.4649  0.1652 -0.1423
 6022SOL    HW129525   0.907   1.162   8.560  0.7210 -1.4710 -0.0405
 6022SOL    HW229526   0.794   1.073   8.608  0.7486 -2.4694  2.4093
 6023SOL     OW29527   3.200   3.837   8.471 -0.0849  0.1336 -0.0478
 6023SOL    HW129528   3.152   3.909   8.511 -0.5942 -0.8248  1.0840
 6023SOL    HW229529   3.278   3.885   8.444  0.9468 -1.4397  0.1244
 6024SOL     OW29530   3.908   2.218   3.031  0.1385  0.3765 -0.1178
 6024SOL    HW129531   3.828   2.215   3.082 -1.6856  0.7637 -2.9508
 6024SOL    HW229532   3.925   2.124   3.044 -1.8138 -0.1204 -1.1074
 6025SOL     OW29533   0.116   2.579   5.348 -0.0575 -0.1870  0.2908
 6025SOL    HW129534   0.161   2.613   5.426  0.0500 -1.4673  0.7838
 6025SOL    HW229535   0.113   2.488   5.378  0.1617  0.9103  3.7458
 6026SOL     OW29536   2.933   3.095   8.715 -0.1459  0.1367 -0.0372
 6026SOL    HW129537   3.003   3.061   8.770 -0.0372  1.3236  0.5535
 6026SOL    HW229538   2.980   3.153   8.656  1.5027  0.6362  1.7756
 6027SOL     OW29539   0.970   3.842  15.301  0.2275 -0.1599  0.5561
 6027SOL    HW129540   0.911   3.800  15.364  1.2045 -1.3182  0.7093
 6027SOL    HW229541   0.897   3.891  15.264  0.1765 -1.6442 -1.3624
 6028SOL     OW29542   3.010   1.117   8.262 -0.4498  0.0537 -0.3831
 6028SOL    HW129543   2.941   1.182   8.277 -0.7471 -0.7254  1.7315
 6028SOL    HW229544   2.958   1.051   8.217  0.3058 -0.7764 -0.0254
 6029SOL     OW29545   2.855   2.428   3.381  0.0690  0.1255 -0.1702
 6029SOL    HW129546   2.862   2.506   3.326  0.5729  0.5990  0.5784
 6029SOL    HW229547   2.834   2.365   3.312  0.0948 -0.3049  0.2132
 6030SOL     OW29548   0.974   3.099   5.713 -0.4352 -0.1738  0.0249
 6030SOL    HW129549   0.894   3.047   5.706 -1.1679  0.3317  4.7717
 6030SOL    HW229550   0.938   3.173   5.763 -1.3518  0.4098 -1.4733
 6031SOL     OW29551   1.211   3.045   4.073  0.1648  0.4701 -0.3372
 6031SOL    HW129552   1.256   3.076   3.995  0.7652  0.7952  0.1318
 6031SOL    HW229553   1.290   3.035   4.127 -1.0644  0.3393  1.4425
 6032SOL     OW29554   4.097   2.502   7.857 -0.3060 -0.3462 -0.5960
 6032SOL    HW129555   4.103   2.490   7.763  1.2548 -0.4189 -0.4870
 6032SOL    HW229556   4.005   2.479   7.867 -0.8422  2.8630  1.6273
 6033SOL     OW29557   2.921   0.632  14.938 -0.4129  0.1287 -0.4433
 6033SOL    HW129558   2.904   0.590  15.022 -1.9359  0.8689 -0.3915
 6033SOL    HW229559   2.964   0.715  14.958  0.8559 -0.4298 -0.8816
 6034SOL     OW29560   1.072   3.136   7.888 -0.1851  0.6023 -0.1917
 6034SOL    HW129561   1.075   3.073   7.960 -0.9370 -0.0662 -0.7488
 6034SOL    HW229562   1.158   3.178   7.894 -0.1170  0.6575 -1.4290
 6035SOL     OW29563   0.861   4.313   7.727 -0.1509  0.6669 -0.4575
 6035SOL    HW129564   0.880   4.380   7.661  1.5966  2.7373  2.1678
 6035SOL    HW229565   0.834   4.371   7.798 -0.7190 -0.4233  0.2057
 6036SOL     OW29566   0.557   0.219  11.271 -0.0649 -0.5154  0.2907
 6036SOL    HW129567   0.581   0.304  11.236 -1.9523  0.5986  1.6607
 6036SOL    HW229568   0.579   0.166  11.194  0.0559 -1.3785  0.9153
 6037SOL     OW29569   2.662   0.335   7.257 -0.2161  0.3660  0.1235
 6037SOL    HW129570   2.596   0.284   7.210  0.9045 -1.5625  0.6364
 6037SOL    HW229571   2.738   0.324   7.200  0.2819  0.1995  0.8212
 6038SOL     OW29572   4.129   1.420  16.042  0.4479 -0.0560 -0.2936
 6038SOL    HW129573   4.101   1.389  15.956  0.9573  0.1466 -0.5350
 6038SOL    HW229574   4.173   1.502  16.018 -0.3819  0.1026 -1.2431
 6039SOL     OW29575   3.255   4.567   4.456 -0.8236 -0.0056 -0.3338
 6039SOL    HW129576   3.211   4.556   4.540 -2.7982  1.0110 -1.2323
 6039SOL    HW229577   3.345   4.575   4.489 -1.0081 -1.1744  0.4723
 6040SOL     OW29578   3.407   2.179   4.053 -0.2725  0.5596  0.2809
 6040SOL    HW129579   3.372   2.254   4.005 -3.7245 -0.9820  0.3524
 6040SOL    HW229580   3.376   2.106   3.998  2.4589  0.1200 -0.6678
 6041SOL     OW29581   0.629   3.731   3.332  0.0795 -0.0385  0.4623
 6041SOL    HW129582   0.534   3.726   3.344 -0.1654  1.2649 -0.9243
 6041SOL    HW229583   0.641   3.687   3.248  2.2431  2.0800 -0.3484
 6042SOL     OW29584   0.723   1.079   2.093  0.2157 -0.1890  0.6547
 6042SOL    HW129585   0.818   1.074   2.079 -0.1503  0.0533 -1.9680
 6042SOL    HW229586   0.706   1.145   2.160 -0.0209  1.8244 -1.4064
 6043SOL     OW29587   3.453   2.058   3.770  0.1683 -0.2663  0.4975
 6043SOL    HW129588   3.362   2.052   3.801 -0.8834  1.6826 -2.3394
 6043SOL    HW229589   3.462   2.001   3.694  3.1007  1.0659 -0.1320
 6044SOL     OW29590   3.238   0.917   5.193  0.7409  0.5324 -0.1544
 6044SOL    HW129591   3.195   0.932   5.277 -1.9630 -3.2955 -0.8613
 6044SOL    HW229592   3.320   0.878   5.220  0.4237 -0.4511 -0.6221
 6045SOL     OW29593   0.312   3.801   0.130  0.6954 -0.1666  0.1090
 6045SOL    HW129594   0.398   3.759   0.121  0.2181 -0.8874 -1.1423
 6045SOL    HW229595   0.255   3.742   0.179  0.9181  1.1732  1.9574
 6046SOL     OW29596   4.190   0.658   3.875  0.3141  0.0879 -0.4836
 6046SOL    HW129597   4.197   0.753   3.865 -2.1355  0.2630 -0.4010
 6046SOL    HW229598   4.210   0.629   3.786  0.8862 -1.2336  0.0827
 6047SOL     OW29599   0.639   4.159   2.768 -0.4557  0.0478  0.3621
 6047SOL    HW129600   0.649   4.193   2.857  2.8222  0.1012 -0.0452
 6047SOL    HW229601   0.655   4.238   2.717 -0.0593 -0.8580 -0.9296
 6048SOL     OW29602   4.024   2.054   5.728 -0.4371  0.2452  0.2177
 6048SOL    HW129603   4.025   2.012   5.813 -0.3236  0.6155  0.4011
 6048SOL    HW229604   4.100   2.019   5.681 -1.6794 -0.4416 -1.2665
 6049SOL     OW29605   2.191   1.429   1.266 -0.3719 -0.0155  0.6614
 6049SOL    HW129606   2.142   1.506   1.293 -1.8406 -0.2723 -1.3004
 6049SOL    HW229607   2.204   1.389   1.352 -2.0571 -1.7569  0.1120
 6050SOL     OW29608   3.429   0.966   1.089  0.7032  0.1330  0.6093
 6050SOL    HW129609   3.370   1.037   1.115 -0.6984 -0.4028 -1.0850
 6050SOL    HW229610   3.511   1.001   1.122  0.4498  0.6347  0.7107
 6051SOL     OW29611   2.359   3.052   6.062 -0.2849  0.2454  0.2859
 6051SOL    HW129612   2.291   3.044   5.995  1.0149  1.0578 -1.1373
 6051SOL    HW229613   2.319   3.040   6.148 -0.7340  0.8317  0.1591
 6052SOL     OW29614   1.472   1.118   2.330  0.1856  0.2032  0.1383
 6052SOL    HW129615   1.472   1.156   2.418  0.1645  0.0128  0.2205
 6052SOL    HW229616   1.381   1.094   2.316  0.1538  0.4093 -0.0055
 6053SOL     OW29617   3.413   4.288   6.985  0.4926 -0.4131  0.0965
 6053SOL    HW129618   3.349   4.353   7.014  0.3346  1.2525 -3.9500
 6053SOL    HW229619   3.392   4.213   7.040  3.9912 -2.1642 -0.9901
 6054SOL     OW29620   1.913   1.672   5.291  0.2796  0.2790  0.1697
 6054SOL    HW129621   1.926   1.581   5.265  1.4557 -0.5143  3.4680
 6054SOL    HW229622   1.871   1.721   5.221  1.1399 -0.8855 -1.1546
 6055SOL     OW29623   2.987   2.835   2.832  0.8060  0.8787 -0.5787
 6055SOL    HW129624   3.032   2.912   2.797  1.4198  0.9119  0.3162
 6055SOL    HW229625   2.952   2.802   2.749  1.7816 -0.5804 -0.3954
 6056SOL     OW29626   2.712   2.752   6.768 -0.1045 -0.2996 -0.1019
 6056SOL    HW129627   2.623   2.786   6.765 -0.0775 -0.0579  2.3188
 6056SOL    HW229628   2.754   2.810   6.704 -0.7517 -0.5354 -0.7482
 6057SOL     OW29629   1.289   0.514  15.810  0.0519  0.1013  0.0026
 6057SOL    HW129630   1.343   0.544  15.884  2.0707  1.1011 -1.8597
 6057SOL    HW229631   1.352   0.547  15.744  0.1391 -0.5789 -0.2481
 6058SOL     OW29632   3.096   1.123  14.677 -0.4852 -0.0113  0.1606
 6058SOL    HW129633   3.003   1.103  14.688 -0.3359 -0.2289  1.0438
 6058SOL    HW229634   3.100   1.143  14.583 -2.1808 -1.5100 -0.2391
 6059SOL     OW29635   0.536   0.781   8.095  0.2706  0.1601  0.2182
 6059SOL    HW129636   0.531   0.740   8.009  0.8730  1.1795 -0.3050
 6059SOL    HW229637   0.562   0.698   8.136  1.2174 -0.2293 -1.1551
 6060SOL     OW29638   2.223   4.216   4.914 -0.1257 -0.2161 -0.3557
 6060SOL    HW129639   2.262   4.255   4.836 -2.1758 -0.2534 -1.3971
 6060SOL    HW229640   2.217   4.301   4.958  1.1508  0.6564 -1.8643
 6061SOL     OW29641   1.013   3.335   1.674  0.3220  0.7549  0.1337
 6061SOL    HW129642   1.027   3.413   1.728 -1.9068  0.8855  0.5275
 6061SOL    HW229643   0.989   3.376   1.591  0.7471  0.8510  0.0585
 6062SOL     OW29644   2.949   4.042   1.783 -0.6123  0.2230  0.2628
 6062SOL    HW129645   2.965   3.983   1.710  0.7144  1.4448 -0.4305
 6062SOL    HW229646   3.040   4.072   1.788 -0.7914  0.7668  0.2275
 6063SOL     OW29647   0.878   1.897   9.872  0.4363 -0.3405 -0.3311
 6063SOL    HW129648   0.880   1.983   9.830  0.0871 -0.2222 -0.1073
 6063SOL    HW229649   0.825   1.847   9.810  2.1740 -3.4205  0.6764
 6064SOL     OW29650   3.937   1.458   7.607  0.0109  0.5268 -0.5964
 6064SOL    HW129651   3.936   1.553   7.595 -1.0923  0.9153  2.3596
 6064SOL    HW229652   3.870   1.457   7.676  0.8792 -0.9164  0.2289
 6065SOL     OW29653   2.873   2.386   5.899  0.9540  0.5648 -0.5912
 6065SOL    HW129654   2.824   2.434   5.966  0.4477 -3.5292  1.9437
 6065SOL    HW229655   2.790   2.358   5.859 -0.0099  2.1794  0.2844
 6066SOL     OW29656   4.060   3.573   1.174  0.3372 -0.1773  0.1861
 6066SOL    HW129657   4.124   3.504   1.157  1.8159  0.6956  2.2366
 6066SOL    HW229658   4.079   3.633   1.102  0.6062 -1.2797 -0.6492
 6067SOL     OW29659   3.519   3.711  15.118  0.2486 -0.2057 -0.2048
 6067SOL    HW129660   3.498   3.707  15.211  0.1301 -0.5304 -0.2462
 6067SOL    HW229661   3.612   3.734  15.122 -0.1224  1.3425 -0.2723
 6068SOL     OW29662   2.793   2.632   8.960 -0.2597  0.4797 -0.5458
 6068SOL    HW129663   2.800   2.725   8.985  0.6209  0.3267 -0.2386
 6068SOL    HW229664   2.829   2.590   9.038 -1.4687  2.4934  1.1132
 6069SOL     OW29665   3.534   0.819   3.914  0.0826 -0.1395  0.0491
 6069SOL    HW129666   3.495   0.765   3.983 -1.6902  0.5794 -0.3875
 6069SOL    HW229667   3.457   0.842   3.863 -0.2579  0.1891  0.7111
 6070SOL     OW29668   3.473   1.906   5.585  0.0282 -0.1857  0.1912
 6070SOL    HW129669   3.454   1.998   5.602 -0.6974 -0.0373 -1.4793
 6070SOL    HW229670   3.385   1.871   5.597  0.0690 -0.0085  1.0052
 6071SOL     OW29671   0.063   1.042  13.905 -0.0271 -0.1585 -0.0681
 6071SOL    HW129672   0.133   1.019  13.845 -1.7299  0.9393 -2.4659
 6071SOL    HW229673   4.720   0.983  13.868  0.9569 -2.7972  2.3463
 6072SOL     OW29674   2.043   2.823   4.291  0.2153 -0.3094 -0.5011
 6072SOL    HW129675   2.020   2.776   4.210 -1.7638 -0.7943  0.3415
 6072SOL    HW229676   2.067   2.909   4.256  1.0267  0.0251  0.8587
 6073SOL     OW29677   0.788   3.793   2.612  0.3394  0.2695 -0.4147
 6073SOL    HW129678   0.735   3.742   2.552  0.2557  1.4715 -1.3602
 6073SOL    HW229679   0.849   3.832   2.550  1.4008  3.0108  2.3421
 6074SOL     OW29680   1.743   2.607   1.503  0.1573 -0.4161 -0.0421
 6074SOL    HW129681   1.760   2.700   1.520 -0.9826 -0.2625  0.2661
 6074SOL    HW229682   1.715   2.609   1.412  1.8478  1.0985 -0.5285
 6075SOL     OW29683   1.210   0.090   6.007  0.4350  0.2747 -0.5801
 6075SOL    HW129684   1.295   0.048   5.995  0.3373  0.3847 -1.6836
 6075SOL    HW229685   1.227   0.176   5.968  1.8485 -0.5146 -1.6905
 6076SOL     OW29686   3.224   1.188  12.326 -0.2166 -0.3581 -0.6767
 6076SOL    HW129687   3.239   1.229  12.411 -2.6346  1.3331 -1.0551
 6076SOL    HW229688   3.287   1.244  12.281  0.3858  0.3127  0.9912
 6077SOL     OW29689   2.550   1.519   8.594 -0.0166  0.8067  0.3806
 6077SOL    HW129690   2.502   1.561   8.522  0.1747 -0.3884 -0.4617
 6077SOL    HW229691   2.548   1.588   8.659 -0.2071  1.4576 -0.3101
 6078SOL     OW29692   1.442   4.201   4.850  0.2067  0.0450 -0.0108
 6078SOL    HW129693   1.455   4.272   4.913  1.5884  1.4381 -1.8306
 6078SOL    HW229694   1.426   4.125   4.906  0.5198  0.1689  0.2517
 6079SOL     OW29695   2.680   4.257  10.346  0.1802 -0.0409  0.5255
 6079SOL    HW129696   2.602   4.204  10.329  0.4116 -0.9413  2.2108
 6079SOL    HW229697   2.635   4.340  10.363 -1.5959 -0.4594 -2.1233
 6080SOL     OW29698   4.255   2.486   4.021 -1.2002  0.6032 -0.1263
 6080SOL    HW129699   4.348   2.497   3.999 -0.9042 -0.6573  0.4896
 6080SOL    HW229700   4.248   2.391   4.028  0.8635  0.4553 -0.0256
 6081SOL     OW29701   2.274   3.913   7.442 -0.0659 -0.4551 -0.2331
 6081SOL    HW129702   2.347   3.872   7.488 -1.5839 -0.3347  2.3563
 6081SOL    HW229703   2.255   3.971   7.516  1.5076 -0.9372  0.5418
 6082SOL     OW29704   4.225   3.217   5.960 -0.3608 -0.1389 -0.6227
 6082SOL    HW129705   4.260   3.232   5.872  2.8768  2.0961  1.0254
 6082SOL    HW229706   4.133   3.230   5.939 -0.4306 -0.9164 -0.8339
 6083SOL     OW29707   3.445   2.939  16.825 -0.5378 -0.1214  0.2882
 6083SOL    HW129708   3.407   2.912  16.742 -0.4401 -1.9392  0.8454
 6083SOL    HW229709   3.492   3.019  16.802 -1.2392  0.9798  2.6676
 6084SOL     OW29710   3.334   2.771  10.866 -0.3418 -0.0657  0.0573
 6084SOL    HW129711   3.254   2.732  10.901 -0.8199  1.1334  0.2919
 6084SOL    HW229712   3.291   2.851  10.837 -0.4582  0.3493  1.3870
 6085SOL     OW29713   1.999   3.021   3.430  0.5284 -0.6414 -0.0046
 6085SOL    HW129714   1.937   3.090   3.456  1.1084  0.6153 -1.9662
 6085SOL    HW229715   1.961   2.971   3.357  1.5527 -1.2260 -0.1419
 6086SOL     OW29716   3.754   2.906  16.395  0.0486 -0.6047 -0.2129
 6086SOL    HW129717   3.794   2.973  16.339  2.3493 -1.2859  0.6242
 6086SOL    HW229718   3.768   2.834  16.334  2.1444 -0.7511  0.4457
 6087SOL     OW29719   4.371   2.315  13.485 -0.1111 -0.6619 -0.6575
 6087SOL    HW129720   4.427   2.392  13.494 -2.0461  0.8527 -1.7504
 6087SOL    HW229721   4.285   2.355  13.477  0.0720 -0.0739  0.3104
 6088SOL     OW29722   3.424   1.461  15.797  0.2247 -0.2117  0.6050
 6088SOL    HW129723   3.351   1.417  15.753 -0.7388  1.6492  0.3332
 6088SOL    HW229724   3.387   1.506  15.873  0.7852  1.5293 -0.1613
 6089SOL     OW29725   3.372   3.397   8.785 -0.3413 -0.0078  0.4723
 6089SOL    HW129726   3.356   3.421   8.876  0.6848  1.5783  0.2302
 6089SOL    HW229727   3.280   3.393   8.760  0.6151  0.8015 -3.1431
 6090SOL     OW29728   3.229   3.582  12.652  0.6397  0.1923 -0.3500
 6090SOL    HW129729   3.225   3.490  12.628  0.8458 -0.4526  2.1183
 6090SOL    HW229730   3.295   3.571  12.721  0.4797  1.2476 -0.0259
 6091SOL     OW29731   0.655   4.133   6.594 -0.3548  0.1634  0.1034
 6091SOL    HW129732   0.606   4.208   6.628  1.2022  0.8754  0.7950
 6091SOL    HW229733   0.740   4.143   6.637 -1.0627  0.9553  1.3146
 6092SOL     OW29734   2.039   4.182   0.874  0.0509 -0.1366  0.3874
 6092SOL    HW129735   2.044   4.087   0.886 -1.8559 -0.3059 -0.1407
 6092SOL    HW229736   2.131   4.208   0.864 -0.1979  0.8866  0.8305
 6093SOL     OW29737   2.781   2.500  10.094 -0.0152  0.3011  0.3260
 6093SOL    HW129738   2.735   2.583  10.093  1.4198  1.0767 -1.8201
 6093SOL    HW229739   2.724   2.457  10.157  1.3703 -2.4688 -0.2899
 6094SOL     OW29740   0.562   2.898   8.757 -0.5076 -0.2405  0.3169
 6094SOL    HW129741   0.514   2.979   8.775  0.2406 -0.4443  3.1399
 6094SOL    HW229742   0.506   2.869   8.684  0.7160 -0.1410 -0.6579
 6095SOL     OW29743   3.056   3.368   3.850  0.0524 -0.6635 -0.0697
 6095SOL    HW129744   3.039   3.277   3.873 -1.1074 -0.8152 -1.4649
 6095SOL    HW229745   3.059   3.417   3.932  0.1607 -0.4711 -0.1875
 6096SOL     OW29746   4.218   4.480   6.123 -0.3378  0.2496 -0.1826
 6096SOL    HW129747   4.134   4.486   6.170 -0.3456  0.4316 -0.2175
 6096SOL    HW229748   4.256   4.561   6.157  1.0292 -0.2116 -0.6087
 6097SOL     OW29749   0.708   4.298   7.038 -0.8777  0.8871 -0.3101
 6097SOL    HW129750   0.668   4.228   7.091 -0.6580  1.5523  0.7438
 6097SOL    HW229751   0.652   4.372   7.058 -0.1165  1.9988 -2.3516
 6098SOL     OW29752   3.701   3.928   6.368 -0.3385  0.5910  0.0455
 6098SOL    HW129753   3.655   3.989   6.310  0.8988  0.5484 -0.9844
 6098SOL    HW229754   3.794   3.950   6.360 -0.5520  1.0587 -1.3128
 6099SOL     OW29755   0.384   2.387   3.141 -0.4639  0.1059  0.0857
 6099SOL    HW129756   0.429   2.447   3.201  0.8030 -1.3060  0.5557
 6099SOL    HW229757   0.462   2.333   3.128 -0.2735  0.2587  0.5680
 6100SOL     OW29758   1.250   1.131   4.350  0.0590 -0.7329 -0.5095
 6100SOL    HW129759   1.281   1.177   4.273 -1.7455 -0.1211 -0.8762
 6100SOL    HW229760   1.325   1.116   4.407  0.2072 -0.4269 -0.6285
 6101SOL     OW29761   4.229   0.897   5.591  0.3354 -0.8068  0.3101
 6101SOL    HW129762   4.258   0.817   5.546 -1.7714 -1.3241 -0.1078
 6101SOL    HW229763   4.286   0.963   5.551 -0.5552 -1.0136 -1.2966
 6102SOL     OW29764   1.500   2.169   8.771 -0.3907 -0.3424  0.7476
 6102SOL    HW129765   1.590   2.178   8.804  0.4196 -0.6654 -1.3469
 6102SOL    HW229766   1.454   2.206   8.846  0.5564  2.0007  0.1762
 6103SOL     OW29767   1.148   3.381  17.071 -0.0101  0.2902  0.6445
 6103SOL    HW129768   1.109   3.323  17.005  1.7365 -0.7450  0.5277
 6103SOL    HW229769   1.218   3.419  17.017 -0.2017  1.7736  1.4511
 6104SOL     OW29770   4.651   0.933   5.429  0.2574  0.0109 -0.0523
 6104SOL    HW129771   4.610   0.942   5.515  0.6443 -1.0866  0.2471
 6104SOL    HW229772   4.670   0.839   5.433  1.2397  0.1177 -2.0694
 6105SOL     OW29773   3.456   3.995   5.053  0.4485 -0.0327  0.0812
 6105SOL    HW129774   3.395   3.950   4.995  1.5519 -0.8147 -0.4742
 6105SOL    HW229775   3.462   3.941   5.132  0.0090  1.8501  1.4037
 6106SOL     OW29776   0.691   1.755   2.287  0.5875 -0.6357  0.1426
 6106SOL    HW129777   0.679   1.667   2.253  3.8303 -0.9035 -0.2465
 6106SOL    HW229778   0.620   1.761   2.352  0.0035  0.2865 -0.5797
 6107SOL     OW29779   3.837   2.483   7.715  0.1879  0.0828  0.2712
 6107SOL    HW129780   3.833   2.577   7.728  0.3168  0.1986 -0.5729
 6107SOL    HW229781   3.743   2.464   7.705  0.4261 -0.4068 -1.0002
 6108SOL     OW29782   3.120   2.110   9.908  0.3827  0.5602  0.1473
 6108SOL    HW129783   3.209   2.139   9.894  1.0718 -0.2637  2.7847
 6108SOL    HW229784   3.078   2.192   9.932 -0.1475  0.2165  0.4061
 6109SOL     OW29785   1.442   4.509   3.057  0.0160  0.5095 -0.2843
 6109SOL    HW129786   1.485   4.454   3.123 -1.0274 -1.2587 -1.0808
 6109SOL    HW229787   1.444   4.453   2.980 -1.1560 -0.3341  0.2884
 6110SOL     OW29788   3.104   2.065   7.570  0.3216 -0.1543  0.1898
 6110SOL    HW129789   3.139   1.978   7.584 -0.3740 -0.5205 -0.3299
 6110SOL    HW229790   3.152   2.112   7.638  2.3541 -0.8592 -0.7515
 6111SOL     OW29791   2.201   4.388   1.547 -0.5646  0.2676  0.8208
 6111SOL    HW129792   2.205   4.407   1.641 -1.9333  1.5283  0.6379
 6111SOL    HW229793   2.223   4.295   1.551  0.4714  0.5411  1.3839
 6112SOL     OW29794   0.751   3.371  10.445  0.3095  0.0474 -0.1415
 6112SOL    HW129795   0.660   3.400  10.436  0.6881  1.1988 -0.3561
 6112SOL    HW229796   0.758   3.322  10.526 -1.2781 -0.9082 -0.5790
 6113SOL     OW29797   2.169   0.522  10.304  0.9469 -0.5888  0.0674
 6113SOL    HW129798   2.254   0.523  10.261 -0.0978 -1.7103 -2.0126
 6113SOL    HW229799   2.162   0.433  10.339  0.0185 -0.9670 -1.0972
 6114SOL     OW29800   1.929   3.951   6.475 -0.1668  0.7353  0.1265
 6114SOL    HW129801   1.949   3.920   6.387 -1.0885 -1.2197  0.6054
 6114SOL    HW229802   1.877   4.030   6.459  0.2012  0.9075 -0.1992
 6115SOL     OW29803   2.806   1.560   2.966 -0.0753 -0.4432 -0.3933
 6115SOL    HW129804   2.898   1.534   2.967 -0.0080 -0.1656  1.2891
 6115SOL    HW229805   2.809   1.655   2.968  2.0200 -0.5881  4.3691
 6116SOL     OW29806   0.631   0.894   9.719 -0.2919 -0.1189 -0.2186
 6116SOL    HW129807   0.692   0.895   9.646 -0.0353  0.8514  0.0172
 6116SOL    HW229808   0.545   0.877   9.679 -0.4462 -1.4930  0.7025
 6117SOL     OW29809   3.401   1.959   1.309 -0.8393  0.5659  0.0502
 6117SOL    HW129810   3.321   1.952   1.257 -1.3148 -1.9229  1.1131
 6117SOL    HW229811   3.396   1.877   1.358  1.6970  0.5182  0.2181
 6118SOL     OW29812   2.708   3.595  15.658 -0.0915 -0.3068 -0.6427
 6118SOL    HW129813   2.670   3.516  15.696 -1.1013 -0.0507 -1.1147
 6118SOL    HW229814   2.794   3.593  15.700 -0.8675  0.6630  1.0038
 6119SOL     OW29815   2.367   2.142   5.911  0.2565 -0.1634 -0.5946
 6119SOL    HW129816   2.455   2.126   5.944  1.4375  0.7716 -3.3174
 6119SOL    HW229817   2.320   2.059   5.919 -2.3150  1.3012 -0.1622
 6120SOL     OW29818   2.605   2.647  14.594  0.4271 -0.3915  0.1062
 6120SOL    HW129819   2.691   2.626  14.631  0.5382  1.3614  0.8812
 6120SOL    HW229820   2.562   2.653  14.679 -1.6005 -0.4174 -0.9235
 6121SOL     OW29821   0.348   1.400  14.173 -0.2819  0.0852  0.0968
 6121SOL    HW129822   0.427   1.435  14.215 -1.1443  0.3601  1.4881
 6121SOL    HW229823   0.311   1.335  14.232  3.1570 -0.8573  1.2074
 6122SOL     OW29824   4.056   4.299   2.572 -0.2825  0.1906  0.2531
 6122SOL    HW129825   4.044   4.280   2.665 -0.8502 -1.5899 -0.1792
 6122SOL    HW229826   3.976   4.259   2.538 -0.9052  1.1378  0.6329
 6123SOL     OW29827   1.690   2.974   3.510 -0.3046 -0.1488 -0.1337
 6123SOL    HW129828   1.620   2.914   3.536 -1.6463  1.4586 -0.0536
 6123SOL    HW229829   1.750   2.962   3.584 -0.5923  1.9720  0.4419
 6124SOL     OW29830   1.459   1.607   2.130 -0.4507  0.0340  0.0990
 6124SOL    HW129831   1.393   1.558   2.081 -0.9843  0.1846  0.6637
 6124SOL    HW229832   1.436   1.576   2.218  0.7467 -1.2435 -0.0432
 6125SOL     OW29833   2.741   3.731   5.788  0.1936 -0.1576 -0.0758
 6125SOL    HW129834   2.727   3.639   5.765  1.6911 -0.2517 -0.5959
 6125SOL    HW229835   2.689   3.738   5.868  0.1621  1.3140 -0.2321
 6126SOL     OW29836   4.165   0.731   3.499 -0.2480 -0.0453 -0.0203
 6126SOL    HW129837   4.189   0.824   3.498  0.1463 -0.1525 -0.4844
 6126SOL    HW229838   4.162   0.708   3.406 -0.9160 -1.8922  0.4530
 6127SOL     OW29839   2.661   4.364   6.349  0.3485 -0.6133  0.4315
 6127SOL    HW129840   2.690   4.324   6.266 -2.7191  0.6093 -1.2474
 6127SOL    HW229841   2.710   4.314   6.414  1.2297 -2.2193 -1.4428
 6128SOL     OW29842   0.601   1.914  16.804 -0.3625  0.0394  0.5546
 6128SOL    HW129843   0.529   1.965  16.768 -1.1796 -1.0422  0.6768
 6128SOL    HW229844   0.647   1.989  16.842  0.4680 -0.3522  0.3167
 6129SOL     OW29845   0.646   4.070   4.257  0.2187  0.8859  0.5537
 6129SOL    HW129846   0.657   4.166   4.256  0.8021  0.8098 -2.5796
 6129SOL    HW229847   0.638   4.064   4.162  1.6162 -0.4896  0.5211
 6130SOL     OW29848   2.814   2.831  10.923 -0.2492  0.3689  0.4189
 6130SOL    HW129849   2.848   2.904  10.870 -1.4070  2.5195  2.6689
 6130SOL    HW229850   2.777   2.778  10.852  0.6623  4.4350 -3.1644
 6131SOL     OW29851   0.502   1.254   6.479 -0.8100  0.1545  0.0460
 6131SOL    HW129852   0.410   1.228   6.476 -0.3046 -1.6627  0.5719
 6131SOL    HW229853   0.543   1.168   6.488 -2.5649 -0.6519  0.4707
 6132SOL     OW29854   0.637   2.901   5.668  0.2194  0.2944  0.1821
 6132SOL    HW129855   0.670   2.958   5.598  1.7643  0.1924  0.8368
 6132SOL    HW229856   0.667   2.818   5.631  0.4450  1.1977 -1.6790
 6133SOL     OW29857   1.486   4.421  10.302  0.1046  0.3822  0.3493
 6133SOL    HW129858   1.572   4.390  10.277 -0.0505  0.6112 -0.4557
 6133SOL    HW229859   1.509   4.506  10.340  0.0014  0.7907 -0.5022
 6134SOL     OW29860   1.696   1.616   5.529  0.1016  0.5830 -0.4240
 6134SOL    HW129861   1.727   1.526   5.529 -2.6297 -0.3713  1.1134
 6134SOL    HW229862   1.678   1.622   5.623 -0.5068 -3.0567 -0.2970
 6135SOL     OW29863   2.979   4.030   7.218 -0.6700  0.6944  0.1437
 6135SOL    HW129864   2.946   3.995   7.135  1.7132 -2.8033  0.6640
 6135SOL    HW229865   2.894   4.018   7.261  0.1546  2.5138  2.2513
 6136SOL     OW29866   2.971   0.621   2.420 -0.6904 -0.2170 -0.0811
 6136SOL    HW129867   2.939   0.698   2.467 -2.7664 -1.7512  0.9869
 6136SOL    HW229868   2.916   0.631   2.342 -0.2229  2.4586 -0.0581
 6137SOL     OW29869   4.347   0.021   2.589 -0.0452 -0.2562 -0.0626
 6137SOL    HW129870   4.399   4.705   2.518  1.1665 -0.7602  1.1054
 6137SOL    HW229871   4.267   4.694   2.601 -1.3539  1.9816  0.4579
 6138SOL     OW29872   3.728   0.738  13.730 -0.0957  0.2813  0.0701
 6138SOL    HW129873   3.710   0.645  13.738 -3.8844  0.9047 -1.1915
 6138SOL    HW229874   3.745   0.769  13.819  0.7365 -0.0466  0.0283
 6139SOL     OW29875   0.683   2.656   7.247 -0.3529  0.4798  0.1922
 6139SOL    HW129876   0.704   2.627   7.158 -3.0915 -1.6039  0.1929
 6139SOL    HW229877   0.772   2.663   7.281  0.0598 -0.2886 -0.7453
 6140SOL     OW29878   1.972   1.566   7.025 -0.2659  0.6992 -0.4679
 6140SOL    HW129879   1.951   1.659   7.020 -1.9153  0.3455 -0.1355
 6140SOL    HW229880   2.011   1.555   6.938  2.3045 -2.2620  1.0208
 6141SOL     OW29881   0.699   0.161  11.490 -0.2970 -0.1966 -0.3220
 6141SOL    HW129882   0.610   0.148  11.522 -0.0329  2.4647  1.5289
 6141SOL    HW229883   0.683   0.212  11.410 -1.3272 -0.4287 -0.2613
 6142SOL     OW29884   0.960   0.281   3.828 -0.1017  0.1712 -0.0196
 6142SOL    HW129885   0.928   0.315   3.744  1.5667 -1.8403 -1.4701
 6142SOL    HW229886   0.989   0.193   3.807  0.5683  0.8862 -2.1320
 6143SOL     OW29887   1.468   4.515   6.673 -0.0254 -0.0194  0.0289
 6143SOL    HW129888   1.524   4.509   6.750 -2.0739  1.0188  1.5880
 6143SOL    HW229889   1.510   4.593   6.637  1.0771 -1.1044 -1.0744
 6144SOL     OW29890   3.596   3.649  16.974  0.2102  0.0457  0.2557
 6144SOL    HW129891   3.593   3.741  17.003  2.1522 -0.1518  1.0729
 6144SOL    HW229892   3.689   3.629  16.980  0.7417  2.2295 -0.6595
 6145SOL     OW29893   0.204   4.244   3.974  0.1043  0.3759  0.2257
 6145SOL    HW129894   0.291   4.273   3.948 -0.8091  2.3074 -0.7118
 6145SOL    HW229895   0.226   4.206   4.059  1.4677  1.4923  0.3629
 6146SOL     OW29896   4.256   0.735   9.231 -0.2093  0.3100 -0.1252
 6146SOL    HW129897   4.330   0.681   9.205 -0.2324  0.1919  0.0514
 6146SOL    HW229898   4.227   0.693   9.312 -0.2737  0.4369 -0.0824
 6147SOL     OW29899   0.495   2.728   7.962 -0.2632 -0.0375  0.1180
 6147SOL    HW129900   0.518   2.671   7.888  1.7396  1.4965 -0.4633
 6147SOL    HW229901   0.497   2.666   8.035  1.1452 -2.4351 -1.9240
 6148SOL     OW29902   0.318   0.257   4.734 -0.3213  0.3642 -0.0801
 6148SOL    HW129903   0.333   0.331   4.675 -1.7044 -0.8076 -1.9081
 6148SOL    HW229904   0.336   0.294   4.820 -3.9179  0.2365  0.7306
 6149SOL     OW29905   4.596   3.935   4.731 -0.1958  0.5529  0.8032
 6149SOL    HW129906   4.677   3.987   4.726 -1.9340  3.2202  0.1465
 6149SOL    HW229907   4.638   3.856   4.698  3.2305  3.3088 -1.5441
 6150SOL     OW29908   3.485   4.463  15.563  0.3921  0.7932  0.1173
 6150SOL    HW129909   3.409   4.484  15.510  1.0026 -0.0147 -1.0598
 6150SOL    HW229910   3.554   4.505  15.512  1.1744  0.5786  0.9794
 6151SOL     OW29911   0.267   0.779   5.355  0.4189 -0.2260 -0.2291
 6151SOL    HW129912   0.193   0.750   5.302 -0.3002  1.1020  0.0513
 6151SOL    HW229913   0.337   0.757   5.294  0.9853 -0.3297  0.4588
 6152SOL     OW29914   4.430   1.073  16.426  0.2489  0.1215  0.7346
 6152SOL    HW129915   4.460   1.154  16.384  1.3205  0.2353  1.7073
 6152SOL    HW229916   4.385   1.111  16.501 -1.4177  0.0050 -0.2153
 6153SOL     OW29917   0.709   1.560   8.906  0.4935 -0.3078 -0.1843
 6153SOL    HW129918   0.781   1.622   8.912 -1.4539  1.8396  0.8901
 6153SOL    HW229919   0.773   1.490   8.896 -0.8984 -1.3306 -1.9331
 6154SOL     OW29920   4.378   3.050   6.507  0.0359 -0.1006 -0.3697
 6154SOL    HW129921   4.449   3.001   6.548 -1.5419 -1.5900  0.5871
 6154SOL    HW229922   4.355   3.001   6.428  3.3157 -1.3117 -0.5559
 6155SOL     OW29923   1.551   2.905   6.535 -0.2335 -0.0412  0.3601
 6155SOL    HW129924   1.552   2.819   6.576  1.3665 -0.7203 -1.1181
 6155SOL    HW229925   1.551   2.874   6.444  3.7227 -0.4574  0.5051
 6156SOL     OW29926   1.804   3.019  13.704  0.3012  0.2625  0.3535
 6156SOL    HW129927   1.817   2.971  13.622 -0.9934  1.2702 -0.4479
 6156SOL    HW229928   1.866   2.977  13.764  0.2749 -0.6390 -0.2586
 6157SOL     OW29929   0.085   4.481   1.642  0.4446  0.3239 -0.4180
 6157SOL    HW129930   0.035   4.400   1.629  0.2302  0.1442  1.5088
 6157SOL    HW229931   0.135   4.467   1.722  0.9670 -0.5848 -0.8958
 6158SOL     OW29932   2.604   0.259   8.500  0.2515 -0.0255  0.0382
 6158SOL    HW129933   2.522   0.244   8.548  0.3410  2.5116  1.0011
 6158SOL    HW229934   2.669   0.227   8.562 -0.8860 -0.1945  1.1650
 6159SOL     OW29935   0.427   3.599   0.409 -0.0336 -0.7116 -0.1114
 6159SOL    HW129936   0.509   3.614   0.457 -0.6893 -2.3553  1.5309
 6159SOL    HW229937   0.405   3.513   0.445 -1.3069 -0.3056  0.0786
 6160SOL     OW29938   1.713   3.414  13.266  0.0382  0.1050  0.1318
 6160SOL    HW129939   1.775   3.487  13.273 -0.5136  0.5283  0.6574
 6160SOL    HW229940   1.697   3.424  13.172  0.7111  3.0139  0.3223
 6161SOL     OW29941   0.465   2.436   0.985  0.4679 -0.0910 -0.0910
 6161SOL    HW129942   0.467   2.431   1.080  0.4165 -0.1860 -0.0946
 6161SOL    HW229943   0.421   2.520   0.973  0.4084  0.1345  1.6644
 6162SOL     OW29944   4.450   3.303  16.611 -0.6433  0.2819  0.1921
 6162SOL    HW129945   4.477   3.212  16.621 -2.0771 -0.2221 -0.5310
 6162SOL    HW229946   4.469   3.307  16.517  0.1492  0.0344  0.3444
 6163SOL     OW29947   2.391   2.304   1.946  0.5381  0.3245  0.4175
 6163SOL    HW129948   2.454   2.337   2.009  0.7066  1.1417 -0.1755
 6163SOL    HW229949   2.385   2.377   1.885  0.7115 -0.6349 -0.7481
 6164SOL     OW29950   0.575   1.879   9.063  0.3660 -0.3933 -0.1404
 6164SOL    HW129951   0.595   1.954   9.006 -0.5361  1.8943  2.5680
 6164SOL    HW229952   0.666   1.863   9.088  0.6550  2.7327  0.7940
 6165SOL     OW29953   2.324   0.296  16.895 -0.6258 -0.6896 -0.2267
 6165SOL    HW129954   2.241   0.250  16.902 -0.7909 -0.3000  0.3374
 6165SOL    HW229955   2.373   0.244  16.959 -0.2840  1.1828  1.0346
 6166SOL     OW29956   0.150   2.133   4.827  0.0503  0.4474  0.0431
 6166SOL    HW129957   0.144   2.073   4.901 -2.1510 -0.1540 -0.6296
 6166SOL    HW229958   0.180   2.071   4.761 -1.1883  0.4424 -0.5238
 6167SOL     OW29959   1.015   2.786  10.253  0.2051 -0.2863 -0.5596
 6167SOL    HW129960   1.067   2.733  10.314 -0.0949  1.3563  1.1241
 6167SOL    HW229961   1.053   2.873  10.261  2.2360 -1.1975 -0.3687
 6168SOL     OW29962   2.515   1.486   0.960  0.2485  0.3256  0.5338
 6168SOL    HW129963   2.487   1.483   1.052 -0.1454  2.0960  0.4674
 6168SOL    HW229964   2.483   1.574   0.945 -0.0683  0.3134  1.1445
 6169SOL     OW29965   1.722   3.706   2.931 -0.7829  0.9053 -0.1028
 6169SOL    HW129966   1.735   3.714   2.836  0.4369 -0.8333 -0.0751
 6169SOL    HW229967   1.655   3.637   2.926 -1.0729  1.0513  1.7090
 6170SOL     OW29968   4.249   3.726   7.212 -0.2117  0.3105  0.0745
 6170SOL    HW129969   4.213   3.784   7.146  1.2990 -1.4450 -2.2990
 6170SOL    HW229970   4.184   3.655   7.216 -0.7410  0.6929 -1.9832
 6171SOL     OW29971   1.636   1.379   8.109  0.1847 -0.4580  0.1758
 6171SOL    HW129972   1.637   1.470   8.079 -2.0516 -0.4451  0.0681
 6171SOL    HW229973   1.548   1.380   8.147  0.4678 -3.0656  0.8737
 6172SOL     OW29974   1.228   1.651   5.594  0.0024  0.1817  0.4985
 6172SOL    HW129975   1.254   1.713   5.662 -0.1831  1.8632 -0.9473
 6172SOL    HW229976   1.315   1.617   5.573 -0.2412 -0.0611 -0.1260
 6173SOL     OW29977   1.477   2.433   5.952  0.2053 -0.6699  0.0772
 6173SOL    HW129978   1.416   2.370   5.990  0.6524 -0.0174  1.8601
 6173SOL    HW229979   1.566   2.404   5.973  1.5388  1.5423 -2.5374
 6174SOL     OW29980   3.986   3.793   2.983 -0.1640  0.1234  0.5939
 6174SOL    HW129981   3.992   3.888   2.992  0.6910  0.2361 -1.2330
 6174SOL    HW229982   3.959   3.770   3.072 -0.9859 -1.1177  0.0224
 6175SOL     OW29983   1.250   2.277   2.500 -0.0680  0.0268 -0.3785
 6175SOL    HW129984   1.234   2.185   2.478 -0.9990  0.0477  0.2086
 6175SOL    HW229985   1.156   2.294   2.511  0.5180  2.2189  1.2834
 6176SOL     OW29986   4.208   4.117  14.354 -0.2082  0.6437 -0.3547
 6176SOL    HW129987   4.181   4.159  14.273 -0.1664 -0.2703 -0.8458
 6176SOL    HW229988   4.224   4.191  14.413 -1.5059 -0.1930  1.0437
 6177SOL     OW29989   3.257   1.160   1.187  0.2164  0.1534 -0.2610
 6177SOL    HW129990   3.170   1.160   1.227  1.0942  0.2500  1.6124
 6177SOL    HW229991   3.288   1.245   1.219  1.3647 -0.3929  0.0799
 6178SOL     OW29992   0.282   2.766   2.040  0.2501  0.3964 -0.1340
 6178SOL    HW129993   0.279   2.715   1.959  1.5390 -1.8106  1.1788
 6178SOL    HW229994   0.299   2.697   2.105  1.4143  0.3629 -0.4644
 6179SOL     OW29995   3.502   4.498  13.134 -0.1170  0.4009 -0.1102
 6179SOL    HW129996   3.511   4.465  13.045  1.1393 -1.7310  0.8093
 6179SOL    HW229997   3.421   4.548  13.129  0.4127  1.2241 -0.4704
 6180SOL     OW29998   4.685   0.556   4.304  0.4276  0.3868 -0.4217
 6180SOL    HW129999   4.631   0.492   4.259  0.7405 -0.5612  0.5380
 6180SOL    HW230000   4.610   0.593   4.350  0.0993 -0.7836 -0.0067
 6181SOL     OW30001   0.886   2.072  11.879  0.4307  0.3092 -0.9301
 6181SOL    HW130002   0.864   2.153  11.833  0.2303  1.5711  1.3808
 6181SOL    HW230003   0.980   2.063  11.864  0.1586 -2.8683 -0.8942
 6182SOL     OW30004   2.429   0.492   5.870 -0.6769  0.2530 -0.0023
 6182SOL    HW130005   2.398   0.486   5.960  0.8722  1.2025  0.6116
 6182SOL    HW230006   2.354   0.447   5.831 -0.2654  1.1048 -1.8106
 6183SOL     OW30007   3.811   4.330   6.167  0.0629 -0.4557 -0.3486
 6183SOL    HW130008   3.883   4.289   6.215 -0.1417 -3.1873 -2.3957
 6183SOL    HW230009   3.753   4.254   6.163 -0.2849 -0.1992 -0.1597
 6184SOL     OW30010   1.441   3.268   6.657 -0.2032 -0.0340 -0.2152
 6184SOL    HW130011   1.418   3.346   6.607  0.1769 -0.3822 -0.9333
 6184SOL    HW230012   1.490   3.301   6.732 -0.3059  1.4711 -0.8204
 6185SOL     OW30013   0.718   0.049  12.270 -0.3465 -0.5777  0.1615
 6185SOL    HW130014   0.743   0.133  12.231  2.0641 -1.1501  0.4514
 6185SOL    HW230015   0.663   0.081  12.342 -1.0369  0.6969 -0.9389
 6186SOL     OW30016   1.530   1.633  10.915 -0.4378  0.0787  0.5006
 6186SOL    HW130017   1.480   1.579  10.976 -0.5426  0.8889  1.1418
 6186SOL    HW230018   1.538   1.708  10.974 -0.4033 -1.1471  2.0633
 6187SOL     OW30019   4.601   2.072   7.863  0.0742 -0.8928  0.2448
 6187SOL    HW130020   4.560   2.026   7.936 -2.6294  0.9710 -0.1174
 6187SOL    HW230021   4.565   2.034   7.783  0.7293 -1.0581  0.0236
 6188SOL     OW30022   1.196   0.517   8.893 -0.1282  0.0836  0.5055
 6188SOL    HW130023   1.137   0.587   8.919  2.3257  2.0591  0.7653
 6188SOL    HW230024   1.259   0.512   8.965  1.6424 -1.3238 -1.1535
 6189SOL     OW30025   4.009   3.930  14.967  0.2407 -0.1486  0.7470
 6189SOL    HW130026   4.032   3.843  15.000  2.1469  0.2081  0.3875
 6189SOL    HW230027   3.938   3.905  14.909  1.4887  1.2305 -1.3702
 6190SOL     OW30028   3.141   0.903   8.432 -0.4651  0.8541 -0.3277
 6190SOL    HW130029   3.083   0.975   8.408 -0.8029  0.1135 -1.7753
 6190SOL    HW230030   3.077   0.844   8.471  0.1913  0.6394  0.4091
 6191SOL     OW30031   1.482   0.640   5.286 -0.8029  0.0528  0.2419
 6191SOL    HW130032   1.427   0.683   5.351 -0.3118  0.7112  0.2246
 6191SOL    HW230033   1.569   0.647   5.326 -0.5803  1.3836 -0.4874
 6192SOL     OW30034   3.423   2.309   4.573  0.0285  0.0896 -0.2022
 6192SOL    HW130035   3.385   2.238   4.624  1.6538  0.9482  2.2229
 6192SOL    HW230036   3.466   2.256   4.506  0.4572  1.9745 -1.4450
 6193SOL     OW30037   2.056   3.261   3.768  0.7132  0.1250 -0.3581
 6193SOL    HW130038   2.017   3.262   3.680  1.5736  0.5652 -0.7319
 6193SOL    HW230039   2.137   3.301   3.737  0.8766  0.1358  0.0838
 6194SOL     OW30040   2.327   2.682   6.054  0.1176 -0.3323 -0.3754
 6194SOL    HW130041   2.332   2.587   6.039  0.6956 -0.5829  1.2966
 6194SOL    HW230042   2.381   2.711   5.981  0.1493 -0.2675 -0.3259
 6195SOL     OW30043   3.379   3.528   5.259 -0.4484  0.0061  0.5075
 6195SOL    HW130044   3.360   3.480   5.178 -1.7052  0.2552  0.6569
 6195SOL    HW230045   3.381   3.461   5.328 -2.5324 -1.1991 -0.6091
 6196SOL     OW30046   0.044   1.570   5.858 -0.1352  0.2247 -0.6551
 6196SOL    HW130047   4.722   1.487   5.856 -0.3523  0.3314  0.2726
 6196SOL    HW230048   0.058   1.594   5.949 -1.9208  0.7031 -0.5172
 6197SOL     OW30049   3.537   0.489   5.033 -0.0055 -0.1619 -0.0339
 6197SOL    HW130050   3.464   0.549   5.050  0.0235 -0.5667  1.5955
 6197SOL    HW230051   3.499   0.443   4.958  0.5761  1.1273 -1.1169
 6198SOL     OW30052   1.834   0.043   4.796 -0.4483  0.3731  0.6105
 6198SOL    HW130053   1.777   0.119   4.779 -1.7735 -0.9808 -1.0480
 6198SOL    HW230054   1.770   4.696   4.784  0.8040 -0.7309  0.4862
 6199SOL     OW30055   1.948   2.646   0.376  0.1597  0.9784  0.5304
 6199SOL    HW130056   1.999   2.649   0.457 -1.4077  0.8848  1.5186
 6199SOL    HW230057   1.858   2.638   0.407 -0.3136  2.6502 -0.4314
 6200SOL     OW30058   1.640   2.428   8.696  0.1548 -0.3572  0.3374
 6200SOL    HW130059   1.606   2.358   8.640 -0.5321  0.3833 -0.1770
 6200SOL    HW230060   1.556   2.469   8.718 -0.0632 -0.1147 -0.9274
 6201SOL     OW30061   2.732   0.308  13.524 -0.0580  0.1642  0.6911
 6201SOL    HW130062   2.718   0.213  13.528 -0.0001  0.1467  0.5081
 6201SOL    HW230063   2.649   0.339  13.488 -0.0464 -1.4841 -0.7567
 6202SOL     OW30064   3.615   3.537   8.739  0.4668 -0.4819 -0.6521
 6202SOL    HW130065   3.613   3.536   8.835 -1.3297  1.4788 -0.6799
 6202SOL    HW230066   3.541   3.478   8.727  0.7261 -0.5454 -1.8847
 6203SOL     OW30067   0.883   0.075   8.253 -0.4807 -1.0045 -0.4915
 6203SOL    HW130068   0.979   0.068   8.245 -0.1940  2.4692 -0.2126
 6203SOL    HW230069   0.860   4.706   8.241 -3.7068 -0.2838  0.1990
 6204SOL     OW30070   1.611   3.867   2.560  0.0763  0.1561  0.1450
 6204SOL    HW130071   1.550   3.903   2.625  0.8384  1.1585  0.2921
 6204SOL    HW230072   1.632   3.781   2.596 -2.5073  0.9573  3.6276
 6205SOL     OW30073   1.112   0.207   8.597  0.3168 -0.1455 -0.3881
 6205SOL    HW130074   1.114   0.112   8.601  0.3655 -0.0414  1.9380
 6205SOL    HW230075   1.153   0.223   8.512 -1.2943 -1.4261 -1.3975
 6206SOL     OW30076   1.480   1.037   8.443  0.4862  0.2223 -0.1281
 6206SOL    HW130077   1.535   1.110   8.471 -0.5613  1.3585 -1.0139
 6206SOL    HW230078   1.507   0.963   8.497 -0.1674  1.9838  2.6366
 6207SOL     OW30079   0.373   4.716  11.410  0.2459  0.1316 -0.1256
 6207SOL    HW130080   0.279   0.004  11.395  0.3344  0.5201 -0.3667
 6207SOL    HW230081   0.420   0.071  11.384 -0.9939  0.9574  0.0986
 6208SOL     OW30082   3.484   0.146   4.444 -0.4774  0.7133  0.1197
 6208SOL    HW130083   3.434   0.177   4.520  0.2220  1.6237  0.2135
 6208SOL    HW230084   3.470   0.053   4.456 -0.5612  0.9388  1.7871
 6209SOL     OW30085   1.723   2.356   6.885  0.1970 -0.2715  0.8072
 6209SOL    HW130086   1.805   2.329   6.844 -0.6547  1.2868 -1.8894
 6209SOL    HW230087   1.686   2.275   6.921 -0.4793  0.4556  1.7622
 6210SOL     OW30088   2.371   3.483   3.459  0.3470  0.3260  0.3856
 6210SOL    HW130089   2.290   3.485   3.409 -0.5043  0.6522  1.7679
 6210SOL    HW230090   2.434   3.438   3.403 -1.8189 -0.7835 -1.1403
 6211SOL     OW30091   1.380   1.415   8.167 -0.5938  0.6014 -0.5215
 6211SOL    HW130092   1.314   1.485   8.168 -0.3565  0.8018  2.6073
 6211SOL    HW230093   1.367   1.398   8.261  2.0131  2.0447  0.1018
 6212SOL     OW30094   1.809   1.888   5.752 -0.1967  0.0841 -0.1414
 6212SOL    HW130095   1.799   1.937   5.670  2.2342  0.2419 -0.3458
 6212SOL    HW230096   1.900   1.911   5.768 -0.2327  0.5647 -0.6178
 6213SOL     OW30097   2.650   1.628   3.572 -0.4565 -0.3008 -0.2980
 6213SOL    HW130098   2.698   1.561   3.620 -1.3166  0.8356  2.1052
 6213SOL    HW230099   2.657   1.596   3.482 -0.5542 -1.1837  0.0106
 6214SOL     OW30100   2.158   1.846   4.407  0.0232  0.0129  0.1160
 6214SOL    HW130101   2.142   1.884   4.321 -0.4819 -2.4113 -0.8886
 6214SOL    HW230102   2.228   1.898   4.446 -1.0219  1.4642  0.0182
 6215SOL     OW30103   1.943   0.537   1.822 -1.0709  0.3725 -0.2624
 6215SOL    HW130104   1.877   0.599   1.790 -1.4819 -0.2541 -0.6053
 6215SOL    HW230105   2.021   0.591   1.836 -0.8180 -0.2798  0.8285
 6216SOL     OW30106   0.644   3.937  13.340 -0.6612 -0.4652 -0.2009
 6216SOL    HW130107   0.566   3.967  13.386  0.9892  1.5979  1.2515
 6216SOL    HW230108   0.651   3.846  13.369  1.3925  0.0245  0.8488
 6217SOL     OW30109   1.636   3.558   7.424  0.0650  0.8810 -0.0619
 6217SOL    HW130110   1.674   3.481   7.466 -1.6448 -0.2988 -0.6631
 6217SOL    HW230111   1.546   3.536   7.445  0.3458 -0.7796 -0.5514
 6218SOL     OW30112   2.572   3.370   2.822  0.0986 -0.7571  0.4093
 6218SOL    HW130113   2.646   3.389   2.879  0.1094  2.2419 -0.5650
 6218SOL    HW230114   2.537   3.459   2.813  2.2263 -0.0040 -0.5580
 6219SOL     OW30115   1.240   0.432   3.555 -0.1570  0.5682  0.5909
 6219SOL    HW130116   1.206   0.437   3.466 -0.2713 -3.0066  0.4520
 6219SOL    HW230117   1.331   0.402   3.555 -0.1053  0.7262 -0.8544
 6220SOL     OW30118   4.092   1.357   0.795 -0.4509  0.2548 -0.3236
 6220SOL    HW130119   4.183   1.385   0.806 -0.6105 -0.0384  1.8330
 6220SOL    HW230120   4.107   1.267   0.766 -0.4331  0.0189  0.4201
 6221SOL     OW30121   1.395   3.436  13.374  0.1805 -0.2066 -0.0354
 6221SOL    HW130122   1.323   3.494  13.351  1.7703  1.8569  0.1560
 6221SOL    HW230123   1.476   3.488  13.369 -0.2971  0.5776  0.3148
 6222SOL     OW30124   2.333   2.463  16.927  0.7118 -0.1500 -0.2759
 6222SOL    HW130125   2.291   2.548  16.933 -0.0284 -0.1933 -5.1126
 6222SOL    HW230126   2.255   2.408  16.936  1.5077 -1.0508  1.0831
 6223SOL     OW30127   3.474   4.205   3.049  0.4845  0.0896  0.6698
 6223SOL    HW130128   3.474   4.239   3.138  2.3050  1.0797  0.2955
 6223SOL    HW230129   3.564   4.177   3.032  0.1089 -1.5725  1.4536
 6224SOL     OW30130   0.177   3.259   8.170 -0.1625  0.1065 -0.1641
 6224SOL    HW130131   0.154   3.344   8.130  1.3059 -0.7807 -2.8973
 6224SOL    HW230132   0.089   3.224   8.187 -1.0884  1.7254 -1.5047
 6225SOL     OW30133   1.152   1.594  14.272 -0.5644 -0.0009 -0.0195
 6225SOL    HW130134   1.238   1.635  14.286 -0.1120 -0.5512 -1.1624
 6225SOL    HW230135   1.148   1.602  14.176 -1.3443 -1.2249 -0.0853
 6226SOL     OW30136   0.088   2.259   4.424  0.6219 -0.7559 -0.4938
 6226SOL    HW130137   0.141   2.250   4.344 -1.0043  0.6754 -1.7253
 6226SOL    HW230138   0.147   2.307   4.483  0.3695  0.8866 -1.5703
 6227SOL     OW30139   4.006   4.602   4.072  0.0742 -0.3211  0.0687
 6227SOL    HW130140   4.075   4.586   4.136 -0.8124 -0.7457  0.8999
 6227SOL    HW230141   4.015   4.525   4.016  2.0647 -1.6637  2.2684
 6228SOL     OW30142   3.492   3.118  13.551  0.0195  0.1905 -0.2046
 6228SOL    HW130143   3.560   3.185  13.554  0.3399 -0.1660  0.5044
 6228SOL    HW230144   3.536   3.055  13.495 -1.3082 -0.0180 -1.0218
 6229SOL     OW30145   1.585   2.334  13.821 -0.3602  0.6204  0.0535
 6229SOL    HW130146   1.532   2.341  13.742 -0.5066 -2.6580 -0.1330
 6229SOL    HW230147   1.617   2.421  13.848  0.4702  0.3158  0.0581
 6230SOL     OW30148   4.257   0.903   8.987 -0.5732 -0.2931  0.0922
 6230SOL    HW130149   4.267   0.836   9.054 -1.4465 -0.3978  0.1246
 6230SOL    HW230150   4.334   0.954   9.012  1.4103 -0.8090 -4.9683
 6231SOL     OW30151   2.847   1.808  11.625 -0.3129  0.0774  0.4302
 6231SOL    HW130152   2.888   1.882  11.670 -1.8901  0.9556  0.4312
 6231SOL    HW230153   2.823   1.767  11.709  0.7927 -0.7169  0.3573
 6232SOL     OW30154   4.290   3.418  10.271 -0.6955 -0.1333  0.4200
 6232SOL    HW130155   4.370   3.468  10.258 -0.8322  0.0587  0.3145
 6232SOL    HW230156   4.321   3.354  10.335 -0.7419 -2.4693 -1.8858
 6233SOL     OW30157   3.001   3.841   5.817  0.3355 -0.1064  0.2756
 6233SOL    HW130158   3.032   3.804   5.734  0.4228 -0.4178  0.4461
 6233SOL    HW230159   2.908   3.853   5.796  0.8160  1.0825 -1.1532
 6234SOL     OW30160   2.812   2.363   6.296 -0.0101  0.1721 -0.5682
 6234SOL    HW130161   2.903   2.364   6.268 -0.6492  3.0542 -2.5561
 6234SOL    HW230162   2.772   2.418   6.229 -0.1306  1.6395  0.7057
 6235SOL     OW30163   0.749   0.856   9.957 -0.1128  0.2918  0.2256
 6235SOL    HW130164   0.708   0.888   9.877  0.4929 -1.2094 -0.6879
 6235SOL    HW230165   0.811   0.789   9.928  2.2918  1.7999  1.9088
 6236SOL     OW30166   0.023   4.363   1.323 -0.1410 -0.1262 -0.8528
 6236SOL    HW130167   4.703   4.278   1.330  1.2305 -0.8031 -0.6588
 6236SOL    HW230168   0.064   4.371   1.410  0.9345 -0.3433 -1.3380
 6237SOL     OW30169   2.234   3.333   6.995 -0.3700 -0.2490 -0.6609
 6237SOL    HW130170   2.183   3.265   7.039  1.8936 -1.7772 -0.4457
 6237SOL    HW230171   2.294   3.273   6.952  1.3390  0.6486  0.4739
 6238SOL     OW30172   3.567   1.297   1.023 -0.4379 -0.6363  0.2948
 6238SOL    HW130173   3.505   1.303   0.951  1.8261  0.7709 -1.5336
 6238SOL    HW230174   3.648   1.281   0.974  0.0914 -0.4958  1.1188
 6239SOL     OW30175   1.848   0.170   2.678 -0.3883  0.1264 -0.1445
 6239SOL    HW130176   1.782   0.178   2.609  0.0849 -0.4207 -0.6612
 6239SOL    HW230177   1.865   0.078   2.696  1.4159  1.0562  2.8483
 6240SOL     OW30178   1.506   2.280  16.309 -0.1549  0.2449 -0.0729
 6240SOL    HW130179   1.550   2.280  16.224  2.3215 -1.4283  1.2054
 6240SOL    HW230180   1.425   2.240  16.276 -0.0845  0.7261 -0.8410
 6241SOL     OW30181   2.738   2.641  10.741 -0.1331 -0.2725 -0.1265
 6241SOL    HW130182   2.753   2.552  10.772 -0.1122 -0.2134  0.0361
 6241SOL    HW230183   2.673   2.626  10.673 -3.4611  4.1999  2.0174
 6242SOL     OW30184   0.567   1.096  17.665  0.1167 -0.0027 -0.2851
 6242SOL    HW130185   0.485   1.110  17.617 -1.4493 -3.4064  1.3926
 6242SOL    HW230186   0.544   1.099   0.063  1.1035 -0.3313 -0.0303
 6243SOL     OW30187   0.472   2.948   2.172  0.0992 -0.2506  0.9457
 6243SOL    HW130188   0.558   2.915   2.146  0.2189  0.3117  0.6168
 6243SOL    HW230189   0.413   2.894   2.120  1.1124 -0.3996 -0.0430
 6244SOL     OW30190   3.871   0.901   3.147  0.0428  0.1438 -0.0462
 6244SOL    HW130191   3.847   0.990   3.123  2.0523  0.5654 -0.4724
 6244SOL    HW230192   3.963   0.905   3.123 -0.6913 -0.1532 -2.8696
 6245SOL     OW30193   3.334   3.070   3.453  0.3571 -0.1349  0.7390
 6245SOL    HW130194   3.321   2.975   3.457  1.3511 -0.3126 -0.1371
 6245SOL    HW230195   3.389   3.081   3.376 -2.2583 -0.0482 -1.1424
 6246SOL     OW30196   4.547   3.850   6.153 -0.5169 -0.9870 -0.2381
 6246SOL    HW130197   4.528   3.774   6.098 -2.7220 -0.3334 -0.3714
 6246SOL    HW230198   4.579   3.912   6.087 -0.7088 -0.5678  0.0580
 6247SOL     OW30199   2.046   3.398   8.725  0.2970 -0.4409  0.1375
 6247SOL    HW130200   2.042   3.463   8.654 -0.3461 -0.5907  0.0412
 6247SOL    HW230201   2.106   3.439   8.787  1.1391 -0.8401 -0.4109
 6248SOL     OW30202   2.330   3.129  17.521 -0.1860  0.5022  0.2142
 6248SOL    HW130203   2.391   3.101  17.589 -0.6522 -1.7559 -0.3039
 6248SOL    HW230204   2.292   3.207  17.563  1.2436  1.1375  0.3421
 6249SOL     OW30205   2.539   2.466   0.756  0.0539 -0.3339 -0.3904
 6249SOL    HW130206   2.510   2.508   0.837 -0.2473  0.3265 -0.8437
 6249SOL    HW230207   2.472   2.400   0.738 -1.4494  1.6464 -1.9771
 6250SOL     OW30208   4.478   1.985   3.190 -0.1463  0.5118  0.3300
 6250SOL    HW130209   4.495   2.077   3.210  3.7546 -0.1492 -0.0866
 6250SOL    HW230210   4.389   1.984   3.226 -0.6815 -1.5006 -1.0717
 6251SOL     OW30211   4.645   2.772  15.816  0.3828  0.0524  0.3183
 6251SOL    HW130212   4.693   2.848  15.849  0.2208  0.1739  0.2777
 6251SOL    HW230213   4.561   2.777  15.863  0.3332  0.4196  0.1862
 6252SOL     OW30214   3.599   0.418   1.615  0.2113 -0.4445  0.3410
 6252SOL    HW130215   3.527   0.472   1.650  1.4709  0.8991  0.8387
 6252SOL    HW230216   3.613   0.359   1.689 -1.6210  0.3373  1.3383
 6253SOL     OW30217   0.051   0.689   7.084  0.0886  0.1755 -0.1848
 6253SOL    HW130218   0.013   0.630   7.018  1.2058  0.4122 -1.0210
 6253SOL    HW230219   4.703   0.752   7.091  0.8821  0.7700  2.4037
 6254SOL     OW30220   2.311   2.433   7.592 -0.5677 -0.7236  0.2935
 6254SOL    HW130221   2.278   2.435   7.682  4.0387  0.8941  1.9455
 6254SOL    HW230222   2.282   2.346   7.564 -1.7751  0.1826 -1.2388
 6255SOL     OW30223   1.628   1.231   6.418  0.5073 -0.8333 -0.3091
 6255SOL    HW130224   1.589   1.199   6.336 -1.1201 -2.8940  1.2673
 6255SOL    HW230225   1.717   1.254   6.390  0.1707  1.8039  0.7725
 6256SOL     OW30226   1.566   2.993   3.106 -0.0215  0.0033 -0.3546
 6256SOL    HW130227   1.581   2.939   3.028 -1.4384  1.6491 -1.7659
 6256SOL    HW230228   1.505   2.941   3.159 -0.6403  0.6140 -0.4599
 6257SOL     OW30229   4.515   4.680   7.699  0.1667  0.6343 -0.3528
 6257SOL    HW130230   4.490   4.665   7.608 -2.3710 -2.1910  0.7917
 6257SOL    HW230231   4.483   4.598   7.737  0.5606  0.9841  0.7386
 6258SOL     OW30232   3.722   0.489   4.090 -0.6743  0.2087  0.9721
 6258SOL    HW130233   3.668   0.425   4.044  0.4732  0.9946 -1.4460
 6258SOL    HW230234   3.716   0.562   4.028 -1.4111 -0.3904  0.3433
 6259SOL     OW30235   1.722   1.203  11.647 -0.0910  0.2202  0.1062
 6259SOL    HW130236   1.783   1.274  11.668  0.2094  0.1098 -0.3900
 6259SOL    HW230237   1.651   1.220  11.710  0.2641 -0.3461  0.6616
 6260SOL     OW30238   3.274   2.843   5.559  0.0538 -0.6546 -0.4549
 6260SOL    HW130239   3.260   2.759   5.603  1.2369 -0.3292  0.5225
 6260SOL    HW230240   3.251   2.901   5.632  0.3488 -2.8447  1.3756
 6261SOL     OW30241   2.373   3.493   3.000 -0.7282  0.0967 -0.0215
 6261SOL    HW130242   2.281   3.521   3.004 -0.8730 -0.1543 -1.5800
 6261SOL    HW230243   2.401   3.530   2.917 -1.5275  2.5642  0.8092
 6262SOL     OW30244   1.987   1.558   2.743  0.0917 -0.2481 -0.0569
 6262SOL    HW130245   1.937   1.606   2.677  0.9043  1.3421  0.5043
 6262SOL    HW230246   1.991   1.627   2.809 -1.8567 -0.0399 -0.1483
 6263SOL     OW30247   4.204   2.646   5.327 -0.3378 -0.4724  0.2301
 6263SOL    HW130248   4.227   2.590   5.401 -1.1128  1.0389  1.6331
 6263SOL    HW230249   4.112   2.667   5.343  0.2878  1.8767  0.7349
 6264SOL     OW30250   4.177   1.357  10.694  0.3730 -0.5457 -0.6930
 6264SOL    HW130251   4.087   1.387  10.682  0.4028 -0.8569 -1.7308
 6264SOL    HW230252   4.212   1.386  10.609  2.4612 -0.6575  0.1225
 6265SOL     OW30253   3.095   3.712   3.175 -0.0547 -0.1531  0.3028
 6265SOL    HW130254   3.020   3.675   3.221  0.4673 -0.6274  0.7712
 6265SOL    HW230255   3.163   3.701   3.241  0.1600 -2.7439 -0.3753
 6266SOL     OW30256   3.676   0.160  13.809  0.0679 -0.1415 -0.3068
 6266SOL    HW130257   3.715   0.091  13.862  0.4052  1.0876  1.0531
 6266SOL    HW230258   3.746   0.177  13.746  2.0247 -0.8268  1.7125
 6267SOL     OW30259   3.307   2.365   5.833  0.4783  0.3136  0.3916
 6267SOL    HW130260   3.227   2.328   5.871  0.6129 -0.7576 -0.3774
 6267SOL    HW230261   3.326   2.440   5.889  0.5535 -0.4610  1.3872
 6268SOL     OW30262   0.386   0.747  16.486  0.1301 -0.1737 -0.1464
 6268SOL    HW130263   0.341   0.728  16.568  0.1739  0.5572  0.0529
 6268SOL    HW230264   0.340   0.818  16.442 -2.0984 -1.9421 -0.6481
 6269SOL     OW30265   4.274   0.011   3.930  0.5202  0.2010  0.2278
 6269SOL    HW130266   4.235   4.658   3.971 -0.2461 -0.5610 -1.8959
 6269SOL    HW230267   4.240   0.002   3.841  0.4038 -1.2607  0.4159
 6270SOL     OW30268   3.131   1.015  15.240 -0.2435 -0.0702  0.3093
 6270SOL    HW130269   3.067   0.971  15.296  1.7845 -1.8108  1.2827
 6270SOL    HW230270   3.213   0.995  15.284 -0.4042 -0.6258  0.3575
 6271SOL     OW30271   3.992   1.090  10.470  0.3490 -0.1351  0.5015
 6271SOL    HW130272   3.974   1.181  10.493 -0.3942 -0.0634 -0.4016
 6271SOL    HW230273   4.070   1.084  10.414  0.5008  0.5126  0.6386
 6272SOL     OW30274   2.070   0.437   5.057 -0.0284  0.1125  0.7656
 6272SOL    HW130275   1.995   0.442   5.116 -0.5979  2.0993 -0.1140
 6272SOL    HW230276   2.062   0.348   5.021 -0.6394  0.5102 -0.0879
 6273SOL     OW30277   4.703   4.349   3.302 -0.3832  0.3480  0.4421
 6273SOL    HW130278   4.686   4.333   3.209  0.8483  0.0616  0.2603
 6273SOL    HW230279   0.048   4.287   3.328 -1.0192 -0.9807 -1.0385
 6274SOL     OW30280   0.473   3.049   6.575  0.1048 -0.2224  0.6989
 6274SOL    HW130281   0.421   2.969   6.583  1.0453 -0.6986  1.9364
 6274SOL    HW230282   0.561   3.022   6.602  0.5780  0.7120  0.1201
 6275SOL     OW30283   2.697   1.987   8.149  0.3483  0.0767  0.1929
 6275SOL    HW130284   2.693   2.049   8.076  0.0245 -0.1272  0.0376
 6275SOL    HW230285   2.784   1.947   8.149  0.4124  0.2161  0.3253
 6276SOL     OW30286   3.318   1.412   1.865  0.0667  0.4243 -0.4104
 6276SOL    HW130287   3.284   1.452   1.784  0.6580 -3.2021 -2.4474
 6276SOL    HW230288   3.382   1.353   1.826  0.2133 -0.9952  1.9674
 6277SOL     OW30289   0.927   3.920   6.635  0.3841  0.0771 -0.1455
 6277SOL    HW130290   0.935   3.840   6.687  1.9075 -0.3047 -0.9767
 6277SOL    HW230291   0.880   3.975   6.697  0.6357 -1.5041  1.4445
 6278SOL     OW30292   4.014   2.218   4.579 -0.1691 -0.1468  0.5995
 6278SOL    HW130293   3.985   2.294   4.630  0.5571 -0.1772  1.0502
 6278SOL    HW230294   4.069   2.259   4.512  0.6312 -1.2892  0.5573
 6279SOL     OW30295   0.373   0.033   9.482  0.1718  0.5062 -0.1521
 6279SOL    HW130296   0.397   0.123   9.505 -0.1568  0.6080 -0.2086
 6279SOL    HW230297   0.278   0.045   9.490  0.0190 -1.6771  1.2046
 6280SOL     OW30298   0.071   3.110   4.147  0.3757  0.5295 -0.0209
 6280SOL    HW130299   0.113   3.032   4.184 -0.1546  0.5206  0.5712
 6280SOL    HW230300   0.086   3.179   4.212 -0.9846  1.9028 -1.1684
 6281SOL     OW30301   0.576   1.801   7.502 -0.2476 -0.2152 -0.6884
 6281SOL    HW130302   0.632   1.796   7.580  1.4479 -3.0433 -2.1158
 6281SOL    HW230303   0.555   1.708   7.507 -0.7819  0.0868  2.7939
 6282SOL     OW30304   1.610   1.052   5.918 -0.1709 -0.0577 -0.2618
 6282SOL    HW130305   1.695   1.091   5.937 -0.7301  0.9645  0.1525
 6282SOL    HW230306   1.557   1.131   5.931  0.1432 -0.0093  0.7441
 6283SOL     OW30307   2.921   2.875   4.336  0.1781  0.1760 -0.0536
 6283SOL    HW130308   2.870   2.913   4.407  2.2128  1.1598  0.8862
 6283SOL    HW230309   2.915   2.958   4.288  3.6047  0.5811  0.2432
 6284SOL     OW30310   3.406   0.967   8.268 -0.3925  1.0745  0.0311
 6284SOL    HW130311   3.466   0.968   8.342  0.8297 -0.7029 -0.9300
 6284SOL    HW230312   3.319   0.963   8.307 -0.4598  2.5772  0.0550
 6285SOL     OW30313   2.706   1.846   5.116 -0.1038 -0.0908  0.2868
 6285SOL    HW130314   2.783   1.792   5.101 -0.2530 -0.1756 -0.1624
 6285SOL    HW230315   2.659   1.805   5.189  1.1179 -0.1195  1.0660
 6286SOL     OW30316   3.756   3.973   7.799  0.1802 -0.5227  0.1598
 6286SOL    HW130317   3.691   3.944   7.862 -1.3675  0.0906 -1.1537
 6286SOL    HW230318   3.835   3.965   7.852  0.0177 -1.6167  0.2439
 6287SOL     OW30319   0.911   2.319  14.218  0.3105 -0.5128 -0.0192
 6287SOL    HW130320   0.904   2.388  14.152  0.6770 -0.7161 -0.2737
 6287SOL    HW230321   0.925   2.373  14.296 -1.3090  2.0794 -1.5327
 6288SOL     OW30322   3.193   0.124  15.454  0.6609  0.6790 -0.2730
 6288SOL    HW130323   3.144   0.200  15.485 -0.8181 -0.3809  0.0061
 6288SOL    HW230324   3.201   0.144  15.361  3.2746  2.7189  0.3822
 6289SOL     OW30325   3.702   2.615   8.493 -0.2081  0.5042  0.3785
 6289SOL    HW130326   3.746   2.622   8.408 -0.8641  0.4589  0.0405
 6289SOL    HW230327   3.644   2.691   8.500  0.2345  0.8667  0.1329
 6290SOL     OW30328   2.509   3.708   3.133 -0.1001 -0.4726 -0.0165
 6290SOL    HW130329   2.491   3.619   3.102  1.5708 -0.2199 -1.6863
 6290SOL    HW230330   2.564   3.736   3.060  0.7261 -2.4552 -0.1416
 6291SOL     OW30331   1.185   2.220  12.779  0.1451 -0.3488 -0.3183
 6291SOL    HW130332   1.144   2.201  12.863 -1.4681 -1.2144 -1.2857
 6291SOL    HW230333   1.127   2.169  12.722  0.7170 -0.4530 -0.8111
 6292SOL     OW30334   2.006   3.661   2.592 -0.1302 -0.2205 -0.1438
 6292SOL    HW130335   1.970   3.747   2.567 -2.3925 -0.7562  1.2976
 6292SOL    HW230336   2.096   3.679   2.619  0.9241 -3.8476 -1.2955
 6293SOL     OW30337   3.153   4.374  13.359 -0.1977  0.1127 -0.3886
 6293SOL    HW130338   3.084   4.338  13.414 -0.0752 -0.8896 -0.8791
 6293SOL    HW230339   3.104   4.442  13.312  0.3031 -0.3139 -1.5448
 6294SOL     OW30340   2.455   0.637  10.858 -0.0201  0.5299  0.5614
 6294SOL    HW130341   2.517   0.705  10.887 -0.8860  0.5815  2.2601
 6294SOL    HW230342   2.452   0.580  10.934  0.8036 -1.2817 -0.7612
 6295SOL     OW30343   2.208   2.440  10.689 -0.3034 -0.7060 -0.2107
 6295SOL    HW130344   2.176   2.371  10.747  1.0264 -1.0575  0.1125
 6295SOL    HW230345   2.292   2.466  10.726 -0.3293  0.4698 -1.0018
 6296SOL     OW30346   1.551   3.741  13.282  0.1309  0.2694  0.7291
 6296SOL    HW130347   1.622   3.787  13.236  1.2279 -2.7328 -0.5556
 6296SOL    HW230348   1.602   3.713  13.358  0.9207  0.9502  0.4623
 6297SOL     OW30349   3.153   0.811   6.330  0.3693  0.0926  0.5810
 6297SOL    HW130350   3.184   0.898   6.354 -0.4859 -0.0825  2.3114
 6297SOL    HW230351   3.096   0.824   6.255 -0.8606  0.5326  1.5997
 6298SOL     OW30352   2.064   3.528   3.521 -0.0130 -0.6338  0.0629
 6298SOL    HW130353   2.019   3.545   3.603  1.2166  0.1845  0.5595
 6298SOL    HW230354   1.991   3.529   3.459  0.1788  1.7409 -0.1076
 6299SOL     OW30355   3.461   0.775   8.771 -0.0005  0.1643  0.6152
 6299SOL    HW130356   3.384   0.729   8.736  1.6325  0.0912 -2.9040
 6299SOL    HW230357   3.420   0.832   8.835  1.7178  0.2033  1.6769
 6300SOL     OW30358   3.042   0.101   9.790 -0.3393 -0.5327  0.1646
 6300SOL    HW130359   2.956   0.132   9.760 -0.3533  0.8990  1.7002
 6300SOL    HW230360   3.059   0.041   9.718  0.8434  0.7303 -0.6033
 6301SOL     OW30361   3.442   4.427  16.995 -0.1143 -0.3318 -0.1865
 6301SOL    HW130362   3.381   4.499  17.009 -1.2765 -1.4907  0.6697
 6301SOL    HW230363   3.465   4.436  16.903 -2.7062  0.0505 -0.8038
 6302SOL     OW30364   1.068   1.297   4.454  0.2342  0.2812 -0.0461
 6302SOL    HW130365   1.139   1.237   4.430  2.4205  2.4703  0.9929
 6302SOL    HW230366   0.996   1.253   4.408  1.0857  1.3860 -2.4045
 6303SOL     OW30367   3.820   0.765   6.139 -0.4393  0.1421 -0.5568
 6303SOL    HW130368   3.733   0.798   6.115 -1.2379 -1.6010 -0.0798
 6303SOL    HW230369   3.847   0.709   6.067 -1.6960 -0.4266 -0.5986
 6304SOL     OW30370   4.250   1.851   7.776 -0.0139  0.1335 -0.0123
 6304SOL    HW130371   4.174   1.894   7.737  0.7605  0.1261 -1.5349
 6304SOL    HW230372   4.255   1.892   7.862 -0.3469 -0.3432  0.2344
 6305SOL     OW30373   3.909   4.541   7.036  0.0099  0.0596  0.0429
 6305SOL    HW130374   3.830   4.489   7.018  1.7432 -2.4447 -0.3425
 6305SOL    HW230375   3.946   4.493   7.111 -1.7187  1.8834  2.0723
 6306SOL     OW30376   1.975   3.919   9.130  0.1998 -0.4597  0.0837
 6306SOL    HW130377   1.929   3.928   9.213  1.7741  0.6201  0.8399
 6306SOL    HW230378   1.924   3.862   9.073  1.1081 -1.4697  0.2808
 6307SOL     OW30379   2.847   2.216  13.666  0.4313  0.2671 -0.0812
 6307SOL    HW130380   2.895   2.217  13.583  0.5533 -0.3343 -0.0132
 6307SOL    HW230381   2.859   2.310  13.682  0.4792 -0.0528  1.7316
 6308SOL     OW30382   3.468   1.767   8.329 -0.3645  0.1913 -0.8424
 6308SOL    HW130383   3.417   1.802   8.402  0.7913 -0.6165  0.3402
 6308SOL    HW230384   3.401   1.753   8.263 -1.3131  0.5476  0.0561
 6309SOL     OW30385   4.063   3.664  14.908 -0.0988 -0.2451 -0.0340
 6309SOL    HW130386   4.058   3.590  14.969  1.2684 -0.9065 -0.7131
 6309SOL    HW230387   4.143   3.642  14.860  0.1622  3.9991 -1.5993
 6310SOL     OW30388   0.835   2.963   9.310 -0.2648 -0.0386 -0.1034
 6310SOL    HW130389   0.898   3.009   9.366  0.5542  0.7740 -1.6876
 6310SOL    HW230390   0.785   2.923   9.380 -0.0753 -2.9912 -1.6576
 6311SOL     OW30391   3.953   2.956   2.095 -0.1137 -0.3184 -0.0973
 6311SOL    HW130392   4.035   2.939   2.049  0.5548 -1.4955  1.5021
 6311SOL    HW230393   3.893   2.971   2.022  0.4246 -2.2932 -0.9252
 6312SOL     OW30394   2.567   3.614   6.858  0.4838  0.6171  0.2958
 6312SOL    HW130395   2.495   3.641   6.915 -1.1367 -1.8716 -0.5857
 6312SOL    HW230396   2.624   3.689   6.878  0.4248  0.8270 -0.3427
 6313SOL     OW30397   2.689   4.277  15.849 -0.4027 -0.3422  0.0693
 6313SOL    HW130398   2.744   4.266  15.771  2.6618  3.7340  1.6132
 6313SOL    HW230399   2.630   4.202  15.844  0.5425 -1.0671 -0.1651
 6314SOL     OW30400   1.220   2.907   3.572  0.3706 -0.3990 -0.3490
 6314SOL    HW130401   1.193   2.943   3.487  0.2323  0.0902 -0.0946
 6314SOL    HW230402   1.140   2.917   3.624  0.2035  2.1251 -1.0962
 6315SOL     OW30403   3.136   2.192   7.830 -0.4838 -0.0555  0.6404
 6315SOL    HW130404   3.154   2.259   7.896  0.1002 -1.4281  1.8500
 6315SOL    HW230405   3.138   2.117   7.888  3.4029  0.3067  0.9713
 6316SOL     OW30406   2.909   3.611   5.351  0.0802  0.1419  0.7914
 6316SOL    HW130407   2.892   3.656   5.268 -1.2775 -0.5299  0.6992
 6316SOL    HW230408   2.895   3.519   5.327  2.5922 -0.8973  3.2585
 6317SOL     OW30409   0.532   1.183   6.828  0.4072 -0.1495 -0.1068
 6317SOL    HW130410   0.451   1.213   6.789  0.1272  2.0260  2.1148
 6317SOL    HW230411   0.488   1.127   6.892  2.6968 -0.6885  1.0264
 6318SOL     OW30412   3.032   1.181  10.245  0.0322 -0.2120  0.2761
 6318SOL    HW130413   2.983   1.105  10.277 -2.2167  0.6755 -0.9982
 6318SOL    HW230414   3.040   1.153  10.153 -1.6772 -1.4348  0.5006
 6319SOL     OW30415   0.002   0.502   6.893 -0.1572 -0.6631  0.0414
 6319SOL    HW130416   0.055   0.481   6.816 -0.0160 -1.3547  0.3243
 6319SOL    HW230417   4.664   0.428   6.898 -0.4877 -0.3453  0.6938
 6320SOL     OW30418   2.878   2.242   3.976  0.5201 -0.0525  0.3017
 6320SOL    HW130419   2.892   2.151   3.951  2.1387  0.2916 -0.0334
 6320SOL    HW230420   2.821   2.264   3.902 -1.7158 -1.1002  1.7006
 6321SOL     OW30421   3.390   2.733   3.768  0.2763  0.3324 -0.0675
 6321SOL    HW130422   3.355   2.661   3.716  1.0086  1.0048 -1.4688
 6321SOL    HW230423   3.483   2.710   3.766  0.2270  0.3605 -2.6786
 6322SOL     OW30424   1.286   2.977   6.879  0.3675  0.3632 -0.0403
 6322SOL    HW130425   1.373   2.937   6.871 -0.6156 -1.7310 -0.2367
 6322SOL    HW230426   1.263   3.005   6.791  2.3109 -1.7591 -1.2249
 6323SOL     OW30427   2.833   2.239   3.191  0.0327 -0.4270  0.2921
 6323SOL    HW130428   2.821   2.285   3.107  0.4502  0.3269  0.6435
 6323SOL    HW230429   2.926   2.254   3.207  0.1085 -2.3918  1.7087
 6324SOL     OW30430   3.029   0.395   8.583  0.8453 -0.6395 -0.0952
 6324SOL    HW130431   3.058   0.358   8.667 -1.9761  0.3493  1.3013
 6324SOL    HW230432   3.090   0.349   8.525 -2.3261  0.5756 -4.3548
 6325SOL     OW30433   4.707   3.204   0.071 -1.2826  0.1268 -0.1504
 6325SOL    HW130434   0.039   3.281   0.075 -3.1982  1.6038 -2.5294
 6325SOL    HW230435   4.641   3.231   0.007 -1.8636  1.4912  1.0255
 6326SOL     OW30436   3.014   2.289   5.319  0.3246 -0.1962  0.0917
 6326SOL    HW130437   3.003   2.341   5.239 -2.5783  1.6654  1.6853
 6326SOL    HW230438   2.924   2.259   5.326  1.6609 -3.5006  2.8639
 6327SOL     OW30439   2.532   2.269   8.792 -0.4361  0.2741  0.3639
 6327SOL    HW130440   2.564   2.200   8.850 -0.4852  2.0757  2.4923
 6327SOL    HW230441   2.575   2.237   8.712 -0.5775  0.0241  0.3878
 6328SOL     OW30442   3.896   0.491   8.415 -0.3437 -0.0840 -0.1801
 6328SOL    HW130443   3.952   0.533   8.350 -0.3571  1.3600  0.7368
 6328SOL    HW230444   3.929   0.403   8.430  0.0714  0.4529  1.9722
 6329SOL     OW30445   3.138   1.074   7.974  0.0670  0.9343  0.4244
 6329SOL    HW130446   3.140   1.169   7.962 -1.3727  0.5572 -2.7472
 6329SOL    HW230447   3.064   1.051   8.030 -0.6623  1.6579 -0.2456
 6330SOL     OW30448   2.661   0.434   3.414 -0.7375  0.5993  0.5702
 6330SOL    HW130449   2.612   0.473   3.487 -2.9323  2.2459 -1.7514
 6330SOL    HW230450   2.710   0.365   3.457 -0.1197  0.6516 -0.0485
 6331SOL     OW30451   0.811   4.580   4.197 -0.1039 -0.0077  0.1344
 6331SOL    HW130452   0.899   4.614   4.180  0.7544 -3.2423 -1.8730
 6331SOL    HW230453   0.753   4.655   4.207 -1.5384 -1.0759 -0.3119
 6332SOL     OW30454   1.874   1.660   3.992  0.1425  0.7875 -0.0620
 6332SOL    HW130455   1.962   1.694   3.979  1.0266 -1.5549 -0.1073
 6332SOL    HW230456   1.837   1.709   3.919  2.1945  2.7609  0.2295
 6333SOL     OW30457   2.528   4.107  14.177  0.4018  1.0625 -0.2688
 6333SOL    HW130458   2.447   4.091  14.128  1.9116  1.1721 -2.8019
 6333SOL    HW230459   2.574   4.023  14.175 -1.0233  0.2877 -0.7208
 6334SOL     OW30460   3.991   0.975   3.869 -0.4024  0.4385  0.0303
 6334SOL    HW130461   3.929   0.946   3.803 -1.1797  1.4248  0.3202
 6334SOL    HW230462   4.078   0.963   3.831 -0.3164 -0.8812  0.6558
 6335SOL     OW30463   1.075   4.032  14.878 -0.2710  0.4679  0.1173
 6335SOL    HW130464   1.002   4.092  14.893  0.4964  1.0111  1.6314
 6335SOL    HW230465   1.037   3.971  14.814  1.4239 -1.7606  1.2461
 6336SOL     OW30466   0.318   1.539  14.598 -0.0691 -0.1999  0.1927
 6336SOL    HW130467   0.327   1.548  14.692 -0.0489  1.1363  0.0522
 6336SOL    HW230468   0.299   1.445  14.601  0.9191 -0.4552 -1.4556
 6337SOL     OW30469   2.303   1.420   9.989  0.0128  0.3492  0.5801
 6337SOL    HW130470   2.279   1.483  10.056  0.6534  0.9814  0.2110
 6337SOL    HW230471   2.389   1.384  10.014  0.5743  0.8022 -0.7098
 6338SOL     OW30472   0.943   1.842   2.655 -0.1525  0.0576  0.4067
 6338SOL    HW130473   0.883   1.889   2.597 -1.1943 -1.5614  0.1620
 6338SOL    HW230474   0.891   1.856   2.734 -1.9505  1.9084 -1.0958
 6339SOL     OW30475   1.521   4.193   4.593  0.1180  0.1239 -0.4607
 6339SOL    HW130476   1.440   4.209   4.545 -0.3350 -0.2253  0.1773
 6339SOL    HW230477   1.489   4.211   4.682  0.2401 -2.8037  0.1664
 6340SOL     OW30478   1.069   2.118   7.360 -0.3490  0.3083  0.2989
 6340SOL    HW130479   1.002   2.173   7.319 -0.7903 -1.6073 -1.5173
 6340SOL    HW230480   1.154   2.147   7.327 -0.2649  2.4775  2.3678
 6341SOL     OW30481   3.870   2.052   5.005 -0.2201  0.5077  0.0354
 6341SOL    HW130482   3.795   2.061   5.063 -1.2718  2.8293 -1.6695
 6341SOL    HW230483   3.820   2.036   4.925 -1.9624  1.7037  0.8755
 6342SOL     OW30484   2.578   1.715   1.909 -0.3588 -0.1095 -0.1627
 6342SOL    HW130485   2.578   1.806   1.937 -1.3486  0.1721 -1.0743
 6342SOL    HW230486   2.516   1.724   1.836 -0.2104  0.9394 -0.1560
 6343SOL     OW30487   3.052   0.716   5.499  0.1308  0.2514 -0.1167
 6343SOL    HW130488   3.091   0.633   5.524 -1.4422 -0.3276  0.3505
 6343SOL    HW230489   2.985   0.722   5.566  0.3053  0.2949  0.0542
 6344SOL     OW30490   1.337   2.130  11.303  0.3764 -0.0671 -0.2804
 6344SOL    HW130491   1.262   2.109  11.360  0.0465  1.1817 -0.2399
 6344SOL    HW230492   1.366   2.211  11.347  1.1603  0.0184 -0.9623
 6345SOL     OW30493   3.545   2.867  12.477 -0.3019 -0.0494  0.2825
 6345SOL    HW130494   3.625   2.915  12.458 -0.1508 -0.8227 -0.9953
 6345SOL    HW230495   3.519   2.822  12.397  0.3891 -1.4845  0.8652
 6346SOL     OW30496   2.057   2.945   5.487  0.5892 -0.0911 -0.0865
 6346SOL    HW130497   1.996   2.908   5.550  1.4708 -2.0105 -0.3455
 6346SOL    HW230498   2.015   3.029   5.465  2.3367  0.9328  0.4737
 6347SOL     OW30499   3.345   4.699   6.197  0.6799 -0.2125  0.2192
 6347SOL    HW130500   3.406   4.643   6.150  0.6331  1.6974 -2.0979
 6347SOL    HW230501   3.377   4.685   6.287  3.1486 -1.6367 -0.8855
 6348SOL     OW30502   2.044   2.073   2.237 -0.2471  0.2529 -0.2739
 6348SOL    HW130503   2.116   2.132   2.213 -0.4072  0.5309 -0.0762
 6348SOL    HW230504   2.029   2.099   2.328  2.9292 -1.5960  0.7653
 6349SOL     OW30505   4.187   3.440   4.675  0.4275  0.5620  0.1059
 6349SOL    HW130506   4.182   3.457   4.581  3.2445 -0.9406 -0.3016
 6349SOL    HW230507   4.183   3.525   4.719  1.5010 -0.4213  2.0669
 6350SOL     OW30508   0.533   3.909   2.981 -0.3885 -0.2150  0.4693
 6350SOL    HW130509   0.575   3.990   2.953 -0.3866 -0.9471 -1.6382
 6350SOL    HW230510   0.448   3.933   3.019 -0.6505 -1.6463  0.7857
 6351SOL     OW30511   0.727   2.712   0.569  0.0993 -0.4677 -0.2557
 6351SOL    HW130512   0.641   2.704   0.612 -0.4823  0.1480 -1.3064
 6351SOL    HW230513   0.726   2.635   0.512  1.1805 -1.5352  1.1654
 6352SOL     OW30514   0.689   0.206  15.929 -0.1693  0.2867  0.0059
 6352SOL    HW130515   0.763   0.248  15.972 -1.1018 -0.5818  2.4447
 6352SOL    HW230516   0.738   0.148  15.870  0.3386  1.9719 -1.2445
 6353SOL     OW30517   3.588   0.760   3.596 -0.1144 -0.6558 -0.3372
 6353SOL    HW130518   3.516   0.756   3.658  0.9568 -1.0603  0.8728
 6353SOL    HW230519   3.553   0.702   3.528 -0.1858 -0.3537 -0.5607
 6354SOL     OW30520   2.260   2.034   6.971  0.2178  0.2567  0.3011
 6354SOL    HW130521   2.244   2.046   7.065  1.3786  1.1401  0.3973
 6354SOL    HW230522   2.235   2.120   6.938  0.9034  0.2963 -0.1131
 6355SOL     OW30523   2.654   4.346   2.959  0.2546  0.5111 -0.8709
 6355SOL    HW130524   2.691   4.263   2.929 -0.4419 -1.0156  2.5172
 6355SOL    HW230525   2.570   4.312   2.988  0.8803 -0.7001 -0.4901
 6356SOL     OW30526   0.321   1.836   7.396 -0.3789 -0.0592  0.0844
 6356SOL    HW130527   0.411   1.828   7.428 -0.1878  3.0731  0.2669
 6356SOL    HW230528   0.278   1.769   7.449  0.1023 -0.3328  0.1271
 6357SOL     OW30529   3.242   2.626   2.646  0.5643 -0.0891  0.1968
 6357SOL    HW130530   3.322   2.667   2.678  0.0320 -0.3577  1.8400
 6357SOL    HW230531   3.251   2.533   2.665  1.3355  0.3700  2.0459
 6358SOL     OW30532   1.431   3.253  12.246 -0.1310  0.3656  0.0081
 6358SOL    HW130533   1.434   3.326  12.308  2.3835  0.5353 -0.3163
 6358SOL    HW230534   1.404   3.177  12.298 -1.6820  0.5085 -0.5794
 6359SOL     OW30535   0.379   0.060   5.360  0.3864 -0.3189 -0.6306
 6359SOL    HW130536   0.299   0.091   5.317 -2.1348  0.8127  4.8936
 6359SOL    HW230537   0.348   0.020   5.441 -0.3362  4.1115  1.3036
 6360SOL     OW30538   4.023   3.186  16.444 -0.0862 -0.3729  0.2895
 6360SOL    HW130539   3.956   3.134  16.489  0.7895 -1.6246  0.1280
 6360SOL    HW230540   4.080   3.218  16.514  1.8390 -4.0285  0.4059
 6361SOL     OW30541   2.525   0.230   0.521  0.1012  0.0677 -0.3617
 6361SOL    HW130542   2.503   0.268   0.436  1.5710  2.1156  0.1865
 6361SOL    HW230543   2.509   0.303   0.580 -1.7765 -0.7440  0.1229
 6362SOL     OW30544   3.883   3.825   4.914  0.1057 -0.1946 -0.6873
 6362SOL    HW130545   3.817   3.873   4.864  2.4936  1.4695 -2.2352
 6362SOL    HW230546   3.825   3.785   4.979  0.4860  0.4520  0.0488
 6363SOL     OW30547   1.278   3.444   4.162 -0.0196 -0.5540 -0.3178
 6363SOL    HW130548   1.251   3.396   4.241 -1.8835  1.9040  0.5200
 6363SOL    HW230549   1.271   3.536   4.184 -1.5752 -0.8928  0.6491
 6364SOL     OW30550   0.260   1.089   6.408 -0.2359 -0.1265 -0.1291
 6364SOL    HW130551   0.167   1.096   6.425 -0.4107  1.7085 -1.8117
 6364SOL    HW230552   0.284   0.997   6.420 -1.1583 -0.3468 -0.0085
 6365SOL     OW30553   1.799   4.467   4.408  0.1079 -0.3471  0.2714
 6365SOL    HW130554   1.754   4.543   4.446  0.3539 -0.9068  1.6725
 6365SOL    HW230555   1.753   4.444   4.328 -0.6552 -1.5998  1.0672
 6366SOL     OW30556   4.389   3.227  17.660  0.1358  0.5177 -0.5019
 6366SOL    HW130557   4.450   3.278  17.607 -0.9507  2.0669 -0.2762
 6366SOL    HW230558   4.394   3.139  17.621  0.4767  1.0428 -1.6370
 6367SOL     OW30559   3.874   1.464  16.126  0.0885  0.0904 -0.0365
 6367SOL    HW130560   3.966   1.438  16.124  0.3055  0.8591  0.2943
 6367SOL    HW230561   3.860   1.499  16.038  1.1105  0.6027  0.0158
 6368SOL     OW30562   0.020   4.517  12.728 -0.5360 -0.1950  0.2411
 6368SOL    HW130563   4.649   4.522  12.717 -0.3562  2.5495 -0.1743
 6368SOL    HW230564   0.032   4.496  12.821  1.0677 -0.7358 -0.0774
 6369SOL     OW30565   2.260   3.718   4.066  0.3922 -0.0806 -0.2574
 6369SOL    HW130566   2.281   3.811   4.063  1.2202 -0.2881 -1.4289
 6369SOL    HW230567   2.343   3.672   4.085  0.4447  0.5741  1.0509
 6370SOL     OW30568   1.348   4.723   6.347  0.5607  0.4237  0.3377
 6370SOL    HW130569   1.422   4.712   6.406  0.7250  1.0390  0.2417
 6370SOL    HW230570   1.384   0.009   6.259 -1.3062  0.9659 -0.3836
 6371SOL     OW30571   4.237   2.265   5.960  0.0898  0.5430 -0.4210
 6371SOL    HW130572   4.272   2.192   6.011  1.1068 -0.1094 -2.0554
 6371SOL    HW230573   4.261   2.243   5.870 -2.1118 -0.3639 -0.7991
 6372SOL     OW30574   3.023   3.697   2.629  0.1195 -0.1487  0.1715
 6372SOL    HW130575   3.096   3.757   2.642  0.2126 -0.7999  2.7313
 6372SOL    HW230576   3.012   3.682   2.535 -0.1288  0.4657  0.1090
 6373SOL     OW30577   3.398   3.511   6.208  0.1601 -0.1957 -0.1578
 6373SOL    HW130578   3.397   3.473   6.296 -1.7272 -3.4653 -1.5768
 6373SOL    HW230579   3.428   3.598   6.232  1.1641 -0.7984  0.8234
 6374SOL     OW30580   0.629   3.434   2.479  0.1025  0.2146 -0.5242
 6374SOL    HW130581   0.578   3.382   2.541  0.4489  1.4342  0.7623
 6374SOL    HW230582   0.695   3.369   2.457 -0.3988 -0.5968  0.3548
 6375SOL     OW30583   4.488   3.124   1.250 -0.2559 -0.5473 -0.4220
 6375SOL    HW130584   4.460   3.206   1.292 -1.6923 -0.6822 -1.0882
 6375SOL    HW230585   4.403   3.099   1.213  0.1481 -2.4712 -0.0180
 6376SOL     OW30586   0.200   3.969   2.183 -0.1360  0.4055  0.2882
 6376SOL    HW130587   0.125   4.017   2.218 -0.2856  0.7755 -0.5406
 6376SOL    HW230588   0.268   4.004   2.240  0.5863 -0.5388  0.0026
 6377SOL     OW30589   0.717   3.877   8.444 -0.2456 -0.6866 -0.1354
 6377SOL    HW130590   0.804   3.915   8.456 -0.8995  0.6525  0.3534
 6377SOL    HW230591   0.694   3.894   8.352 -0.6936 -0.3040  0.0483
 6378SOL     OW30592   0.391   4.569   2.667  0.0198 -0.0421 -0.0711
 6378SOL    HW130593   0.428   4.486   2.698  0.7253  0.3430  0.1147
 6378SOL    HW230594   0.307   4.570   2.712  0.1764 -0.5781  0.2283
 6379SOL     OW30595   0.537   1.504   5.941 -0.3804  0.2188  0.2235
 6379SOL    HW130596   0.605   1.538   5.883  0.4286  2.4467  2.4564
 6379SOL    HW230597   0.561   1.547   6.023 -0.7751  2.8788 -1.0356
 6380SOL     OW30598   0.103   0.428   6.631 -0.1646 -0.4095 -0.2223
 6380SOL    HW130599   0.192   0.393   6.633 -0.0908 -0.1864  0.5384
 6380SOL    HW230600   0.121   0.501   6.573  1.3758 -1.5116 -1.1329
 6381SOL     OW30601   4.026   3.630  13.317 -0.8704  0.0794  0.1986
 6381SOL    HW130602   4.003   3.674  13.399 -1.9808 -1.0131  0.4863
 6381SOL    HW230603   4.033   3.537  13.336 -2.3198  0.2545  1.5677
 6382SOL     OW30604   1.516   3.461   5.342  0.3385  0.0731  0.0514
 6382SOL    HW130605   1.436   3.481   5.390  1.1044 -0.0681  1.3793
 6382SOL    HW230606   1.479   3.416   5.266  2.5344  2.1018 -2.2603
 6383SOL     OW30607   1.196   3.369   8.238 -0.3260 -0.4017 -0.4413
 6383SOL    HW130608   1.197   3.427   8.162 -0.6238 -0.6919 -0.6665
 6383SOL    HW230609   1.282   3.387   8.275  0.0326 -1.0288 -0.9842
 6384SOL     OW30610   1.714   3.148   9.348 -0.2557 -0.8130  0.4935
 6384SOL    HW130611   1.739   3.056   9.354 -0.0357 -1.0218 -3.5932
 6384SOL    HW230612   1.795   3.199   9.341 -0.3172 -0.7644  0.1504
 6385SOL     OW30613   2.716   0.813  15.495  0.3763  0.0848 -0.0879
 6385SOL    HW130614   2.643   0.833  15.437  1.9651  1.9725 -1.4273
 6385SOL    HW230615   2.682   0.831  15.583 -0.5942 -0.0315 -0.4356
 6386SOL     OW30616   1.880   2.438   6.543  0.2000  0.2382  0.1874
 6386SOL    HW130617   1.954   2.495   6.564 -0.6258  1.7749 -1.0158
 6386SOL    HW230618   1.885   2.376   6.615 -0.5639  1.9824  1.7637
 6387SOL     OW30619   3.732   0.499   0.195 -0.0157 -0.6898  0.7862
 6387SOL    HW130620   3.770   0.498   0.107 -0.2725  1.5348  0.6544
 6387SOL    HW230621   3.783   0.429   0.235  2.3901 -0.0392 -1.1832
 6388SOL     OW30622   2.045   3.384  10.536 -0.2063  0.8169 -0.0157
 6388SOL    HW130623   2.048   3.452  10.603 -1.4265  1.5761 -0.7258
 6388SOL    HW230624   2.106   3.321  10.574 -0.9919  1.1414  1.8042
 6389SOL     OW30625   3.726   0.543   9.465 -0.4094 -0.1920 -0.0110
 6389SOL    HW130626   3.802   0.497   9.501 -0.4925  0.2645  0.7537
 6389SOL    HW230627   3.655   0.493   9.506 -1.0236  1.0856  0.4673
 6390SOL     OW30628   4.531   4.222   7.119 -0.6339  0.0072 -0.4095
 6390SOL    HW130629   4.575   4.138   7.126 -0.6352  0.1549  1.1763
 6390SOL    HW230630   4.493   4.219   7.031  2.9189 -2.4210 -1.8233
 6391SOL     OW30631   1.967   4.460  16.503 -0.3258 -0.0452 -0.2971
 6391SOL    HW130632   1.910   4.463  16.425 -1.5864 -1.3904  0.5876
 6391SOL    HW230633   1.928   4.387  16.551 -1.3649  1.2652  0.8493
 6392SOL     OW30634   0.815   1.591  16.816  0.1284 -0.3651 -0.4915
 6392SOL    HW130635   0.842   1.650  16.886 -1.6800  1.3856 -1.2421
 6392SOL    HW230636   0.806   1.649  16.740  0.0318 -0.3014 -0.4309
 6393SOL     OW30637   2.179   4.000  14.619 -0.2947  0.2261 -0.1297
 6393SOL    HW130638   2.151   4.090  14.608  1.2383  0.7438  0.1975
 6393SOL    HW230639   2.120   3.985  14.693 -1.1034  0.8563 -0.6614
 6394SOL     OW30640   0.093   2.714   9.645  0.0279  0.1829  0.2871
 6394SOL    HW130641   0.172   2.668   9.675 -1.3841 -1.2293  1.8278
 6394SOL    HW230642   0.030   2.645   9.628 -0.2155  0.5010 -0.0961
 6395SOL     OW30643   2.070   4.680   4.815 -0.2371  0.2837 -0.1468
 6395SOL    HW130644   2.069   4.594   4.856  0.7799  0.1759 -0.3494
 6395SOL    HW230645   1.977   4.698   4.800 -0.0117  1.7827  0.2388
 6396SOL     OW30646   3.151   2.248  15.359 -0.1162 -0.4114 -0.2240
 6396SOL    HW130647   3.211   2.293  15.299 -0.8174 -0.3547 -0.8816
 6396SOL    HW230648   3.208   2.182  15.400  0.9744  0.7979  0.2262
 6397SOL     OW30649   2.406   0.174   7.450 -0.0676 -0.1027  0.6606
 6397SOL    HW130650   2.364   0.100   7.406 -0.8709  0.7890 -0.0672
 6397SOL    HW230651   2.499   0.152   7.448 -0.2431 -0.6408 -1.2637
 6398SOL     OW30652   3.812   1.259   3.391  0.1393  0.1930  0.2959
 6398SOL    HW130653   3.839   1.189   3.451  1.0774 -0.0239 -0.3751
 6398SOL    HW230654   3.855   1.216   3.317  0.6214  1.5633 -0.2082
 6399SOL     OW30655   0.441   2.109   6.203  0.4250 -0.0565 -0.4053
 6399SOL    HW130656   0.496   2.031   6.197  0.8068  0.1449  0.5458
 6399SOL    HW230657   0.480   2.157   6.276  0.6690  0.5152 -0.9108
 6400SOL     OW30658   0.668   4.471  12.323 -0.3179 -0.3454  0.3994
 6400SOL    HW130659   0.740   4.416  12.354 -0.5058  0.4270  2.2313
 6400SOL    HW230660   0.720   4.549  12.302 -2.3938  0.7130 -0.7795
 6401SOL     OW30661   1.865   1.901   1.167  0.1364 -0.0291 -0.1836
 6401SOL    HW130662   1.799   1.849   1.213 -0.9377  1.5410  0.0491
 6401SOL    HW230663   1.918   1.915   1.246  1.7663  1.5332 -1.5617
 6402SOL     OW30664   2.791   3.930   3.939 -0.2110 -0.0251  0.0882
 6402SOL    HW130665   2.820   3.991   3.871 -0.4117  1.4761  1.3340
 6402SOL    HW230666   2.841   3.852   3.916 -1.4452 -0.3909 -1.2690
 6403SOL     OW30667   4.312   1.201   4.354  0.4076  0.0750  0.1294
 6403SOL    HW130668   4.401   1.170   4.338  0.9140  1.4666  0.2130
 6403SOL    HW230669   4.336   1.293   4.339  0.7384 -0.2393 -1.2016
 6404SOL     OW30670   2.271   2.242   2.197 -0.4091  0.0070 -0.1150
 6404SOL    HW130671   2.302   2.259   2.287  2.3862 -0.2882 -1.0003
 6404SOL    HW230672   2.351   2.213   2.152 -0.0573 -1.9130  1.7467
 6405SOL     OW30673   1.716   2.939   5.603  0.3201 -0.2466 -0.3022
 6405SOL    HW130674   1.674   2.998   5.666  0.9236 -1.5761  1.3450
 6405SOL    HW230675   1.793   2.912   5.652 -0.3926  1.5329  1.7823
 6406SOL     OW30676   1.752   4.566   7.385  0.9463 -0.4298  0.5070
 6406SOL    HW130677   1.812   4.533   7.319  0.1448  1.7937 -1.3383
 6406SOL    HW230678   1.791   4.534   7.467  0.2964 -1.3075  0.4814
 6407SOL     OW30679   1.097   2.520   7.055  0.6035  0.3942 -0.2554
 6407SOL    HW130680   1.184   2.508   7.017  0.1626  0.0512 -1.1656
 6407SOL    HW230681   1.073   2.595   7.000 -0.4220  0.9122  0.9093
 6408SOL     OW30682   3.442   2.396  16.207 -0.4832  0.0911  0.6919
 6408SOL    HW130683   3.452   2.460  16.136  2.3479 -3.7325 -2.3547
 6408SOL    HW230684   3.462   2.448  16.285 -0.7992 -0.6160  1.2353
 6409SOL     OW30685   2.950   0.677   2.914  0.3743  0.0805 -0.0276
 6409SOL    HW130686   2.945   0.772   2.924 -0.4259  0.1007 -0.5975
 6409SOL    HW230687   3.025   0.655   2.969  0.0508  2.5800  1.3814
 6410SOL     OW30688   2.512   1.083  12.197  0.1218 -0.0982 -0.0708
 6410SOL    HW130689   2.507   1.154  12.133  0.9786 -0.2488 -0.3053
 6410SOL    HW230690   2.605   1.081  12.217  0.1771  2.0643 -0.1300
 6411SOL     OW30691   4.547   1.319   8.007  0.2083 -0.5116 -0.2187
 6411SOL    HW130692   4.583   1.279   8.086  1.8570 -1.9817 -1.6998
 6411SOL    HW230693   4.505   1.236   7.982  0.9789 -0.8883 -0.2560
 6412SOL     OW30694   2.902   2.850   1.075  0.0763 -0.0457 -0.0532
 6412SOL    HW130695   2.885   2.845   1.169 -2.4560 -1.5046 -0.5928
 6412SOL    HW230696   2.883   2.759   1.052  1.1514  0.1452 -1.6951
 6413SOL     OW30697   0.987   2.948   0.410 -0.3558  0.5009  0.5381
 6413SOL    HW130698   0.938   3.026   0.385  0.6125  0.3330 -1.8966
 6413SOL    HW230699   0.918   2.884   0.425  1.8256 -1.7748  0.8645
 6414SOL     OW30700   2.652   1.502   4.650 -0.2445  0.3162 -0.1632
 6414SOL    HW130701   2.603   1.499   4.732 -0.0261 -0.1664 -0.0498
 6414SOL    HW230702   2.600   1.443   4.597 -2.0334  0.2647  1.6445
 6415SOL     OW30703   2.480   2.237   2.941  0.0042  0.1459  0.6039
 6415SOL    HW130704   2.520   2.324   2.941  2.1119 -0.8086  0.3416
 6415SOL    HW230705   2.398   2.252   2.988  0.9479  1.3581  1.8815
 6416SOL     OW30706   1.608   1.950  12.847 -0.0381  0.2582 -0.1861
 6416SOL    HW130707   1.666   1.944  12.923 -0.6463  0.8726  0.3256
 6416SOL    HW230708   1.632   2.041  12.828  1.6397 -0.1217  0.1282
 6417SOL     OW30709   3.847   0.074   8.944  0.0727 -0.1891 -0.5929
 6417SOL    HW130710   3.872   0.087   8.852 -0.6327 -1.2522 -0.9432
 6417SOL    HW230711   3.918   0.131   8.974 -1.0274  1.0955 -0.4384
 6418SOL     OW30712   3.459   0.246   7.825  0.0951 -0.5547  0.2911
 6418SOL    HW130713   3.391   0.191   7.785 -0.2128  1.7499 -2.3206
 6418SOL    HW230714   3.414   0.329   7.843  0.9051 -0.3782  1.4609
 6419SOL     OW30715   1.509   1.176   5.356  0.3857 -0.3087  0.2492
 6419SOL    HW130716   1.450   1.234   5.307  0.4105  0.2286  0.8558
 6419SOL    HW230717   1.483   1.195   5.446  0.4759  0.2279  0.1609
 6420SOL     OW30718   2.088   4.467   8.847  0.0780  0.1094 -0.1441
 6420SOL    HW130719   2.042   4.437   8.926  0.1562 -0.9653 -0.4983
 6420SOL    HW230720   2.029   4.429   8.782  1.1322 -1.6517 -0.0690
 6421SOL     OW30721   2.795   0.479   6.713  0.3077 -0.0667 -0.3977
 6421SOL    HW130722   2.728   0.525   6.764  2.7670  0.8465  2.0379
 6421SOL    HW230723   2.877   0.529   6.715 -0.4927  1.2623 -0.5874
 6422SOL     OW30724   2.144   3.832  10.735  0.1961  0.5487  0.5020
 6422SOL    HW130725   2.063   3.875  10.710 -0.7180 -0.5623  1.5165
 6422SOL    HW230726   2.180   3.885  10.807 -0.8143  1.3638  0.3976
 6423SOL     OW30727   3.228   4.576  15.485 -0.0263 -0.5959 -0.3809
 6423SOL    HW130728   3.199   4.663  15.459  0.5867 -0.2169  0.2184
 6423SOL    HW230729   3.199   4.521  15.411  1.1140 -0.4829 -0.9057
 6424SOL     OW30730   2.441   1.406   6.111 -0.2832  0.3532  0.3641
 6424SOL    HW130731   2.536   1.389   6.113 -0.4637 -1.0673 -2.8929
 6424SOL    HW230732   2.445   1.491   6.068 -0.5864 -0.7846 -1.9146
 6425SOL     OW30733   3.658   0.189   2.934  0.2964  0.0390 -0.7251
 6425SOL    HW130734   3.667   0.095   2.945 -0.2820  0.2218  1.3534
 6425SOL    HW230735   3.565   0.203   2.915  0.5891  0.5797 -1.7874
 6426SOL     OW30736   0.626   4.136   0.639  0.1369  0.1553 -0.7740
 6426SOL    HW130737   0.537   4.170   0.646 -0.4233 -1.3820 -0.3969
 6426SOL    HW230738   0.610   4.043   0.624 -1.1417  0.5564 -1.8808
 6427SOL     OW30739   1.042   3.915   2.915  0.4646  0.2807  0.1858
 6427SOL    HW130740   0.961   3.876   2.883  1.6019 -1.8773 -0.0723
 6427SOL    HW230741   1.092   3.838   2.943  2.0530  0.3891 -2.3704
 6428SOL     OW30742   0.646   3.269   7.405 -0.3968  0.3520 -0.4005
 6428SOL    HW130743   0.584   3.253   7.334  0.1187 -1.2583 -0.4862
 6428SOL    HW230744   0.696   3.188   7.415  1.5161  1.9544  3.0224
 6429SOL     OW30745   4.430   1.460   9.487  0.5018 -0.3427  0.5233
 6429SOL    HW130746   4.478   1.460   9.404 -0.8335 -0.4914 -0.2463
 6429SOL    HW230747   4.496   1.471   9.555  0.6905 -0.0351  0.2912
 6430SOL     OW30748   2.083   1.596   6.766 -0.3401 -0.3845 -0.3640
 6430SOL    HW130749   2.086   1.542   6.687  0.3888  0.8108 -1.1441
 6430SOL    HW230750   2.115   1.683   6.741 -1.5961 -0.0981 -0.9621
 6431SOL     OW30751   2.252   3.483   8.879 -0.3234  0.0159  0.1725
 6431SOL    HW130752   2.316   3.485   8.808 -1.1265  1.9519 -0.4963
 6431SOL    HW230753   2.318   3.500   8.946 -0.3127 -3.8557  1.1374
 6432SOL     OW30754   4.581   4.197   5.123 -0.3015 -0.0800 -0.5198
 6432SOL    HW130755   4.583   4.293   5.130  1.8834 -0.2042  0.5078
 6432SOL    HW230756   4.527   4.182   5.045  0.7799  0.4429 -1.3647
 6433SOL     OW30757   1.779   1.670   8.489 -0.5611 -0.1093  0.3844
 6433SOL    HW130758   1.807   1.591   8.537  0.3129  0.3271  0.5955
 6433SOL    HW230759   1.801   1.738   8.553  0.7866  1.2996 -1.5882
 6434SOL     OW30760   2.221   2.614   7.254 -0.4736 -0.2086 -0.3830
 6434SOL    HW130761   2.127   2.598   7.263 -0.6566  0.2028 -1.6140
 6434SOL    HW230762   2.236   2.662   7.335 -1.7073 -2.3229  1.1110
 6435SOL     OW30763   1.795   4.395   2.872 -0.0693 -0.5375 -0.0285
 6435SOL    HW130764   1.886   4.412   2.897 -0.5758  0.9337  0.8013
 6435SOL    HW230765   1.760   4.349   2.948 -0.2348  0.9590  0.7835
 6436SOL     OW30766   1.127   0.670   2.052 -0.3322 -0.2178 -0.2824
 6436SOL    HW130767   1.220   0.694   2.047 -0.3294 -0.1934 -0.0921
 6436SOL    HW230768   1.093   0.728   2.119  1.8018  0.0414  0.5572
 6437SOL     OW30769   0.550   0.624   3.938  0.5095  0.2509  0.5981
 6437SOL    HW130770   0.598   0.584   3.866 -0.3336 -3.0442  1.8991
 6437SOL    HW230771   0.601   0.580   4.007  0.8764  0.8130  0.6887
 6438SOL     OW30772   2.242   1.842   6.458 -0.0483  0.0646  0.5414
 6438SOL    HW130773   2.314   1.780   6.449  1.4872  1.7046  1.4258
 6438SOL    HW230774   2.270   1.905   6.391 -0.6243 -0.0121  0.2292
 6439SOL     OW30775   3.418   1.744   0.120 -0.0038 -0.4952 -0.4405
 6439SOL    HW130776   3.386   1.815   0.176  3.1647  1.2561 -0.8122
 6439SOL    HW230777   3.343   1.687   0.103  0.6768 -0.9480 -1.8832
 6440SOL     OW30778   3.070   0.258   5.347  0.5366 -0.6492  0.8292
 6440SOL    HW130779   3.154   0.244   5.391  2.5287 -1.2118 -3.1468
 6440SOL    HW230780   3.105   0.300   5.268 -0.7646  0.2642  0.7513
 6441SOL     OW30781   4.196   1.416   7.562  0.3260  0.5267 -0.4681
 6441SOL    HW130782   4.102   1.429   7.547 -0.0397  0.8639  2.0813
 6441SOL    HW230783   4.208   1.462   7.645  3.4500  0.3571 -0.8509
 6442SOL     OW30784   2.575   4.191   4.346 -0.1230 -0.0872 -0.4376
 6442SOL    HW130785   2.610   4.104   4.328  1.6540  0.3847  0.8075
 6442SOL    HW230786   2.650   4.249   4.332 -1.2400  1.7695  1.2559
 6443SOL     OW30787   3.962   2.258   2.543 -0.0923  0.2723 -0.0389
 6443SOL    HW130788   3.878   2.242   2.586  0.4298  0.1614  0.9481
 6443SOL    HW230789   3.964   2.352   2.527 -0.0684  0.1806 -0.5754
 6444SOL     OW30790   2.059   3.107  16.077 -0.0638  0.0335 -0.0264
 6444SOL    HW130791   2.054   3.019  16.113 -1.9863 -0.6515 -1.9621
 6444SOL    HW230792   2.001   3.099  16.001 -0.6540  3.0084  0.0789
 6445SOL     OW30793   3.704   4.411   1.427 -0.8200 -0.1272 -0.5447
 6445SOL    HW130794   3.747   4.326   1.422  0.5993  0.5267  0.3456
 6445SOL    HW230795   3.779   4.470   1.435 -0.9683 -0.2991  2.1121
 6446SOL     OW30796   3.715   2.115   1.830  0.3343 -0.2724  0.0444
 6446SOL    HW130797   3.713   2.143   1.739 -1.2317  1.3506  0.5828
 6446SOL    HW230798   3.670   2.033   1.810 -0.8127 -0.0469  1.6613
 6447SOL     OW30799   2.430   2.945   7.667  0.3322  0.5744 -0.4061
 6447SOL    HW130800   2.373   2.942   7.744  1.8645  0.2159  0.6899
 6447SOL    HW230801   2.516   2.947   7.707  0.6802  2.4165 -1.2335
 6448SOL     OW30802   3.850   4.324  12.814  0.0045  0.2083 -0.4083
 6448SOL    HW130803   3.856   4.298  12.906  0.8754  0.3970 -0.4077
 6448SOL    HW230804   3.936   4.367  12.818 -0.4667  0.9421  1.7335
 6449SOL     OW30805   0.680   1.935   8.681  0.3460  0.0217  0.3377
 6449SOL    HW130806   0.613   1.866   8.680  0.6386 -0.2418 -1.7120
 6449SOL    HW230807   0.751   1.898   8.629  0.2897 -0.3663  0.5365
 6450SOL     OW30808   1.023   0.483   2.406 -0.3282  0.1675  0.3085
 6450SOL    HW130809   1.101   0.536   2.422 -0.1801  0.1371 -0.2880
 6450SOL    HW230810   0.963   0.556   2.423  2.6746  2.3441  1.4862
 6451SOL     OW30811   0.148   3.095   7.740 -0.3604  0.0574  0.7213
 6451SOL    HW130812   0.163   3.000   7.732  0.0883  0.1189  0.8320
 6451SOL    HW230813   0.093   3.117   7.664  2.8436 -1.3177 -2.0152
 6452SOL     OW30814   1.118   0.885   6.599  0.3782 -0.0861  0.1222
 6452SOL    HW130815   1.073   0.842   6.526 -1.8942  1.5023  0.5722
 6452SOL    HW230816   1.151   0.964   6.556 -0.9017  0.5789  0.3488
 6453SOL     OW30817   3.922   1.796   3.740  0.1225 -0.0489 -0.0731
 6453SOL    HW130818   3.903   1.828   3.652  0.2735  1.0093  0.2698
 6453SOL    HW230819   3.961   1.873   3.783  1.1289  0.4914 -1.9544
 6454SOL     OW30820   2.740   2.191   5.001  0.2728  0.2107  0.0372
 6454SOL    HW130821   2.671   2.138   4.960  1.2658 -0.7180 -0.4158
 6454SOL    HW230822   2.764   2.247   4.927 -0.7674 -0.6606 -0.9677
 6455SOL     OW30823   3.430   2.864   8.221  0.1024 -0.3753  0.3479
 6455SOL    HW130824   3.435   2.796   8.154  1.2846  0.0370  0.0222
 6455SOL    HW230825   3.409   2.936   8.163  1.4196 -1.0333 -0.9324
 6456SOL     OW30826   4.555   0.934   8.797 -0.3889  0.2256  0.0427
 6456SOL    HW130827   4.533   0.845   8.767 -3.2668  1.2787 -1.0385
 6456SOL    HW230828   4.650   0.931   8.805 -0.1830  2.1419 -1.6759
 6457SOL     OW30829   0.318   4.284  13.108 -0.2720 -0.7732  0.2691
 6457SOL    HW130830   0.381   4.227  13.153  1.9480 -0.4798 -2.5223
 6457SOL    HW230831   0.291   4.236  13.030 -2.6243 -0.0038  0.6003
 6458SOL     OW30832   4.223   1.048   6.018  0.4106  0.1838 -0.3182
 6458SOL    HW130833   4.141   1.001   6.008 -0.1041  0.4687  2.6141
 6458SOL    HW230834   4.196   1.128   5.973  1.7787  1.7064  1.5693
 6459SOL     OW30835   2.396   0.732   6.530 -0.0210  0.0412 -0.3710
 6459SOL    HW130836   2.440   0.649   6.513 -0.3295 -0.6528  2.2286
 6459SOL    HW230837   2.381   0.728   6.624 -0.4807  2.6511 -0.3528
 6460SOL     OW30838   1.054   3.376   4.602 -0.2681 -0.1236  0.1108
 6460SOL    HW130839   1.041   3.420   4.686  0.9974  0.7287 -0.1332
 6460SOL    HW230840   1.033   3.285   4.623 -3.3249  1.1320  2.5431
 6461SOL     OW30841   3.935   0.950   7.291  0.1419 -0.3499  0.2098
 6461SOL    HW130842   3.841   0.961   7.301 -0.1296 -2.1260 -0.3009
 6461SOL    HW230843   3.954   0.913   7.377 -1.5620  0.3973  0.8897
 6462SOL     OW30844   0.357   0.242   9.801  0.3467 -0.0445  0.2805
 6462SOL    HW130845   0.299   0.294   9.746 -0.1768  0.5041  1.3363
 6462SOL    HW230846   0.315   0.252   9.887  0.3240 -1.9417  0.4858
 6463SOL     OW30847   3.299   1.242   2.120  0.0489  0.4446 -0.4311
 6463SOL    HW130848   3.314   1.256   2.027  0.8196  0.7901 -0.2563
 6463SOL    HW230849   3.307   1.147   2.124 -0.9174  0.2926 -2.1808
 6464SOL     OW30850   3.860   2.674   0.557 -0.1644  0.0421  0.5326
 6464SOL    HW130851   3.873   2.768   0.545 -0.6765  0.4945  3.4030
 6464SOL    HW230852   3.902   2.658   0.642 -2.1347 -3.0497  0.9286
 6465SOL     OW30853   2.801   0.209   6.641 -0.3203  0.0112  0.3530
 6465SOL    HW130854   2.891   0.211   6.609 -0.4120 -0.7015  0.0725
 6465SOL    HW230855   2.787   0.299   6.671 -2.5669  0.0022 -0.6744
 6466SOL     OW30856   2.559   3.946   8.665 -0.3921 -0.0293  0.3310
 6466SOL    HW130857   2.563   4.020   8.725  1.6172  0.0278  0.1461
 6466SOL    HW230858   2.548   3.872   8.725 -2.1719 -0.4113 -0.4631
 6467SOL     OW30859   1.914   1.124   7.763  0.2842  0.2208 -0.0694
 6467SOL    HW130860   1.955   1.127   7.677 -1.6373  1.5480 -0.9185
 6467SOL    HW230861   1.835   1.176   7.753  0.9337  0.6685 -2.9057
 6468SOL     OW30862   0.114   0.150  16.612  0.3001  0.1943  0.1417
 6468SOL    HW130863   0.152   0.237  16.601 -0.7619  0.6745  0.2577
 6468SOL    HW230864   0.194   0.102  16.591 -1.8909 -2.4155 -2.2984
 6469SOL     OW30865   2.764   2.920   2.914  0.2624 -0.3509 -0.1684
 6469SOL    HW130866   2.788   3.010   2.893  1.0829  0.3641  3.7271
 6469SOL    HW230867   2.843   2.889   2.870 -1.4927 -3.5814 -1.0021
 6470SOL     OW30868   2.490   3.941   5.557 -0.3548 -0.1088 -0.2338
 6470SOL    HW130869   2.568   3.936   5.501 -0.1503 -0.7249  0.1039
 6470SOL    HW230870   2.423   3.897   5.504  1.3788  0.7536 -3.1618
 6471SOL     OW30871   2.960   1.890   8.135 -0.5905 -0.2326 -0.6476
 6471SOL    HW130872   2.995   1.966   8.088  0.7013 -1.7254 -2.1353
 6471SOL    HW230873   3.040   1.851   8.171 -0.7594  0.8384  0.8633
 6472SOL     OW30874   2.358   1.720   0.900  0.0427  0.5049 -0.1123
 6472SOL    HW130875   2.351   1.787   0.832  1.8321 -0.3023 -1.1071
 6472SOL    HW230876   2.279   1.670   0.879 -0.4763  1.0322  0.6079
 6473SOL     OW30877   3.114   1.037  11.248 -0.0107  0.9163  0.2907
 6473SOL    HW130878   3.130   1.050  11.341 -1.0788 -0.3233  0.6577
 6473SOL    HW230879   3.201   1.060  11.216  1.0573  1.6146  3.7392
 6474SOL     OW30880   3.132   0.455   3.658 -0.0640 -0.3988 -0.3800
 6474SOL    HW130881   3.226   0.457   3.675  0.0278  0.0752 -0.9615
 6474SOL    HW230882   3.120   0.402   3.579 -0.7536 -0.7403 -0.0462
 6475SOL     OW30883   2.823   3.907   7.009 -0.0131  0.5111 -0.0549
 6475SOL    HW130884   2.750   3.916   6.947  1.2059 -1.3554 -1.7497
 6475SOL    HW230885   2.877   3.838   6.970  3.5367  3.1778  0.1466
 6476SOL     OW30886   0.174   0.022  11.214 -0.3287  0.2853  0.0745
 6476SOL    HW130887   0.185   4.664  11.165 -0.6317  0.4121 -0.2008
 6476SOL    HW230888   0.150   0.090  11.151 -2.2723 -0.5330 -0.0473
 6477SOL     OW30889   1.048   2.603   9.511 -0.1013  0.0040  0.6040
 6477SOL    HW130890   1.109   2.529   9.516 -1.1536 -0.8967  0.1637
 6477SOL    HW230891   1.102   2.675   9.542  0.3386 -0.6706  1.4127
 6478SOL     OW30892   0.040   1.669   5.408 -0.0480 -0.2522  0.0693
 6478SOL    HW130893   4.702   1.721   5.355 -2.5125 -1.6239  1.5463
 6478SOL    HW230894   4.716   1.586   5.401  3.0755 -1.9039 -1.3095
 6479SOL     OW30895   1.469   1.395   8.664  0.2323 -0.1841 -1.0110
 6479SOL    HW130896   1.429   1.345   8.735  1.5023 -0.0446 -0.1931
 6479SOL    HW230897   1.536   1.332   8.638  0.7824 -0.8688  2.1321
 6480SOL     OW30898   1.367   0.652   6.751 -0.4240 -0.3187  0.2718
 6480SOL    HW130899   1.349   0.562   6.778  0.1194 -0.8609 -1.1434
 6480SOL    HW230900   1.314   0.660   6.672 -1.5460  0.7183  1.1376
 6481SOL     OW30901   3.514   1.516  16.689  0.0631  0.1879  0.1990
 6481SOL    HW130902   3.428   1.484  16.717 -1.4121  2.8494 -1.3327
 6481SOL    HW230903   3.562   1.496  16.770  1.5925  0.3376 -0.6780
 6482SOL     OW30904   2.627   1.118   6.058  0.4264  0.2555 -0.1883
 6482SOL    HW130905   2.649   1.210   6.065  1.2556  0.0458 -0.0587
 6482SOL    HW230906   2.709   1.068   6.065  2.1236  3.1339  0.4028
 6483SOL     OW30907   0.472   0.860  10.786  0.6034  0.1123  0.3954
 6483SOL    HW130908   0.525   0.852  10.865  1.5132 -0.8166 -0.3021
 6483SOL    HW230909   0.396   0.807  10.811  1.0106 -0.7721 -0.2315
 6484SOL     OW30910   2.929   2.479  13.594  0.1476 -0.0769 -0.2572
 6484SOL    HW130911   2.857   2.532  13.560 -0.4634 -0.7555 -0.0184
 6484SOL    HW230912   2.999   2.511  13.536  0.8803 -0.7667  0.2475
 6485SOL     OW30913   0.172   0.452   1.514  0.1803 -0.1975  0.1162
 6485SOL    HW130914   0.178   0.511   1.439  0.2420  0.2446  0.4754
 6485SOL    HW230915   0.254   0.466   1.561  0.4151  2.1670 -1.0093
 6486SOL     OW30916   1.475   2.635  16.123  0.2312  0.2505 -0.0422
 6486SOL    HW130917   1.508   2.628  16.034  1.5845  0.7185  0.4098
 6486SOL    HW230918   1.542   2.590  16.175  0.8415  0.3891 -0.7069
 6487SOL     OW30919   0.790   4.689   4.916  1.2166  0.0890  0.1228
 6487SOL    HW130920   0.748   0.036   4.967  0.6279  0.8944 -1.4761
 6487SOL    HW230921   0.803   0.025   4.842 -0.4757  2.0892  1.4226
 6488SOL     OW30922   0.408   3.397  14.642  0.2699  0.2903  0.7042
 6488SOL    HW130923   0.473   3.406  14.711  0.1291 -0.3758  0.9246
 6488SOL    HW230924   0.345   3.341  14.688  0.7991 -0.1035  0.9486
 6489SOL     OW30925   3.573   0.503  11.433 -0.5803  0.0411 -0.0660
 6489SOL    HW130926   3.506   0.476  11.370 -2.6618  1.2794  1.6339
 6489SOL    HW230927   3.516   0.564  11.480  0.1261  0.0740  0.7476
 6490SOL     OW30928   3.408   1.384  16.396 -0.0008  0.7119 -0.0201
 6490SOL    HW130929   3.456   1.418  16.321  0.6558 -0.4363 -0.1239
 6490SOL    HW230930   3.476   1.390  16.463 -0.9148  0.7664  0.8997
 6491SOL     OW30931   3.337   0.977   4.737  0.1134  0.0498 -0.4459
 6491SOL    HW130932   3.332   0.935   4.651 -3.4186  0.0839 -0.2472
 6491SOL    HW230933   3.426   0.955   4.762 -0.2929  0.9431  1.7839
 6492SOL     OW30934   2.286   2.296   8.920 -0.2115 -0.2633 -0.1967
 6492SOL    HW130935   2.308   2.227   8.982  2.0958  2.0906  1.5598
 6492SOL    HW230936   2.364   2.292   8.865 -1.1164  0.5438 -1.5241
 6493SOL     OW30937   0.895   2.683   3.563  0.7132 -0.0155 -0.2138
 6493SOL    HW130938   0.821   2.692   3.503  0.1612  1.5233  0.6758
 6493SOL    HW230939   0.889   2.768   3.607 -2.0278  0.2738 -1.1224
 6494SOL     OW30940   3.287   0.816  12.986 -0.5555  0.4341 -0.3827
 6494SOL    HW130941   3.252   0.850  13.068 -0.2840 -1.9678  0.7420
 6494SOL    HW230942   3.264   0.880  12.920 -1.4366 -0.2375 -0.7188
 6495SOL     OW30943   1.217   2.497  11.066 -0.2584 -0.2151  0.3332
 6495SOL    HW130944   1.231   2.591  11.069  1.6911 -0.4888 -0.2250
 6495SOL    HW230945   1.249   2.479  11.154 -2.4171  1.2228  1.3792
 6496SOL     OW30946   2.431   3.880   3.638 -0.6485  0.3278 -0.5524
 6496SOL    HW130947   2.461   3.789   3.645  0.3194  0.7463  0.8506
 6496SOL    HW230948   2.424   3.895   3.733 -0.0187 -1.0640 -0.2756
 6497SOL     OW30949   0.638   0.005  13.456  0.3171  0.5314  0.1356
 6497SOL    HW130950   0.672   0.065  13.523  1.4114 -0.7789  0.7576
 6497SOL    HW230951   0.567   4.694  13.510  1.6419 -1.2019  0.8137
 6498SOL     OW30952   3.189   0.460   5.584 -0.1763  0.2263 -0.0075
 6498SOL    HW130953   3.180   0.437   5.676  0.7984 -3.3697 -0.8079
 6498SOL    HW230954   3.205   0.371   5.552 -2.1707 -0.0205 -0.2931
 6499SOL     OW30955   1.145   2.373   4.498 -0.0156 -0.6199 -0.0851
 6499SOL    HW130956   1.223   2.398   4.547  0.3536 -0.7330 -0.6098
 6499SOL    HW230957   1.163   2.436   4.428 -0.9725 -0.3028 -0.0370
 6500SOL     OW30958   0.110   0.689   2.124  0.6103 -0.2059 -0.0749
 6500SOL    HW130959   0.201   0.716   2.138  0.3801 -0.5294  2.1530
 6500SOL    HW230960   0.075   0.769   2.085  2.1675  0.1766 -0.6864
 6501SOL     OW30961   4.032   0.333   1.595  0.8175 -0.5945  0.2317
 6501SOL    HW130962   4.076   0.316   1.512 -0.8367 -2.3395 -0.2536
 6501SOL    HW230963   4.035   0.428   1.608  1.4875 -0.5071 -0.5044
 6502SOL     OW30964   3.979   2.908   5.033 -0.3881 -0.0000 -0.2989
 6502SOL    HW130965   3.924   2.947   5.100 -0.8776  2.1697 -1.9666
 6502SOL    HW230966   3.953   2.816   5.034 -1.3408  0.2612 -1.3841
 6503SOL     OW30967   4.204   0.206   5.609 -0.7391  0.6601  0.1061
 6503SOL    HW130968   4.245   0.275   5.660  0.9974 -0.5510  0.3317
 6503SOL    HW230969   4.117   0.246   5.607 -0.9990  0.1421  1.0366
 6504SOL     OW30970   0.103   3.849  15.695 -0.3689 -0.1084 -0.3560
 6504SOL    HW130971   0.139   3.902  15.624  1.3351 -0.0958  0.5248
 6504SOL    HW230972   0.051   3.786  15.646 -1.5172 -1.0457  2.0317
 6505SOL     OW30973   4.507   1.783   8.242 -0.5032 -0.0465  0.0403
 6505SOL    HW130974   4.537   1.874   8.251 -0.3287  0.0831 -1.7864
 6505SOL    HW230975   4.522   1.781   8.147  2.6576 -1.7495  0.5884
 6506SOL     OW30976   2.415   3.044   0.322 -0.5057  0.8679  0.1564
 6506SOL    HW130977   2.379   3.073   0.406 -1.5581  0.4305 -0.1430
 6506SOL    HW230978   2.428   2.950   0.331 -0.1230  0.8335 -0.7421
 6507SOL     OW30979   4.014   1.008  16.534  0.0035 -0.4240 -0.1372
 6507SOL    HW130980   4.064   0.954  16.472 -0.8653 -0.0821 -1.1238
 6507SOL    HW230981   4.052   1.092  16.507  0.1617 -0.4636 -0.0393
 6508SOL     OW30982   2.968   0.571   6.341 -0.3421  0.1050 -0.1000
 6508SOL    HW130983   2.979   0.490   6.292  2.1457 -0.0859  0.7797
 6508SOL    HW230984   3.049   0.578   6.391 -0.3334 -0.3036 -0.0613
 6509SOL     OW30985   2.190   2.871  11.981 -0.1762 -0.0235  0.2199
 6509SOL    HW130986   2.195   2.775  11.981  0.2350  0.0035 -0.6812
 6509SOL    HW230987   2.097   2.885  11.999 -0.6167  0.6411 -2.6857
 6510SOL     OW30988   2.856   0.581   5.087  0.0585  0.1579 -0.0168
 6510SOL    HW130989   2.947   0.590   5.115  0.3244  0.6808 -1.0589
 6510SOL    HW230990   2.843   0.669   5.050  1.7615  0.4089 -0.0054
 6511SOL     OW30991   1.446   2.338   8.989 -0.2056 -0.0637  0.1973
 6511SOL    HW130992   1.445   2.327   9.085 -0.4078 -0.4166  0.1573
 6511SOL    HW230993   1.529   2.385   8.983  0.1678 -0.7454  0.0578
 6512SOL     OW30994   2.119   0.297   4.208 -0.0634 -0.7910 -0.1706
 6512SOL    HW130995   2.026   0.274   4.211 -0.1289 -0.4851  0.1240
 6512SOL    HW230996   2.112   0.388   4.236 -0.7459 -0.6950 -0.6692
 6513SOL     OW30997   1.840   0.204   5.394  1.0328 -0.3518  0.1279
 6513SOL    HW130998   1.856   0.234   5.304  0.6393 -0.1556  0.1261
 6513SOL    HW230999   1.865   0.112   5.387 -0.3222 -0.5546 -2.1232
 6514SOL     OW31000   1.474   4.626  13.254 -0.2107 -0.2349 -0.3073
 6514SOL    HW131001   1.452   4.709  13.296 -1.8418 -1.5930  1.5318
 6514SOL    HW231002   1.406   4.607  13.189 -0.5797 -0.6874  0.2103
 6515SOL     OW31003   3.048   1.106  15.524 -0.3115  0.0160 -0.1067
 6515SOL    HW131004   3.122   1.130  15.580 -1.3509 -0.4634  1.4548
 6515SOL    HW231005   3.061   1.012  15.513  0.6922 -0.1007  1.9858
 6516SOL     OW31006   4.555   1.647   7.633 -0.2605 -0.6428  0.1480
 6516SOL    HW131007   4.585   1.611   7.550 -1.2772  1.9142 -1.3183
 6516SOL    HW231008   4.549   1.566   7.684  0.2301  0.9397  2.7234
 6517SOL     OW31009   3.616   1.905   2.119 -0.0416 -0.0231  0.5053
 6517SOL    HW131010   3.710   1.922   2.107 -0.0301  0.9014  2.0504
 6517SOL    HW231011   3.579   1.990   2.096  0.1430  0.0905  0.6283
 6518SOL     OW31012   0.389   3.732  15.815  0.2022 -0.1707 -0.1083
 6518SOL    HW131013   0.448   3.662  15.789  0.5342 -0.0311  0.2626
 6518SOL    HW231014   0.437   3.775  15.887  3.0411 -3.6117  0.0547
 6519SOL     OW31015   4.176   2.191   0.356 -0.7260  0.1879  0.0530
 6519SOL    HW131016   4.159   2.265   0.415  2.8322  1.2381 -0.2586
 6519SOL    HW231017   4.233   2.141   0.413  0.0697 -0.4127 -1.2718
 6520SOL     OW31018   4.241   4.164   2.261  0.4960 -0.1861  0.1059
 6520SOL    HW131019   4.193   4.091   2.301 -0.6959  0.6093  0.1188
 6520SOL    HW231020   4.174   4.232   2.257 -0.2350 -0.9712 -1.2478
 6521SOL     OW31021   3.525   4.710  14.652 -0.1045 -0.2974 -0.2445
 6521SOL    HW131022   3.509   4.706  14.557 -1.0659 -1.0685 -0.0476
 6521SOL    HW231023   3.454   0.045  14.679  0.4783  0.2528  0.0916
 6522SOL     OW31024   1.774   0.032  16.512  0.0641 -0.0797  0.3819
 6522SOL    HW131025   1.780   4.689  16.443  0.5362  0.1207  0.2294
 6522SOL    HW231026   1.681   0.028  16.535  0.5949 -1.3631  2.2779
 6523SOL     OW31027   2.624   1.703   2.758  0.2890  0.1991  0.6799
 6523SOL    HW131028   2.652   1.699   2.666 -1.2476 -0.0957  0.2325
 6523SOL    HW231029   2.682   1.769   2.796 -0.8352  1.2314  0.6203
 6524SOL     OW31030   3.880   3.728   8.402  0.3013  0.2862  0.3389
 6524SOL    HW131031   3.897   3.723   8.496 -1.4668 -2.6764  0.4848
 6524SOL    HW231032   3.788   3.703   8.398  0.4745 -0.3367  0.2549
 6525SOL     OW31033   4.170   2.347   3.142  0.0439  0.1951  0.5490
 6525SOL    HW131034   4.165   2.437   3.174 -0.6871  0.1272  0.6234
 6525SOL    HW231035   4.088   2.312   3.177 -0.2822 -0.0972 -0.4849
 6526SOL     OW31036   1.779   2.372  12.996  0.2153  0.5666  0.1930
 6526SOL    HW131037   1.747   2.393  13.084  0.1358 -0.6620  0.4629
 6526SOL    HW231038   1.862   2.420  12.996 -0.6615  2.0593 -0.0645
 6527SOL     OW31039   0.232   1.087   5.361  0.0723  0.1770 -0.3534
 6527SOL    HW131040   0.230   0.991   5.362  0.8877  0.1825  1.1926
 6527SOL    HW231041   0.196   1.111   5.446  3.0210 -1.3522  1.3283
 6528SOL     OW31042   3.237   0.590  15.817  0.5970 -0.8382  0.0951
 6528SOL    HW131043   3.177   0.664  15.811  0.7034 -0.6793  1.1396
 6528SOL    HW231044   3.326   0.623  15.816  0.6102 -0.8636  0.9054
 6529SOL     OW31045   0.428   1.297  15.161 -1.1364 -0.1298  0.1701
 6529SOL    HW131046   0.408   1.336  15.246 -0.6090 -0.7411  0.5743
 6529SOL    HW231047   0.409   1.205  15.180  1.0538 -0.8900 -1.3655
 6530SOL     OW31048   1.106   1.063   6.228 -0.0333 -0.0505  0.3888
 6530SOL    HW131049   1.069   0.991   6.279 -0.1487  0.2729  0.7535
 6530SOL    HW231050   1.166   1.098   6.294  0.5035  1.4003 -0.8675
 6531SOL     OW31051   0.487   4.486   8.907 -0.1292 -0.2010  0.5038
 6531SOL    HW131052   0.541   4.410   8.929 -0.8063 -0.4696  1.2411
 6531SOL    HW231053   0.470   4.463   8.815 -1.9358  0.0707  0.7724
 6532SOL     OW31054   0.616   0.982   1.596 -0.1436 -0.1060 -0.6773
 6532SOL    HW131055   0.548   1.031   1.549  1.0273 -1.0594 -3.4157
 6532SOL    HW231056   0.655   1.055   1.642 -0.6048 -1.0945  1.2977
 6533SOL     OW31057   3.959   1.799   4.793  0.0109  0.4759  0.3854
 6533SOL    HW131058   4.017   1.837   4.858 -2.2824  1.0189  2.1140
 6533SOL    HW231059   3.955   1.874   4.733  0.5804 -0.3854 -0.7330
 6534SOL     OW31060   0.234   3.327   2.817  0.2115  0.1769 -0.7158
 6534SOL    HW131061   0.201   3.407   2.774  0.4793  0.6850  0.0219
 6534SOL    HW231062   0.194   3.259   2.763  1.7310 -0.2896 -1.2617
 6535SOL     OW31063   1.066   2.055   6.256  0.8210 -0.4221  0.9968
 6535SOL    HW131064   1.129   1.994   6.295 -0.4557 -1.8343  0.8738
 6535SOL    HW231065   1.094   2.060   6.165 -1.0191 -0.8608  0.4143
 6536SOL     OW31066   1.871   1.462   0.008  0.3589 -0.2083 -0.2821
 6536SOL    HW131067   1.893   1.527  17.636  1.6305 -0.1769  0.1757
 6536SOL    HW231068   1.775   1.470   0.013  0.3465  0.9603 -2.2139
 6537SOL     OW31069   2.776   0.439  15.996  0.3663 -0.2710  0.2042
 6537SOL    HW131070   2.816   0.353  16.008  0.4795 -0.3117 -0.4662
 6537SOL    HW231071   2.815   0.481  16.073  1.0388  1.5418 -1.1039
 6538SOL     OW31072   2.864   0.018   4.744 -0.1370  0.3007  0.1550
 6538SOL    HW131073   2.819   0.095   4.779 -1.0808  1.7737 -4.3099
 6538SOL    HW231074   2.792   4.678   4.747  0.4087 -0.2300  1.8531
 6539SOL     OW31075   3.697   0.432   5.501 -0.2043 -0.2060 -0.1650
 6539SOL    HW131076   3.700   0.488   5.423 -0.0274  0.5562  0.3893
 6539SOL    HW231077   3.671   0.502   5.561 -0.5872 -1.8474  1.5593
 6540SOL     OW31078   3.511   3.248   7.093  0.1213  0.7106 -0.2838
 6540SOL    HW131079   3.511   3.339   7.122  0.2485  0.6324 -0.0296
 6540SOL    HW231080   3.436   3.214   7.142  0.1462 -0.2930 -0.9410
 6541SOL     OW31081   2.920   3.089   4.132 -0.2342 -0.2875  0.0416
 6541SOL    HW131082   3.012   3.106   4.155 -0.0703  1.2403 -1.7959
 6541SOL    HW231083   2.934   3.065   4.041  0.6038  1.1295 -0.2083
 6542SOL     OW31084   2.406   4.549   7.559  0.5207 -0.0593  0.0195
 6542SOL    HW131085   2.482   4.577   7.610  0.4568 -0.8737  0.5724
 6542SOL    HW231086   2.337   4.572   7.622 -0.6565  0.0269 -1.2946
 6543SOL     OW31087   2.152   1.429   4.769 -0.3836  0.4399  1.0095
 6543SOL    HW131088   2.080   1.427   4.832  0.3334  0.9810  1.8381
 6543SOL    HW231089   2.204   1.506   4.789 -0.1257  0.2308  1.1387
 6544SOL     OW31090   0.654   4.181   7.583  0.3132  0.6459  0.2544
 6544SOL    HW131091   0.703   4.213   7.658 -1.2056 -2.2520  2.4762
 6544SOL    HW231092   0.711   4.111   7.552 -0.3359  0.1496  0.1735
 6545SOL     OW31093   4.304   2.212   5.690  0.0907 -0.0776 -0.0485
 6545SOL    HW131094   4.264   2.156   5.623 -1.1192  1.3846 -0.5613
 6545SOL    HW231095   4.394   2.183   5.681 -1.3285 -4.7650  0.8220
 6546SOL     OW31096   3.429   3.051   8.032  0.3456  0.0299  0.0405
 6546SOL    HW131097   3.371   3.002   7.973 -0.6390 -0.0537  1.0865
 6546SOL    HW231098   3.415   3.138   7.995  1.5725  0.6223  0.9531
 6547SOL     OW31099   1.625   1.980   6.302 -0.2056 -0.3122 -0.3918
 6547SOL    HW131100   1.711   2.018   6.321  0.7340 -2.6604  0.1300
 6547SOL    HW231101   1.592   1.960   6.389 -1.5197 -0.1772 -0.8617
 6548SOL     OW31102   3.923   2.485   2.131  0.4703  0.4888 -0.0862
 6548SOL    HW131103   3.970   2.532   2.201 -1.8327  1.9281  0.4822
 6548SOL    HW231104   3.993   2.473   2.066  0.8733 -0.1529  0.4662
 6549SOL     OW31105   3.477   4.362  15.018  0.4285  0.0384 -0.9020
 6549SOL    HW131106   3.416   4.293  14.991 -0.7506  0.1931  1.3013
 6549SOL    HW231107   3.437   4.391  15.100 -0.8095 -1.3391 -1.0068
 6550SOL     OW31108   0.320   0.893   4.883 -0.0044  0.0662 -0.6386
 6550SOL    HW131109   0.270   0.975   4.885 -1.8596 -1.1007  1.1390
 6550SOL    HW231110   0.348   0.874   4.972  0.3181  0.1191 -0.7286
 6551SOL     OW31111   0.886   0.881  10.608 -0.2420 -0.2250 -0.0749
 6551SOL    HW131112   0.978   0.865  10.627 -0.1509 -3.0031 -2.9009
 6551SOL    HW231113   0.892   0.973  10.583  0.1959 -0.6166 -1.3764
 6552SOL     OW31114   0.483   0.018   1.761 -0.5474  0.3962 -0.4195
 6552SOL    HW131115   0.506   0.046   1.672 -1.3388 -1.0312 -1.0834
 6552SOL    HW231116   0.394   0.053   1.765 -0.1067  1.0434  3.7705
 6553SOL     OW31117   3.911   0.974   1.457 -0.3881 -0.3108  0.9428
 6553SOL    HW131118   3.935   0.882   1.448 -3.1314 -1.2407  3.0039
 6553SOL    HW231119   3.815   0.970   1.456 -0.4184  0.7928  0.0151
 6554SOL     OW31120   0.436   3.386   0.796  0.1563  0.3351  0.5475
 6554SOL    HW131121   0.350   3.424   0.781  0.8795  1.2013 -1.3663
 6554SOL    HW231122   0.405   3.324   0.862  0.5687 -1.2919 -0.7673
 6555SOL     OW31123   3.552   2.430  14.886  0.0317 -0.3326 -0.1988
 6555SOL    HW131124   3.494   2.364  14.848  0.0876  0.3764 -1.5012
 6555SOL    HW231125   3.611   2.437  14.811  3.0625 -1.3034  2.1048
 6556SOL     OW31126   3.208   3.554  10.990 -0.2221  0.3722 -0.1682
 6556SOL    HW131127   3.226   3.592  11.076 -0.7897  2.2415 -0.8835
 6556SOL    HW231128   3.115   3.542  11.008 -0.3990  1.1400 -0.5732
 6557SOL     OW31129   3.990   2.966   0.541 -0.4552  0.1616 -0.2953
 6557SOL    HW131130   4.044   2.974   0.462  1.6173 -3.3891  0.7848
 6557SOL    HW231131   4.055   2.981   0.610 -0.7708 -2.0901  0.4775
 6558SOL     OW31132   3.340   4.022  10.453  0.4248 -0.0303 -0.2610
 6558SOL    HW131133   3.253   4.030  10.491 -0.2827  1.8870 -2.3169
 6558SOL    HW231134   3.371   3.938  10.487  0.4785 -0.3497 -1.1010
 6559SOL     OW31135   4.525   4.639  11.763 -0.0965  0.4751 -0.1718
 6559SOL    HW131136   4.513   0.000  11.721  0.1003  0.3374 -0.4991
 6559SOL    HW231137   4.546   4.582  11.690 -1.6681 -1.3596  0.7889
 6560SOL     OW31138   2.070   1.269   9.414  0.0703 -0.2920 -0.8743
 6560SOL    HW131139   2.060   1.364   9.423  2.5883 -0.0397 -0.9657
 6560SOL    HW231140   2.160   1.263   9.445 -0.8128  0.5298  1.9001
 6561SOL     OW31141   3.497   2.352  17.465  0.0634  0.1743 -0.2991
 6561SOL    HW131142   3.542   2.366  17.382 -0.4508 -1.1463 -0.8062
 6561SOL    HW231143   3.533   2.269  17.494  2.4654  1.5931  0.7373
 6562SOL     OW31144   4.644   1.336   5.841  0.2827 -0.3765  0.0831
 6562SOL    HW131145   4.554   1.368   5.849  0.9595  1.5507 -0.0642
 6562SOL    HW231146   4.622   1.242   5.840  1.6203 -0.6301 -3.4839
 6563SOL     OW31147   1.289   2.648  10.125  0.0021 -0.1827  0.0695
 6563SOL    HW131148   1.328   2.677  10.207  1.4622  2.6460 -1.5996
 6563SOL    HW231149   1.256   2.566  10.162 -1.5246  0.4229  0.0309
 6564SOL     OW31150   3.255   2.540   5.628 -0.1967  0.1851 -0.0283
 6564SOL    HW131151   3.284   2.476   5.693 -0.7579 -0.2410 -0.1899
 6564SOL    HW231152   3.289   2.490   5.554  0.1686 -0.1566  0.3731
 6565SOL     OW31153   3.289   3.337  12.547 -0.2050 -0.0950  0.1842
 6565SOL    HW131154   3.325   3.256  12.582  0.4508 -0.3472 -1.0875
 6565SOL    HW231155   3.329   3.344  12.460  0.0490  0.7573  0.3674
 6566SOL     OW31156   0.041   0.658   1.813  0.5558 -0.4729  0.5591
 6566SOL    HW131157   0.096   0.649   1.735  0.1936 -1.2433  0.3848
 6566SOL    HW231158   0.062   0.740   1.858 -1.0767  1.4949 -2.2841
 6567SOL     OW31159   4.562   4.537  10.186  0.3239 -0.0196  0.7704
 6567SOL    HW131160   4.530   4.454  10.151 -1.3655  0.8662  0.1941
 6567SOL    HW231161   4.597   4.529  10.275  3.2942 -0.7649 -0.4662
 6568SOL     OW31162   3.364   0.264   2.867  0.2679  0.2579  0.0512
 6568SOL    HW131163   3.274   0.287   2.890 -0.5589 -1.1422 -1.7678
 6568SOL    HW231164   3.340   0.196   2.804  1.4494  0.3173 -0.4595
 6569SOL     OW31165   1.913   4.080   7.123  0.3129 -0.9406 -0.6578
 6569SOL    HW131166   1.926   4.121   7.037 -2.1502  0.7237 -0.2501
 6569SOL    HW231167   1.831   4.124   7.148  0.6697 -1.3455  1.1347
 6570SOL     OW31168   3.748   2.076   9.079  0.5367 -0.1170 -0.5754
 6570SOL    HW131169   3.790   2.066   9.165  0.0044  0.9168 -0.1909
 6570SOL    HW231170   3.814   2.046   9.016 -0.0527 -2.3112 -0.1680
 6571SOL     OW31171   2.840   3.690   7.427 -0.5711  0.3008 -0.2241
 6571SOL    HW131172   2.865   3.720   7.340 -0.6681 -1.5491 -0.8883
 6571SOL    HW231173   2.746   3.679   7.413 -0.6725  1.1559 -0.2273
 6572SOL     OW31174   0.224   2.281   9.649 -0.7864 -0.2923 -0.0073
 6572SOL    HW131175   0.236   2.374   9.631  1.1301 -0.9384 -1.9946
 6572SOL    HW231176   0.171   2.278   9.729 -1.5192 -1.5758 -0.5366
 6573SOL     OW31177   0.947   3.840  11.523  0.5686 -0.5753  0.4241
 6573SOL    HW131178   0.928   3.932  11.540 -0.2620 -0.8660  1.0720
 6573SOL    HW231179   0.901   3.818  11.442  1.3382  1.8175 -0.6650
 6574SOL     OW31180   2.732   2.307   0.843 -0.2845 -0.4888  0.1125
 6574SOL    HW131181   2.682   2.357   0.778 -0.9113 -1.3436 -0.0541
 6574SOL    HW231182   2.686   2.224   0.853  2.2178 -1.9412 -0.5616
 6575SOL     OW31183   2.061   1.575   4.242 -0.0624  0.0527 -0.5291
 6575SOL    HW131184   2.109   1.657   4.247  1.7658 -1.0623  0.6431
 6575SOL    HW231185   2.076   1.547   4.333 -0.1513 -1.9340 -1.1270
 6576SOL     OW31186   0.286   3.999   8.133  0.4504 -0.0680  0.0380
 6576SOL    HW131187   0.365   4.031   8.089 -0.1875 -0.1835 -1.1824
 6576SOL    HW231188   0.259   3.940   8.063  0.6016 -0.3290  0.1983
 6577SOL     OW31189   4.101   2.801  14.239 -1.1699  0.3673  0.2600
 6577SOL    HW131190   4.116   2.760  14.324  0.4963  0.1154 -0.1493
 6577SOL    HW231191   4.176   2.764  14.192 -2.5358  0.8085 -2.2414
 6578SOL     OW31192   0.655   1.512   3.572  0.5385 -0.0304  1.0631
 6578SOL    HW131193   0.583   1.573   3.585  1.2749  1.3651 -1.5100
 6578SOL    HW231194   0.608   1.428   3.579  0.2457  0.0756  0.3394
 6579SOL     OW31195   1.670   2.817   8.470  0.0734  0.2911 -0.2078
 6579SOL    HW131196   1.739   2.753   8.449 -0.3312 -1.4089  3.5570
 6579SOL    HW231197   1.720   2.895   8.448  0.6495  0.1101  0.4351
 6580SOL     OW31198   0.735   2.198   4.306 -0.6779  0.2825 -0.2229
 6580SOL    HW131199   0.804   2.178   4.369 -1.3144 -0.6589  0.1678
 6580SOL    HW231200   0.773   2.277   4.268 -0.3802  0.7981  1.1509
 6581SOL     OW31201   3.468   3.852   8.812 -0.0944 -0.1193 -0.5004
 6581SOL    HW131202   3.562   3.851   8.827  0.1229 -0.2155 -1.9031
 6581SOL    HW231203   3.439   3.832   8.901 -0.5628 -0.5958 -0.7595
 6582SOL     OW31204   3.451   3.359   1.641  0.7137 -0.4662 -0.1613
 6582SOL    HW131205   3.499   3.414   1.704 -1.8475 -0.6662  1.9787
 6582SOL    HW231206   3.515   3.365   1.571  0.5277 -1.2085 -0.3932
 6583SOL     OW31207   0.776   0.908   4.942  0.3561 -0.3007  0.3373
 6583SOL    HW131208   0.825   0.912   4.860  0.1035 -4.8850 -0.0536
 6583SOL    HW231209   0.707   0.968   4.915 -0.0577 -1.1141 -0.4140
 6584SOL     OW31210   0.060   0.695   5.182 -0.0292  0.0661 -0.6681
 6584SOL    HW131211   0.063   0.765   5.117  1.7009  0.6337  0.0379
 6584SOL    HW231212   0.001   0.635   5.136  0.4348 -1.5668  0.8673
 6585SOL     OW31213   0.741   1.038  11.965 -0.1007  0.4490  0.4674
 6585SOL    HW131214   0.812   1.090  12.003  0.5115 -0.9970  1.2990
 6585SOL    HW231215   0.783   0.982  11.900 -1.9019 -1.8652  1.3363
 6586SOL     OW31216   1.813   2.600   3.102  0.6803 -0.0501  0.5472
 6586SOL    HW131217   1.843   2.509   3.101  0.8019 -0.0075 -0.0103
 6586SOL    HW231218   1.722   2.582   3.076  1.0681  0.7141 -1.3189
 6587SOL     OW31219   0.677   0.271   3.977 -0.4422 -0.1452  0.7172
 6587SOL    HW131220   0.647   0.339   3.917 -0.5140 -1.6110 -0.9087
 6587SOL    HW231221   0.771   0.273   3.959 -0.9558  0.1178 -1.9420
 6588SOL     OW31222   2.697   3.908   5.308 -0.2137  0.3219 -0.1013
 6588SOL    HW131223   2.612   3.950   5.297  0.5517  1.9204  0.0361
 6588SOL    HW231224   2.697   3.850   5.232 -1.0014  1.1363 -0.7273
 6589SOL     OW31225   4.543   2.098   3.739  0.0320 -0.0212 -0.2603
 6589SOL    HW131226   4.471   2.145   3.781  0.1551 -0.5677  0.5758
 6589SOL    HW231227   4.500   2.021   3.703  1.3203  0.5125 -2.9784
 6590SOL     OW31228   4.268   0.174   8.111 -0.1612 -0.7263 -0.8504
 6590SOL    HW131229   4.204   0.103   8.115  1.2560 -1.9454  0.2773
 6590SOL    HW231230   4.351   0.126   8.121  1.0624  1.4148 -0.6737
 6591SOL     OW31231   0.684   3.238   8.706  0.0999 -0.3020 -0.1887
 6591SOL    HW131232   0.701   3.189   8.625 -1.9031 -0.3711 -0.5676
 6591SOL    HW231233   0.612   3.188   8.745 -0.2146  0.8495  0.6994
 6592SOL     OW31234   2.179   4.524  11.682 -0.0818 -0.5678  0.4455
 6592SOL    HW131235   2.275   4.529  11.687 -0.0836  0.9254 -0.9290
 6592SOL    HW231236   2.161   4.493  11.770  0.2529 -0.5451  0.5245
 6593SOL     OW31237   4.155   2.284   8.601 -0.4568 -0.2112 -0.5362
 6593SOL    HW131238   4.207   2.323   8.672 -0.3142 -1.0202 -0.1855
 6593SOL    HW231239   4.162   2.192   8.628 -1.0964 -1.1442 -3.6312
 6594SOL     OW31240   4.506   0.551   1.843  0.1026 -0.2419  0.2965
 6594SOL    HW131241   4.536   0.465   1.814 -0.4592 -0.1607 -0.5097
 6594SOL    HW231242   4.585   0.604   1.838  0.0722 -0.1135  1.1693
 6595SOL     OW31243   1.100   2.119   4.248 -0.1258 -0.4126 -0.8702
 6595SOL    HW131244   1.041   2.043   4.242 -0.2580 -0.1857 -2.4607
 6595SOL    HW231245   1.082   2.166   4.166 -1.3257  0.8964  0.1334
 6596SOL     OW31246   3.532   1.011   5.441 -0.2996  0.2804  0.3705
 6596SOL    HW131247   3.482   1.085   5.476  0.0405  0.2997  0.8259
 6596SOL    HW231248   3.621   1.027   5.473 -0.0276  0.4628 -0.4737
 6597SOL     OW31249   4.102   4.385   3.931 -0.9953 -0.6212 -0.1085
 6597SOL    HW131250   4.065   4.301   3.905 -0.5478 -0.6290 -0.7366
 6597SOL    HW231251   4.195   4.364   3.923 -0.8500 -0.3574  0.9145
 6598SOL     OW31252   4.212   3.956   0.327  0.2109 -0.0641 -0.0052
 6598SOL    HW131253   4.266   4.035   0.329  0.6706 -0.4346  1.9346
 6598SOL    HW231254   4.123   3.987   0.314  0.2988  0.1862 -0.0153
 6599SOL     OW31255   4.330   0.498  13.087  0.6114 -0.3607  0.2287
 6599SOL    HW131256   4.342   0.588  13.060 -1.7682 -0.4555 -1.1738
 6599SOL    HW231257   4.234   0.491  13.081  0.8072 -2.0366 -0.9348
 6600SOL     OW31258   2.126   2.148   1.896  0.4396 -0.3214 -0.6414
 6600SOL    HW131259   2.042   2.194   1.896  1.0088  0.7070  3.1998
 6600SOL    HW231260   2.185   2.217   1.924  1.6558 -1.5539 -0.1763
 6601SOL     OW31261   1.827   3.705   8.043 -0.1304  0.0985 -0.3620
 6601SOL    HW131262   1.920   3.715   8.020 -0.3079 -1.0433 -1.5509
 6601SOL    HW231263   1.782   3.730   7.962 -0.4281 -1.1468 -0.5814
 6602SOL     OW31264   3.713   0.702   8.862  0.3278  0.0101  0.1728
 6602SOL    HW131265   3.637   0.728   8.810  0.4821  0.0716 -0.0196
 6602SOL    HW231266   3.757   0.640   8.805  0.9918  0.3540  0.3164
 6603SOL     OW31267   1.040   3.318   6.122  0.4228  0.0917 -0.0574
 6603SOL    HW131268   1.113   3.334   6.182  0.0652  0.1900  0.3488
 6603SOL    HW231269   1.042   3.397   6.068 -1.5293  0.5302  0.5133
 6604SOL     OW31270   0.330   1.566   4.473  0.2341 -0.2132  0.5597
 6604SOL    HW131271   0.420   1.548   4.501  0.5253 -0.9010 -0.8221
 6604SOL    HW231272   0.348   1.572   4.380 -1.3872 -0.4281  0.2302
 6605SOL     OW31273   3.962   4.001   5.654  0.4003  0.6180 -0.7069
 6605SOL    HW131274   4.033   4.024   5.594  0.8496 -2.7409 -1.4937
 6605SOL    HW231275   3.927   3.929   5.601 -0.4218 -0.2535  1.0189
 6606SOL     OW31276   3.971   2.640   5.729 -0.0237 -0.4782  0.4052
 6606SOL    HW131277   4.005   2.553   5.710  0.5517 -0.0759 -0.4079
 6606SOL    HW231278   3.879   2.615   5.736  0.0351 -0.9712 -0.7806
 6607SOL     OW31279   1.747   1.451   0.716  0.7087 -0.0217  0.3859
 6607SOL    HW131280   1.702   1.535   0.727 -0.8637 -0.5077 -2.3825
 6607SOL    HW231281   1.679   1.389   0.691  0.3519  1.1206 -1.5248
 6608SOL     OW31282   3.322   4.403   6.475 -0.0454  0.4476  0.1460
 6608SOL    HW131283   3.357   4.345   6.407 -0.7604  0.2710 -0.0641
 6608SOL    HW231284   3.335   4.345   6.551 -0.8056 -1.3604 -1.1093
 6609SOL     OW31285   4.101   0.557   1.277  0.3917 -0.4578  0.4307
 6609SOL    HW131286   4.058   0.629   1.323  0.3679 -1.4987  2.0286
 6609SOL    HW231287   4.142   0.606   1.206  0.3011 -0.1254  0.6070
 6610SOL     OW31288   0.911   2.854   9.053 -0.2320  0.0919  0.2577
 6610SOL    HW131289   0.891   2.889   9.140 -2.0104  0.8276 -0.4364
 6610SOL    HW231290   0.960   2.773   9.067 -1.1998 -0.4353  0.5652
 6611SOL     OW31291   2.585   0.049  12.504 -0.0728  0.0803 -0.4074
 6611SOL    HW131292   2.559   0.034  12.595  1.1009  2.5947  0.3377
 6611SOL    HW231293   2.497   0.072  12.474  0.2910  1.6677 -0.2237
 6612SOL     OW31294   1.949   3.082   8.186 -0.1467  0.2939 -0.0716
 6612SOL    HW131295   1.980   3.172   8.194 -1.5868  0.6502  1.5497
 6612SOL    HW231296   2.028   3.034   8.211 -1.3418 -0.6430  1.9898
 6613SOL     OW31297   4.265   0.375   7.190  0.3699 -0.0454 -0.0018
 6613SOL    HW131298   4.253   0.444   7.255 -1.6156  0.4474 -0.9005
 6613SOL    HW231299   4.203   0.404   7.123  0.9825  3.3031  0.9015
 6614SOL     OW31300   1.655   2.368  15.926 -0.6520  0.4047  0.0872
 6614SOL    HW131301   1.639   2.297  15.988  1.4574  2.7761  3.3041
 6614SOL    HW231302   1.660   2.319  15.844 -0.4792  1.6312 -0.6247
 6615SOL     OW31303   3.268   3.479   2.428 -1.0062  0.2927  0.2366
 6615SOL    HW131304   3.187   3.428   2.430 -0.4891 -0.5598 -0.4900
 6615SOL    HW231305   3.279   3.467   2.333 -2.8590 -0.8834  0.1813
 6616SOL     OW31306   4.466   1.278   2.777  0.4431  0.1809  0.4126
 6616SOL    HW131307   4.472   1.220   2.701 -0.0737  2.2429 -1.2034
 6616SOL    HW231308   4.545   1.248   2.823 -0.2536 -2.6125 -0.1868
 6617SOL     OW31309   2.449   0.581  14.326  0.4259  0.1420 -0.5883
 6617SOL    HW131310   2.405   0.497  14.344 -2.3794  1.9048  0.9144
 6617SOL    HW231311   2.449   0.583  14.231 -2.5092 -0.9215 -0.6119
 6618SOL     OW31312   2.780   0.778  13.118 -0.1055  0.1098  0.6214
 6618SOL    HW131313   2.874   0.789  13.103  0.0251  0.7650  2.0398
 6618SOL    HW231314   2.737   0.810  13.039  0.4356 -0.4549  0.0894
 6619SOL     OW31315   3.853   4.127  17.519  0.3130  0.4252  0.2073
 6619SOL    HW131316   3.863   4.188  17.593 -0.7712  3.1227 -1.8490
 6619SOL    HW231317   3.940   4.151  17.488  0.3455 -1.6455 -1.2836
 6620SOL     OW31318   3.204   2.318   5.094  0.0945 -0.4461 -0.1124
 6620SOL    HW131319   3.126   2.269   5.069  0.1627 -0.5891 -0.0429
 6620SOL    HW231320   3.248   2.252   5.148 -1.1316 -0.6134  0.6881
 6621SOL     OW31321   4.673   4.253   4.161  0.1521  0.1016 -0.1607
 6621SOL    HW131322   4.693   4.163   4.138 -0.0667 -0.7128  2.8600
 6621SOL    HW231323   0.035   4.278   4.198  0.6295 -0.7309 -0.7008
 6622SOL     OW31324   4.320   2.916   4.204  0.2916  0.2699 -0.0235
 6622SOL    HW131325   4.382   2.968   4.152 -0.7057 -0.0919 -1.5705
 6622SOL    HW231326   4.262   2.898   4.130 -1.2333  0.0278  1.2477
 6623SOL     OW31327   0.755   4.087  15.918 -0.4270  0.0097  0.2446
 6623SOL    HW131328   0.789   4.119  16.002  1.9274 -0.0849 -0.6552
 6623SOL    HW231329   0.697   4.159  15.892 -1.4198 -0.1186  2.1314
 6624SOL     OW31330   2.558   0.540   6.936 -0.0966  0.2119 -0.0184
 6624SOL    HW131331   2.587   0.624   6.972 -0.9972  0.2648  0.5636
 6624SOL    HW231332   2.523   0.498   7.014  0.1177 -0.1374 -0.1080
 6625SOL     OW31333   2.656   2.605   3.493  0.7293  0.1284 -0.1191
 6625SOL    HW131334   2.729   2.577   3.437 -0.8722 -1.1162 -1.6006
 6625SOL    HW231335   2.582   2.565   3.446 -1.9956  0.7905  3.6144
 6626SOL     OW31336   2.024   2.141   5.968  0.1978  0.2166  0.2844
 6626SOL    HW131337   1.956   2.144   6.035 -0.7570 -0.7615 -0.6347
 6626SOL    HW231338   2.016   2.049   5.942 -1.2874  0.9781 -1.9271
 6627SOL     OW31339   4.395   3.468   7.370 -0.0996  0.2400  0.3859
 6627SOL    HW131340   4.399   3.373   7.354 -0.3208  0.6096 -1.8529
 6627SOL    HW231341   4.371   3.484   7.461  1.6620  0.8920  0.7291
 6628SOL     OW31342   1.870   4.481  13.568 -0.0741 -0.3899  0.2177
 6628SOL    HW131343   1.925   4.459  13.493  0.2132 -0.4848  0.4523
 6628SOL    HW231344   1.818   4.551  13.528 -2.2852 -2.9714 -1.4207
 6629SOL     OW31345   2.958   1.718  15.205 -0.6324 -0.1189  0.0364
 6629SOL    HW131346   2.938   1.768  15.125 -0.3142  0.7433  0.4945
 6629SOL    HW231347   3.034   1.764  15.240 -0.1790 -2.3583  1.9797
 6630SOL     OW31348   0.721   3.539   6.052 -0.0778  0.1890 -0.1384
 6630SOL    HW131349   0.674   3.595   6.113  1.4624  1.0914  0.2009
 6630SOL    HW231350   0.656   3.524   5.983 -0.1870  0.2462 -0.0475
 6631SOL     OW31351   1.776   1.635   8.224  0.4745 -0.0223 -0.3116
 6631SOL    HW131352   1.795   1.657   8.315 -1.6636 -0.2666  0.2011
 6631SOL    HW231353   1.740   1.716   8.188  0.4585  0.8173  1.6288
 6632SOL     OW31354   2.227   4.328   1.196  0.0042  0.5336 -0.8108
 6632SOL    HW131355   2.250   4.353   1.106  0.2845  2.1378 -0.2870
 6632SOL    HW231356   2.209   4.416   1.228 -0.3344 -0.0850  0.7196
 6633SOL     OW31357   2.743   3.184   3.170  0.0549  0.2162 -0.0001
 6633SOL    HW131358   2.741   3.186   3.074  1.7719  1.0637 -0.0225
 6633SOL    HW231359   2.649   3.189   3.182  0.1680  2.0897  0.2293
 6634SOL     OW31360   3.632   3.660  13.084 -0.2050 -0.1249 -0.2292
 6634SOL    HW131361   3.727   3.661  13.082 -0.1817 -1.2915 -0.0215
 6634SOL    HW231362   3.604   3.751  13.073 -0.7942 -0.4138 -1.1483
 6635SOL     OW31363   0.067   0.838  12.564  0.1014  0.3223  0.1351
 6635SOL    HW131364   0.037   0.859  12.653  0.2730 -0.3328  0.3519
 6635SOL    HW231365   0.158   0.867  12.573  0.0155  0.7788 -0.5104
 6636SOL     OW31366   0.039   2.466  12.041 -0.5022  0.3657  0.1948
 6636SOL    HW131367   0.109   2.528  12.018  0.7955 -1.3840 -0.5545
 6636SOL    HW231368   4.691   2.476  11.978 -1.5412 -0.5296  1.2301
 6637SOL     OW31369   2.551   2.502   2.112  0.2505  0.0245 -1.0808
 6637SOL    HW131370   2.564   2.450   2.191 -3.2340  1.5799  0.5109
 6637SOL    HW231371   2.640   2.494   2.077  1.9347  0.7290  2.9476
 6638SOL     OW31372   0.842   2.401   4.154  0.2163 -0.7760  0.0421
 6638SOL    HW131373   0.922   2.448   4.179 -0.6964  1.3118 -0.9552
 6638SOL    HW231374   0.790   2.474   4.120  0.0401 -1.1455 -0.4730
 6639SOL     OW31375   4.347   4.284   3.114  0.4236 -0.4817  0.4142
 6639SOL    HW131376   4.392   4.199   3.110 -1.0223 -1.2113 -0.1613
 6639SOL    HW231377   4.381   4.328   3.036 -1.7657  0.2822 -0.0884
 6640SOL     OW31378   2.725   3.076   8.373  0.5987 -0.1353 -0.2462
 6640SOL    HW131379   2.690   3.106   8.456  1.7816 -0.5937  0.4162
 6640SOL    HW231380   2.818   3.095   8.384 -0.0430  1.7862  1.6627
 6641SOL     OW31381   2.903   0.707   4.074 -0.1631 -0.2989  0.3441
 6641SOL    HW131382   2.950   0.667   4.000  1.7526  3.5627 -0.5559
 6641SOL    HW231383   2.948   0.792   4.078 -2.4273  0.9884 -1.4619
 6642SOL     OW31384   0.078   2.593   6.068 -0.7280 -0.6198  0.2975
 6642SOL    HW131385   0.133   2.540   6.126 -0.6298 -0.7779  0.0624
 6642SOL    HW231386   0.008   2.625   6.125 -1.9345 -2.1976 -0.2670
 6643SOL     OW31387   0.932   1.396   8.904  0.9806  0.4287  0.0783
 6643SOL    HW131388   0.969   1.332   8.965  1.3832  0.5546 -0.0339
 6643SOL    HW231389   1.001   1.459   8.885  0.9296  0.4072 -0.1694
 6644SOL     OW31390   3.746   2.450   0.461  0.3017  0.0028  0.1685
 6644SOL    HW131391   3.734   2.411   0.547  0.0326 -0.3655 -0.0375
 6644SOL    HW231392   3.779   2.532   0.499 -0.2779  0.0539  0.5513
 6645SOL     OW31393   0.678   2.196  11.449 -0.0522  0.1333  0.4984
 6645SOL    HW131394   0.733   2.219  11.524 -0.4135  0.3486  0.6971
 6645SOL    HW231395   0.679   2.272  11.391 -1.6690  0.5030  0.9589
 6646SOL     OW31396   2.289   1.213   1.957  0.3163  0.7437 -0.6979
 6646SOL    HW131397   2.264   1.224   2.049  1.1707  0.1747 -0.3987
 6646SOL    HW231398   2.365   1.270   1.947 -1.6499  3.3805 -0.6012
 6647SOL     OW31399   2.552   0.531  15.513 -0.3051 -0.3391 -0.0987
 6647SOL    HW131400   2.571   0.512  15.605 -0.9784 -0.9685 -0.0900
 6647SOL    HW231401   2.593   0.618  15.510 -1.6841  0.4336  3.3993
 6648SOL     OW31402   2.788   0.742   6.446  0.4769 -0.4455  0.0318
 6648SOL    HW131403   2.857   0.688   6.408 -0.2636  0.9907 -3.3823
 6648SOL    HW231404   2.798   0.826   6.401 -1.0463 -1.4669 -2.1951
 6649SOL     OW31405   2.166   1.878   2.075  0.1481 -0.4180 -0.2361
 6649SOL    HW131406   2.093   1.867   2.013  1.4996  1.7538 -2.1791
 6649SOL    HW231407   2.147   1.969   2.096 -1.8620 -0.3385 -2.3827
 6650SOL     OW31408   1.880   0.448   6.041  0.0690 -0.2590 -0.0554
 6650SOL    HW131409   1.946   0.510   6.011  0.4431  0.4809  2.2788
 6650SOL    HW231410   1.835   0.490   6.114 -0.4213  0.7481 -0.9530
 6651SOL     OW31411   0.601   4.060   5.167  0.7291 -0.2925  0.3107
 6651SOL    HW131412   0.596   4.089   5.076 -1.4436 -2.2149 -0.1712
 6651SOL    HW231413   0.540   4.115   5.217 -1.4073 -1.5868 -0.8804
 6652SOL     OW31414   1.180   2.860   2.706 -0.4523  0.2070  0.4407
 6652SOL    HW131415   1.228   2.934   2.668  1.2005 -0.6987  0.7758
 6652SOL    HW231416   1.172   2.800   2.632  0.4939  0.5078  0.1011
 6653SOL     OW31417   0.994   1.685   3.692  0.2071 -0.1992  0.6917
 6653SOL    HW131418   0.980   1.677   3.598  0.3671  3.0295  0.4223
 6653SOL    HW231419   1.082   1.648   3.684  0.2771  0.2672 -0.6935
 6654SOL     OW31420   4.690   1.115   6.204  0.1622 -0.1878 -0.2264
 6654SOL    HW131421   0.056   1.138   6.179 -0.1214  1.7291  0.4895
 6654SOL    HW231422   4.659   1.077   6.121  0.0246  0.3504 -0.4268
 6655SOL     OW31423   1.112   4.422  13.374  0.6189  0.1172 -0.3604
 6655SOL    HW131424   1.127   4.360  13.303  1.7670 -0.6448  0.5348
 6655SOL    HW231425   1.095   4.502  13.324 -0.5093  0.1790  0.1227
 6656SOL     OW31426   2.898   2.040   1.101  0.4029 -0.0567  0.6311
 6656SOL    HW131427   2.924   2.130   1.080  2.0766 -0.9866 -1.2644
 6656SOL    HW231428   2.927   1.993   1.023 -1.2252  0.2094 -0.1361
 6657SOL     OW31429   1.648   0.550   6.206  0.4662 -0.4001  0.0840
 6657SOL    HW131430   1.636   0.583   6.295  1.2425 -0.0996  0.0715
 6657SOL    HW231431   1.592   0.472   6.212 -1.5051  0.9006 -1.3134
 6658SOL     OW31432   2.618   0.549   3.186 -0.5808 -0.3287  0.3264
 6658SOL    HW131433   2.705   0.544   3.146 -1.6867 -2.9187 -1.8139
 6658SOL    HW231434   2.630   0.508   3.272  0.6638 -2.0431 -0.6510
 6659SOL     OW31435   0.672   2.317  12.910 -0.6472 -0.3088  0.4853
 6659SOL    HW131436   0.708   2.229  12.898 -1.1488 -0.3324 -0.9110
 6659SOL    HW231437   0.580   2.293  12.914 -0.9913  0.9376  0.2925
 6660SOL     OW31438   2.882   2.144   8.429 -0.4217  0.2300 -0.1782
 6660SOL    HW131439   2.900   2.166   8.338 -1.5244  1.5835 -0.0692
 6660SOL    HW231440   2.967   2.113   8.460  0.6395  1.3739 -1.9749
 6661SOL     OW31441   0.958   2.969   8.650 -0.2945  0.2659 -0.2823
 6661SOL    HW131442   1.043   3.004   8.622 -1.2565  1.6990 -1.3526
 6661SOL    HW231443   0.990   2.919   8.725  0.7423  0.7842 -0.3730
 6662SOL     OW31444   2.043   2.840   7.363 -0.1771  0.4512 -0.1409
 6662SOL    HW131445   2.025   2.748   7.343  2.3451  0.4233 -2.3331
 6662SOL    HW231446   2.128   2.841   7.407 -1.1180  0.2476  1.6813
 6663SOL     OW31447   0.960   2.668   7.298  0.0504 -0.0742 -0.2190
 6663SOL    HW131448   1.013   2.653   7.220  1.0367 -1.9200  0.8177
 6663SOL    HW231449   0.974   2.762   7.310  0.8345 -0.0385 -1.4114
 6664SOL     OW31450   1.644   0.291  13.215  0.3982  0.1320  0.0919
 6664SOL    HW131451   1.677   0.330  13.134 -0.7901  0.5799 -0.1798
 6664SOL    HW231452   1.565   0.242  13.195  0.3091 -0.3173  1.5380
 6665SOL     OW31453   1.145   2.284  12.301  0.2546  0.5098 -0.2698
 6665SOL    HW131454   1.173   2.327  12.382 -0.6494 -0.4283  0.5459
 6665SOL    HW231455   1.143   2.359  12.241 -1.3754 -0.2984 -1.2226
 6666SOL     OW31456   4.206   2.501  10.584 -0.5425  0.3938 -0.2181
 6666SOL    HW131457   4.172   2.428  10.532  0.1893  1.2552 -1.9073
 6666SOL    HW231458   4.293   2.470  10.610 -1.3376 -0.9321  0.8819
 6667SOL     OW31459   4.715   4.132   3.834  0.1163 -0.0274  0.1843
 6667SOL    HW131460   0.059   4.164   3.894  0.0026 -1.0816  0.8596
 6667SOL    HW231461   0.048   4.134   3.756 -0.3125 -0.3209 -0.1342
 6668SOL     OW31462   2.256   4.056   7.674  0.2712 -0.2078 -0.6578
 6668SOL    HW131463   2.335   4.019   7.712  0.3911  0.5290 -0.1780
 6668SOL    HW231464   2.289   4.139   7.639  0.7015 -0.9237 -1.9245
 6669SOL     OW31465   4.698   3.856   5.392 -0.1577  0.3068 -0.3458
 6669SOL    HW131466   4.690   3.837   5.298  2.7094 -0.4767 -0.4088
 6669SOL    HW231467   4.643   3.788   5.431  2.9403 -1.7167  0.4538
 6670SOL     OW31468   3.276   2.197  16.314  0.0600 -0.2787  0.0972
 6670SOL    HW131469   3.337   2.261  16.278  0.4501 -0.1462  0.9896
 6670SOL    HW231470   3.231   2.249  16.381 -0.6364  0.8368 -1.2373
 6671SOL     OW31471   2.780   3.025   2.369 -0.0703  0.0975 -0.3554
 6671SOL    HW131472   2.856   3.021   2.310 -1.1023 -1.7598 -1.5400
 6671SOL    HW231473   2.716   2.981   2.313 -0.6404  0.6904 -0.1704
 6672SOL     OW31474   2.343   0.413   0.652 -0.2476 -0.0593 -0.1555
 6672SOL    HW131475   2.258   0.377   0.628  0.6441 -0.9071 -2.0468
 6672SOL    HW231476   2.320   0.490   0.704 -0.1148 -0.6992  0.8373
 6673SOL     OW31477   4.196   4.601   4.930  0.0402  0.2144 -0.1683
 6673SOL    HW131478   4.105   4.624   4.911 -0.1008  1.5399  2.0744
 6673SOL    HW231479   4.188   4.512   4.896 -1.8305  0.2422  0.2070
 6674SOL     OW31480   2.939   4.273  13.531 -0.4280 -0.4035 -0.4417
 6674SOL    HW131481   2.899   4.348  13.574  0.7280  0.1766 -0.3844
 6674SOL    HW231482   2.968   4.226  13.609 -1.8986 -2.5931 -1.2258
 6675SOL     OW31483   4.136   3.778   1.350  0.1924  1.0267 -0.3965
 6675SOL    HW131484   4.198   3.752   1.418 -0.7864 -0.9388 -0.2552
 6675SOL    HW231485   4.119   3.693   1.310 -0.4341  1.7463 -1.6558
 6676SOL     OW31486   0.140   1.065   8.111  0.7483  0.3306  0.1270
 6676SOL    HW131487   0.141   1.047   8.205 -1.3967 -0.7829 -0.0621
 6676SOL    HW231488   0.158   0.981   8.070 -1.9978 -0.1817 -0.0270
 6677SOL     OW31489   1.571   0.429   3.150 -0.0549  0.3993  0.2140
 6677SOL    HW131490   1.598   0.374   3.223 -1.5696 -1.3249 -0.5191
 6677SOL    HW231491   1.622   0.388   3.080 -0.1404  3.4746 -1.6281
 6678SOL     OW31492   2.679   1.510  11.314 -0.2107 -0.0312 -0.3700
 6678SOL    HW131493   2.661   1.580  11.378 -0.3836  1.0696 -1.6228
 6678SOL    HW231494   2.774   1.514  11.317 -0.2133 -2.0940  2.6573
 6679SOL     OW31495   2.518   2.419   4.090  0.1566  0.1328 -0.1857
 6679SOL    HW131496   2.597   2.413   4.037  0.3735 -0.5123  0.2130
 6679SOL    HW231497   2.440   2.411   4.035 -1.0960  0.1721  1.5777
 6680SOL     OW31498   4.601   0.823   2.928  0.2806 -0.3126 -0.3813
 6680SOL    HW131499   4.631   0.910   2.901  0.3387  0.2193  1.3957
 6680SOL    HW231500   4.559   0.833   3.013 -1.6803 -0.4642 -1.3452
 6681SOL     OW31501   2.983   1.219  16.355 -0.3155  0.2114  0.0421
 6681SOL    HW131502   3.043   1.276  16.306  1.2237 -1.1493  0.3780
 6681SOL    HW231503   2.925   1.193  16.283  0.6217 -0.3798 -0.4978
 6682SOL     OW31504   1.464   1.850   1.983 -0.0940 -0.0000 -0.0321
 6682SOL    HW131505   1.476   1.763   2.021 -1.4973 -0.0056  0.3841
 6682SOL    HW231506   1.383   1.866   2.032  1.0339  0.3937  1.7250
 6683SOL     OW31507   2.762   2.101   4.599 -0.0442  0.2455 -0.5232
 6683SOL    HW131508   2.804   2.177   4.558 -0.9146  1.4276  0.8097
 6683SOL    HW231509   2.812   2.034   4.551  2.4628  0.9061  1.1601
 6684SOL     OW31510   2.003   3.826  16.410  0.4446 -0.4180 -0.0858
 6684SOL    HW131511   1.942   3.894  16.383 -0.3914 -1.3417 -0.5411
 6684SOL    HW231512   1.942   3.778  16.467 -0.6498 -0.3988 -1.2356
 6685SOL     OW31513   0.847   3.762   2.239 -0.2883  0.0798 -0.3851
 6685SOL    HW131514   0.762   3.752   2.281  0.9949 -0.3399  2.1436
 6685SOL    HW231515   0.880   3.673   2.253  1.8707  0.3906 -3.3303
 6686SOL     OW31516   2.164   0.898   4.860  0.2054 -0.3908  0.5826
 6686SOL    HW131517   2.088   0.948   4.888 -0.4510  0.2382 -2.3632
 6686SOL    HW231518   2.160   0.833   4.930  0.7382 -0.7664  0.2742
 6687SOL     OW31519   4.219   4.416   6.454 -0.9829  0.4172  0.1130
 6687SOL    HW131520   4.162   4.438   6.381 -1.8474  0.1778  0.7076
 6687SOL    HW231521   4.153   4.394   6.520 -0.0529  3.4683  2.0467
 6688SOL     OW31522   3.951   1.361   0.045  0.6219  0.6468 -0.2086
 6688SOL    HW131523   3.990   1.301   0.109 -0.8016 -1.4596 -1.3471
 6688SOL    HW231524   3.897   1.298  17.692  0.4805  1.9931 -1.8574
 6689SOL     OW31525   0.316   0.759   6.949  0.7243  0.7333  0.1181
 6689SOL    HW131526   0.228   0.726   6.970  1.1337  1.9432  3.7758
 6689SOL    HW231527   0.303   0.851   6.929 -0.6365  0.5601  0.1429
 6690SOL     OW31528   0.621   3.693   4.715 -0.0410  0.3556 -0.2310
 6690SOL    HW131529   0.578   3.623   4.667  1.1686 -0.3790 -0.2380
 6690SOL    HW231530   0.551   3.758   4.720 -0.6266 -0.1970 -1.3734
 6691SOL     OW31531   1.685   2.098   9.698 -0.0691  0.9456  0.3740
 6691SOL    HW131532   1.699   2.147   9.617 -1.7126  1.4085  0.3663
 6691SOL    HW231533   1.660   2.167   9.759  0.2049  1.1847  0.2165
 6692SOL     OW31534   1.982   4.495   8.441 -0.0602  0.0060 -0.7518
 6692SOL    HW131535   2.067   4.521   8.405  1.0496 -2.7148 -0.1554
 6692SOL    HW231536   1.943   4.582   8.444  1.1139  0.5378 -0.5506
 6693SOL     OW31537   2.928   1.263  11.070  0.0914  0.7826 -0.4822
 6693SOL    HW131538   2.850   1.267  11.125  1.8370 -1.0102  2.1154
 6693SOL    HW231539   2.979   1.198  11.118  0.2863  0.6038 -0.9330
 6694SOL     OW31540   2.073   0.496   7.984  0.5419 -0.0303 -0.2147
 6694SOL    HW131541   2.097   0.585   8.009  0.1881 -0.5825  2.1188
 6694SOL    HW231542   1.993   0.482   8.035  0.8821 -1.9246 -0.1703
 6695SOL     OW31543   1.824   2.936  13.453 -0.4792 -1.1799  0.0336
 6695SOL    HW131544   1.866   2.870  13.399  1.9657  0.2989  0.1247
 6695SOL    HW231545   1.834   3.016  13.402  0.0815  0.2343  2.3356
 6696SOL     OW31546   0.779   3.509  14.561  0.9180  0.2215 -0.5783
 6696SOL    HW131547   0.755   3.580  14.620  0.7894  0.6344 -1.1365
 6696SOL    HW231548   0.695   3.487  14.521  0.2141  3.6009 -0.9245
 6697SOL     OW31549   2.933   3.138  10.748  0.1262  0.5842  0.1434
 6697SOL    HW131550   2.978   3.221  10.764  0.9733  0.0806  0.3589
 6697SOL    HW231551   2.844   3.162  10.773 -0.2915  0.6230 -1.3763
 6698SOL     OW31552   3.100   1.738  11.118  0.1449 -0.0609 -0.7711
 6698SOL    HW131553   3.175   1.679  11.130 -0.3911 -0.5529  0.1457
 6698SOL    HW231554   3.137   1.823  11.141  0.2258  0.1086 -1.5233
 6699SOL     OW31555   1.079   4.351   9.829 -0.0927 -0.6722  0.4468
 6699SOL    HW131556   1.174   4.342   9.839 -0.0022  0.5573  0.7226
 6699SOL    HW231557   1.052   4.263   9.851 -0.6350 -0.5959  0.0777
 6700SOL     OW31558   3.163   1.463  16.394  0.4474  0.3347  0.5380
 6700SOL    HW131559   3.254   1.434  16.391  0.0122 -0.8925 -0.5016
 6700SOL    HW231560   3.175   1.558  16.387 -2.1964  0.6560  0.3391
 6701SOL     OW31561   0.511   3.585   0.126  0.3813  0.6324  0.7394
 6701SOL    HW131562   0.487   3.575   0.218 -2.3725 -4.0854 -0.4967
 6701SOL    HW231563   0.532   3.492   0.119 -1.4800  0.3737 -1.6006
 6702SOL     OW31564   0.345   2.935   5.690 -0.7538  0.2782 -0.3538
 6702SOL    HW131565   0.421   2.991   5.678 -1.5838  1.7266  1.0363
 6702SOL    HW231566   0.294   2.978   5.759  0.7291  0.7184  0.4692
 6703SOL     OW31567   1.078   0.475  13.674 -0.1704  0.0334  0.1101
 6703SOL    HW131568   1.023   0.396  13.667 -0.4676  0.0594  2.2439
 6703SOL    HW231569   1.118   0.466  13.761 -0.7540  0.5699  0.4338
 6704SOL     OW31570   2.195   1.758  11.426 -0.2578  0.1681  0.1246
 6704SOL    HW131571   2.239   1.815  11.489 -1.6640  0.6267  0.6830
 6704SOL    HW231572   2.265   1.728  11.367 -0.1081  1.3439 -0.3013
 6705SOL     OW31573   1.132   2.096  15.146  0.3819  0.2850 -0.2043
 6705SOL    HW131574   1.128   2.035  15.072  1.1632 -1.6573  1.3771
 6705SOL    HW231575   1.206   2.143  15.109  0.1263  0.1849 -0.8454
 6706SOL     OW31576   1.779   0.143   9.239  0.0878 -0.5042 -0.0065
 6706SOL    HW131577   1.861   0.094   9.247 -0.5294 -1.2801  1.6504
 6706SOL    HW231578   1.791   0.214   9.303 -0.1738 -0.8677  0.4448
 6707SOL     OW31579   0.154   3.538   0.340  0.3711  0.4984  0.4190
 6707SOL    HW131580   0.248   3.559   0.346  0.3192  1.0109 -0.6936
 6707SOL    HW231581   0.162   3.526   0.246 -0.6152 -0.2047  0.4298
 6708SOL     OW31582   2.023   0.455  11.132 -0.3738 -0.0289  0.9009
 6708SOL    HW131583   1.956   0.523  11.136  1.5902  1.7792  2.6899
 6708SOL    HW231584   2.071   0.491  11.058  1.8162  1.2648  2.9478
 6709SOL     OW31585   0.026   0.500   8.092 -0.5088 -0.0719  0.3747
 6709SOL    HW131586   0.021   0.409   8.122  1.3288 -0.5781 -0.8647
 6709SOL    HW231587   4.682   0.526   8.029 -1.0088 -1.5210  0.3038
 6710SOL     OW31588   4.046   0.539   3.090  0.2577 -0.1910 -0.7888
 6710SOL    HW131589   3.969   0.583   3.054 -0.9425 -0.8532  0.9849
 6710SOL    HW231590   4.089   0.493   3.018  2.2034  1.3085 -0.6063
 6711SOL     OW31591   3.195   2.848  13.189  1.3809 -0.1651 -0.7986
 6711SOL    HW131592   3.207   2.789  13.115  1.1822 -0.1775 -0.8205
 6711SOL    HW231593   3.240   2.806  13.262 -0.9335 -0.4962  0.4470
 6712SOL     OW31594   1.630   2.637   5.811  0.3231  0.1060 -0.1949
 6712SOL    HW131595   1.572   2.615   5.884  2.3944 -0.9205  1.1528
 6712SOL    HW231596   1.574   2.672   5.742 -0.1684  0.1808  0.2420
 6713SOL     OW31597   3.228   1.732  11.450  0.7322  0.5984  0.2956
 6713SOL    HW131598   3.133   1.727  11.442  0.8246  0.4342 -0.6275
 6713SOL    HW231599   3.257   1.789  11.379  0.3862  2.2597  1.4821
 6714SOL     OW31600   4.501   1.658  15.449 -0.0735 -0.4346 -0.2250
 6714SOL    HW131601   4.436   1.662  15.379  1.3777  1.0064 -1.4573
 6714SOL    HW231602   4.585   1.649  15.405 -0.5603 -1.8155 -0.8747
 6715SOL     OW31603   1.006   3.078  11.114  0.3258  0.2669 -0.8506
 6715SOL    HW131604   1.027   2.985  11.106 -0.8642 -0.0713 -0.0192
 6715SOL    HW231605   0.923   3.067  11.160  0.8371  1.2928  0.3250
 6716SOL     OW31606   0.755   1.986  12.139  0.1389 -0.5849 -0.4305
 6716SOL    HW131607   0.833   1.933  12.158  0.1405 -0.6164 -0.5296
 6716SOL    HW231608   0.759   2.002  12.045  0.0306  0.5221 -0.2399
 6717SOL     OW31609   2.587   0.379   7.619  0.1517  0.2827  0.6580
 6717SOL    HW131610   2.584   0.346   7.530  1.0550  0.1600  0.6681
 6717SOL    HW231611   2.658   0.330   7.662  0.3069 -0.4243 -0.4271
 6718SOL     OW31612   2.864   2.530  14.925  0.2667  0.4152  0.1924
 6718SOL    HW131613   2.868   2.544  14.830 -0.8791 -1.5631 -0.1375
 6718SOL    HW231614   2.805   2.599  14.955 -2.1180 -1.3569 -0.4311
 6719SOL     OW31615   3.793   2.177   7.063 -0.6994  0.4679  0.1399
 6719SOL    HW131616   3.794   2.224   7.147 -3.2852  1.1250 -0.1917
 6719SOL    HW231617   3.707   2.206   7.031 -0.9648 -0.2757  0.1956
 6720SOL     OW31618   0.242   3.356   8.420 -0.6011 -0.3849 -0.4655
 6720SOL    HW131619   0.199   3.307   8.350  0.4912 -0.1714 -1.2692
 6720SOL    HW231620   0.271   3.430   8.367 -1.7184 -0.2430 -0.8843
 6721SOL     OW31621   1.801   3.723   3.218  0.1725  0.2371 -0.3264
 6721SOL    HW131622   1.878   3.667   3.229  0.5194  0.7400 -0.2412
 6721SOL    HW231623   1.771   3.706   3.129 -0.6182  1.5292 -0.2976
 6722SOL     OW31624   1.977   1.509   0.550  0.1359 -0.3689 -0.0207
 6722SOL    HW131625   2.022   1.544   0.626 -0.4625 -0.7013  0.4876
 6722SOL    HW231626   1.893   1.480   0.586 -0.5824  2.0982  0.2809
 6723SOL     OW31627   1.879   3.971   5.772  0.2674 -0.0539  0.6806
 6723SOL    HW131628   1.862   4.005   5.684 -1.0741 -2.7732 -0.0928
 6723SOL    HW231629   1.856   4.047   5.825  1.5579  1.8411 -1.4612
 6724SOL     OW31630   4.252   1.305   4.894  0.8689  0.4375  0.0762
 6724SOL    HW131631   4.188   1.377   4.895  3.0632  2.4035 -1.9600
 6724SOL    HW231632   4.203   1.237   4.940  0.1419  1.1611  0.3687
 6725SOL     OW31633   3.667   1.956   3.328 -0.0135  0.3513  0.2319
 6725SOL    HW131634   3.635   2.035   3.286 -0.4262 -0.7467 -1.5072
 6725SOL    HW231635   3.639   1.889   3.265  0.8738 -0.8956  1.1564
 6726SOL     OW31636   0.537   4.128   3.236 -0.1459 -0.5520  0.0424
 6726SOL    HW131637   0.562   4.217   3.262 -1.4154  0.2685 -1.4994
 6726SOL    HW231638   0.479   4.137   3.160  1.5914 -1.7181 -1.4257
 6727SOL     OW31639   3.979   0.942   5.980 -0.3627 -1.0872 -0.0152
 6727SOL    HW131640   3.938   0.864   6.017 -0.4559  0.1827  2.5598
 6727SOL    HW231641   3.935   1.016   6.021  2.4770  0.2880  0.5422
 6728SOL     OW31642   0.868   0.285   9.257 -0.1698 -0.2994 -0.2444
 6728SOL    HW131643   0.846   0.210   9.312 -0.2077  1.7612  2.5844
 6728SOL    HW231644   0.920   0.242   9.189 -0.2068  1.5817 -1.4625
 6729SOL     OW31645   1.881   3.812  11.297  0.2399 -0.3908  0.4922
 6729SOL    HW131646   1.941   3.800  11.370 -1.3191 -2.2089  1.4665
 6729SOL    HW231647   1.801   3.794  11.345  1.3541  0.5765  2.7114
 6730SOL     OW31648   3.076   0.576  13.691 -0.4895  0.1916 -0.3341
 6730SOL    HW131649   3.038   0.652  13.735 -1.2589  0.8072 -2.0757
 6730SOL    HW231650   3.170   0.593  13.700 -0.5774 -0.3466  1.5895
 6731SOL     OW31651   2.289   3.429   7.550  0.5503 -0.2469 -0.6155
 6731SOL    HW131652   2.245   3.345   7.562 -1.8328  0.9727 -0.7188
 6731SOL    HW231653   2.281   3.438   7.455  1.4204 -1.8817 -0.8417
 6732SOL     OW31654   4.385   1.370   5.800  0.2882  0.1156  0.5772
 6732SOL    HW131655   4.338   1.401   5.723 -1.3580  0.6830  1.8055
 6732SOL    HW231656   4.317   1.353   5.865  0.0454 -1.2926 -0.0552
 6733SOL     OW31657   1.750   3.907   0.958 -0.2130  0.2282  0.2038
 6733SOL    HW131658   1.820   3.843   0.964  1.2464  1.8366  0.4648
 6733SOL    HW231659   1.798   3.983   0.924  0.8603  0.6067  2.5927
 6734SOL     OW31660   2.313   4.711   6.231 -0.2612 -0.0905 -0.2815
 6734SOL    HW131661   2.407   4.696   6.225 -0.5644 -1.2157 -2.2730
 6734SOL    HW231662   2.284   4.620   6.231  1.4507 -0.6251 -1.1832
 6735SOL     OW31663   4.656   2.809   8.071  0.1728  0.0702  0.4002
 6735SOL    HW131664   4.599   2.821   7.996  0.4060 -0.4827  0.1295
 6735SOL    HW231665   0.015   2.791   8.025 -0.0223 -0.8487  0.4088
 6736SOL     OW31666   1.692   4.475   3.879  0.1883 -0.1072 -0.6891
 6736SOL    HW131667   1.683   4.482   3.974 -3.7269 -1.9952 -0.9170
 6736SOL    HW231668   1.752   4.545   3.853  0.9308  0.3251  2.2042
 6737SOL     OW31669   0.050   1.276   0.844 -0.9679  0.6244  0.3884
 6737SOL    HW131670   0.037   1.237   0.930  1.1196 -1.2237 -0.1451
 6737SOL    HW231671   4.691   1.244   0.807 -0.0100 -0.8211 -0.5022
 6738SOL     OW31672   0.906   1.761  17.021 -0.3644  0.1426  0.1864
 6738SOL    HW131673   0.987   1.730  17.062  0.2571  1.5493  0.0214
 6738SOL    HW231674   0.864   1.811  17.090  2.2813  1.3632  0.9180
 6739SOL     OW31675   0.551   0.987   6.502  0.2963 -0.1318 -0.2190
 6739SOL    HW131676   0.591   0.916   6.452  0.6054  0.4163 -0.7504
 6739SOL    HW231677   0.458   0.964   6.499 -0.2548  2.1795 -1.5110
 6740SOL     OW31678   3.538   4.068  11.618  0.1320  0.2134  0.2602
 6740SOL    HW131679   3.617   4.107  11.582 -0.4094  1.1543  0.0924
 6740SOL    HW231680   3.531   4.090  11.711  0.8361 -0.1691  0.4068
 6741SOL     OW31681   4.277   0.132   7.691 -0.4515 -0.6856  0.7940
 6741SOL    HW131682   4.234   0.047   7.697 -0.4529 -0.8986 -2.1143
 6741SOL    HW231683   4.346   0.115   7.627  1.3090 -0.2049  2.6061
 6742SOL     OW31684   4.419   1.966   6.462 -0.2330 -0.1061  0.1813
 6742SOL    HW131685   4.382   1.974   6.550  1.7245 -0.4590  1.0152
 6742SOL    HW231686   4.471   2.046   6.452  2.0483 -1.7831 -1.2119
 6743SOL     OW31687   3.981   3.115   8.083  0.5484 -0.2457  0.4024
 6743SOL    HW131688   4.033   3.083   8.009 -0.9243 -2.8356  0.4884
 6743SOL    HW231689   3.894   3.122   8.044  1.3754 -2.8138 -1.9657
 6744SOL     OW31690   1.199   3.680  12.090  0.1668 -0.3380  0.0375
 6744SOL    HW131691   1.234   3.726  12.166 -0.8045  1.4274 -0.5982
 6744SOL    HW231692   1.238   3.593  12.091 -2.3995 -1.4874  0.6070
 6745SOL     OW31693   0.495   2.390   9.847  0.3671 -0.2272 -0.4229
 6745SOL    HW131694   0.558   2.320   9.830  1.2146  0.6402 -0.9229
 6745SOL    HW231695   0.444   2.355   9.920 -0.0023  2.3596  0.5689
 6746SOL     OW31696   4.449   3.999   3.521  0.3064  0.1889  0.0023
 6746SOL    HW131697   4.437   4.081   3.473  0.9182 -0.7867 -1.8227
 6746SOL    HW231698   4.529   3.965   3.481  0.4986 -0.9721  1.3879
 6747SOL     OW31699   1.373   0.550  10.058  0.1013 -0.4067  0.3932
 6747SOL    HW131700   1.340   0.546  10.148 -2.6283 -0.6545 -0.6495
 6747SOL    HW231701   1.388   0.644  10.053 -2.8313 -0.0564 -1.6177
 6748SOL     OW31702   2.680   4.527   8.191  0.6137 -0.4152 -0.1415
 6748SOL    HW131703   2.665   4.526   8.097  1.2074 -1.1864 -0.2304
 6748SOL    HW231704   2.604   4.569   8.231 -0.8792 -1.2398 -2.1497
 6749SOL     OW31705   0.987   2.454   2.822 -0.0816 -0.2944  0.2774
 6749SOL    HW131706   0.966   2.540   2.860 -0.8961  0.2111 -1.2851
 6749SOL    HW231707   1.081   2.442   2.834 -0.3950 -1.1452  1.8942
 6750SOL     OW31708   3.199   3.073   4.200  0.0921 -0.0095  0.0655
 6750SOL    HW131709   3.238   3.156   4.174  1.4026  0.2388  2.8018
 6750SOL    HW231710   3.277   3.018   4.186  0.7936  0.2536  2.9110
 6751SOL     OW31711   3.637   4.101   6.153 -0.6710  0.2405  0.6703
 6751SOL    HW131712   3.543   4.093   6.135 -0.5016  1.2888 -0.6635
 6751SOL    HW231713   3.665   4.035   6.089 -0.4227 -1.4635  2.5406
 6752SOL     OW31714   0.060   0.027   5.076 -0.0341 -0.3085  0.1836
 6752SOL    HW131715   0.102   0.090   5.135  1.0492 -1.4343  0.6254
 6752SOL    HW231716   0.014   4.698   5.142  1.5741 -1.1700  0.6320
 6753SOL     OW31717   4.024   0.940  13.512 -0.3065  0.7295 -0.5817
 6753SOL    HW131718   4.082   0.997  13.563 -0.5036  0.4211 -0.0166
 6753SOL    HW231719   4.016   0.991  13.431 -1.6189  0.5047 -0.5877
 6754SOL     OW31720   1.804   4.060   0.207  0.6051  0.0407  0.4435
 6754SOL    HW131721   1.743   4.053   0.134  0.7258  0.4931  0.2975
 6754SOL    HW231722   1.794   4.153   0.230  0.6918 -0.2936  1.8040
 6755SOL     OW31723   1.300   4.545   5.484  0.9986  0.3555 -0.2333
 6755SOL    HW131724   1.275   4.473   5.425 -0.9839  0.2762  0.7032
 6755SOL    HW231725   1.234   4.610   5.459  0.2807 -0.8945 -1.6608
 6756SOL     OW31726   3.498   4.055  12.572 -0.1383  0.5210  0.0395
 6756SOL    HW131727   3.484   4.150  12.570 -3.8336 -0.0477  0.0548
 6756SOL    HW231728   3.594   4.061  12.573 -0.1098  0.1245 -0.2785
 6757SOL     OW31729   0.530   2.306   6.801  0.0022 -0.0989  0.1970
 6757SOL    HW131730   0.593   2.244   6.837 -0.4135 -1.1716 -0.9587
 6757SOL    HW231731   0.586   2.384   6.813 -0.4718  0.3407 -0.4790
 6758SOL     OW31732   1.552   3.685   9.139 -0.1116 -0.4584  0.3042
 6758SOL    HW131733   1.635   3.732   9.137  0.2023 -0.9700  1.2551
 6758SOL    HW231734   1.488   3.750   9.111  1.8543 -0.0154 -3.0434
 6759SOL     OW31735   0.596   3.380   4.191  0.3926 -0.1133 -0.7569
 6759SOL    HW131736   0.669   3.377   4.130 -0.2964 -1.6127 -1.4952
 6759SOL    HW231737   0.567   3.471   4.189  1.0427  0.0680 -1.8053
 6760SOL     OW31738   4.599   4.378  17.384  0.0490  0.1120 -0.1529
 6760SOL    HW131739   4.590   4.459  17.435 -0.8120 -1.3539  2.0350
 6760SOL    HW231740   4.636   4.415  17.304  1.0226  1.4403  0.9107
 6761SOL     OW31741   0.866   3.830   9.992  0.1283 -0.2349 -0.1492
 6761SOL    HW131742   0.798   3.782  10.039  0.6281 -0.0581  0.7531
 6761SOL    HW231743   0.818   3.911  10.007  1.1160  0.4217 -0.4966
 6762SOL     OW31744   2.537   2.683  11.030 -0.9016  0.5911 -0.3590
 6762SOL    HW131745   2.477   2.609  11.044  1.6249 -1.2347  0.8191
 6762SOL    HW231746   2.527   2.694  10.935 -2.0139 -0.3588 -0.3580
 6763SOL     OW31747   3.464   3.692   3.970  0.6883  0.0293 -0.3275
 6763SOL    HW131748   3.383   3.706   3.921 -0.2816 -1.3576  0.8603
 6763SOL    HW231749   3.460   3.743   4.051 -0.1485  0.9805 -0.9593
 6764SOL     OW31750   3.895   2.211   2.011 -0.4357 -1.0236 -0.1452
 6764SOL    HW131751   3.945   2.276   1.962 -1.1148 -1.1087 -0.9362
 6764SOL    HW231752   3.842   2.173   1.941 -1.3434 -0.8700  0.4597
 6765SOL     OW31753   2.166   3.278  15.148 -0.2484  0.1858  0.6466
 6765SOL    HW131754   2.083   3.283  15.101 -0.7012  0.9547  1.5480
 6765SOL    HW231755   2.157   3.347  15.213 -2.8908 -0.7327  1.2356
 6766SOL     OW31756   0.787   3.821   2.871  0.0087 -0.3016  0.0390
 6766SOL    HW131757   0.785   3.824   2.775 -0.5148 -1.3793  0.0113
 6766SOL    HW231758   0.694   3.831   2.891 -0.0092 -2.2104  0.9764
 6767SOL     OW31759   0.931   4.252   2.494 -0.5871  0.3261 -0.0550
 6767SOL    HW131760   0.972   4.278   2.412  0.2823 -1.0376 -0.0544
 6767SOL    HW231761   0.879   4.183   2.453  0.8925 -0.5036 -0.5634
 6768SOL     OW31762   3.184   1.317   6.479  0.4440 -0.0344  0.3157
 6768SOL    HW131763   3.153   1.339   6.567 -0.8608  1.7967 -0.6042
 6768SOL    HW231764   3.251   1.254   6.506  0.6848 -0.4979 -1.4195
 6769SOL     OW31765   3.001   4.064   3.441 -0.4728  0.3474  0.1851
 6769SOL    HW131766   3.088   4.025   3.436 -0.9032 -0.6369  0.3604
 6769SOL    HW231767   3.019   4.144   3.391 -0.1877 -0.8039 -1.5627
 6770SOL     OW31768   3.777   1.720   1.864 -0.0613  0.1064  0.5343
 6770SOL    HW131769   3.692   1.678   1.876  0.2959 -0.4361  1.1604
 6770SOL    HW231770   3.749   1.798   1.816 -0.7495 -0.0378  0.6973
 6771SOL     OW31771   2.489   4.469  10.380 -0.0564 -0.1229  0.1392
 6771SOL    HW131772   2.411   4.524  10.377 -0.0894 -0.1923 -0.1745
 6771SOL    HW231773   2.563   4.524  10.405 -1.3009  1.8955 -0.6447
 6772SOL     OW31774   2.447   3.437   9.113 -0.2949  0.4943  0.5416
 6772SOL    HW131775   2.370   3.413   9.165  0.0508 -0.5003  0.6103
 6772SOL    HW231776   2.500   3.365   9.149  0.7195  2.1527  2.3314
 6773SOL     OW31777   4.194   3.299   8.408  0.4731  0.1429 -0.6836
 6773SOL    HW131778   4.114   3.246   8.405 -0.1632  0.9775  0.9856
 6773SOL    HW231779   4.165   3.389   8.394  2.8211  1.0555  0.2878
 6774SOL     OW31780   2.644   1.803   7.804 -0.0499  0.2593 -0.0289
 6774SOL    HW131781   2.581   1.837   7.740 -0.3209  0.8392  0.5544
 6774SOL    HW231782   2.657   1.713   7.772 -0.5506  1.2941 -3.0956
 6775SOL     OW31783   3.378   0.451  11.220  0.4070 -0.0044  0.0297
 6775SOL    HW131784   3.332   0.502  11.154 -2.1320 -0.8932  1.1227
 6775SOL    HW231785   3.410   0.375  11.171  1.1518 -0.8919  1.8469
 6776SOL     OW31786   1.283   3.738   3.903 -0.4519  0.1141  0.1559
 6776SOL    HW131787   1.309   3.647   3.918  2.7410  0.6280 -2.2959
 6776SOL    HW231788   1.246   3.765   3.987  3.3486 -0.7584  2.1571
 6777SOL     OW31789   3.283   3.341  14.629  0.6614 -0.0902  0.2146
 6777SOL    HW131790   3.220   3.350  14.557 -1.0315  2.4836  2.0420
 6777SOL    HW231791   3.253   3.259  14.670 -0.6264  1.2258  1.8842
 6778SOL     OW31792   1.679   3.285   8.921 -0.2911  0.0752  0.0065
 6778SOL    HW131793   1.687   3.195   8.890 -0.4783  0.0470  0.0400
 6778SOL    HW231794   1.586   3.307   8.917  0.0562  1.2262 -1.5062
 6779SOL     OW31795   1.088   3.730  11.201 -0.6426  0.7869  0.2712
 6779SOL    HW131796   1.103   3.822  11.181 -1.1352  0.8155  0.0273
 6779SOL    HW231797   1.159   3.687  11.153  0.2229  1.7243  0.7123
 6780SOL     OW31798   3.534   0.595   7.126 -0.3219  0.0339  0.7406
 6780SOL    HW131799   3.456   0.552   7.162 -0.8012 -0.4718 -0.8518
 6780SOL    HW231800   3.554   0.519   7.070 -2.1535 -0.6829  1.0448
 6781SOL     OW31801   1.330   0.120   4.263  0.8471 -0.0144 -0.2058
 6781SOL    HW131802   1.380   0.201   4.251  1.7061 -0.9853 -3.1735
 6781SOL    HW231803   1.244   0.150   4.293  0.6838 -1.9099  1.1917
 6782SOL     OW31804   1.876   0.487   5.258  0.7566  0.1816  0.1044
 6782SOL    HW131805   1.873   0.579   5.282  4.1219 -0.3619  2.6546
 6782SOL    HW231806   1.936   0.452   5.324 -3.1846 -0.7122  3.2261
 6783SOL     OW31807   4.208   3.656  13.113 -0.1595  0.2209 -0.4589
 6783SOL    HW131808   4.261   3.576  13.112 -0.6811 -0.1209 -0.4560
 6783SOL    HW231809   4.136   3.635  13.172  0.6910 -2.3989 -0.3578
 6784SOL     OW31810   1.125   4.446   4.562  0.5403  0.4114 -0.3015
 6784SOL    HW131811   1.095   4.536   4.573  0.5447  0.5270 -1.2492
 6784SOL    HW231812   1.114   4.403   4.647  1.6665 -0.4109 -0.5741
 6785SOL     OW31813   4.010   3.350   8.840  0.5788  0.3274  0.3636
 6785SOL    HW131814   4.083   3.309   8.794  0.3646 -1.0281  1.2384
 6785SOL    HW231815   3.954   3.365   8.764  1.5708 -1.7493 -0.7752
 6786SOL     OW31816   2.775   4.497  12.579  0.1300  0.3135 -0.4383
 6786SOL    HW131817   2.822   4.559  12.634  0.8007  0.1052 -0.7780
 6786SOL    HW231818   2.846   4.453  12.532 -0.2343 -0.5830 -0.1468
 6787SOL     OW31819   4.572   1.347   3.679 -0.1685 -0.3097 -0.1465
 6787SOL    HW131820   4.633   1.419   3.658 -1.7997  1.4862  1.2813
 6787SOL    HW231821   4.506   1.409   3.711  0.3430 -0.4273  1.1255
 6788SOL     OW31822   1.993   1.907   8.415  0.0164  0.1115 -0.6571
 6788SOL    HW131823   1.898   1.904   8.410  0.0968 -1.5442 -0.9598
 6788SOL    HW231824   2.014   1.862   8.497 -0.5753 -0.7382 -0.9722
 6789SOL     OW31825   2.635   1.218  15.404  0.1023 -0.1856 -0.1821
 6789SOL    HW131826   2.714   1.263  15.374 -0.8932  1.4615 -0.3402
 6789SOL    HW231827   2.577   1.294  15.413 -0.4315 -0.7256  1.0313
 6790SOL     OW31828   1.752   1.875   0.344  0.0366 -0.4193 -0.1810
 6790SOL    HW131829   1.691   1.943   0.314 -1.6267 -2.0203 -0.4856
 6790SOL    HW231830   1.832   1.898   0.298  0.6260 -0.2980  0.8887
 6791SOL     OW31831   1.508   2.617   0.781  0.0719  0.4545 -0.6617
 6791SOL    HW131832   1.420   2.652   0.787 -0.8536 -1.7236 -1.4343
 6791SOL    HW231833   1.509   2.585   0.871  0.1220 -0.2727 -0.9228
 6792SOL     OW31834   1.593   4.677   6.473  0.1288  0.1261  0.6391
 6792SOL    HW131835   1.667   4.618   6.455 -1.2841 -2.2080  2.5235
 6792SOL    HW231836   1.634   0.033   6.508 -1.8623  1.7116 -0.5978
 6793SOL     OW31837   3.580   2.434   3.908 -1.0189  0.4810 -0.5577
 6793SOL    HW131838   3.505   2.387   3.870 -0.1145 -1.0804 -0.4291
 6793SOL    HW231839   3.544   2.455   3.994  0.3951 -0.2243  0.2083
 6794SOL     OW31840   1.094   3.803  12.798  0.2532  0.0695 -0.4454
 6794SOL    HW131841   1.048   3.884  12.773 -0.9549 -0.4341  0.1312
 6794SOL    HW231842   1.069   3.786  12.889  0.1902 -0.8133 -0.6354
 6795SOL     OW31843   3.363   3.544   9.059  0.5529  0.1541 -0.0822
 6795SOL    HW131844   3.333   3.632   9.034  3.9259  1.1210 -0.6377
 6795SOL    HW231845   3.351   3.544   9.154  1.1401  2.1848 -0.0047
 6796SOL     OW31846   0.437   0.709  15.461 -0.2658  0.3073 -0.3038
 6796SOL    HW131847   0.509   0.650  15.440 -0.8909 -0.8030  0.7036
 6796SOL    HW231848   0.383   0.652  15.515  0.4425 -1.2623 -1.2752
 6797SOL     OW31849   2.074   3.640   8.565  0.0318 -0.2268 -0.2440
 6797SOL    HW131850   2.131   3.707   8.604 -1.5413 -0.3583  2.2852
 6797SOL    HW231851   2.126   3.642   8.484  0.1135  0.3910 -0.1760
 6798SOL     OW31852   0.314   1.686  12.275 -0.2719  0.2033 -0.5681
 6798SOL    HW131853   0.349   1.658  12.360  1.5169  0.4850 -1.2125
 6798SOL    HW231854   0.392   1.720  12.231  1.5324 -1.1221  1.5659
 6799SOL     OW31855   1.675   2.626   4.345  0.3042 -0.3547  0.0300
 6799SOL    HW131856   1.734   2.621   4.270  0.5496  0.2899  0.1774
 6799SOL    HW231857   1.659   2.534   4.369  1.4146 -0.3357  0.8527
 6800SOL     OW31858   2.868   4.367   5.845 -0.2892 -0.6707  0.1378
 6800SOL    HW131859   2.953   4.408   5.860 -1.6372  2.9749 -2.2181
 6800SOL    HW231860   2.890   4.284   5.802 -3.4029 -1.3068 -0.2238
 6801SOL     OW31861   1.639   4.024   9.198 -0.4764 -0.0335 -0.3036
 6801SOL    HW131862   1.592   4.106   9.208  0.3426  0.4855 -0.7073
 6801SOL    HW231863   1.597   3.996   9.117 -0.1070 -2.7294  0.4028
 6802SOL     OW31864   3.827   2.436  13.370 -0.1944 -0.0177 -0.0727
 6802SOL    HW131865   3.856   2.442  13.461 -1.8894 -1.5986  0.5944
 6802SOL    HW231866   3.908   2.396  13.338  0.2666 -1.1478  2.4413
 6803SOL     OW31867   2.793   2.129  10.181  0.2168 -0.4907  0.2192
 6803SOL    HW131868   2.884   2.143  10.207  0.1637 -0.8295  0.5796
 6803SOL    HW231869   2.763   2.219  10.190 -1.3885 -0.9867 -0.1638
 6804SOL     OW31870   3.904   4.466   8.643  0.5077  0.0008 -0.1869
 6804SOL    HW131871   3.904   4.561   8.646  0.9746 -0.0321  0.7398
 6804SOL    HW231872   3.980   4.455   8.699  0.4003  1.1171  0.1752
 6805SOL     OW31873   0.306   3.777  15.078  0.2921  0.0326 -0.0220
 6805SOL    HW131874   0.214   3.804  15.074 -0.5612 -3.2819 -2.5319
 6805SOL    HW231875   0.321   3.743  14.990  2.0641  2.8893 -0.8232
 6806SOL     OW31876   0.431   1.576   4.231  0.0244 -0.8003  0.4180
 6806SOL    HW131877   0.410   1.669   4.220 -2.7715 -1.4103  0.4399
 6806SOL    HW231878   0.521   1.579   4.201  0.0163  2.3209  0.7095
 6807SOL     OW31879   2.659   2.034  14.942  0.7811 -0.0265  1.0296
 6807SOL    HW131880   2.660   2.123  14.907  1.3069 -0.4514 -0.0374
 6807SOL    HW231881   2.573   2.032  14.984 -0.0492  0.1872 -0.6575
 6808SOL     OW31882   0.712   1.722   7.721 -0.4404 -0.1454  0.1833
 6808SOL    HW131883   0.790   1.777   7.724  0.1298 -0.8510 -1.4346
 6808SOL    HW231884   0.744   1.662   7.789 -2.1680 -1.6314 -0.3153
 6809SOL     OW31885   4.527   1.611   0.234  0.8173 -0.5431 -0.2079
 6809SOL    HW131886   4.447   1.581   0.191  0.4219 -0.1104  0.2211
 6809SOL    HW231887   4.515   1.595   0.328 -1.5848  0.4950 -0.3301
 6810SOL     OW31888   0.209   1.188   7.893 -0.7402 -0.1286  0.0842
 6810SOL    HW131889   0.180   1.150   7.975  1.2034  0.1195  0.8729
 6810SOL    HW231890   0.134   1.160   7.840  0.2181 -0.7215 -0.9694
 6811SOL     OW31891   3.722   0.364   9.204 -0.1899  0.4843  0.0009
 6811SOL    HW131892   3.650   0.309   9.173  0.3076 -0.4417  0.5020
 6811SOL    HW231893   3.684   0.450   9.182  1.1098  1.2425  0.6896
 6812SOL     OW31894   2.350   1.688   0.251  0.0300 -0.5046 -0.1577
 6812SOL    HW131895   2.297   1.630   0.197  0.0503 -0.2154 -0.4868
 6812SOL    HW231896   2.363   1.627   0.324 -1.8382  1.6190  1.9540
 6813SOL     OW31897   1.445   1.262   2.554 -0.0133  0.0891  0.2697
 6813SOL    HW131898   1.496   1.271   2.634 -0.8449  2.0921  0.5812
 6813SOL    HW231899   1.456   1.347   2.513 -1.8700  0.1213 -0.1701
 6814SOL     OW31900   4.187   1.898   3.155 -0.2234  0.2313 -0.5879
 6814SOL    HW131901   4.169   1.978   3.205 -0.6913 -1.4064  1.8860
 6814SOL    HW231902   4.182   1.831   3.224 -1.0528 -0.8205 -1.6748
 6815SOL     OW31903   1.041   3.104   1.050 -0.7808  0.0424 -0.2813
 6815SOL    HW131904   1.130   3.101   1.086 -0.5677 -0.3788 -0.8495
 6815SOL    HW231905   1.037   3.196   1.025 -1.1878 -0.0003 -0.3693
 6816SOL     OW31906   3.137   4.034   6.882 -0.2883 -0.0375 -0.6923
 6816SOL    HW131907   3.147   4.034   6.978  0.0871  1.8840 -0.7389
 6816SOL    HW231908   3.205   3.970   6.859 -0.9515 -0.1125 -2.4260
 6817SOL     OW31909   1.720   0.250   5.897 -0.2784  0.2175 -0.0184
 6817SOL    HW131910   1.770   0.194   5.838  2.2979 -1.2064  3.5398
 6817SOL    HW231911   1.786   0.300   5.945 -0.4291 -0.6820  1.1119
 6818SOL     OW31912   2.140   4.290   8.337  0.3124  0.5945  0.2327
 6818SOL    HW131913   2.049   4.318   8.348  0.4506  1.7126 -1.4274
 6818SOL    HW231914   2.120   4.216   8.280 -0.3557 -1.2735  2.8828
 6819SOL     OW31915   0.021   0.496  11.050  0.1414  0.2648  0.5374
 6819SOL    HW131916   0.024   0.411  11.006  0.5005 -0.6581  2.3269
 6819SOL    HW231917   4.696   0.559  10.996 -1.6625 -0.4903  1.2690
 6820SOL     OW31918   1.972   4.037   6.125 -0.2527 -0.0651  0.3646
 6820SOL    HW131919   1.961   4.132   6.113 -2.0731 -0.5919 -2.1101
 6820SOL    HW231920   1.887   4.013   6.089  0.3726 -0.8350 -0.5950
 6821SOL     OW31921   3.774   2.472   9.822  0.1081 -0.5096  0.0175
 6821SOL    HW131922   3.802   2.519   9.900  1.6477 -0.0337 -0.8093
 6821SOL    HW231923   3.680   2.476   9.836  0.1278 -2.8172  0.7664
 6822SOL     OW31924   2.694   1.007  15.148  0.3977  0.4072 -0.3066
 6822SOL    HW131925   2.691   1.059  15.228  0.5580 -0.1244  0.0381
 6822SOL    HW231926   2.605   0.972  15.150  0.4637  0.1585 -1.6882
 6823SOL     OW31927   1.342   1.421  12.827 -0.2749 -0.7186 -0.5014
 6823SOL    HW131928   1.391   1.414  12.745 -0.1446  0.5942 -0.5301
 6823SOL    HW231929   1.400   1.467  12.887 -0.2176 -0.7681 -0.5186
 6824SOL     OW31930   3.765   1.298   2.484 -0.0033 -0.0418 -0.0715
 6824SOL    HW131931   3.801   1.381   2.453 -1.0247  0.8341  1.0987
 6824SOL    HW231932   3.844   1.259   2.519  0.0254 -0.0205 -0.1123
 6825SOL     OW31933   3.954   3.500  13.903  0.7393  0.2239  0.3250
 6825SOL    HW131934   3.918   3.548  13.977  2.9034  0.9135  0.9114
 6825SOL    HW231935   3.874   3.484  13.852  1.2043 -1.9205  0.2447
 6826SOL     OW31936   4.555   3.592  15.077  0.8297 -0.1150 -0.5020
 6826SOL    HW131937   4.627   3.655  15.088 -1.0911  1.9326  0.4428
 6826SOL    HW231938   4.575   3.556  14.990  0.6388 -1.1971 -0.0912
 6827SOL     OW31939   4.516   3.656   7.178 -0.2044  0.2006 -0.1646
 6827SOL    HW131940   4.499   3.564   7.199 -0.6666  0.0536 -1.2025
 6827SOL    HW231941   4.433   3.692   7.210 -0.8041  0.6474 -2.2430
 6828SOL     OW31942   3.618   2.047   5.975  0.2262 -0.2084 -0.7725
 6828SOL    HW131943   3.607   1.956   5.946  0.8857 -1.3815  2.5294
 6828SOL    HW231944   3.576   2.047   6.061  1.0253 -0.2174 -0.3809
 6829SOL     OW31945   2.335   1.428   6.355 -0.4493 -0.2843 -0.1929
 6829SOL    HW131946   2.369   1.515   6.377 -3.1457  0.6491  0.1912
 6829SOL    HW231947   2.379   1.416   6.270  1.9320  3.8161  0.4592
 6830SOL     OW31948   2.199   3.248   2.472 -0.4147  0.1074 -0.1726
 6830SOL    HW131949   2.163   3.175   2.524 -1.2044  0.6543  0.0485
 6830SOL    HW231950   2.118   3.277   2.430 -1.1332  0.2290  1.3038
 6831SOL     OW31951   0.622   3.333   6.468 -0.4003 -0.2679 -0.0459
 6831SOL    HW131952   0.533   3.356   6.496  0.3523 -1.1128  3.0320
 6831SOL    HW231953   0.664   3.399   6.524 -1.7055 -2.2063  3.1722
 6832SOL     OW31954   1.347   0.680   1.014 -0.3048 -0.0169 -0.2563
 6832SOL    HW131955   1.420   0.723   1.057  0.7712 -1.2198 -0.8932
 6832SOL    HW231956   1.323   0.737   0.941 -2.8238 -0.1934  0.4292
 6833SOL     OW31957   3.181   1.950  15.012  0.0566  0.0972 -0.4545
 6833SOL    HW131958   3.210   1.860  14.994  0.8560  0.1322  0.6068
 6833SOL    HW231959   3.087   1.938  15.020 -0.1383  2.1257  0.3739
 6834SOL     OW31960   2.027   2.205   8.498  0.7598  0.5120  0.6803
 6834SOL    HW131961   1.952   2.151   8.470  1.6192 -0.7200  0.7525
 6834SOL    HW231962   2.106   2.152   8.493  0.8734  0.7303  0.1795
 6835SOL     OW31963   4.207   3.637   2.897  0.0429 -0.4082  0.1703
 6835SOL    HW131964   4.163   3.609   2.817 -0.5068  1.3879 -0.1622
 6835SOL    HW231965   4.137   3.698   2.922  1.9108  1.7879  0.0603
 6836SOL     OW31966   4.606   1.490   9.262  0.5158  0.1498  0.8021
 6836SOL    HW131967   4.687   1.533   9.234 -0.0839  1.3615  0.9288
 6836SOL    HW231968   4.577   1.469   9.173 -0.9245  0.3804  1.2171
 6837SOL     OW31969   1.970   2.327   7.955  0.3573 -0.1192  0.1414
 6837SOL    HW131970   1.910   2.387   7.910  0.5562  0.0147  0.0560
 6837SOL    HW231971   1.927   2.309   8.039  0.4125  0.1427  0.2263
 6838SOL     OW31972   4.591   2.954   5.826 -0.2206  0.2277 -0.4184
 6838SOL    HW131973   4.607   2.925   5.736 -1.9537  0.0805 -0.6880
 6838SOL    HW231974   4.565   2.876   5.877  1.5183  0.0875  0.2492
 6839SOL     OW31975   4.681   3.565   1.040  0.3297 -0.1129 -0.1233
 6839SOL    HW131976   4.667   3.630   1.109  0.7272 -0.8142  0.6110
 6839SOL    HW231977   4.595   3.556   0.998  1.2722 -0.1692 -2.0450
 6840SOL     OW31978   3.948   2.813   0.903 -0.2667 -0.0826  0.8130
 6840SOL    HW131979   4.007   2.887   0.918 -0.1874  0.0848 -0.3790
 6840SOL    HW231980   3.900   2.819   0.986  0.0056  0.6007  0.9187
 6841SOL     OW31981   2.267   0.470  15.941  1.0560  0.1801 -0.3520
 6841SOL    HW131982   2.350   0.465  15.989  1.1829 -0.9871 -0.6958
 6841SOL    HW231983   2.219   0.397  15.979  1.8561  1.0825  2.4446
 6842SOL     OW31984   3.338   0.872  15.558 -0.0676 -0.2201  0.2239
 6842SOL    HW131985   3.336   0.951  15.611  0.4499  1.9524 -2.9687
 6842SOL    HW231986   3.271   0.813  15.592  0.5363 -1.7633 -1.2513
 6843SOL     OW31987   1.719   4.493  13.202 -0.5544 -0.2930  0.4131
 6843SOL    HW131988   1.650   4.550  13.234  3.7443  4.6497  0.9860
 6843SOL    HW231989   1.677   4.456  13.124 -0.8326 -1.2951  1.0453
 6844SOL     OW31990   2.645   0.627  14.521  0.6494  0.3001  0.1803
 6844SOL    HW131991   2.598   0.609  14.439  1.1885 -1.1355  0.1908
 6844SOL    HW231992   2.584   0.600  14.590  0.2883  2.3003  0.6729
 6845SOL     OW31993   2.427   0.644  15.130 -0.0932 -0.4348  0.1524
 6845SOL    HW131994   2.428   0.662  15.036 -0.0218 -3.2338 -0.3619
 6845SOL    HW231995   2.429   0.736  15.158  0.9404 -0.2363 -0.5660
 6846SOL     OW31996   3.562   3.343   8.076  0.2853  0.1073  0.1985
 6846SOL    HW131997   3.514   3.389   8.144  1.0027  1.0426  0.0865
 6846SOL    HW231998   3.493   3.354   8.010  1.2188 -3.2650 -1.3646
 6847SOL     OW31999   1.296   2.761   6.597 -0.3488 -0.1932  0.1662
 6847SOL    HW132000   1.230   2.796   6.537  0.7016  1.2990 -0.1221
 6847SOL    HW232001   1.301   2.670   6.569  1.9515  0.0368 -0.1657
 6848SOL     OW32002   1.123   4.044  14.552  0.0117 -0.3043 -0.0849
 6848SOL    HW132003   1.188   3.983  14.587  2.6569  2.6010  0.1043
 6848SOL    HW232004   1.070   3.981  14.504  1.1185  0.5556 -2.4031
 6849SOL     OW32005   1.445   2.014   1.506 -1.3197  0.0522 -0.0237
 6849SOL    HW132006   1.377   2.018   1.573 -0.6397  2.0132  0.5610
 6849SOL    HW232007   1.481   1.931   1.536  1.7717  0.3808 -2.8211
 6850SOL     OW32008   1.199   3.233   9.285 -0.0190 -0.6157  0.3498
 6850SOL    HW132009   1.291   3.255   9.271 -0.5586  0.3810 -1.5746
 6850SOL    HW232010   1.216   3.159   9.226 -1.3586  0.6698 -1.6078
 6851SOL     OW32011   3.205   1.996   8.005 -0.0042  0.1838 -0.1557
 6851SOL    HW132012   3.251   1.939   7.944 -0.6040  0.3837 -0.7870
 6851SOL    HW232013   3.259   1.999   8.084  0.2652 -0.8448 -0.2944
 6852SOL     OW32014   2.935   2.362  14.465 -0.3392  0.0675  0.4128
 6852SOL    HW132015   2.856   2.368  14.412  0.9102 -1.3093 -1.6230
 6852SOL    HW232016   2.974   2.285  14.422  0.9337  0.0509  1.5893
 6853SOL     OW32017   2.796   4.056  15.351 -0.9031  0.3136  0.2174
 6853SOL    HW132018   2.877   4.105  15.365 -0.6680  0.3814 -1.3906
 6853SOL    HW232019   2.776   4.013  15.433  1.3872  1.6829  1.4928
 6854SOL     OW32020   2.194   4.259  11.272  0.0645 -0.2058 -0.6424
 6854SOL    HW132021   2.171   4.172  11.304 -1.5176  0.5701  0.3237
 6854SOL    HW232022   2.261   4.243  11.206 -1.5627 -0.9709 -2.1322
 6855SOL     OW32023   0.747   0.144   8.759 -0.4275  0.2803 -0.0780
 6855SOL    HW132024   0.680   0.111   8.819  0.8535 -1.4884  0.3992
 6855SOL    HW232025   0.816   0.080   8.779  0.0863  0.8672  0.0141
 6856SOL     OW32026   0.858   3.901  17.239  0.1679 -0.3801 -0.1402
 6856SOL    HW132027   0.922   3.893  17.310  0.3404 -0.2769 -0.2853
 6856SOL    HW232028   0.896   3.965  17.180  2.2842 -2.0019 -0.5389
 6857SOL     OW32029   0.208   0.952  14.961  0.1453  0.8459  0.0821
 6857SOL    HW132030   0.144   0.888  14.932  0.8674  0.0869  0.1628
 6857SOL    HW232031   0.198   1.036  14.916 -1.0417  0.3347 -0.6037
 6858SOL     OW32032   0.106   4.239   6.657  0.4395  0.3540 -0.0156
 6858SOL    HW132033   0.155   4.321   6.651  0.8402  0.2303  1.4222
 6858SOL    HW232034   0.091   4.253   6.751 -1.8450  0.4237 -0.4090
 6859SOL     OW32035   4.511   1.619   8.452  0.2291  0.5247  0.1442
 6859SOL    HW132036   4.532   1.680   8.381  0.1958  0.5689  0.1730
 6859SOL    HW232037   4.476   1.546   8.401  0.6326  0.7117 -0.3961
 6860SOL     OW32038   0.085   4.391   8.680 -0.4954 -0.5347 -0.2426
 6860SOL    HW132039   0.173   4.428   8.690  0.8721 -3.8451 -0.0979
 6860SOL    HW232040   0.028   4.458   8.718 -1.1210 -0.6348 -1.0108
 6861SOL     OW32041   2.744   4.372   0.607  0.2948 -0.3708  0.2556
 6861SOL    HW132042   2.825   4.338   0.644  1.3210  0.0779 -1.6008
 6861SOL    HW232043   2.757   4.342   0.518  2.5846 -1.3315  0.9335
 6862SOL     OW32044   0.580   4.425   8.642 -0.6903 -0.1753  0.2393
 6862SOL    HW132045   0.573   4.510   8.598 -2.1174 -1.3214 -1.7736
 6862SOL    HW232046   0.525   4.367   8.588  1.5721 -2.1854  0.0984
 6863SOL     OW32047   1.305   0.047   7.783  0.0195  0.1192  0.1607
 6863SOL    HW132048   1.369   4.701   7.766  0.5501  0.2597  1.6204
 6863SOL    HW232049   1.238   0.006   7.838 -2.0713  1.5775 -1.2593
 6864SOL     OW32050   1.690   0.213   6.535 -0.0531 -0.0078 -0.3908
 6864SOL    HW132051   1.754   0.231   6.466  0.3109  2.1380  0.5146
 6864SOL    HW232052   1.748   0.242   6.605 -0.7822  0.8102 -0.1323
 6865SOL     OW32053   2.958   1.926  16.971 -0.4755 -0.5540 -0.0738
 6865SOL    HW132054   2.969   1.940  17.065 -1.4310 -1.1543  0.1299
 6865SOL    HW232055   3.041   1.885  16.946  0.6092 -0.3141  3.1821
 6866SOL     OW32056   4.083   3.325   2.754 -0.2087 -0.0154 -0.0960
 6866SOL    HW132057   4.092   3.265   2.680 -2.7102 -2.1110  1.3260
 6866SOL    HW232058   4.173   3.338   2.783 -0.2660 -0.9293  0.4813
 6867SOL     OW32059   2.437   3.162   7.437  0.7070  0.5539  0.0379
 6867SOL    HW132060   2.522   3.197   7.462  1.1903 -1.7667  1.6317
 6867SOL    HW232061   2.436   3.099   7.509 -1.1902  0.4054 -0.1217
 6868SOL     OW32062   3.036   4.374  15.886 -0.2873 -0.2742 -0.2906
 6868SOL    HW132063   2.963   4.435  15.876  0.9506  1.3776  0.8095
 6868SOL    HW232064   3.044   4.344  15.795  1.5637  1.4722 -0.6986
 6869SOL     OW32065   2.369   1.914   7.296  0.0868  0.3110 -0.4078
 6869SOL    HW132066   2.430   1.941   7.364 -1.4721  0.6575  0.8750
 6869SOL    HW232067   2.331   1.999   7.275  1.0434  0.6120 -0.8746
 6870SOL     OW32068   4.638   0.501   0.882  0.1024 -0.6386 -0.5559
 6870SOL    HW132069   4.658   0.466   0.796 -0.8813  1.9730 -1.8645
 6870SOL    HW232070   4.691   0.580   0.889  0.9221 -1.1760 -0.7406
 6871SOL     OW32071   3.540   1.086   2.460 -0.1919 -0.8013  0.1499
 6871SOL    HW132072   3.627   1.071   2.497 -0.4501  2.5330  2.1056
 6871SOL    HW232073   3.539   1.166   2.407  1.2927 -0.3316  0.8390
 6872SOL     OW32074   3.607   4.683   2.318  0.5902  0.0988  0.3636
 6872SOL    HW132075   3.552   4.621   2.270 -2.0163  2.1777  0.6738
 6872SOL    HW232076   3.660   0.007   2.254  0.1167  1.3148  0.8648
 6873SOL     OW32077   1.342   0.286  16.351 -0.0332 -0.1355  0.3601
 6873SOL    HW132078   1.286   0.363  16.360  0.0997 -0.1342  1.2261
 6873SOL    HW232079   1.291   0.217  16.394  0.0455 -0.4697 -0.0826
 6874SOL     OW32080   2.940   1.925   0.382 -0.0262 -0.0329 -0.2893
 6874SOL    HW132081   2.858   1.876   0.392 -0.1524  0.9016  3.1310
 6874SOL    HW232082   2.919   1.985   0.311 -0.6681  0.3391  0.2164
 6875SOL     OW32083   3.926   2.673   6.223  0.6761 -0.1114 -0.9776
 6875SOL    HW132084   3.912   2.610   6.152  1.8733 -0.7209 -0.6654
 6875SOL    HW232085   3.976   2.611   6.277  0.8380  1.0698  0.2357
 6876SOL     OW32086   0.038   2.917  11.019  0.1772 -0.3585  0.3096
 6876SOL    HW132087   0.116   2.938  11.069 -0.4355  0.1423  1.0596
 6876SOL    HW232088   0.083   2.886  10.940  1.6708  1.2431  0.5491
 6877SOL     OW32089   1.513   0.908   9.271 -0.1003 -0.4883  0.2105
 6877SOL    HW132090   1.607   0.899   9.253  0.1992  1.1748  0.9720
 6877SOL    HW232091   1.508   0.867   9.357 -0.5488  0.0568  0.4452
 6878SOL     OW32092   3.175   2.739   2.998 -0.0137 -0.8401 -0.5024
 6878SOL    HW132093   3.098   2.775   2.953 -0.0407  0.6107  0.7227
 6878SOL    HW232094   3.190   2.807   3.063 -3.6572 -2.1156  1.6805
 6879SOL     OW32095   3.379   4.107  15.320 -0.3342  0.0518  0.0719
 6879SOL    HW132096   3.336   4.030  15.358  2.2908 -1.8630 -0.8184
 6879SOL    HW232097   3.378   4.085  15.227 -0.3021 -1.3829  0.4013
 6880SOL     OW32098   4.459   3.321   4.146  0.3749 -0.1272  0.4241
 6880SOL    HW132099   4.486   3.237   4.109 -0.9909  0.4521 -1.9402
 6880SOL    HW232100   4.495   3.386   4.086  1.6626 -2.6155 -1.5151
 6881SOL     OW32101   2.800   0.920   6.032  0.0786  0.4709 -0.8113
 6881SOL    HW132102   2.760   0.841   6.070 -1.0235  1.1165 -0.6021
 6881SOL    HW232103   2.892   0.895   6.027  0.3118  1.1004  0.3106
 6882SOL     OW32104   4.204   0.464  16.737  0.4415 -0.1112 -0.6422
 6882SOL    HW132105   4.110   0.450  16.728  0.5450 -1.8142  0.8833
 6882SOL    HW232106   4.240   0.396  16.680 -1.1038 -0.8914 -0.6819
 6883SOL     OW32107   0.756   4.501   2.281 -0.3756  0.3175  0.5656
 6883SOL    HW132108   0.737   4.472   2.192  0.2527 -0.1629  0.5873
 6883SOL    HW232109   0.675   4.482   2.327 -1.7318 -0.2522 -2.0619
 6884SOL     OW32110   0.471   4.555   9.356  0.1918  0.1461  0.5072
 6884SOL    HW132111   0.537   4.561   9.425 -0.9846  0.6955  1.5893
 6884SOL    HW232112   0.415   4.622   9.397 -0.5881  0.4253 -0.9957
 6885SOL     OW32113   3.181   1.257   9.955  0.2044 -0.0280 -0.1089
 6885SOL    HW132114   3.122   1.182   9.948  0.1574  0.1269 -1.3430
 6885SOL    HW232115   3.175   1.298   9.868 -1.0685 -2.3831 -1.1061
 6886SOL     OW32116   1.406   1.870   4.131 -0.6124 -0.9029 -0.3627
 6886SOL    HW132117   1.463   1.824   4.069  0.6731  0.3984 -0.1545
 6886SOL    HW232118   1.352   1.918   4.068 -0.7756 -0.7753 -0.1267
 6887SOL     OW32119   2.770   4.494  13.246  0.1530  0.4487  0.0480
 6887SOL    HW132120   2.829   4.437  13.197  0.0788 -0.6349  1.2291
 6887SOL    HW232121   2.685   4.483  13.205  0.2610  1.3296 -0.4133
 6888SOL     OW32122   0.842   1.391  11.020 -0.7049 -0.1449 -0.0014
 6888SOL    HW132123   0.915   1.438  10.979  1.6242 -1.7402  2.3295
 6888SOL    HW232124   0.826   1.320  10.959  1.3438 -0.6315  0.0389
 6889SOL     OW32125   2.109   3.625   3.867 -0.5110 -0.3959  1.0181
 6889SOL    HW132126   2.163   3.550   3.843 -2.2988 -1.3326 -0.0490
 6889SOL    HW232127   2.147   3.648   3.952 -1.4863 -0.4150  1.4596
 6890SOL     OW32128   1.695   4.479   7.787  0.2261  0.0267 -0.6008
 6890SOL    HW132129   1.743   4.452   7.709  2.0447  2.2525 -0.2398
 6890SOL    HW232130   1.619   4.526   7.752 -1.0578 -1.5167  0.1090
 6891SOL     OW32131   0.405   2.324   2.463 -0.1602 -0.0412  0.0613
 6891SOL    HW132132   0.412   2.292   2.553  2.6010  0.8057  0.1519
 6891SOL    HW232133   0.385   2.240   2.424 -0.6230 -0.6989  1.6880
 6892SOL     OW32134   3.724   3.180   4.810 -0.4979 -0.2641  0.3680
 6892SOL    HW132135   3.678   3.249   4.764  0.1317 -0.4751 -0.5765
 6892SOL    HW232136   3.818   3.195   4.798 -0.1654 -1.0413  1.8558
 6893SOL     OW32137   4.223   2.189  17.281 -0.2193  0.8611 -0.6961
 6893SOL    HW132138   4.229   2.147  17.195  1.4816  1.0224 -0.6633
 6893SOL    HW232139   4.136   2.156  17.303  0.1110 -0.0623 -0.7800
 6894SOL     OW32140   2.029   0.583   3.941 -0.4301  0.0055  0.3710
 6894SOL    HW132141   1.973   0.573   3.864 -0.0910 -2.7700  0.4623
 6894SOL    HW232142   2.083   0.657   3.916 -0.4666 -0.5532 -1.3547
 6895SOL     OW32143   2.224   1.085   1.283  0.3858 -0.0232 -0.1192
 6895SOL    HW132144   2.169   1.111   1.357  1.3316 -0.6622  0.8175
 6895SOL    HW232145   2.157   1.025   1.248  0.2003 -1.4699  2.6674
 6896SOL     OW32146   3.770   2.321   6.182 -0.2625  0.0695 -0.4241
 6896SOL    HW132147   3.762   2.303   6.276 -3.1422  0.6425 -0.5563
 6896SOL    HW232148   3.839   2.259   6.159  1.7762  1.2867  2.4625
 6897SOL     OW32149   0.523   3.117   2.505 -0.6547 -0.2216 -1.0527
 6897SOL    HW132150   0.599   3.156   2.462  1.7519 -3.1856  0.5726
 6897SOL    HW232151   0.559   3.034   2.534 -1.3142  0.3569  1.3821
 6898SOL     OW32152   1.852   2.772   6.999 -0.8475  0.1705 -0.0924
 6898SOL    HW132153   1.935   2.803   7.035  0.3390 -1.3169 -1.5595
 6898SOL    HW232154   1.827   2.855   6.957  0.9854  2.6402  3.7426
 6899SOL     OW32155   2.014   3.336  16.404  0.0869 -0.2323  0.4868
 6899SOL    HW132156   2.072   3.268  16.372 -0.4005 -0.8161  0.8508
 6899SOL    HW232157   2.013   3.394  16.327  2.2927 -0.6291  0.1491
 6900SOL     OW32158   3.277   3.783   9.024  0.0013  0.0673  0.1750
 6900SOL    HW132159   3.190   3.807   8.992 -0.0024 -0.1823 -0.0020
 6900SOL    HW232160   3.297   3.843   9.096  1.3061  3.1607 -2.7868
 6901SOL     OW32161   0.638   3.093  17.648 -0.1193  0.1969 -0.2596
 6901SOL    HW132162   0.727   3.061  17.661 -0.5922 -0.4813  1.2716
 6901SOL    HW232163   0.612   3.026  17.584 -0.4605  0.2330 -0.1579
 6902SOL     OW32164   3.856   0.258   2.455  0.2651 -0.2869 -0.1244
 6902SOL    HW132165   3.931   0.302   2.496 -2.4002  1.6753  2.6801
 6902SOL    HW232166   3.797   0.247   2.529  0.8764  0.5696  0.4974
 6903SOL     OW32167   0.937   3.738   6.833  0.4082 -0.2902  0.3769
 6903SOL    HW132168   1.025   3.741   6.871  1.3449 -0.6877 -1.7174
 6903SOL    HW232169   0.893   3.694   6.905  0.7438 -0.4463  0.4908
 6904SOL     OW32170   0.445   0.516  10.546 -0.6071 -0.1795  0.8936
 6904SOL    HW132171   0.529   0.560  10.554 -1.1035  1.0722 -0.8361
 6904SOL    HW232172   0.465   0.443  10.605 -2.0421 -2.2995 -1.2010
 6905SOL     OW32173   2.007   2.155   2.484  0.5903 -0.3464 -0.0690
 6905SOL    HW132174   2.024   2.106   2.564  0.3764 -1.4070 -0.6834
 6905SOL    HW232175   2.041   2.240   2.514 -0.8712 -0.1253  0.9770
 6906SOL     OW32176   4.319   2.524   5.923  0.7341 -0.4243  0.0575
 6906SOL    HW132177   4.285   2.435   5.920  2.6660 -1.1300 -0.7124
 6906SOL    HW232178   4.248   2.573   5.881  1.2868  1.6906  1.5847
 6907SOL     OW32179   1.049   0.640   5.124  0.4620  0.0160  0.2488
 6907SOL    HW132180   1.090   0.555   5.143  0.5005 -0.1878 -0.7284
 6907SOL    HW232181   1.123   0.696   5.147 -0.3852  1.2360  0.0109
 6908SOL     OW32182   0.429   2.437   1.284 -0.3643 -0.2226 -0.5363
 6908SOL    HW132183   0.441   2.351   1.323 -2.6316 -0.3527 -0.1553
 6908SOL    HW232184   0.471   2.503   1.339 -1.5077  0.5407 -0.5629
 6909SOL     OW32185   4.445   2.116   1.465  0.3673 -0.2970  0.1157
 6909SOL    HW132186   4.416   2.154   1.382  1.4025 -1.9105 -0.9999
 6909SOL    HW232187   4.536   2.097   1.442  0.5790 -0.7496  1.3224
 6910SOL     OW32188   3.937   2.629   3.169  0.1171 -0.3660 -0.2048
 6910SOL    HW132189   4.032   2.613   3.169 -0.0365 -1.3085  0.7181
 6910SOL    HW232190   3.920   2.627   3.263  1.9105 -2.4408  0.0928
 6911SOL     OW32191   3.896   1.572   2.113  0.5505 -0.4990  0.3956
 6911SOL    HW132192   3.919   1.653   2.159  1.8460 -1.5495  1.5815
 6911SOL    HW232193   3.849   1.604   2.035  1.7779  0.4804  0.0602
 6912SOL     OW32194   1.389   0.803   8.712 -0.5709 -0.0786  0.1556
 6912SOL    HW132195   1.438   0.748   8.774 -0.0472  0.3426  0.1110
 6912SOL    HW232196   1.455   0.805   8.643 -0.4349 -1.4512  0.2443
 6913SOL     OW32197   4.170   3.529   8.948  0.5721  0.0640  0.8434
 6913SOL    HW132198   4.087   3.484   8.933  0.7815 -0.1010  0.1850
 6913SOL    HW232199   4.206   3.530   8.859  1.0631 -0.1222  1.0380
 6914SOL     OW32200   1.573   3.948   0.743  0.8842  0.5566  0.2729
 6914SOL    HW132201   1.629   4.020   0.714  1.2465 -0.3342 -1.2581
 6914SOL    HW232202   1.605   3.926   0.830 -0.2378 -2.4194 -0.0437
 6915SOL     OW32203   3.470   3.040   3.212  0.0622 -0.0807 -0.4012
 6915SOL    HW132204   3.498   3.130   3.196  0.1791 -0.4139 -2.0680
 6915SOL    HW232205   3.418   3.025   3.133 -0.6776 -1.6092  0.3702
 6916SOL     OW32206   3.924   0.322  17.361 -0.2458 -0.6384  0.2918
 6916SOL    HW132207   3.940   0.389  17.295 -0.7758 -1.4197 -0.6351
 6916SOL    HW232208   3.870   0.265  17.306 -0.1093 -1.0062  0.5367
 6917SOL     OW32209   4.523   3.710   6.898 -0.1688  0.0250  0.0031
 6917SOL    HW132210   4.490   3.627   6.864 -0.7323  0.1983  0.1336
 6917SOL    HW232211   4.475   3.723   6.979 -0.7310  1.5548 -0.5761
 6918SOL     OW32212   4.070   3.879   7.078 -0.6806 -0.2130  0.2065
 6918SOL    HW132213   4.009   3.929   7.023  0.3710 -0.2652 -1.0159
 6918SOL    HW232214   3.999   3.853   7.137  0.2264 -0.8546  1.0122
 6919SOL     OW32215   1.436   0.204   0.891  0.7128  0.5331  0.2512
 6919SOL    HW132216   1.431   0.187   0.985  1.8734 -2.2340 -0.1806
 6919SOL    HW232217   1.529   0.188   0.873  0.5526 -0.7771  0.5692
 6920SOL     OW32218   2.902   2.003  11.816 -0.8510 -0.0816  0.2332
 6920SOL    HW132219   2.986   1.966  11.841  0.0002  0.5023 -1.7647
 6920SOL    HW232220   2.851   2.008  11.897  0.9001 -1.3279  1.4321
 6921SOL     OW32221   4.153   3.962   8.356  0.0884  0.0289 -0.2549
 6921SOL    HW132222   4.089   3.943   8.288 -0.4890 -0.3186  0.3834
 6921SOL    HW232223   4.197   4.025   8.299  0.5614  0.5489  0.6747
 6922SOL     OW32224   3.942   0.875   4.108  0.6341  0.3925  0.2377
 6922SOL    HW132225   3.974   0.907   4.024  1.3564 -2.6198 -0.6358
 6922SOL    HW232226   3.905   0.951   4.154 -1.2849 -0.8713  0.7520
 6923SOL     OW32227   1.632   4.153   2.860 -0.2357  0.2693 -0.1536
 6923SOL    HW132228   1.572   4.083   2.834  0.6384  0.7826 -3.5024
 6923SOL    HW232229   1.712   4.100   2.872  0.6078  1.4585 -0.5749
 6924SOL     OW32230   3.074   2.825   5.943  0.1144  0.5218 -0.0165
 6924SOL    HW132231   3.119   2.821   6.028  0.4468  0.0347 -0.2147
 6924SOL    HW232232   3.070   2.733   5.917  3.1916  0.8926 -1.7523
 6925SOL     OW32233   3.084   0.705  17.503  0.0274 -0.5664 -0.2096
 6925SOL    HW132234   3.121   0.730  17.418  1.3557 -3.1977 -0.3846
 6925SOL    HW232235   3.099   0.611  17.499  0.4367 -0.5631  1.1738
 6926SOL     OW32236   1.695   2.791   6.295 -0.0821 -0.5637  0.3808
 6926SOL    HW132237   1.670   2.876   6.259 -0.2091 -1.0548 -0.6844
 6926SOL    HW232238   1.717   2.741   6.216 -0.9551 -0.8328  0.3054
 6927SOL     OW32239   1.452   1.503   9.034  0.2918  0.0475 -0.2151
 6927SOL    HW132240   1.476   1.551   8.954 -1.4999  0.6366 -0.4236
 6927SOL    HW232241   1.378   1.450   9.004 -1.2483  2.1593 -0.1424
 6928SOL     OW32242   1.135   4.047   6.121 -0.2455 -0.1491  0.1446
 6928SOL    HW132243   1.095   3.982   6.179 -1.8586  0.8933  0.2001
 6928SOL    HW232244   1.129   4.129   6.171  1.1591  1.2560 -1.9758
 6929SOL     OW32245   2.485   3.179   8.860  0.1168  0.0530  0.0417
 6929SOL    HW132246   2.508   3.241   8.929 -0.1073  0.8123 -0.5651
 6929SOL    HW232247   2.418   3.224   8.809  1.5827  1.4741 -0.6374
 6930SOL     OW32248   3.984   4.365  13.448  0.3120  0.0614  0.1990
 6930SOL    HW132249   3.959   4.393  13.360 -1.1656 -0.1871  0.5532
 6930SOL    HW232250   4.078   4.352  13.431  0.2520  0.7459 -0.6612
 6931SOL     OW32251   3.615   1.999   2.896 -0.0366 -0.1762 -0.2315
 6931SOL    HW132252   3.528   2.038   2.904  0.5623  1.9491 -4.0313
 6931SOL    HW232253   3.598   1.906   2.881 -0.4688 -0.2961  1.0373
 6932SOL     OW32254   1.420   0.911   7.559  0.3122 -0.1011  0.0249
 6932SOL    HW132255   1.348   0.910   7.622  0.0377 -1.0953 -0.3035
 6932SOL    HW232256   1.370   0.954   7.490  0.3678  0.0730  0.0925
 6933SOL     OW32257   0.460   1.900   2.861 -0.6621  0.6811 -0.3771
 6933SOL    HW132258   0.430   1.949   2.937  1.4519 -2.2558  2.3706
 6933SOL    HW232259   0.544   1.945   2.851 -0.6677  0.6721 -0.4599
 6934SOL     OW32260   3.638   2.768  17.634  0.7772 -0.4222 -0.0535
 6934SOL    HW132261   3.733   2.774  17.644  0.6819 -1.8301  1.9161
 6934SOL    HW232262   3.611   2.779   0.031 -2.5798  1.5354 -1.3050
 6935SOL     OW32263   0.758   0.899  10.883  0.0668  0.1827  0.0184
 6935SOL    HW132264   0.755   0.810  10.918  1.2964  0.0690 -0.1526
 6935SOL    HW232265   0.779   0.894  10.790  3.4653 -1.8623  0.9008
 6936SOL     OW32266   2.685   2.638  15.777  0.3730 -0.5266 -0.0273
 6936SOL    HW132267   2.601   2.592  15.784  0.6430 -1.0711 -0.3662
 6936SOL    HW232268   2.724   2.595  15.701 -0.3589 -1.8031  0.3162
 6937SOL     OW32269   0.242   1.184  14.316  0.4697  0.1618 -0.7135
 6937SOL    HW132270   0.246   1.091  14.296  0.0985  0.1319 -0.6520
 6937SOL    HW232271   0.162   1.208  14.271  0.3787 -1.3426 -1.3445
 6938SOL     OW32272   1.557   1.810   1.027  0.1383  0.3175  0.4538
 6938SOL    HW132273   1.462   1.820   1.017 -0.0047 -0.0434  1.4529
 6938SOL    HW232274   1.571   1.879   1.092 -0.3783  0.2470  0.6339
 6939SOL     OW32275   2.110   1.163   1.721  0.0113 -0.3736 -0.7099
 6939SOL    HW132276   2.160   1.202   1.792 -1.6191 -1.4321  1.0052
 6939SOL    HW232277   2.025   1.165   1.764  0.7095  0.2788  0.6378
 6940SOL     OW32278   1.411   1.346  17.085  0.5395  0.2335  0.2954
 6940SOL    HW132279   1.416   1.422  17.144  1.1870  0.4011  0.0210
 6940SOL    HW232280   1.345   1.380  17.025  1.0897  0.8859  0.0539
 6941SOL     OW32281   1.776   3.196   0.690  0.4888  0.0161  0.1650
 6941SOL    HW132282   1.714   3.166   0.623  1.1108  0.7250 -0.7193
 6941SOL    HW232283   1.746   3.283   0.717  0.1968  0.1141 -0.4693
 6942SOL     OW32284   2.809   2.400   2.934 -0.2659 -0.4630 -0.6779
 6942SOL    HW132285   2.842   2.454   2.863  0.6807  0.4323  0.4390
 6942SOL    HW232286   2.726   2.446   2.946  1.2593  2.2092 -0.3816
 6943SOL     OW32287   2.619   0.887   3.875 -0.3028  0.0777 -0.3024
 6943SOL    HW132288   2.535   0.868   3.917 -0.7337  1.4961 -0.5229
 6943SOL    HW232289   2.683   0.884   3.947  0.4876 -1.6949 -1.0707
 6944SOL     OW32290   0.826   0.453   2.972 -0.3209  0.0283 -0.2934
 6944SOL    HW132291   0.865   0.380   3.019  1.7742  1.6589  0.4909
 6944SOL    HW232292   0.867   0.530   3.012  0.4811 -1.0446  0.9145
 6945SOL     OW32293   1.728   0.800  16.926 -0.3095 -0.1069  0.0950
 6945SOL    HW132294   1.812   0.767  16.892 -0.6093 -0.9531  0.1674
 6945SOL    HW232295   1.687   0.829  16.845 -1.9470  0.2673  1.0618
 6946SOL     OW32296   0.010   2.603  15.021 -0.0221  0.1936  1.0192
 6946SOL    HW132297   0.097   2.564  15.014 -0.7243 -1.0510 -0.6763
 6946SOL    HW232298   4.704   2.584  14.932 -0.2903 -0.3287  1.2166
 6947SOL     OW32299   0.509   1.003   6.047  0.5181 -0.1844  0.8714
 6947SOL    HW132300   0.448   1.060   6.094 -0.3911  1.2786 -2.0746
 6947SOL    HW232301   0.508   1.051   5.964 -1.2241  1.0439  1.6167
 6948SOL     OW32302   2.854   4.069   6.048  0.3914  0.2773  0.2573
 6948SOL    HW132303   2.803   4.048   5.970  3.5637 -0.7441 -1.5253
 6948SOL    HW232304   2.855   3.981   6.084  1.9133 -0.1285 -0.7714
 6949SOL     OW32305   2.286   0.645  15.729 -0.3615 -0.2504 -0.5614
 6949SOL    HW132306   2.264   0.602  15.811 -2.3428 -1.8808 -1.9525
 6949SOL    HW232307   2.251   0.581  15.666 -1.3330  0.5359 -0.8168
 6950SOL     OW32308   3.668   0.096   9.883 -0.5803 -0.2812  0.1061
 6950SOL    HW132309   3.606   0.032   9.918  1.0799 -2.0455 -0.1280
 6950SOL    HW232310   3.618   0.158   9.831 -1.6514 -0.9851  0.2957
 6951SOL     OW32311   3.080   0.603  15.360  0.4878  0.0932  0.1685
 6951SOL    HW132312   3.153   0.609  15.298  0.9876 -0.1879  0.7265
 6951SOL    HW232313   3.135   0.569  15.431  1.4801  0.0393 -0.6268
 6952SOL     OW32314   3.526   4.259   5.746  0.0781  0.1036  0.2216
 6952SOL    HW132315   3.610   4.243   5.790  0.4574  2.9235  0.5077
 6952SOL    HW232316   3.474   4.190   5.787 -0.1308  1.2331  1.8337
 6953SOL     OW32317   0.081   4.462  14.091  0.2335 -0.0537  0.0774
 6953SOL    HW132318   0.152   4.522  14.070 -0.4070  0.7287  0.1391
 6953SOL    HW232319   0.110   4.422  14.173 -1.4129 -0.8901  0.2575
 6954SOL     OW32320   0.052   0.729   0.887 -0.6642  0.2398 -0.0886
 6954SOL    HW132321   4.708   0.791   0.859 -0.8548 -0.2474 -0.7328
 6954SOL    HW232322   0.123   0.792   0.896 -0.2251 -0.2354 -0.2075
 6955SOL     OW32323   3.263   3.741   5.428 -0.1597  0.2614 -0.2443
 6955SOL    HW132324   3.354   3.751   5.456 -0.1977 -1.3975  0.4416
 6955SOL    HW232325   3.278   3.679   5.356  3.4118  3.0069 -1.8970
 6956SOL     OW32326   0.436   2.000   5.426  0.0690 -0.0935 -0.0978
 6956SOL    HW132327   0.387   2.082   5.431  0.0284 -0.2304  1.8965
 6956SOL    HW232328   0.360   1.942   5.426 -1.1798  1.5421 -1.4957
 6957SOL     OW32329   3.237   4.145   2.931 -0.1709  0.1843 -0.1707
 6957SOL    HW132330   3.189   4.173   3.008 -1.5155 -0.2185 -0.8600
 6957SOL    HW232331   3.320   4.188   2.952 -0.0806 -0.0957  0.0405
 6958SOL     OW32332   2.017   3.481  16.176 -0.1901  0.3329  0.1251
 6958SOL    HW132333   2.067   3.427  16.114  0.1034  1.6160 -0.7698
 6958SOL    HW232334   2.015   3.568  16.135  0.2726  1.2224  2.0200
 6959SOL     OW32335   1.901   1.269   1.406  0.2927  0.2757 -0.1921
 6959SOL    HW132336   1.879   1.362   1.403  0.1381  0.2755  0.8317
 6959SOL    HW232337   1.986   1.282   1.448 -0.4006  0.1938  1.2406
 6960SOL     OW32338   3.687   1.428   3.551 -0.2836 -0.0025  0.4222
 6960SOL    HW132339   3.733   1.374   3.615 -0.6964 -1.0528 -0.1576
 6960SOL    HW232340   3.723   1.382   3.475  0.1027 -0.9872  1.2071
 6961SOL     OW32341   0.292   1.028   3.485  0.0620  0.2065  0.0287
 6961SOL    HW132342   0.386   1.045   3.493  0.2761 -0.8579 -0.2553
 6961SOL    HW232343   0.279   0.940   3.519  0.4756  0.1850  0.1283
 6962SOL     OW32344   2.174   1.486   8.443  0.0755  0.5177 -0.9736
 6962SOL    HW132345   2.139   1.535   8.518  0.2355 -2.7068  1.2125
 6962SOL    HW232346   2.242   1.550   8.423  2.7840 -1.7529  0.9520
 6963SOL     OW32347   1.590   0.913   6.287  0.6125 -0.1403  0.2140
 6963SOL    HW132348   1.655   0.914   6.357  3.0486 -0.9094 -2.0773
 6963SOL    HW232349   1.519   0.877   6.341 -0.6766  1.3102 -0.4916
 6964SOL     OW32350   3.365   0.748   4.102 -0.5003  0.0586  0.0263
 6964SOL    HW132351   3.276   0.712   4.104 -0.2444 -0.6871 -2.0612
 6964SOL    HW232352   3.414   0.676   4.142 -0.5374  0.1903  0.3131
 6965SOL     OW32353   0.659   4.006   3.570  0.5610 -0.1848  0.0799
 6965SOL    HW132354   0.588   3.974   3.625  0.1493 -0.4840 -0.6346
 6965SOL    HW232355   0.654   4.100   3.591  3.5073  0.7711 -3.3983
 6966SOL     OW32356   1.597   0.824   1.045  0.4949  0.0431  0.1135
 6966SOL    HW132357   1.689   0.797   1.045  0.8936  1.4200  2.4047
 6966SOL    HW232358   1.600   0.919   1.034 -1.4237  0.1924  0.9187
 6967SOL     OW32359   1.299   3.998  10.443 -0.3568 -0.3201 -0.3321
 6967SOL    HW132360   1.310   3.916  10.492 -1.3980  0.2707  0.8754
 6967SOL    HW232361   1.386   4.031  10.422 -0.9026  1.2311 -0.1321
 6968SOL     OW32362   1.036   3.872   1.732 -0.1893 -0.1472  0.3585
 6968SOL    HW132363   1.018   3.838   1.820  1.6807 -0.9024  0.4414
 6968SOL    HW232364   1.022   3.964   1.752 -2.6101  0.0798 -2.2934
 6969SOL     OW32365   3.209   2.160  11.911 -0.9113  0.2157  0.3664
 6969SOL    HW132366   3.212   2.171  11.816  0.9056 -0.1429  0.3832
 6969SOL    HW232367   3.187   2.068  11.922  1.5016 -0.1243  2.4023
 6970SOL     OW32368   3.280   1.439   9.391  0.1305 -0.7774 -0.2977
 6970SOL    HW132369   3.341   1.367   9.408  0.8329 -0.4603 -1.4539
 6970SOL    HW232370   3.227   1.401   9.320 -1.7027  0.0676  0.6201
 6971SOL     OW32371   2.908   2.994  11.315  0.2262 -0.6650  0.0920
 6971SOL    HW132372   2.928   3.038  11.232  2.2953 -2.6855 -0.4732
 6971SOL    HW232373   2.812   2.999  11.316  0.1425 -2.0093 -0.7547
 6972SOL     OW32374   2.369   1.996  14.692 -0.4891  0.1954  0.5712
 6972SOL    HW132375   2.402   2.025  14.607  0.6253 -1.8544  0.3053
 6972SOL    HW232376   2.415   1.912  14.696 -0.5329  0.1583  0.3086
 6973SOL     OW32377   2.635   2.313  14.486  0.2519 -0.1975  0.2215
 6973SOL    HW132378   2.594   2.326  14.572 -2.0044  2.8205 -1.3407
 6973SOL    HW232379   2.570   2.334  14.419  0.1384  0.8463  0.6589
 6974SOL     OW32380   1.934   2.085   4.515  0.1292  0.4187  0.0234
 6974SOL    HW132381   2.016   2.102   4.562  0.0504 -0.8995  0.6141
 6974SOL    HW232382   1.944   2.161   4.456 -0.7165 -0.8625 -1.7695
 6975SOL     OW32383   0.207   0.166   1.641 -0.0606  0.3002 -0.1433
 6975SOL    HW132384   0.201   0.190   1.734  0.6716  3.0148 -0.8145
 6975SOL    HW232385   0.203   0.257   1.613 -0.8819  0.5063  0.6475
 6976SOL     OW32386   2.870   1.134   7.521 -0.3984 -0.6118  0.0722
 6976SOL    HW132387   2.798   1.105   7.578 -1.1019 -0.8738 -0.9609
 6976SOL    HW232388   2.927   1.057   7.519  1.7859  1.0447 -0.5113
 6977SOL     OW32389   4.082   0.048   1.032 -0.1211  0.7725  0.0677
 6977SOL    HW132390   4.090   0.001   1.115 -0.1361 -1.0869 -0.9840
 6977SOL    HW232391   4.006   0.014   0.985  2.5413  1.1537 -4.5797
 6978SOL     OW32392   1.047   0.961   4.373 -0.5215 -0.0128 -0.2582
 6978SOL    HW132393   1.127   1.010   4.353 -0.3193 -0.7384 -1.2913
 6978SOL    HW232394   1.011   1.000   4.452  0.0767 -1.1781  0.6000
 6979SOL     OW32395   3.848   1.650  11.609 -0.1331 -0.0942  0.6500
 6979SOL    HW132396   3.820   1.633  11.698 -1.4448 -1.1166  0.0372
 6979SOL    HW232397   3.918   1.713  11.630  1.0003 -1.2733  0.4364
 6980SOL     OW32398   2.658   0.575   5.344  0.7205  0.3363  0.5483
 6980SOL    HW132399   2.714   0.621   5.281  0.1295 -0.1133 -0.2976
 6980SOL    HW232400   2.684   0.483   5.336  1.4316  0.4735  1.3118
 6981SOL     OW32401   1.349   1.738   4.823  0.0197 -0.6168  0.4576
 6981SOL    HW132402   1.387   1.762   4.738  0.8969 -0.1792  0.9676
 6981SOL    HW232403   1.346   1.825   4.862 -0.6870 -0.9025  1.0380
 6982SOL     OW32404   0.428   3.805   8.296 -0.5208 -0.6164 -0.2596
 6982SOL    HW132405   0.367   3.871   8.262 -0.9935 -0.4258  0.9677
 6982SOL    HW232406   0.395   3.799   8.386  0.8239  0.8304  0.3320
 6983SOL     OW32407   1.176   3.531   7.143 -0.5459  0.0102  0.2192
 6983SOL    HW132408   1.112   3.465   7.116 -0.5778  0.7831 -1.5376
 6983SOL    HW232409   1.130   3.597   7.195  0.5846 -1.8123  3.5983
 6984SOL     OW32410   1.931   2.214   7.625 -0.0688 -0.3082 -0.1297
 6984SOL    HW132411   1.861   2.184   7.568 -0.9464  1.6187 -0.0883
 6984SOL    HW232412   1.915   2.307   7.643  0.5657 -0.1333 -0.4589
 6985SOL     OW32413   3.886   0.831   5.138 -0.8805 -0.6828 -0.0584
 6985SOL    HW132414   3.797   0.813   5.108 -0.8224 -0.2294 -0.5026
 6985SOL    HW232415   3.911   0.892   5.069 -2.2894 -0.2897 -0.2151
 6986SOL     OW32416   4.216   1.422  16.596  0.2513 -0.0474  0.4950
 6986SOL    HW132417   4.248   1.345  16.643 -2.7046 -0.5805  1.6262
 6986SOL    HW232418   4.275   1.489  16.630 -1.4661  0.8928  1.5918
 6987SOL     OW32419   2.733   4.292   6.100  0.1894  0.0923 -0.5827
 6987SOL    HW132420   2.791   4.216   6.098  0.5813  0.4238 -1.5416
 6987SOL    HW232421   2.781   4.342   6.034 -0.0019 -0.2738 -1.0026
 6988SOL     OW32422   2.075   2.690  12.260  0.7929 -0.3707  0.3058
 6988SOL    HW132423   2.044   2.629  12.327  1.7173 -0.9634  0.1896
 6988SOL    HW232424   2.009   2.759  12.272  2.6656  1.0524  2.3065
 6989SOL     OW32425   1.644   1.816   7.525  0.2683  0.1231 -0.0649
 6989SOL    HW132426   1.625   1.737   7.577  0.4646 -0.8196 -1.4323
 6989SOL    HW232427   1.710   1.853   7.583 -0.5932  2.4458 -0.5659
 6990SOL     OW32428   0.412   4.643  13.641  0.5251  0.7555 -0.6217
 6990SOL    HW132429   0.396   4.581  13.570  2.3516  0.3153 -0.6463
 6990SOL    HW232430   0.362   4.719  13.613 -0.7025  0.4817  0.8322
 6991SOL     OW32431   1.593   1.851  16.507  0.4481 -0.0050 -0.2284
 6991SOL    HW132432   1.664   1.906  16.474  0.4560 -0.7939 -1.4959
 6991SOL    HW232433   1.533   1.913  16.549  1.1394 -0.3670  1.3184
 6992SOL     OW32434   1.741   4.638   8.705  0.4026 -0.5724  0.6599
 6992SOL    HW132435   1.718   4.565   8.762 -1.1137 -0.5957  0.0087
 6992SOL    HW232436   1.835   4.653   8.716  0.4254  0.7826 -1.3659
 6993SOL     OW32437   3.156   4.414   5.489  0.5472  0.0015  0.6878
 6993SOL    HW132438   3.148   4.400   5.584 -0.9005 -1.2883  0.3644
 6993SOL    HW232439   3.177   4.328   5.453  1.5738  0.7191 -0.4074
 6994SOL     OW32440   3.887   3.932  15.267 -0.1820 -0.2454  0.4596
 6994SOL    HW132441   3.818   3.979  15.220  0.1416 -0.7692 -0.5446
 6994SOL    HW232442   3.842   3.926  15.351  1.3493  0.8217  1.3436
 6995SOL     OW32443   2.832   1.343   4.368 -0.3102 -0.0950 -0.2158
 6995SOL    HW132444   2.847   1.349   4.463 -0.1270  2.6286 -0.4059
 6995SOL    HW232445   2.842   1.437   4.349  0.3747 -0.0870  0.1782
 6996SOL     OW32446   1.553   3.498   9.340  0.0473  0.0389  0.2455
 6996SOL    HW132447   1.525   3.560   9.273 -2.6711  0.4708  1.7885
 6996SOL    HW232448   1.647   3.515   9.330 -0.5668  0.9466 -3.8307
 6997SOL     OW32449   2.289   2.627   5.588  0.1832 -0.4627 -0.4510
 6997SOL    HW132450   2.315   2.708   5.631 -0.0563  0.1959 -1.5471
 6997SOL    HW232451   2.302   2.650   5.495  0.8842 -2.4059 -0.8413
 6998SOL     OW32452   0.213   3.066   0.361 -0.5690  0.4228 -0.0891
 6998SOL    HW132453   0.245   2.978   0.376 -2.6282 -0.6402 -1.8008
 6998SOL    HW232454   0.256   3.106   0.285 -0.9690  0.4226 -0.3190
 6999SOL     OW32455   4.033   2.680  12.620 -0.5741 -0.1831 -0.5102
 6999SOL    HW132456   3.976   2.608  12.593 -1.5605  0.6949 -0.7519
 6999SOL    HW232457   4.080   2.634  12.690 -0.0052 -1.1382 -1.5133
 7000SOL     OW32458   1.361   1.259   1.870  0.4562  0.1182 -0.0212
 7000SOL    HW132459   1.401   1.266   1.783 -2.1507 -0.0583 -1.2342
 7000SOL    HW232460   1.431   1.205   1.909 -2.2406 -1.5164  2.5350
 7001SOL     OW32461   2.197   2.396   8.430 -0.6514 -0.0476  0.0258
 7001SOL    HW132462   2.128   2.330   8.436  0.9357 -1.9714 -3.4317
 7001SOL    HW232463   2.174   2.450   8.506  0.7072 -1.0001  1.1176
 7002SOL     OW32464   3.454   0.471  10.775  0.3671 -0.2486 -0.0751
 7002SOL    HW132465   3.479   0.462  10.867 -0.0362  0.3904  0.0946
 7002SOL    HW232466   3.385   0.536  10.764 -0.8834 -1.5044  0.2899
 7003SOL     OW32467   4.372   0.212   9.565  1.0776  0.2397  0.5827
 7003SOL    HW132468   4.338   0.191   9.652  0.5172 -1.6366 -0.0910
 7003SOL    HW232469   4.456   0.166   9.561  1.0985  0.3799 -0.7933
 7004SOL     OW32470   1.297   4.349   7.956  0.0502  0.0225  0.1954
 7004SOL    HW132471   1.213   4.305   7.947  0.0432  0.1960 -0.5417
 7004SOL    HW232472   1.282   4.444   7.958 -0.8478 -0.1404  1.3116
 7005SOL     OW32473   4.094   3.494   7.256  0.3897 -0.2572  0.7689
 7005SOL    HW132474   4.186   3.470   7.249  0.0470 -1.4317  0.2819
 7005SOL    HW232475   4.071   3.428   7.321 -1.3615 -1.2830 -0.9090
 7006SOL     OW32476   3.488   0.258   3.409  0.3272  0.1848 -0.6518
 7006SOL    HW132477   3.480   0.316   3.333  0.5787 -1.0161 -1.5953
 7006SOL    HW232478   3.578   0.232   3.389  0.8018  0.0288  1.7534
 7007SOL     OW32479   3.130   1.959   2.559 -0.4416  0.2072 -0.1162
 7007SOL    HW132480   3.069   1.961   2.485 -0.1767 -2.0518 -0.4194
 7007SOL    HW232481   3.151   2.052   2.554 -0.2680  0.3867  3.8503
 7008SOL     OW32482   0.489   2.164   8.354  0.2490 -0.1745 -0.1792
 7008SOL    HW132483   0.418   2.144   8.416  1.0297 -0.2277  0.6989
 7008SOL    HW232484   0.550   2.196   8.421  0.3030  1.8033 -1.1680
 7009SOL     OW32485   3.939   3.106  15.327 -0.1322  0.3735 -0.2986
 7009SOL    HW132486   3.885   3.109  15.248  0.2513 -0.7319 -0.6017
 7009SOL    HW232487   3.869   3.095  15.391  1.0132  1.4779  1.1489
 7010SOL     OW32488   4.474   1.401   7.750 -0.0800 -0.0203 -0.1813
 7010SOL    HW132489   4.505   1.377   7.837  0.3903 -0.4829 -0.4828
 7010SOL    HW232490   4.406   1.464   7.776 -0.9894 -1.1479  0.1653
 7011SOL     OW32491   2.826   4.431   9.028 -0.7301 -0.1406 -0.0346
 7011SOL    HW132492   2.764   4.502   9.012  0.8748  0.9425 -1.5513
 7011SOL    HW232493   2.754   4.372   9.047 -0.6768  1.0926  3.8881
 7012SOL     OW32494   4.525   3.726  13.928  0.1361  0.1294 -0.2845
 7012SOL    HW132495   4.516   3.697  14.018 -3.0382  0.2125 -0.5692
 7012SOL    HW232496   4.612   3.693  13.908 -0.3169 -1.7037  0.7987
 7013SOL     OW32497   1.377   0.238   7.952 -0.3972 -0.4356 -0.6390
 7013SOL    HW132498   1.346   0.155   7.915 -1.1783 -0.6063  0.3900
 7013SOL    HW232499   1.348   0.216   8.040  2.0969  0.4334  0.3855
 7014SOL     OW32500   0.459   1.829  13.591  0.3401  0.6002  0.1750
 7014SOL    HW132501   0.479   1.740  13.620  1.9921  1.1123  0.6266
 7014SOL    HW232502   0.528   1.886  13.627 -0.1079  1.6813 -0.6676
 7015SOL     OW32503   4.331   1.437   5.517 -0.0036 -0.1265  0.4520
 7015SOL    HW132504   4.348   1.531   5.512  1.2364 -0.2030  3.3123
 7015SOL    HW232505   4.282   1.426   5.436  2.4444  1.2381 -1.2139
 7016SOL     OW32506   3.483   2.264   6.173 -0.1890  0.1946 -0.1363
 7016SOL    HW132507   3.493   2.169   6.183 -1.4817  0.0505 -0.2683
 7016SOL    HW232508   3.575   2.286   6.161 -0.3003 -0.2669 -1.8485
 7017SOL     OW32509   3.252   4.067   9.601 -0.2476  0.2101  0.4683
 7017SOL    HW132510   3.246   4.153   9.643 -1.2648 -0.3362  1.4450
 7017SOL    HW232511   3.220   4.021   9.679  1.8572  1.6588  2.1850
 7018SOL     OW32512   2.415   2.037   6.295  0.5532  0.4052 -0.4607
 7018SOL    HW132513   2.422   2.132   6.285  0.4746  0.3093 -1.4363
 7018SOL    HW232514   2.397   2.010   6.205  0.2625 -0.2339 -0.2094
 7019SOL     OW32515   3.174   1.013   3.859 -0.6706  0.1637 -0.0974
 7019SOL    HW132516   3.115   0.965   3.918 -2.3321  1.3669 -0.7948
 7019SOL    HW232517   3.210   1.073   3.924 -0.3915 -1.5432  1.3193
 7020SOL     OW32518   1.467   0.062   8.546 -0.4991 -0.5533 -0.0708
 7020SOL    HW132519   1.516   0.065   8.628 -0.0393 -0.2472 -0.3622
 7020SOL    HW232520   1.455   0.156   8.537 -1.6416 -0.8655 -1.8315
 7021SOL     OW32521   3.410   0.237  15.010  0.1434  0.3165 -0.7682
 7021SOL    HW132522   3.501   0.254  15.035  0.0296  0.3093 -0.3396
 7021SOL    HW232523   3.367   0.235  15.096  0.0053  0.4834 -0.8338
 7022SOL     OW32524   2.607   1.082   5.183 -0.4810  0.2642  0.7149
 7022SOL    HW132525   2.520   1.073   5.144  0.0735 -0.7754 -0.3089
 7022SOL    HW232526   2.588   1.050   5.271  1.4365  0.0556  1.0477
 7023SOL     OW32527   0.207   0.513  14.837 -0.2590 -0.1689 -0.7365
 7023SOL    HW132528   0.223   0.541  14.747 -3.2723 -1.8982 -1.8239
 7023SOL    HW232529   0.122   0.471  14.841  0.2558 -0.9205  1.8279
 7024SOL     OW32530   1.001   1.274   9.156  0.2016  0.0365 -0.7658
 7024SOL    HW132531   0.942   1.324   9.212 -2.1392 -2.8965 -0.5846
 7024SOL    HW232532   1.086   1.289   9.196 -0.6740 -1.9765  1.8398
 7025SOL     OW32533   4.396   1.142   5.564 -0.4720 -0.5743  0.0226
 7025SOL    HW132534   4.327   1.201   5.594  1.0242  1.2457 -0.0917
 7025SOL    HW232535   4.464   1.209   5.551 -0.5441 -0.4039  0.5139
 7026SOL     OW32536   0.000   2.792   3.919 -0.0227  0.1699 -0.5916
 7026SOL    HW132537   0.050   2.710   3.910  0.4527  0.5269 -1.2576
 7026SOL    HW232538   4.679   2.800   4.003 -0.1108  1.7683 -0.7968
 7027SOL     OW32539   3.466   1.214   9.385  0.6004  0.2848 -0.5583
 7027SOL    HW132540   3.524   1.224   9.461 -0.5736 -3.4660  0.7941
 7027SOL    HW232541   3.491   1.126   9.359  1.6462  0.6057 -0.6598
 7028SOL     OW32542   3.644   2.825   3.652  0.1470 -0.1606  0.2082
 7028SOL    HW132543   3.721   2.819   3.709 -1.0038 -0.4061  1.7315
 7028SOL    HW232544   3.628   2.919   3.665  1.4496 -0.1428  1.6184
 7029SOL     OW32545   0.507   0.353   6.450  0.3660  0.1807  0.5920
 7029SOL    HW132546   0.426   0.389   6.413  0.7809  0.0410 -0.4500
 7029SOL    HW232547   0.573   0.414   6.420  0.0159  1.1466  1.7993
 7030SOL     OW32548   4.276   1.658   8.057  0.2865 -0.2222  0.4098
 7030SOL    HW132549   4.253   1.585   8.114  1.5503  0.0215  1.2212
 7030SOL    HW232550   4.293   1.603   7.980 -0.1204 -1.4568  1.2071
 7031SOL     OW32551   1.505   4.210   8.336 -0.0189  0.4919 -0.0661
 7031SOL    HW132552   1.480   4.214   8.244 -1.3255 -0.8272  0.2323
 7031SOL    HW232553   1.579   4.149   8.335 -0.0393  0.4828 -2.5198
 7032SOL     OW32554   0.252   0.188   1.183 -0.1649 -0.1818  0.0959
 7032SOL    HW132555   0.200   0.261   1.151  2.1563  1.0489 -0.8578
 7032SOL    HW232556   0.328   0.225   1.228 -1.3293  1.3735  0.7786
 7033SOL     OW32557   3.695   2.364  14.655  0.0958  0.2997 -0.1689
 7033SOL    HW132558   3.633   2.295  14.631 -0.6868  1.1090 -0.4506
 7033SOL    HW232559   3.709   2.409  14.572 -1.5229  2.4049  0.7265
 7034SOL     OW32560   4.561   3.525   4.788 -0.1355  0.1985 -0.2718
 7034SOL    HW132561   4.520   3.440   4.804 -1.5131  1.1958  1.5231
 7034SOL    HW232562   4.497   3.591   4.815 -0.0259  0.9488 -1.8638
 7035SOL     OW32563   0.972   1.551   4.198  0.0604 -0.1609 -0.4547
 7035SOL    HW132564   1.024   1.584   4.271  1.4473 -1.9149 -0.6476
 7035SOL    HW232565   1.021   1.479   4.158  1.3227 -1.2625  3.0675
 7036SOL     OW32566   0.164   0.595   6.428  0.0545  0.0462 -0.4067
 7036SOL    HW132567   0.085   0.649   6.432  1.5684  2.4424 -2.2272
 7036SOL    HW232568   0.165   0.568   6.337 -0.5111  0.5193 -0.5542
 7037SOL     OW32569   3.718   3.440  10.853  0.4457 -0.1415  0.2867
 7037SOL    HW132570   3.714   3.369  10.917  2.4055 -1.3932 -0.9786
 7037SOL    HW232571   3.646   3.496  10.882 -0.0164 -0.1520 -0.8578
 7038SOL     OW32572   2.238   2.946   9.221  0.6584 -0.1749 -0.2324
 7038SOL    HW132573   2.314   2.887   9.225  1.2668  0.3812 -3.2700
 7038SOL    HW232574   2.289   3.022   9.247 -3.7198  2.5847  0.1038
 7039SOL     OW32575   3.000   2.383   9.964 -0.2416  0.2598 -0.0554
 7039SOL    HW132576   2.981   2.355   9.875 -1.5744  2.0023 -0.3333
 7039SOL    HW232577   2.914   2.410   9.997 -1.3813 -0.0634 -2.7588
 7040SOL     OW32578   0.666   1.879   3.560  0.1713 -0.0717  0.0806
 7040SOL    HW132579   0.755   1.916   3.556 -0.1266  0.5989 -0.3463
 7040SOL    HW232580   0.659   1.880   3.655 -0.4055  1.0600  0.0251
 7041SOL     OW32581   2.205   3.997   7.047  0.2476  0.5218  0.6004
 7041SOL    HW132582   2.178   4.035   6.963  0.2119 -0.7872  0.0169
 7041SOL    HW232583   2.125   4.000   7.100  0.8460 -2.3253  1.6799
 7042SOL     OW32584   1.621   1.331   2.739  0.1715  0.5457 -0.1608
 7042SOL    HW132585   1.705   1.340   2.695  0.1389  0.9733 -0.1389
 7042SOL    HW232586   1.645   1.358   2.828 -0.0979 -0.8357  0.3411
 7043SOL     OW32587   3.749   1.257  16.871  0.4889  0.8946 -0.3358
 7043SOL    HW132588   3.779   1.186  16.927 -0.0887  0.3833 -0.6581
 7043SOL    HW232589   3.775   1.224  16.784  0.8660 -0.1543  0.1733
 7044SOL     OW32590   0.714   2.034  14.222 -0.3230  0.8141 -0.8587
 7044SOL    HW132591   0.654   2.055  14.151 -1.1761 -1.6834 -0.8748
 7044SOL    HW232592   0.676   1.956  14.262 -0.3129 -0.1545 -2.7381
 7045SOL     OW32593   0.325   1.306   7.642  0.2044 -0.1790  0.1547
 7045SOL    HW132594   0.294   1.230   7.692  0.6899 -0.1289  0.5254
 7045SOL    HW232595   0.403   1.321   7.695 -2.2393  1.3980  3.3494
 7046SOL     OW32596   1.022   1.192   8.437 -0.5692 -0.0768  0.5755
 7046SOL    HW132597   1.068   1.243   8.503 -1.5747  1.9136 -0.2442
 7046SOL    HW232598   1.098   1.166   8.386 -0.8090 -1.1267  0.7526
 7047SOL     OW32599   2.846   2.631   7.751  0.1491  0.7436 -0.2954
 7047SOL    HW132600   2.903   2.554   7.751 -0.6587  0.1466 -2.2855
 7047SOL    HW232601   2.847   2.660   7.660  0.1172  0.4192 -0.4000
 7048SOL     OW32602   4.458   1.961   4.135  0.4043  0.3552 -0.4081
 7048SOL    HW132603   4.413   2.045   4.139  0.8644  0.5827  0.1321
 7048SOL    HW232604   4.550   1.988   4.132  1.1027 -2.2382 -2.2122
 7049SOL     OW32605   3.673   1.056   7.825 -0.6404  0.3708  0.1941
 7049SOL    HW132606   3.690   1.141   7.865  0.7121 -0.0931  0.6232
 7049SOL    HW232607   3.716   1.058   7.739 -2.7262  2.5876 -0.8009
 7050SOL     OW32608   2.482   1.607   9.117  0.2084 -0.0634  0.5547
 7050SOL    HW132609   2.570   1.616   9.081  0.6721  0.3815  1.8074
 7050SOL    HW232610   2.439   1.548   9.055 -0.9312  2.3397 -0.9461
 7051SOL     OW32611   1.921   1.511   2.436  0.1400  0.7807 -0.2597
 7051SOL    HW132612   1.993   1.570   2.416  0.0130  1.2367  0.6513
 7051SOL    HW232613   1.860   1.558   2.379  0.0729 -0.1373 -0.9483
 7052SOL     OW32614   0.264   4.222   5.047  0.5604  0.3038 -0.5036
 7052SOL    HW132615   0.197   4.278   5.007 -0.7312 -0.1904  0.9394
 7052SOL    HW232616   0.256   4.248   5.139 -0.6419 -1.1382 -0.1874
 7053SOL     OW32617   4.357   0.191   3.591  0.7743  0.6079  0.2623
 7053SOL    HW132618   4.381   0.256   3.657  0.2432 -0.1859  1.2253
 7053SOL    HW232619   4.432   0.194   3.531 -0.2343 -3.0012 -1.1773
 7054SOL     OW32620   0.217   4.048  12.965 -0.4277 -0.1414 -0.2113
 7054SOL    HW132621   0.254   3.998  12.893 -2.2833 -0.8529 -0.6859
 7054SOL    HW232622   0.211   3.984  13.036 -2.1008  1.4403  1.0858
 7055SOL     OW32623   0.994   0.510  10.284 -0.1465  0.4750 -0.5771
 7055SOL    HW132624   1.010   0.471  10.198 -0.9567  2.4699 -1.6346
 7055SOL    HW232625   0.913   0.470  10.316 -0.4998 -0.2014 -2.3315
 7056SOL     OW32626   2.333   1.593   3.907 -0.4302 -0.1033  0.3892
 7056SOL    HW132627   2.253   1.555   3.871 -0.7161 -0.4633  1.4224
 7056SOL    HW232628   2.385   1.512   3.904  0.1402  0.3321 -2.3548
 7057SOL     OW32629   3.611   3.249   9.005  0.0679  0.0372 -0.3385
 7057SOL    HW132630   3.641   3.201   8.928 -0.6555  0.1404 -0.6877
 7057SOL    HW232631   3.680   3.315   9.005  0.2903 -0.1982 -0.9536
 7058SOL     OW32632   2.011   2.052   8.193 -0.0877  0.3751  0.1916
 7058SOL    HW132633   2.105   2.053   8.177 -0.1357 -0.5307 -0.2014
 7058SOL    HW232634   2.008   2.006   8.277 -1.5177 -2.0446 -1.1654
 7059SOL     OW32635   0.264   3.239   7.466  0.0819 -0.0627 -0.0292
 7059SOL    HW132636   0.267   3.144   7.450 -1.7079 -0.2402  0.7111
 7059SOL    HW232637   0.179   3.237   7.510  0.1534  2.3316  0.1722
 7060SOL     OW32638   1.914   0.606   0.792  0.0492  0.1473  0.1199
 7060SOL    HW132639   1.950   0.522   0.823  0.6737 -0.5529 -2.5591
 7060SOL    HW232640   1.835   0.567   0.755 -1.1141 -0.2129  2.9892
 7061SOL     OW32641   0.239   1.933  11.059  0.3451  0.5953 -0.7247
 7061SOL    HW132642   0.178   1.945  11.132  0.3073 -0.4587 -0.5873
 7061SOL    HW232643   0.173   1.928  10.990  0.2734  1.7072 -0.7315
 7062SOL     OW32644   0.478   3.318   3.665  0.2049 -0.1392  0.1309
 7062SOL    HW132645   0.548   3.350   3.607 -0.5413  0.3320 -0.4993
 7062SOL    HW232646   0.538   3.293   3.736 -1.0348 -0.5954  1.0042
 7063SOL     OW32647   4.139   1.335   5.960  0.0603 -0.1955  0.0235
 7063SOL    HW132648   4.112   1.350   6.050  1.1881 -2.3061  0.7301
 7063SOL    HW232649   4.095   1.406   5.914  0.0769 -0.0414  0.2485
 7064SOL     OW32650   2.188   1.949  15.750  0.1942 -0.0697 -0.5907
 7064SOL    HW132651   2.140   1.982  15.827 -1.6067 -1.0528 -1.3190
 7064SOL    HW232652   2.262   1.908  15.794  1.5420  1.0063 -1.8549
 7065SOL     OW32653   2.949   1.607   0.112 -0.3320  0.0640  0.4689
 7065SOL    HW132654   2.997   1.585   0.192  0.3777  0.0913  0.0448
 7065SOL    HW232655   2.860   1.576   0.131 -0.0012 -0.7688  0.6464
 7066SOL     OW32656   3.354   3.759   2.463  0.2918 -0.4117  0.6344
 7066SOL    HW132657   3.325   3.670   2.444 -0.2077  0.0734 -0.9016
 7066SOL    HW232658   3.314   3.771   2.549  0.6112  0.2053  0.6996
 7067SOL     OW32659   1.179   4.206  13.602  0.1095  0.9220 -0.4722
 7067SOL    HW132660   1.184   4.121  13.560  2.0692  1.3251 -1.0870
 7067SOL    HW232661   1.178   4.260  13.523  2.5667 -0.3044 -1.3543
 7068SOL     OW32662   2.242   0.878   9.763 -0.5366 -0.1152 -0.9070
 7068SOL    HW132663   2.204   0.966   9.762  2.9273  1.4073 -0.7648
 7068SOL    HW232664   2.337   0.893   9.769 -0.8412  1.4463 -0.1435
 7069SOL     OW32665   2.177   2.439   7.853 -0.2030  0.2253 -0.2129
 7069SOL    HW132666   2.173   2.532   7.876  1.2247  0.7350 -2.0858
 7069SOL    HW232667   2.103   2.397   7.898 -1.4867  1.2276 -1.3702
 7070SOL     OW32668   0.598   3.273   6.957 -0.5542  0.4271 -0.0116
 7070SOL    HW132669   0.684   3.257   6.996 -1.1480  0.4607  1.3126
 7070SOL    HW232670   0.540   3.245   7.028  0.2817 -1.5335 -0.0834
 7071SOL     OW32671   0.989   2.318   9.035  0.4401  0.5087 -0.0489
 7071SOL    HW132672   0.950   2.277   9.112  1.5837 -1.4934 -0.5220
 7071SOL    HW232673   0.974   2.408   9.062  0.8445  0.6251 -0.2162
 7072SOL     OW32674   2.858   1.472  15.063  0.7112  0.0807  0.1284
 7072SOL    HW132675   2.941   1.514  15.081  1.2046 -0.9655  0.3185
 7072SOL    HW232676   2.805   1.492  15.141 -0.0668  2.1419 -0.9439
 7073SOL     OW32677   0.701   3.425   0.737  0.3728  0.2515  0.4648
 7073SOL    HW132678   0.613   3.393   0.757  0.5569  0.4220  1.5742
 7073SOL    HW232679   0.739   3.360   0.679  1.3628  0.7991  0.5097
 7074SOL     OW32680   0.375   4.391  11.880 -0.2465  0.0311 -0.3238
 7074SOL    HW132681   0.428   4.422  11.953  0.2785  0.4354 -0.8698
 7074SOL    HW232682   0.383   4.469  11.824 -2.6126  1.0288  0.7095
 7075SOL     OW32683   2.810   1.132  10.593  0.2051  0.4968 -0.3387
 7075SOL    HW132684   2.798   1.111  10.686  2.0110 -1.0158 -0.4622
 7075SOL    HW232685   2.841   1.221  10.612 -3.4967  1.6600  0.2684
 7076SOL     OW32686   3.317   4.434   1.739 -0.1060 -1.1071 -0.8464
 7076SOL    HW132687   3.409   4.429   1.713 -0.1370 -2.1769 -0.7504
 7076SOL    HW232688   3.280   4.347   1.723  0.3423 -1.1135 -1.8338
 7077SOL     OW32689   1.335   3.202   3.155 -0.4882  0.1750  0.0643
 7077SOL    HW132690   1.384   3.148   3.093  1.9386  0.4210  1.7761
 7077SOL    HW232691   1.301   3.139   3.219 -1.8186  1.0182  0.1832
 7078SOL     OW32692   4.347   3.606   0.886  0.2243 -0.0956  0.3568
 7078SOL    HW132693   4.385   3.523   0.858 -1.5362 -0.3579 -1.2253
 7078SOL    HW232694   4.282   3.569   0.945 -0.7856 -0.7892 -1.2021
 7079SOL     OW32695   1.500   0.564  10.720 -0.2000 -0.0158 -1.0100
 7079SOL    HW132696   1.480   0.623  10.648  1.6043  1.1437 -0.5619
 7079SOL    HW232697   1.485   0.627  10.790  0.3327 -1.5868  0.5341
 7080SOL     OW32698   3.639   1.032  14.959 -0.5353  0.1936  0.1901
 7080SOL    HW132699   3.621   1.040  14.865 -0.1830 -1.5763 -0.0342
 7080SOL    HW232700   3.550   1.007  14.985 -1.1028  0.6599 -1.2999
 7081SOL     OW32701   1.132   3.243   4.917  0.4404  0.6668 -0.0275
 7081SOL    HW132702   1.183   3.163   4.929 -0.2145  0.1827 -0.4221
 7081SOL    HW232703   1.063   3.199   4.868  1.3666 -0.6174 -0.1689
 7082SOL     OW32704   0.126   2.108  17.463 -0.3358  0.4106 -0.2123
 7082SOL    HW132705   0.143   2.183  17.521 -0.0599  0.3352 -0.1963
 7082SOL    HW232706   0.033   2.124  17.451 -0.8595 -1.3387  1.5031
 7083SOL     OW32707   2.307   4.467  16.422  0.5538 -0.0647  0.1088
 7083SOL    HW132708   2.224   4.466  16.470  0.1225 -0.9169 -0.6421
 7083SOL    HW232709   2.370   4.496  16.488 -0.9887  0.4943  1.3330
 7084SOL     OW32710   3.845   0.513   8.738 -0.3797  0.4369  0.1764
 7084SOL    HW132711   3.893   0.517   8.656 -1.4739  3.0676 -0.3391
 7084SOL    HW232712   3.809   0.425   8.739  1.3346 -0.2812 -1.7422
 7085SOL     OW32713   4.125   0.679   4.149 -0.3124 -0.1346 -1.0278
 7085SOL    HW132714   4.145   0.673   4.056 -0.0029 -2.4005 -0.8298
 7085SOL    HW232715   4.064   0.752   4.158 -1.6024 -1.4677  1.0240
 7086SOL     OW32716   2.561   1.542   3.320 -0.6157 -0.3552 -0.0584
 7086SOL    HW132717   2.535   1.452   3.299 -1.7921  0.2012 -0.9924
 7086SOL    HW232718   2.563   1.583   3.234  1.5605  0.6263  0.4682
 7087SOL     OW32719   3.116   3.903   6.036 -0.1014 -0.0437  0.1306
 7087SOL    HW132720   3.074   3.882   5.953  0.1752 -1.1980  0.2873
 7087SOL    HW232721   3.044   3.879   6.094  1.6846  1.5779  3.0427
 7088SOL     OW32722   1.911   2.692   3.590 -0.2008 -0.4128 -0.3619
 7088SOL    HW132723   1.943   2.777   3.622 -0.3485 -0.3509 -0.3765
 7088SOL    HW232724   1.875   2.717   3.505 -1.1663  1.8635  0.7226
 7089SOL     OW32725   1.191   3.240   2.087 -0.5709  0.8160  0.4252
 7089SOL    HW132726   1.233   3.165   2.044 -0.2071  1.6879 -0.7606
 7089SOL    HW232727   1.259   3.305   2.066  0.1297  1.3584  4.4787
 7090SOL     OW32728   1.576   2.064   0.286  0.0047 -0.3352  0.1451
 7090SOL    HW132729   1.599   2.157   0.285  0.7504 -0.5182  0.0789
 7090SOL    HW232730   1.529   2.074   0.203 -0.5184  1.0623  0.6081
 7091SOL     OW32731   0.435   4.569  13.084 -0.5915  0.0182 -0.2263
 7091SOL    HW132732   0.508   4.626  13.106 -2.6078  2.8897 -1.0392
 7091SOL    HW232733   0.462   4.477  13.092  0.7313  0.4826  0.6224
 7092SOL     OW32734   2.513   0.190   7.815  0.5250  0.1150 -0.3364
 7092SOL    HW132735   2.433   0.222   7.857  1.4916  1.1920  0.6628
 7092SOL    HW232736   2.511   0.229   7.728 -1.2918 -0.9517 -0.7734
 7093SOL     OW32737   4.203   0.621   2.183 -0.7993 -0.4001 -0.1267
 7093SOL    HW132738   4.165   0.709   2.192 -1.5340 -0.8551  1.2592
 7093SOL    HW232739   4.154   0.569   2.247 -1.3754  0.6430  0.2969
 7094SOL     OW32740   1.344   4.307   9.856  0.7872 -0.0847  0.1392
 7094SOL    HW132741   1.370   4.223   9.896  2.9713 -0.5823 -2.3648
 7094SOL    HW232742   1.410   4.366   9.891 -1.2781  2.8925 -1.0190
 7095SOL     OW32743   0.298   1.817   1.365  0.7357 -0.1582  0.0600
 7095SOL    HW132744   0.385   1.779   1.354  1.3981  0.5893  2.5890
 7095SOL    HW232745   0.310   1.896   1.417 -0.3199 -0.1399  0.2800
 7096SOL     OW32746   0.955   4.028   8.504  0.3768 -0.1287  0.7194
 7096SOL    HW132747   1.024   4.094   8.511  0.6761 -0.1776 -1.6603
 7096SOL    HW232748   1.008   3.962   8.549 -0.8516 -0.8083  1.1697
 7097SOL     OW32749   1.989   0.672   3.621  0.1304  0.3004 -0.5926
 7097SOL    HW132750   1.961   0.591   3.579 -1.5762 -0.1029  1.3022
 7097SOL    HW232751   1.934   0.736   3.575 -0.8563  0.6457  1.0524
 7098SOL     OW32752   1.475   0.326   6.225  0.1068 -0.4024  0.1529
 7098SOL    HW132753   1.425   0.295   6.300  0.5276  0.7851  0.9183
 7098SOL    HW232754   1.498   0.243   6.182 -0.9865 -2.1548  2.9419
 7099SOL     OW32755   2.407   0.470   8.131  0.4524 -0.1846 -0.5104
 7099SOL    HW132756   2.476   0.404   8.133  0.1053 -0.5972 -2.8489
 7099SOL    HW232757   2.449   0.551   8.101 -0.3614  0.7898  0.9704
 7100SOL     OW32758   3.756   2.739   4.414 -0.0376 -0.4412 -0.0005
 7100SOL    HW132759   3.828   2.753   4.475 -1.1342  2.5734  0.6088
 7100SOL    HW232760   3.733   2.828   4.387  0.2865 -0.6187 -0.8808
 7101SOL     OW32761   0.017   3.510   2.054 -0.4615 -0.1299 -0.4369
 7101SOL    HW132762   0.067   3.577   2.101 -1.7584  0.6318 -0.1561
 7101SOL    HW232763   0.079   3.438   2.069 -0.7293  0.0953  1.8198
 7102SOL     OW32764   0.242   4.192   5.647  0.5045 -0.1937 -0.1331
 7102SOL    HW132765   0.176   4.128   5.623  0.1646 -1.2807  3.7310
 7102SOL    HW232766   0.314   4.134   5.671  1.0031  1.5956  2.6997
 7103SOL     OW32767   0.466   3.639   4.147  0.1734  0.1900 -0.1788
 7103SOL    HW132768   0.462   3.696   4.070 -1.1842 -1.7183 -1.5368
 7103SOL    HW232769   0.417   3.567   4.107  0.7235  0.1177 -0.7380
 7104SOL     OW32770   4.034   2.969   4.742 -0.3071 -0.2947  0.6116
 7104SOL    HW132771   4.022   2.965   4.837 -2.7429 -0.4899  0.3087
 7104SOL    HW232772   4.126   2.995   4.747 -0.3078  0.1082 -1.5986
 7105SOL     OW32773   2.498   3.618   2.788 -0.0171  0.2659 -0.0073
 7105SOL    HW132774   2.478   3.620   2.694 -2.2734 -0.7758  0.4513
 7105SOL    HW232775   2.576   3.674   2.795  0.0693 -0.1980  2.8301
 7106SOL     OW32776   1.258   2.060  10.837 -0.0046 -0.1450  0.0677
 7106SOL    HW132777   1.310   1.998  10.888  2.9081  2.0276 -0.2748
 7106SOL    HW232778   1.236   2.124  10.905  0.0917  0.3541 -0.3684
 7107SOL     OW32779   3.699   4.650  12.019  0.2632  0.1293  0.4158
 7107SOL    HW132780   3.712   4.690  11.932  1.2821  0.7163  0.8403
 7107SOL    HW232781   3.755   4.573  12.009  1.9426  1.2417  1.2872
 7108SOL     OW32782   0.839   2.802  11.985 -0.3433 -0.1775 -0.2612
 7108SOL    HW132783   0.902   2.849  11.931 -0.9642  0.4294 -0.4546
 7108SOL    HW232784   0.813   2.865  12.052 -1.5040  0.0826 -0.9471
 7109SOL     OW32785   2.082   1.816   8.662 -0.2576  0.8296 -0.1661
 7109SOL    HW132786   2.152   1.839   8.724 -1.2548  0.0959  1.2333
 7109SOL    HW232787   1.999   1.832   8.705 -0.1779 -0.3339  0.4365
 7110SOL     OW32788   2.730   3.777   8.503  0.6049  0.5681  0.4120
 7110SOL    HW132789   2.673   3.843   8.542 -1.2841 -0.2601 -0.9165
 7110SOL    HW232790   2.748   3.816   8.417  1.5369  0.7137  0.6691
 7111SOL     OW32791   2.629   3.852  14.113  0.1341 -0.2069  0.1177
 7111SOL    HW132792   2.567   3.810  14.172 -1.6712  1.8599 -0.3244
 7111SOL    HW232793   2.622   3.801  14.033  0.2134 -0.3455  0.1997
 7112SOL     OW32794   3.704   3.390   8.381 -0.0200 -0.2697  0.9632
 7112SOL    HW132795   3.644   3.315   8.388 -0.1727 -0.3520 -1.4138
 7112SOL    HW232796   3.749   3.375   8.298  0.8866 -0.6966  1.5395
 7113SOL     OW32797   0.322   0.843  12.985 -0.1242 -0.0958 -0.0913
 7113SOL    HW132798   0.260   0.771  12.995  1.8596 -1.9621 -1.2490
 7113SOL    HW232799   0.279   0.919  12.948 -1.2924 -2.4341 -3.4641
 7114SOL     OW32800   4.087   2.837   7.025 -0.5069 -0.0760  0.4065
 7114SOL    HW132801   4.037   2.852   7.106 -1.4994  0.1973 -0.2570
 7114SOL    HW232802   4.029   2.884   6.965  2.2071  0.5787 -1.7116
 7115SOL     OW32803   0.637   1.966  13.760 -0.2761  0.2139 -0.7191
 7115SOL    HW132804   0.612   2.028  13.828  2.3579 -0.3047  0.7231
 7115SOL    HW232805   0.665   1.891  13.812  0.3326 -0.0267 -1.3860
 7116SOL     OW32806   2.700   1.745   2.475  0.3771  0.3734 -0.2206
 7116SOL    HW132807   2.792   1.734   2.503 -0.1786 -2.0208  0.7147
 7116SOL    HW232808   2.716   1.741   2.381 -0.5339 -0.6484 -0.3268
 7117SOL     OW32809   1.642   2.622   0.333  0.3178 -0.2417  0.2856
 7117SOL    HW132810   1.658   2.694   0.273  1.1204 -0.3361  0.3927
 7117SOL    HW232811   1.549   2.642   0.348 -0.9967 -4.1123 -2.5422
 7118SOL     OW32812   3.328   0.674   9.172  0.0455 -0.6470 -0.0464
 7118SOL    HW132813   3.318   0.763   9.204  1.3103 -0.1718 -1.0305
 7118SOL    HW232814   3.300   0.624   9.250  0.9861  0.1043  0.7601
 7119SOL     OW32815   1.829   3.885   6.877  0.0176 -0.3066  0.9777
 7119SOL    HW132816   1.894   3.840   6.930  1.0872  0.8260  0.6262
 7119SOL    HW232817   1.834   3.832   6.797  1.0070  1.6292 -0.2366
 7120SOL     OW32818   4.257   0.890  17.180  0.7665  0.6292 -0.0878
 7120SOL    HW132819   4.302   0.808  17.201 -5.1771 -2.8821 -1.0928
 7120SOL    HW232820   4.257   0.884  17.084  0.7337 -0.5923 -0.0116
 7121SOL     OW32821   4.574   4.282   6.481 -0.2978  0.0014 -0.1897
 7121SOL    HW132822   4.543   4.192   6.476 -0.9100  0.2988 -1.7457
 7121SOL    HW232823   4.664   4.273   6.509 -0.3890  0.3917  0.2318
 7122SOL     OW32824   2.585   2.923   1.196  0.1249 -0.2766  0.4097
 7122SOL    HW132825   2.621   3.010   1.182 -3.0370  0.9281 -0.0772
 7122SOL    HW232826   2.573   2.890   1.107  2.1437 -1.0195  0.4094
 7123SOL     OW32827   1.899   0.285   7.048 -0.4015  0.2397 -0.1593
 7123SOL    HW132828   1.888   0.380   7.060  1.2820  0.2631  1.1360
 7123SOL    HW232829   1.872   0.244   7.130 -0.3830  1.8393  0.6504
 7124SOL     OW32830   0.802   0.428   5.614  0.1633  0.2555 -0.5893
 7124SOL    HW132831   0.895   0.412   5.600  0.1464 -1.6690  1.5748
 7124SOL    HW232832   0.803   0.428   5.710  0.2753 -1.1665 -0.5866
 7125SOL     OW32833   3.125   4.463   3.865  0.3657 -0.4613 -0.1044
 7125SOL    HW132834   3.138   4.453   3.771  3.2007 -0.2502  0.2739
 7125SOL    HW232835   3.116   4.558   3.878 -1.1711 -0.8569  1.7076
 7126SOL     OW32836   0.216   1.653   5.626  0.1089  0.7009  0.1521
 7126SOL    HW132837   0.164   1.631   5.704 -0.0350  3.2290  0.7514
 7126SOL    HW232838   0.149   1.647   5.557  0.1390 -1.1963  0.2726
 7127SOL     OW32839   0.907   3.594  10.296  0.1634  0.0073 -0.4158
 7127SOL    HW132840   0.997   3.563  10.289  0.3825  0.4113  0.7664
 7127SOL    HW232841   0.868   3.514  10.331  1.0554 -1.2219 -2.2240
 7128SOL     OW32842   4.512   3.636   5.915  0.7247  0.0864  0.8970
 7128SOL    HW132843   4.501   3.546   5.945  0.8344 -0.4681 -0.7153
 7128SOL    HW232844   4.470   3.641   5.829  0.2676  2.0726  1.2449
 7129SOL     OW32845   2.900   2.002   3.824 -0.5217  0.5256 -0.1161
 7129SOL    HW132846   2.889   1.983   3.731  0.9930 -0.6206 -0.0593
 7129SOL    HW232847   2.865   1.920   3.862 -0.7041  1.2215  1.2327
 7130SOL     OW32848   1.093   0.427   4.014  0.0518  0.1515 -0.1970
 7130SOL    HW132849   1.043   0.381   3.946  1.0287 -1.0519 -0.1175
 7130SOL    HW232850   1.089   0.521   3.997  1.5911  0.2426 -0.0192
 7131SOL     OW32851   1.058   2.946   7.339 -0.1803  0.4353  0.0945
 7131SOL    HW132852   1.118   2.912   7.272  0.7692 -1.2819  1.7988
 7131SOL    HW232853   1.111   2.949   7.419 -0.7698  0.1566  0.4977
 7132SOL     OW32854   1.119   0.083   0.982 -0.0545  0.6870 -0.4768
 7132SOL    HW132855   1.201   0.074   1.030 -0.9948  0.6623  1.1186
 7132SOL    HW232856   1.129   0.174   0.953 -2.3746 -0.4171 -4.7622
 7133SOL     OW32857   2.244   4.120   5.499 -0.5684 -0.1438  0.4066
 7133SOL    HW132858   2.292   4.039   5.517  3.3349  1.8489 -0.9513
 7133SOL    HW232859   2.314   4.184   5.484  0.0897 -1.1195 -0.6228
 7134SOL     OW32860   1.344   1.538   7.287 -0.1739 -0.1783  0.4268
 7134SOL    HW132861   1.434   1.533   7.253  1.4766 -0.1163  4.7458
 7134SOL    HW232862   1.374   1.519   7.376 -0.9712  3.3689  1.4669
 7135SOL     OW32863   3.066   4.721   7.075 -0.6035  0.6402  0.0046
 7135SOL    HW132864   3.133   4.670   7.029  0.1610  0.5069  1.2561
 7135SOL    HW232865   3.019   0.012   6.993  0.4856  0.8348 -0.5873
 7136SOL     OW32866   1.278   3.998   6.739  0.5071 -0.3891  0.3666
 7136SOL    HW132867   1.236   4.065   6.685 -0.4045 -2.0423 -0.9748
 7136SOL    HW232868   1.359   3.979   6.692  0.9858 -0.9642  1.4337
 7137SOL     OW32869   4.370   0.551   8.256  0.4436 -0.5052 -0.1776
 7137SOL    HW132870   4.346   0.623   8.197 -0.5548  1.9228  3.1645
 7137SOL    HW232871   4.438   0.590   8.311 -1.0038  0.0715  1.2069
 7138SOL     OW32872   1.836   3.506  13.646  0.0722  0.5991 -0.1981
 7138SOL    HW132873   1.931   3.511  13.647  0.1163 -0.6303  1.2543
 7138SOL    HW232874   1.819   3.529  13.555  2.2238  2.3815 -0.1564
 7139SOL     OW32875   2.621   3.769   5.073  0.0591 -0.4959 -0.3753
 7139SOL    HW132876   2.682   3.703   5.041  2.2287  1.5722 -0.5348
 7139SOL    HW232877   2.549   3.753   5.012 -1.1202  1.6377  0.4561
 7140SOL     OW32878   1.441   0.843  10.082 -0.3243 -0.2691 -0.0233
 7140SOL    HW132879   1.361   0.896  10.088 -0.4408 -0.0492 -3.2623
 7140SOL    HW232880   1.507   0.899  10.123 -0.1783 -0.7297  0.3641
 7141SOL     OW32881   0.368   1.833  14.102 -0.7471  0.3514 -0.1155
 7141SOL    HW132882   0.378   1.755  14.047  2.7341  0.5307  0.2656
 7141SOL    HW232883   0.316   1.888  14.044  1.1414  0.7818 -1.3861
 7142SOL     OW32884   4.379   1.784   5.943  0.5537 -0.3878  0.0427
 7142SOL    HW132885   4.373   1.740   6.027  1.0629 -0.8966 -0.1841
 7142SOL    HW232886   4.470   1.812   5.946  0.5475 -0.4752  0.8815
 7143SOL     OW32887   2.991   1.049  10.005  0.7512 -0.3075  0.3734
 7143SOL    HW132888   2.954   1.048   9.917 -1.9227  0.3400  1.4951
 7143SOL    HW232889   2.983   0.957  10.030 -0.3026 -0.8834 -2.0791
 7144SOL     OW32890   2.600   0.362   4.458  0.2020 -0.1293  0.7767
 7144SOL    HW132891   2.505   0.371   4.465 -0.0677 -1.1992 -1.5077
 7144SOL    HW232892   2.628   0.449   4.429  0.3127 -0.7081 -0.8618
 7145SOL     OW32893   3.339   1.852   7.821 -0.4847 -0.6196 -0.3421
 7145SOL    HW132894   3.430   1.875   7.805 -0.5476  0.3669  0.6759
 7145SOL    HW232895   3.341   1.757   7.832 -1.5448 -0.3060  2.5250
 7146SOL     OW32896   0.135   2.598   8.985  0.3785 -0.6596  0.0244
 7146SOL    HW132897   0.130   2.680   9.034  1.1740 -0.2328 -0.6044
 7146SOL    HW232898   0.052   2.607   8.939  0.7212 -1.3620 -0.7342
 7147SOL     OW32899   0.418   0.402   3.213  0.1580 -0.0326 -0.2999
 7147SOL    HW132900   0.485   0.405   3.281  0.4479  1.6008 -0.6548
 7147SOL    HW232901   0.461   0.458   3.149 -0.7078  1.8923  0.8220
 7148SOL     OW32902   4.005   3.225   9.535 -0.2402  0.0766  0.5885
 7148SOL    HW132903   4.035   3.159   9.598 -0.5646 -1.5475 -0.9444
 7148SOL    HW232904   4.092   3.247   9.501 -1.1351  0.7533 -1.2734
 7149SOL     OW32905   1.074   0.788   5.451  0.3150 -0.0091 -0.6612
 7149SOL    HW132906   0.996   0.791   5.396 -1.2480  2.8767  1.7481
 7149SOL    HW232907   1.033   0.746   5.527 -0.0652  0.1365 -0.7844
 7150SOL     OW32908   4.041   4.045   6.687 -0.1746  0.1421  0.0429
 7150SOL    HW132909   4.132   4.066   6.663 -1.1671  0.7284 -3.1633
 7150SOL    HW232910   4.034   4.032   6.782 -2.1219  0.3332 -0.0767
 7151SOL     OW32911   4.627   1.411  17.152  0.2074 -0.1722 -0.1459
 7151SOL    HW132912   4.613   1.354  17.075  1.3555 -1.9436  0.9444
 7151SOL    HW232913   4.602   1.354  17.225 -0.3382 -2.5998 -2.2166
 7152SOL     OW32914   3.234   0.856  17.684 -0.6953 -0.0794 -0.1960
 7152SOL    HW132915   3.187   0.794  17.628  1.4381 -0.9913 -0.9968
 7152SOL    HW232916   3.266   0.920  17.620  1.3673 -2.7715 -1.8562
 7153SOL     OW32917   0.274   3.027   9.920  0.4484  0.0347  0.2298
 7153SOL    HW132918   0.333   3.041   9.994  3.1257  1.5338 -2.1857
 7153SOL    HW232919   0.339   3.023   9.849 -0.3273  0.3637 -0.4903
 7154SOL     OW32920   1.193   1.719   7.408 -0.0449  0.1469  0.0114
 7154SOL    HW132921   1.163   1.663   7.479  0.2240 -0.3758 -0.2820
 7154SOL    HW232922   1.247   1.661   7.353 -1.0744 -1.2521  0.4879
 7155SOL     OW32923   0.952   2.170  12.632  0.1729  0.4667  0.0482
 7155SOL    HW132924   0.935   2.253  12.587  0.6836  0.2696 -0.5125
 7155SOL    HW232925   0.978   2.123  12.553 -1.7532  0.4252 -0.5718
 7156SOL     OW32926   3.166   3.736  17.025 -0.8868  0.6479 -0.2196
 7156SOL    HW132927   3.149   3.765  16.935  0.3318  1.1476 -0.2761
 7156SOL    HW232928   3.097   3.669  17.024 -1.3191  1.0947 -0.7791
 7157SOL     OW32929   4.500   2.180   6.257 -0.1097 -0.2848 -0.4472
 7157SOL    HW132930   4.566   2.196   6.189  0.4071  2.2653  0.6482
 7157SOL    HW232931   4.429   2.144   6.204 -0.8850 -0.8891  0.9953
 7158SOL     OW32932   4.561   1.913  15.743  0.8640 -0.4882 -0.2112
 7158SOL    HW132933   4.648   1.891  15.710  0.4486 -2.7968  0.2163
 7158SOL    HW232934   4.582   1.980  15.807  0.2618 -0.1996 -0.3086
 7159SOL     OW32935   3.712   2.902   2.952  0.5960 -0.0693  0.3883
 7159SOL    HW132936   3.672   2.964   2.891  2.2904 -0.7537 -1.4367
 7159SOL    HW232937   3.645   2.834   2.954  1.0022 -0.4781 -0.1020
 7160SOL     OW32938   3.498   2.554   4.497  0.5209 -0.3037  0.0839
 7160SOL    HW132939   3.465   2.478   4.544 -2.2812  0.3617 -0.8362
 7160SOL    HW232940   3.586   2.562   4.534  0.1593  1.9384  0.4484
 7161SOL     OW32941   1.138   3.580   8.803  0.2687 -0.0100 -0.2647
 7161SOL    HW132942   1.222   3.557   8.844  0.1818  0.3168  0.1049
 7161SOL    HW232943   1.108   3.495   8.773 -4.3430  0.3572  3.2899
 7162SOL     OW32944   3.244   3.230   4.811  0.0089 -0.4551  0.4015
 7162SOL    HW132945   3.308   3.159   4.812 -0.7882 -1.1957 -1.1839
 7162SOL    HW232946   3.265   3.281   4.733 -1.1899 -1.8563 -0.8185
 7163SOL     OW32947   4.540   4.071   4.402 -0.2485 -0.2547  0.6470
 7163SOL    HW132948   4.576   4.056   4.314 -0.3796 -0.7654  0.6780
 7163SOL    HW232949   4.460   4.019   4.406 -0.6098  0.4184  1.9119
 7164SOL     OW32950   0.601   1.519   7.481 -0.2178 -0.6371  0.0546
 7164SOL    HW132951   0.513   1.494   7.453  0.5081 -2.5336 -0.5657
 7164SOL    HW232952   0.647   1.448   7.435  0.5222 -0.4987  0.5791
 7165SOL     OW32953   1.106   3.679  10.005 -0.3468 -0.1338 -0.6517
 7165SOL    HW132954   1.129   3.730  10.082 -0.8045 -0.3671 -0.3634
 7165SOL    HW232955   1.042   3.741   9.969  0.5247  1.4710  0.5666
 7166SOL     OW32956   0.766   4.464  10.559 -0.1828 -0.2120  0.2972
 7166SOL    HW132957   0.729   4.433  10.476 -0.6059 -2.1893  1.2322
 7166SOL    HW232958   0.858   4.442  10.550 -0.0730  0.3988 -0.0737
 7167SOL     OW32959   3.832   2.438  16.787  0.1884 -0.6767 -0.3741
 7167SOL    HW132960   3.767   2.506  16.767 -0.7722 -0.9175  1.9279
 7167SOL    HW232961   3.882   2.447  16.706  0.1559 -0.1807 -0.3394
 7168SOL     OW32962   1.239   0.356   3.240 -0.4302  0.7114 -0.0428
 7168SOL    HW132963   1.317   0.411   3.234 -0.8794  1.1810 -1.6403
 7168SOL    HW232964   1.266   0.296   3.170 -2.5275 -1.8174  1.3395
 7169SOL     OW32965   3.808   0.863  16.787  0.1807  0.7102  0.4014
 7169SOL    HW132966   3.826   0.956  16.799  1.5237  0.5721 -0.4994
 7169SOL    HW232967   3.714   0.870  16.771  0.0278  2.3528  2.0935
 7170SOL     OW32968   2.465   2.696   7.920 -0.0840 -0.0982 -0.0514
 7170SOL    HW132969   2.546   2.747   7.926 -1.5469  2.1839  0.2742
 7170SOL    HW232970   2.495   2.635   7.853  0.6353 -0.1370  0.3023
 7171SOL     OW32971   1.469   4.228   1.504  0.5571 -0.1068  0.5118
 7171SOL    HW132972   1.495   4.256   1.417 -2.8031  1.3574 -0.0159
 7171SOL    HW232973   1.377   4.205   1.489  0.3401  0.3320  1.1555
 7172SOL     OW32974   0.062   4.090   4.500  0.5035  0.4039 -0.2941
 7172SOL    HW132975   0.041   4.111   4.591  1.8415 -0.9902  0.3472
 7172SOL    HW232976   4.700   4.104   4.460  0.2973 -1.9374 -0.6873
 7173SOL     OW32977   4.381   0.866   4.708 -0.0616  0.6716 -0.1285
 7173SOL    HW132978   4.416   0.782   4.738 -0.8973 -0.2546 -1.7821
 7173SOL    HW232979   4.309   0.881   4.769  0.3673  0.3761  0.4461
 7174SOL     OW32980   3.629   2.362   8.992  0.2980  0.4600 -0.1770
 7174SOL    HW132981   3.557   2.360   9.054 -0.2424 -2.2640 -0.8906
 7174SOL    HW232982   3.677   2.281   9.008 -1.0398 -0.4917 -1.0183
 7175SOL     OW32983   1.119   1.164   8.812 -0.6192 -0.2871  0.2837
 7175SOL    HW132984   1.122   1.071   8.790  0.0466 -0.1558 -0.2025
 7175SOL    HW232985   1.024   1.173   8.811 -0.8209 -2.3431  1.9585
 7176SOL     OW32986   4.389   2.667  15.567 -0.6050 -0.1197 -0.0256
 7176SOL    HW132987   4.386   2.641  15.659 -1.3713 -0.8713 -0.2622
 7176SOL    HW232988   4.299   2.664  15.535 -0.8132  1.1219  0.4412
 7177SOL     OW32989   2.898   4.085   4.422 -0.0709 -0.4006 -0.1227
 7177SOL    HW132990   2.912   4.044   4.507 -0.0850  0.7806  0.4503
 7177SOL    HW232991   2.958   4.159   4.432 -0.2534 -0.1387 -0.9135
 7178SOL     OW32992   3.468   3.076   6.429  0.2793  0.2574 -0.0688
 7178SOL    HW132993   3.540   3.051   6.371 -0.0599  1.3157 -0.9399
 7178SOL    HW232994   3.462   3.168   6.405  1.0384  0.2826 -0.1672
 7179SOL     OW32995   1.329   3.667   5.478 -0.5425 -0.0572 -0.6774
 7179SOL    HW132996   1.338   3.741   5.418  2.0717 -1.5194 -2.1240
 7179SOL    HW232997   1.235   3.653   5.470 -0.3130 -1.3575 -0.9736
 7180SOL     OW32998   1.759   2.359   6.032  0.3800  0.2730 -0.1903
 7180SOL    HW132999   1.828   2.367   5.967  1.5242  0.7247  1.0817
 7180SOL    HW233000   1.748   2.264   6.036  0.2414  0.2825 -0.3067
 7181SOL     OW33001   1.717   1.104  16.797  0.1544 -0.1359  0.6078
 7181SOL    HW133002   1.778   1.062  16.858  0.8468  0.3844  0.2858
 7181SOL    HW233003   1.687   1.025  16.752 -0.9157  0.6998 -0.1395
 7182SOL     OW33004   0.764   1.392  13.652 -0.0064  0.0940 -0.2019
 7182SOL    HW133005   0.755   1.373  13.559  1.6830  0.2981 -0.4203
 7182SOL    HW233006   0.857   1.370  13.663 -0.1591 -0.4519 -0.0422
 7183SOL     OW33007   1.444   3.478   2.573  0.1104 -0.1343  0.3526
 7183SOL    HW133008   1.394   3.509   2.497 -0.0450 -1.4954 -0.1155
 7183SOL    HW233009   1.369   3.461   2.631  0.6094 -0.6722  0.8453
 7184SOL     OW33010   3.995   3.565   2.664 -0.3561  0.0159  0.6767
 7184SOL    HW133011   4.016   3.474   2.689  1.7510  0.8880  2.0880
 7184SOL    HW233012   3.922   3.586   2.722 -2.1004 -2.0899 -0.7458
 7185SOL     OW33013   1.971   4.486   6.495 -0.2364  0.6431 -0.0605
 7185SOL    HW133014   1.914   4.517   6.424  0.4706  1.4387 -0.2769
 7185SOL    HW233015   1.985   4.569   6.540  0.2079  1.8893 -2.4957
 7186SOL     OW33016   2.079   0.171  15.506 -0.5725  0.2735 -0.4727
 7186SOL    HW133017   2.110   0.082  15.526 -2.6058 -0.0725  1.1991
 7186SOL    HW233018   2.122   0.193  15.424  0.7431  0.5791  0.3075
 7187SOL     OW33019   1.089   0.288   2.658 -0.3338  0.0294 -0.1996
 7187SOL    HW133020   1.027   0.345   2.612 -1.4033 -1.4483 -0.5691
 7187SOL    HW233021   1.155   0.354   2.679 -0.7658  0.1943  0.6344
 7188SOL     OW33022   0.895   1.341   7.605  0.6304 -0.0880 -0.7170
 7188SOL    HW133023   0.886   1.430   7.571 -0.0837  0.1185 -0.0062
 7188SOL    HW233024   0.964   1.357   7.669  0.7232  1.6916 -1.2725
 7189SOL     OW33025   2.526   2.048   0.850  0.1812  0.6314  0.0221
 7189SOL    HW133026   2.495   2.094   0.928  0.0975  0.5027  0.0649
 7189SOL    HW233027   2.479   2.089   0.777  0.2705  0.3837 -0.1765
 7190SOL     OW33028   3.646   1.053  16.356 -0.3679  0.0383 -0.0702
 7190SOL    HW133029   3.567   1.087  16.314  1.1938  2.7787 -0.8184
 7190SOL    HW233030   3.635   0.958  16.360  0.0140  0.0340  0.9514
 7191SOL     OW33031   3.989   0.885   6.323 -0.0122  0.6627 -0.4141
 7191SOL    HW133032   3.974   0.928   6.239 -1.6425 -1.0470 -0.9985
 7191SOL    HW233033   3.951   0.800   6.301 -0.2433  0.9394 -1.0699
 7192SOL     OW33034   3.526   1.283   8.193  0.4519 -0.4555  0.4530
 7192SOL    HW133035   3.434   1.255   8.189 -0.1308  1.4278  0.4102
 7192SOL    HW233036   3.537   1.315   8.283 -0.1325 -0.2765  0.4609
 7193SOL     OW33037   2.448   2.582   8.974  0.1902 -0.4121  0.5240
 7193SOL    HW133038   2.390   2.508   8.991 -0.4319 -0.2950 -1.0926
 7193SOL    HW233039   2.532   2.537   8.970  0.3647  0.1024 -1.7758
 7194SOL     OW33040   2.246   2.222   1.486  0.1116 -0.1137 -0.7101
 7194SOL    HW133041   2.231   2.294   1.548  0.0043 -0.3194 -0.4977
 7194SOL    HW233042   2.258   2.268   1.403  1.1743  2.6809  0.9639
 7195SOL     OW33043   3.771   1.066   5.527 -0.3519 -0.1433  0.4480
 7195SOL    HW133044   3.820   1.048   5.607  0.0082 -0.9068  0.0489
 7195SOL    HW233045   3.794   1.151   5.489 -1.4715 -0.1095 -0.1712
 7196SOL     OW33046   2.683   2.394   6.539  0.1590  0.4384 -0.0829
 7196SOL    HW133047   2.725   2.392   6.453  0.9450  0.1297  0.3038
 7196SOL    HW233048   2.606   2.447   6.519 -1.2411 -1.9420 -1.0319
 7197SOL     OW33049   0.249   4.531   7.839 -0.2590  0.1664  0.2252
 7197SOL    HW133050   0.157   4.504   7.832 -0.2710  0.1806  0.3297
 7197SOL    HW233051   0.288   4.460   7.890 -0.6079 -1.0570 -1.2316
 7198SOL     OW33052   1.380   3.217   7.646  0.1973  0.0084  0.1021
 7198SOL    HW133053   1.367   3.198   7.738 -0.1980 -1.4036 -0.2427
 7198SOL    HW233054   1.339   3.142   7.604 -0.5184  0.1154  0.6246
 7199SOL     OW33055   2.563   2.142   2.213  0.4066 -0.1935 -0.7041
 7199SOL    HW133056   2.574   2.063   2.160  2.1123  0.8194 -1.8592
 7199SOL    HW233057   2.642   2.168   2.261  0.8345 -1.7636 -0.5574
 7200SOL     OW33058   2.135   3.558   2.878 -0.6368  0.2776  0.6476
 7200SOL    HW133059   2.058   3.503   2.867 -0.2703 -0.4558  1.6768
 7200SOL    HW233060   2.185   3.531   2.800 -1.8708  1.2393 -0.4724
 7201SOL     OW33061   3.564   1.175   8.848 -0.0931 -0.2298 -0.1120
 7201SOL    HW133062   3.639   1.234   8.835 -0.4600  0.2811  0.0869
 7201SOL    HW233063   3.618   1.096   8.852 -0.3916 -0.5130 -1.6615
 7202SOL     OW33064   0.136   0.178  13.590 -0.7410 -0.7475 -0.1048
 7202SOL    HW133065   0.109   0.099  13.543 -0.1501  0.9705 -3.3644
 7202SOL    HW233066   0.161   0.224  13.510 -1.4431 -1.0645 -0.5107
 7203SOL     OW33067   3.965   0.960   5.701  0.4447  0.2245  0.0855
 7203SOL    HW133068   4.037   0.911   5.660  0.7590  0.9331 -0.2196
 7203SOL    HW233069   3.988   0.949   5.793  2.4053 -1.8226 -0.6317
 7204SOL     OW33070   3.282   3.609  11.247  0.8248 -0.5759  0.3646
 7204SOL    HW133071   3.232   3.556  11.309 -0.9227  0.4083 -0.2000
 7204SOL    HW233072   3.317   3.677  11.305  2.4006  0.3946 -1.7248
 7205SOL     OW33073   2.206   1.921   1.721  0.0022  0.1653  0.6151
 7205SOL    HW133074   2.162   1.836   1.725 -1.2300  0.6351 -3.3728
 7205SOL    HW233075   2.140   1.984   1.749  1.4259  3.3436 -3.1770
 7206SOL     OW33076   1.162   2.489   8.781 -0.1593 -0.2040  0.2460
 7206SOL    HW133077   1.072   2.508   8.809 -0.9176 -0.2718 -2.2074
 7206SOL    HW233078   1.164   2.399   8.750 -1.7580 -0.4903  0.9575
 7207SOL     OW33079   0.217   1.663   7.573 -0.4476  0.7427  0.3508
 7207SOL    HW133080   0.288   1.642   7.634 -0.5339  2.1054  0.9231
 7207SOL    HW233081   0.154   1.698   7.636  0.1842  0.7876  0.9564
 7208SOL     OW33082   1.815   1.265   1.691  0.5290 -0.2061 -0.0409
 7208SOL    HW133083   1.755   1.198   1.726  0.2690 -0.5417 -1.1310
 7208SOL    HW233084   1.865   1.289   1.768  0.3737  2.0420 -0.6512
 7209SOL     OW33085   2.816   1.068   4.204  0.4339 -0.3892  0.3585
 7209SOL    HW133086   2.788   1.130   4.272  1.1464 -1.1344  1.3301
 7209SOL    HW233087   2.758   1.089   4.131  1.5266  1.4950  0.0285
 7210SOL     OW33088   2.745   2.374  17.183 -0.0934  0.6642 -0.1919
 7210SOL    HW133089   2.699   2.299  17.144  0.3740  0.6228 -0.6520
 7210SOL    HW233090   2.787   2.406  17.103 -1.6974 -0.1286 -1.3492
 7211SOL     OW33091   2.175   1.353  13.585 -0.0401  0.3942 -1.0135
 7211SOL    HW133092   2.228   1.318  13.655 -1.9139  0.4363  0.4218
 7211SOL    HW233093   2.205   1.442  13.602 -1.9511  0.8686 -0.0930
 7212SOL     OW33094   3.413   4.678   7.104 -0.4201  0.2809  0.4261
 7212SOL    HW133095   3.482   0.020   7.098  0.0203 -0.2986 -0.7910
 7212SOL    HW233096   3.421   4.661   7.198 -2.7299  0.8136  0.7151
 7213SOL     OW33097   1.031   2.961   8.234  0.1975  0.4665 -0.7281
 7213SOL    HW133098   0.961   2.926   8.180 -0.2908  1.0932 -0.5086
 7213SOL    HW233099   1.079   2.889   8.276  0.2910  0.1360 -1.4153
 7214SOL     OW33100   2.941   2.181   2.874  0.9256 -0.1127 -0.4519
 7214SOL    HW133101   2.907   2.267   2.898  0.3433 -0.2877 -0.6315
 7214SOL    HW233102   2.853   2.151   2.851  0.6467  2.0771 -2.2374
 7215SOL     OW33103   3.003   0.039   8.954  0.1648 -0.2802  0.2183
 7215SOL    HW133104   3.040   4.689   8.905  1.3839  1.0183 -0.8093
 7215SOL    HW233105   3.034   0.112   8.900  3.0304 -0.2408  1.9399
 7216SOL     OW33106   2.167   1.354  15.161 -0.7852 -0.0563  0.0611
 7216SOL    HW133107   2.254   1.324  15.136 -0.3925  0.3825  0.8835
 7216SOL    HW233108   2.109   1.291  15.118  1.5852 -2.1540 -0.0289
 7217SOL     OW33109   0.055   1.173   4.654  0.3290 -0.2243  0.2274
 7217SOL    HW133110   4.712   1.116   4.612  1.5874 -1.7962  0.3735
 7217SOL    HW233111   0.128   1.164   4.593  1.1656  0.7555  1.0781
 7218SOL     OW33112   2.837   4.602   6.633 -0.2648  0.4376 -0.1029
 7218SOL    HW133113   2.919   4.613   6.585  0.4093  2.0610  1.3921
 7218SOL    HW233114   2.819   4.510   6.652 -1.3078  0.5393 -0.6181
 7219SOL     OW33115   2.434   4.534   2.032 -0.8406  0.2382  0.5104
 7219SOL    HW133116   2.477   4.615   2.059 -1.1388  0.5817 -0.0449
 7219SOL    HW233117   2.471   4.529   1.944 -1.8835  2.1357 -0.0358
 7220SOL     OW33118   1.943   1.048   4.963 -0.0364  0.5242  0.2721
 7220SOL    HW133119   1.886   1.101   4.907  0.3913  0.7825  0.0722
 7220SOL    HW233120   1.889   0.974   4.990  1.5261 -0.3073  1.1088
 7221SOL     OW33121   3.032   1.258  14.121  0.3671 -0.3636  0.3668
 7221SOL    HW133122   3.071   1.321  14.180 -0.2126 -0.5700  0.9695
 7221SOL    HW233123   3.087   1.180  14.130  0.4103 -0.5831 -1.8563
 7222SOL     OW33124   0.655   2.919   3.209  0.0319  0.3652  0.2120
 7222SOL    HW133125   0.596   2.994   3.215  2.1296  1.9924  0.2717
 7222SOL    HW233126   0.655   2.915   3.114 -0.5167  0.0741  0.2229
 7223SOL     OW33127   0.959   4.542   2.683  0.4879 -0.0884  0.4926
 7223SOL    HW133128   0.990   4.557   2.594 -0.4254  1.0518  0.3590
 7223SOL    HW233129   0.949   4.628   2.725 -2.9754 -0.0591 -0.3238
 7224SOL     OW33130   3.896   2.944  11.874 -0.0987  0.3287  0.1794
 7224SOL    HW133131   3.944   3.017  11.914  1.0606 -1.6430  2.4258
 7224SOL    HW233132   3.956   2.894  11.820 -0.6941 -1.1389  0.8605
 7225SOL     OW33133   3.417   1.505   8.701 -0.4398 -0.1870  0.0124
 7225SOL    HW133134   3.410   1.465   8.614 -0.0693 -0.3058  0.0380
 7225SOL    HW233135   3.374   1.434   8.748  1.5943 -0.6905  1.1069
 7226SOL     OW33136   2.036   2.111   5.314  0.3742  0.4784 -0.3814
 7226SOL    HW133137   2.050   2.067   5.230  3.1103 -0.8821  0.7588
 7226SOL    HW233138   2.094   2.185   5.295  0.3920  0.1043 -1.8026
 7227SOL     OW33139   2.357   1.402  14.814  0.0654  0.6691 -0.1828
 7227SOL    HW133140   2.268   1.434  14.829 -0.2783 -1.0829  1.4892
 7227SOL    HW233141   2.347   1.344  14.739  1.4554  1.2518 -0.8147
 7228SOL     OW33142   1.421   3.621   5.087 -0.0658 -0.0987 -0.1441
 7228SOL    HW133143   1.351   3.586   5.031 -0.4689  0.7487 -0.1693
 7228SOL    HW233144   1.396   3.603   5.177  1.6304  0.4952  0.4321
 7229SOL     OW33145   1.680   1.062   8.884 -0.3591  0.5782  0.2193
 7229SOL    HW133146   1.695   1.039   8.975  0.0807  0.0443  0.0168
 7229SOL    HW233147   1.718   0.990   8.832  0.1433  0.7587  0.3350
 7230SOL     OW33148   2.838   3.330   9.273  0.1192  0.2333  0.0992
 7230SOL    HW133149   2.915   3.274   9.288  0.3151  0.5765  0.3706
 7230SOL    HW233150   2.822   3.350   9.365 -0.8439  0.4496 -0.1166
 7231SOL     OW33151   4.014   0.081   7.522 -0.0026  0.0367  0.4215
 7231SOL    HW133152   3.921   0.100   7.513  0.6780  1.8026 -3.2089
 7231SOL    HW233153   4.052   0.163   7.555  1.5155 -0.6699  0.4217
 7232SOL     OW33154   0.404   2.810   3.885  0.1169  0.1037 -0.0766
 7232SOL    HW133155   0.361   2.726   3.872 -0.5059  0.5364 -0.8446
 7232SOL    HW233156   0.326   2.867   3.881  0.3415  0.3663 -0.7417
 7233SOL     OW33157   2.806   3.358  10.434 -0.2914  0.6624  0.5176
 7233SOL    HW133158   2.887   3.402  10.458 -1.0726  2.8681 -0.9360
 7233SOL    HW233159   2.791   3.309  10.514  3.2630 -0.7304  0.3278
 7234SOL     OW33160   3.692   0.471  13.794 -0.0453  0.1801 -0.7879
 7234SOL    HW133161   3.736   0.407  13.737 -0.0211 -0.7448  0.2656
 7234SOL    HW233162   3.613   0.423  13.818 -0.2344  1.0619  0.3638
 7235SOL     OW33163   0.920   1.129   4.716 -0.4014  0.0658  0.3446
 7235SOL    HW133164   0.844   1.153   4.663  0.2879  1.2136 -0.1371
 7235SOL    HW233165   0.931   1.208   4.769  1.0890 -0.0433  0.2040
 7236SOL     OW33166   3.526   3.110   9.220 -0.4556  0.0256 -0.2724
 7236SOL    HW133167   3.605   3.084   9.267 -1.1751 -1.1336  0.2766
 7236SOL    HW233168   3.558   3.140   9.135 -2.7385  0.8014 -0.8581
 7237SOL     OW33169   3.638   2.514  13.714 -0.0218 -0.0506  0.1951
 7237SOL    HW133170   3.722   2.468  13.718  0.0049 -0.2873 -3.1749
 7237SOL    HW233171   3.571   2.447  13.700 -1.5758  2.4892 -4.4818
 7238SOL     OW33172   0.167   1.192  14.827  0.3563 -0.0854  0.2864
 7238SOL    HW133173   0.199   1.237  14.749 -1.1510  0.6078  0.0685
 7238SOL    HW233174   0.158   1.259  14.895 -0.9658  0.7351 -0.6926
 7239SOL     OW33175   3.595   4.148  16.113  0.5292 -0.2024  0.5682
 7239SOL    HW133176   3.655   4.161  16.186  1.8645  1.3799 -0.8274
 7239SOL    HW233177   3.666   4.161  16.050 -0.8130 -1.5411 -1.2562
 7240SOL     OW33178   4.019   0.013   3.243 -0.4607 -0.4218  0.1137
 7240SOL    HW133179   4.106   0.021   3.281 -0.2213 -0.0516 -0.5160
 7240SOL    HW233180   3.983   0.098   3.270  2.0403  0.9437 -0.9534
 7241SOL     OW33181   2.393   1.555  13.883  0.1986 -0.1289 -0.8557
 7241SOL    HW133182   2.395   1.462  13.863  1.3208 -0.5594  1.3288
 7241SOL    HW233183   2.444   1.555  13.964 -0.9648  1.8761 -0.1120
 7242SOL     OW33184   1.391   3.279   8.982 -0.0387  0.1571  0.2498
 7242SOL    HW133185   1.424   3.258   9.069 -3.1590  0.3156  1.4678
 7242SOL    HW233186   1.301   3.305   9.005 -0.2499 -0.9845  0.7018
 7243SOL     OW33187   1.958   4.680   5.368 -0.0110 -0.0947 -0.2635
 7243SOL    HW133188   1.888   4.614   5.372  0.0563 -0.2608 -2.1321
 7243SOL    HW233189   2.013   4.656   5.443  0.7301 -0.9178 -1.0629
 7244SOL     OW33190   0.326   3.941   5.755  0.3576 -1.1138  0.4610
 7244SOL    HW133191   0.411   3.915   5.790  0.8191  2.0994  1.7782
 7244SOL    HW233192   0.269   3.867   5.776 -0.5923 -0.5580 -0.1140
 7245SOL     OW33193   2.952   0.813  11.214  0.2201 -0.3557  0.8179
 7245SOL    HW133194   2.881   0.840  11.272 -2.9245 -1.5154 -2.4871
 7245SOL    HW233195   3.011   0.889  11.223 -0.6504  0.4712 -0.4342
 7246SOL     OW33196   2.009   0.211   4.929 -0.2226 -0.5634 -0.2583
 7246SOL    HW133197   2.035   0.150   4.860 -0.9825  0.5671 -1.5674
 7246SOL    HW233198   1.942   0.162   4.976 -0.2373  2.4969  2.9135
 7247SOL     OW33199   2.636   1.241   0.073  0.2576 -0.6419  0.2125
 7247SOL    HW133200   2.629   1.302   0.000  1.0411  0.0453  0.7146
 7247SOL    HW233201   2.719   1.196   0.057  1.3863  1.3143  0.5624
 7248SOL     OW33202   1.915   4.147   6.860 -0.4551 -0.4440  0.4754
 7248SOL    HW133203   1.863   4.198   6.798  2.1435  1.0088 -0.4842
 7248SOL    HW233204   1.867   4.064   6.849 -0.2264 -0.3894 -0.8884
 7249SOL     OW33205   0.996   1.194   7.965  0.1527 -0.1291 -0.1310
 7249SOL    HW133206   0.966   1.104   7.951 -0.6654  0.1958 -0.4679
 7249SOL    HW233207   1.057   1.178   8.037 -0.6712 -0.2515  0.5450
 7250SOL     OW33208   2.593   4.444   4.057  0.0473 -0.5067 -0.2853
 7250SOL    HW133209   2.624   4.470   4.144  0.6877 -1.3385 -0.2625
 7250SOL    HW233210   2.658   4.495   4.008 -1.8468  0.7734 -1.4898
 7251SOL     OW33211   2.713   4.387   7.634 -0.0410 -0.0242  0.0465
 7251SOL    HW133212   2.691   4.478   7.615 -0.3845 -0.3469 -1.0814
 7251SOL    HW233213   2.725   4.391   7.729  1.2106 -0.0058 -0.1180
 7252SOL     OW33214   1.396   2.925   1.577 -0.2599 -0.5573 -0.3061
 7252SOL    HW133215   1.457   2.906   1.505 -1.6458  0.0224 -1.6229
 7252SOL    HW233216   1.448   2.983   1.632 -0.3481 -0.1703 -0.6337
 7253SOL     OW33217   2.428   2.973   3.772 -0.4257 -0.0158 -0.8895
 7253SOL    HW133218   2.458   2.954   3.861 -3.0182  2.7573  0.5736
 7253SOL    HW233219   2.493   2.930   3.716  2.1381  0.9889  1.3171
 7254SOL     OW33220   2.291   0.933   6.393  0.1006 -0.0991  0.1957
 7254SOL    HW133221   2.353   0.866   6.423 -1.7714 -2.8806 -2.1036
 7254SOL    HW233222   2.321   0.952   6.305 -2.4833 -0.5131 -0.7563
 7255SOL     OW33223   4.611   2.655  16.096 -0.2716  0.1137 -0.4560
 7255SOL    HW133224   4.590   2.647  16.189 -0.0584  1.0328 -0.3233
 7255SOL    HW233225   4.677   2.724  16.095 -1.4285  1.2444  1.4289
 7256SOL     OW33226   1.498   1.751   1.582  0.1953 -0.2097  0.3109
 7256SOL    HW133227   1.588   1.755   1.613  0.8319 -0.2405 -1.5075
 7256SOL    HW233228   1.442   1.711   1.648  0.3307 -0.2687  0.3891
 7257SOL     OW33229   0.230   4.460   7.118  0.0707 -0.2226  0.1592
 7257SOL    HW133230   0.274   4.406   7.184  1.1080  1.0742  0.5240
 7257SOL    HW233231   0.189   4.533   7.163  1.0699  1.5888 -1.8231
 7258SOL     OW33232   4.412   0.909   7.676 -0.1388 -0.1626  0.5520
 7258SOL    HW133233   4.492   0.872   7.714 -0.3184 -0.8530  0.2576
 7258SOL    HW233234   4.433   1.000   7.655 -2.7971  0.6949  1.6399
 7259SOL     OW33235   2.558   4.722   8.701  0.0540  0.4961 -0.1608
 7259SOL    HW133236   2.564   4.723   8.796  0.0497  1.0783 -0.1667
 7259SOL    HW233237   2.648   0.024   8.679  0.7194 -2.4919 -0.9185
 7260SOL     OW33238   2.421   0.191   5.876 -0.5774  0.2777 -0.3399
 7260SOL    HW133239   2.412   0.223   5.786 -1.0591 -0.9173 -0.7188
 7260SOL    HW233240   2.341   0.220   5.919 -0.3964  2.7769 -1.7069
 7261SOL     OW33241   2.807   4.553   3.911 -0.2698  0.3862 -0.0308
 7261SOL    HW133242   2.786   4.646   3.900 -1.8936 -0.0603 -0.7264
 7261SOL    HW233243   2.813   4.519   3.822 -0.3744 -0.5857  0.3334
 7262SOL     OW33244   0.915   3.143  11.502 -0.0880 -0.2062 -0.3516
 7262SOL    HW133245   1.011   3.151  11.498 -0.0741 -1.0698 -2.1469
 7262SOL    HW233246   0.896   3.231  11.471 -0.6379  0.2521  1.3279
 7263SOL     OW33247   4.716   1.651   3.649  0.3376 -0.0521  0.3237
 7263SOL    HW133248   0.006   1.745   3.661 -1.2741  0.0725  1.1080
 7263SOL    HW233249   4.655   1.637   3.722  1.4366  1.8356  1.6131
 7264SOL     OW33250   0.135   0.011   8.498  0.4304  0.1792  0.1585
 7264SOL    HW133251   0.192   0.087   8.492  0.0898  0.5328  1.4044
 7264SOL    HW233252   0.177   4.690   8.572  1.5400  2.6589  1.0003
 7265SOL     OW33253   0.837   3.561  11.642  0.1986  0.3347  0.0699
 7265SOL    HW133254   0.907   3.621  11.668  0.7242 -0.6179  0.8592
 7265SOL    HW233255   0.771   3.616  11.600 -0.1734  1.2480  1.9005
 7266SOL     OW33256   2.098   4.421   3.943  0.2915  0.4957 -0.0325
 7266SOL    HW133257   2.008   4.416   3.911  0.1660 -1.0092  0.5497
 7266SOL    HW233258   2.136   4.484   3.882 -1.5378 -1.3358 -3.0695
 7267SOL     OW33259   4.326   0.079  12.822 -0.4355 -0.0942  0.0324
 7267SOL    HW133260   4.418   0.092  12.847 -0.8938  3.7630 -0.2956
 7267SOL    HW233261   4.285   0.074  12.908 -0.9170  1.6211 -0.1022
 7268SOL     OW33262   3.518   0.816   6.122  0.3217  0.6955 -0.4351
 7268SOL    HW133263   3.465   0.820   6.043 -2.1042  0.1571  1.1611
 7268SOL    HW233264   3.550   0.906   6.135  1.1314  0.1680  1.2953
 7269SOL     OW33265   3.800   4.359  16.867  0.3930  0.5106  0.2386
 7269SOL    HW133266   3.731   4.334  16.805 -0.5089 -0.1359  1.5061
 7269SOL    HW233267   3.845   4.424  16.812  2.3717  0.6263  2.0008
 7270SOL     OW33268   3.042   1.366   4.585  0.0011 -0.1062 -0.4675
 7270SOL    HW133269   3.098   1.443   4.580  0.3325 -0.2664  0.7360
 7270SOL    HW233270   3.102   1.317   4.641  0.5299  0.1497 -0.8122
 7271SOL     OW33271   3.241   2.559   8.883 -0.1300  0.1477  0.3636
 7271SOL    HW133272   3.261   2.632   8.942  3.1362  0.8326 -1.6338
 7271SOL    HW233273   3.314   2.554   8.822  1.2124  0.7174  1.9104
 7272SOL     OW33274   2.696   1.380   1.671  0.3490 -0.2502 -0.1376
 7272SOL    HW133275   2.627   1.316   1.658 -0.7778  1.0666 -0.6343
 7272SOL    HW233276   2.666   1.440   1.603 -2.4337 -1.3886  0.1105
 7273SOL     OW33277   3.205   0.451  15.569 -0.3412 -0.4264 -0.2500
 7273SOL    HW133278   3.204   0.500  15.650  2.6913 -0.2896 -0.2899
 7273SOL    HW233279   3.119   0.409  15.564 -0.4439 -0.3118  0.5847
 7274SOL     OW33280   1.382   1.590   0.740 -0.0670  0.1825  0.3067
 7274SOL    HW133281   1.290   1.564   0.744  0.0205 -0.4127 -1.5493
 7274SOL    HW233282   1.421   1.521   0.686  0.8752 -0.0485  1.3032
 7275SOL     OW33283   4.088   1.265   3.177  0.3066 -0.7542  0.4690
 7275SOL    HW133284   4.101   1.242   3.086  1.0015 -0.7098  0.5603
 7275SOL    HW233285   4.182   1.263   3.196  0.3522 -0.2770  0.2900
 7276SOL     OW33286   1.002   3.814  17.616 -0.6303 -0.2876 -0.9583
 7276SOL    HW133287   0.921   3.863  17.630  0.7328  1.7732 -0.2938
 7276SOL    HW233288   1.012   3.836  17.524  3.7905 -0.9119 -0.6228
 7277SOL     OW33289   3.770   0.775   9.726  0.2964 -0.5707  0.5527
 7277SOL    HW133290   3.738   0.690   9.757  0.9144 -1.2567 -0.6953
 7277SOL    HW233291   3.829   0.748   9.655 -0.2213 -1.2105  0.3720
 7278SOL     OW33292   3.069   1.275   1.896 -0.1569 -0.2369 -0.4977
 7278SOL    HW133293   3.158   1.310   1.892 -0.1008 -0.2972  0.2613
 7278SOL    HW233294   3.026   1.331   1.831 -0.7538 -1.4461 -1.1426
 7279SOL     OW33295   1.605   1.067   3.653  0.2107 -0.9908 -0.7416
 7279SOL    HW133296   1.640   1.154   3.633 -2.0479 -0.5695 -2.9748
 7279SOL    HW233297   1.537   1.067   3.585 -3.0076  0.4003  2.4473
 7280SOL     OW33298   3.849   1.958  17.014  0.0437  0.0425  0.6061
 7280SOL    HW133299   3.784   1.950  17.083  0.6755 -0.9218  1.0811
 7280SOL    HW233300   3.877   1.867  17.018  3.6070  1.0767 -0.2493
 7281SOL     OW33301   0.914   3.081  17.655  0.7178  0.3122  0.1279
 7281SOL    HW133302   0.990   3.072  17.598  0.3385 -2.5810  0.0689
 7281SOL    HW233303   0.939   3.158   0.011  0.2246  0.5671 -0.0152
 7282SOL     OW33304   0.792   3.344  12.111  0.7362  1.1024  0.2279
 7282SOL    HW133305   0.753   3.308  12.191  0.9766 -1.2526 -0.7194
 7282SOL    HW233306   0.792   3.439  12.115  0.3438  1.0837  0.5717
 7283SOL     OW33307   0.236   4.134   9.120 -0.5477  0.1061  0.1389
 7283SOL    HW133308   0.277   4.108   9.038 -1.8092 -0.5250 -0.2945
 7283SOL    HW233309   0.181   4.055   9.129  1.4018 -1.4511 -1.7056
 7284SOL     OW33310   4.444   2.340   7.477 -0.0224 -0.3681  0.1344
 7284SOL    HW133311   4.428   2.283   7.551  1.9530  0.0685  0.8969
 7284SOL    HW233312   4.413   2.284   7.406 -1.9084  0.9511 -0.0964
 7285SOL     OW33313   2.341   3.217  10.100 -0.4677  0.3950  0.3525
 7285SOL    HW133314   2.302   3.304  10.113  1.7874  1.4852 -0.2552
 7285SOL    HW233315   2.270   3.183  10.045  0.5319 -2.4163  0.8522
 7286SOL     OW33316   3.477   2.807   2.620  0.2844  0.3911 -0.3372
 7286SOL    HW133317   3.474   2.890   2.573 -0.9741 -1.5836 -3.7306
 7286SOL    HW233318   3.568   2.780   2.607  0.0034  0.3330 -2.1419
 7287SOL     OW33319   4.560   2.691   3.314  0.5915 -0.1321  0.1269
 7287SOL    HW133320   4.476   2.670   3.356  0.1664  3.2321  0.9344
 7287SOL    HW233321   4.541   2.664   3.224 -0.5333 -0.0613  0.3391
 7288SOL     OW33322   1.452   3.736   9.476  0.4435  0.2610 -0.1667
 7288SOL    HW133323   1.497   3.772   9.552 -0.3485 -0.3246  0.5752
 7288SOL    HW233324   1.505   3.658   9.460  2.6938  1.8585 -0.4320
 7289SOL     OW33325   2.894   4.434  15.230  0.0567 -0.1260  0.0624
 7289SOL    HW133326   2.863   4.344  15.239 -3.8497  1.2279  0.2750
 7289SOL    HW233327   2.986   4.418  15.250 -0.0004  0.4541  0.7937
 7290SOL     OW33328   2.407   2.789   4.234 -0.8164  0.0984  0.0883
 7290SOL    HW133329   2.385   2.737   4.311 -1.4656 -1.2511 -1.0118
 7290SOL    HW233330   2.327   2.816   4.190 -0.9016  1.7760  1.2661
 7291SOL     OW33331   2.738   4.640   5.583 -0.5369  0.0519  0.2062
 7291SOL    HW133332   2.713   4.631   5.675 -2.7100  3.2071 -0.0833
 7291SOL    HW233333   2.832   4.658   5.577 -0.5254 -1.2077 -3.6996
 7292SOL     OW33334   0.086   2.302   7.672 -0.0233  0.7259  0.4258
 7292SOL    HW133335   0.082   2.210   7.646 -0.4767  0.7584  0.3722
 7292SOL    HW233336   0.011   2.319   7.729  0.3576 -0.2313  1.2182
 7293SOL     OW33337   2.287   0.269   7.117  0.3937  0.2302 -0.1440
 7293SOL    HW133338   2.335   0.349   7.138 -0.2181  0.1564  1.5284
 7293SOL    HW233339   2.279   0.272   7.022 -2.2986 -0.2705  0.0882
 7294SOL     OW33340   1.733   0.691   6.804  0.0537 -0.1873  0.7527
 7294SOL    HW133341   1.685   0.618   6.766 -0.3186  0.4927 -0.0990
 7294SOL    HW233342   1.681   0.693   6.884 -0.0489 -0.7262  0.6963
 7295SOL     OW33343   2.837   1.970   2.642 -0.2020 -0.4727  0.3622
 7295SOL    HW133344   2.921   2.000   2.677  0.5844 -0.4969 -1.5156
 7295SOL    HW233345   2.778   2.043   2.662  0.8728 -0.5104  3.7238
 7296SOL     OW33346   0.883   0.094  11.208 -0.2941  1.0735  0.0565
 7296SOL    HW133347   0.955   0.148  11.174  0.9266 -0.5261  0.1102
 7296SOL    HW233348   0.811   0.142  11.167 -0.0437  0.7097 -0.8169
 7297SOL     OW33349   3.783   4.561   1.972 -0.1098 -0.3692  0.1463
 7297SOL    HW133350   3.856   4.590   1.918 -2.2775  3.3813 -0.7887
 7297SOL    HW233351   3.780   4.478   1.926  0.8729  0.1930 -0.9454
 7298SOL     OW33352   2.696   0.839  13.363 -0.5488  0.0115  0.4737
 7298SOL    HW133353   2.715   0.841  13.269 -1.1790 -2.3093  0.3137
 7298SOL    HW233354   2.789   0.845  13.388 -0.2328 -0.5289 -0.5733
 7299SOL     OW33355   1.498   0.738  13.341 -0.2297  0.2616  0.6962
 7299SOL    HW133356   1.454   0.665  13.385  0.1386 -0.2578  0.2118
 7299SOL    HW233357   1.564   0.691  13.290 -1.3875  0.1863 -0.7657
 7300SOL     OW33358   4.169   2.137  11.454 -0.2478  0.1292 -0.0380
 7300SOL    HW133359   4.224   2.108  11.527  0.5518  2.0801  0.1119
 7300SOL    HW233360   4.214   2.216  11.424  0.3570 -1.0036 -2.1132
 7301SOL     OW33361   3.174   3.712   9.519  0.2155  0.0879  1.0231
 7301SOL    HW133362   3.246   3.720   9.581 -1.7907  1.2262  3.1718
 7301SOL    HW233363   3.113   3.662   9.574  1.6001 -2.6609  0.1072
 7302SOL     OW33364   0.491   4.059  16.169 -0.1982  0.1604  0.2911
 7302SOL    HW133365   0.548   4.091  16.239 -0.1740  0.4274  0.1528
 7302SOL    HW233366   0.507   4.121  16.097  0.1470  0.1069  0.3180
 7303SOL     OW33367   1.003   3.582   8.380 -0.5623 -0.4202  1.2162
 7303SOL    HW133368   1.050   3.659   8.347 -2.4520  1.2464  2.3645
 7303SOL    HW233369   0.913   3.606   8.356 -0.5382 -1.8790 -0.3087
 7304SOL     OW33370   3.800   3.861   0.434 -0.3067 -0.2788 -0.1839
 7304SOL    HW133371   3.762   3.773   0.431 -1.0964  0.1339 -2.4314
 7304SOL    HW233372   3.776   3.886   0.523  0.2657  1.4011 -0.5032
 7305SOL     OW33373   1.039   4.060   4.553  0.0016  0.2311 -0.1053
 7305SOL    HW133374   1.019   3.971   4.525  4.4367 -0.4659 -1.0412
 7305SOL    HW233375   1.104   4.043   4.621 -0.2088 -0.8284 -0.1706
 7306SOL     OW33376   4.139   2.116   3.305 -0.3486 -0.3039 -0.5485
 7306SOL    HW133377   4.136   2.097   3.399  3.0306 -0.1394 -0.4115
 7306SOL    HW233378   4.079   2.191   3.306 -0.0300 -0.0548  0.7515
 7307SOL     OW33379   1.441   3.201   2.873  0.6651 -0.7095 -0.2973
 7307SOL    HW133380   1.476   3.206   2.784  3.0106 -1.9440  0.5684
 7307SOL    HW233381   1.504   3.143   2.914  0.3040 -1.5284 -0.9051
 7308SOL     OW33382   0.712   0.830  16.813  0.2726 -0.6577  0.5521
 7308SOL    HW133383   0.772   0.901  16.792 -0.2381 -0.4222 -0.1156
 7308SOL    HW233384   0.624   0.865  16.795  1.0822 -0.0353 -2.2819
 7309SOL     OW33385   2.965   3.611   2.348 -0.5996  0.5844  0.1236
 7309SOL    HW133386   2.901   3.544   2.323 -1.4070  1.2669  0.3860
 7309SOL    HW233387   3.024   3.599   2.274 -1.0398 -2.8014  0.2888
 7310SOL     OW33388   4.221   1.675   3.672 -0.1804  0.0917  0.2788
 7310SOL    HW133389   4.160   1.659   3.600  0.8696  1.5628 -0.9310
 7310SOL    HW233390   4.166   1.720   3.736  0.5716 -0.7103  1.4941
 7311SOL     OW33391   3.619   0.757   5.049  0.3364 -0.1891 -0.6226
 7311SOL    HW133392   3.573   0.785   5.128 -0.2035 -1.8922 -0.3226
 7311SOL    HW233393   3.599   0.663   5.052 -0.0492 -0.1154 -1.0132
 7312SOL     OW33394   0.634   0.132   5.391 -0.2288  0.1808 -0.5895
 7312SOL    HW133395   0.550   0.102   5.357  0.0024 -3.3367  1.9262
 7312SOL    HW233396   0.637   0.206   5.330 -0.6362  0.4010 -0.3443
 7313SOL     OW33397   1.704   1.057   2.665 -0.6344  0.7055  0.0549
 7313SOL    HW133398   1.650   1.109   2.724 -1.8622  0.4012 -0.8025
 7313SOL    HW233399   1.747   1.127   2.616  0.4348  1.0339  1.4677
 7314SOL     OW33400   4.543   3.214   5.905 -0.6653 -0.0321  0.1691
 7314SOL    HW133401   4.540   3.129   5.862 -1.4954 -0.3417  0.8322
 7314SOL    HW233402   4.459   3.226   5.950 -0.1480  2.3884  0.4867
 7315SOL     OW33403   0.989   1.846  12.884  0.0975 -0.1942  0.0620
 7315SOL    HW133404   1.055   1.807  12.941  1.4495  1.4345 -0.3995
 7315SOL    HW233405   1.012   1.809  12.799 -0.3627  1.8564 -0.9624
 7316SOL     OW33406   0.857   0.813   3.921  0.3654  0.3531 -0.0645
 7316SOL    HW133407   0.840   0.755   3.995 -0.3633  1.8353  0.9339
 7316SOL    HW233408   0.932   0.870   3.937  1.1412 -0.6404 -0.1415
 7317SOL     OW33409   4.286   2.993   5.650 -0.3997 -0.5584  0.0441
 7317SOL    HW133410   4.301   3.087   5.659  0.5259 -0.6817 -0.2195
 7317SOL    HW233411   4.267   2.977   5.557  0.4538 -3.7552  0.4182
 7318SOL     OW33412   2.833   2.079   2.374 -0.2270 -0.2165 -0.0049
 7318SOL    HW133413   2.799   2.029   2.448  1.5450  0.8587  1.5175
 7318SOL    HW233414   2.859   2.015   2.307  1.5285 -0.2823  0.7438
 7319SOL     OW33415   2.147   1.849   7.638 -0.0314  0.0153  0.4788
 7319SOL    HW133416   2.105   1.792   7.702 -0.9117 -1.7854 -1.6928
 7319SOL    HW233417   2.182   1.924   7.685  0.2625 -0.3448  0.8292
 7320SOL     OW33418   1.740   3.584   5.207 -0.4796  0.0002 -0.3505
 7320SOL    HW133419   1.651   3.550   5.210 -1.9048  3.5240 -2.2869
 7320SOL    HW233420   1.761   3.600   5.115  0.6685 -2.3672 -0.4994
 7321SOL     OW33421   4.460   0.367   1.063 -0.7168  0.0031  0.0550
 7321SOL    HW133422   4.375   0.333   1.036 -0.5833  0.3449 -0.8030
 7321SOL    HW233423   4.486   0.419   0.986 -2.1135 -0.0295 -0.4373
 7322SOL     OW33424   3.091   2.815   6.796  0.0229 -0.0584 -0.2497
 7322SOL    HW133425   3.119   2.764   6.720 -1.2958 -2.2119  0.7103
 7322SOL    HW233426   3.037   2.746   6.835  0.4263  0.6788  1.6258
 7323SOL     OW33427   0.548   3.736   6.510  0.3378 -0.1117  0.0788
 7323SOL    HW133428   0.522   3.644   6.512  0.6985 -0.2082  0.4064
 7323SOL    HW233429   0.579   3.745   6.600 -1.2897  1.3778  0.4859
 7324SOL     OW33430   0.443   4.594   6.058  0.0932 -0.0206 -0.5044
 7324SOL    HW133431   0.354   4.569   6.081  1.3334 -0.8504  3.4427
 7324SOL    HW233432   0.494   4.525   6.101 -0.9519 -1.9310 -2.3381
 7325SOL     OW33433   0.176   0.826   3.223 -0.2118  0.0477 -0.4228
 7325SOL    HW133434   0.174   0.730   3.215 -1.6018  0.1630 -1.4652
 7325SOL    HW233435   0.263   0.841   3.261  0.7166 -0.2238 -2.4575
 7326SOL     OW33436   1.680   2.780   7.380  0.1503  0.0544 -0.1270
 7326SOL    HW133437   1.596   2.809   7.415  1.4465 -0.3159  3.2324
 7326SOL    HW233438   1.670   2.791   7.285  1.7578  0.3860 -0.2545
 7327SOL     OW33439   0.052   3.285   0.436 -0.2361  0.4841  0.2355
 7327SOL    HW133440   0.113   3.358   0.441  0.1414  0.0397  2.2152
 7327SOL    HW233441   0.110   3.211   0.417 -1.8070 -0.0695 -2.4889
 7328SOL     OW33442   2.982   2.619   6.966 -0.0908  0.1096  0.7071
 7328SOL    HW133443   2.896   2.643   6.998  0.5205  0.1983  2.2894
 7328SOL    HW233444   3.039   2.662   7.030 -1.0578 -1.2273  2.4415
 7329SOL     OW33445   0.970   2.181   4.466 -0.1960 -0.0245  0.5546
 7329SOL    HW133446   1.026   2.255   4.489  1.0318 -0.5577 -0.7433
 7329SOL    HW233447   1.019   2.148   4.390  0.9711  2.6765  0.1225
 7330SOL     OW33448   3.762   3.102   6.744  0.1671 -0.2686 -0.6652
 7330SOL    HW133449   3.845   3.142   6.718  0.1910  0.1994  0.1136
 7330SOL    HW233450   3.720   3.183   6.775 -2.7674 -1.8190 -0.5760
 7331SOL     OW33451   3.486   3.596   3.112 -0.2604 -0.5328 -0.0989
 7331SOL    HW133452   3.429   3.667   3.141 -0.5023 -0.6072 -0.3863
 7331SOL    HW233453   3.493   3.548   3.194 -0.6486 -0.0206  0.2359
 7332SOL     OW33454   2.004   2.577  10.841  0.2293  0.4440  0.4457
 7332SOL    HW133455   2.096   2.563  10.866  0.2013  0.7141  0.7008
 7332SOL    HW233456   1.986   2.535  10.757 -2.2548 -0.0218  1.2027
 7333SOL     OW33457   2.330   3.255   4.620  0.0126  0.3726 -0.3740
 7333SOL    HW133458   2.344   3.349   4.621 -0.9877  0.5244 -1.8124
 7333SOL    HW233459   2.388   3.213   4.556  1.0112 -2.2656  2.2226
 7334SOL     OW33460   3.830   4.281   0.293  0.0225 -0.5694 -0.5431
 7334SOL    HW133461   3.742   4.279   0.331  0.1334  2.1248 -0.1852
 7334SOL    HW233462   3.873   4.354   0.337 -2.8152 -1.7649  4.2058
 7335SOL     OW33463   4.554   1.786   2.426 -0.5313  0.9684 -0.5682
 7335SOL    HW133464   4.554   1.737   2.508  0.3588  2.7796  0.5204
 7335SOL    HW233465   4.476   1.840   2.438 -1.8846 -1.4943  1.8980
 7336SOL     OW33466   2.616   3.494   7.264  0.2598 -0.0600 -0.2781
 7336SOL    HW133467   2.537   3.495   7.209 -0.5247  0.3384  0.8417
 7336SOL    HW233468   2.660   3.574   7.234 -0.1332 -0.1000 -0.9512
 7337SOL     OW33469   1.484   1.950   6.544 -0.0316 -0.1445 -0.4334
 7337SOL    HW133470   1.519   1.913   6.626 -0.5721  0.8358  0.2367
 7337SOL    HW233471   1.398   1.979   6.575 -0.2403 -0.2672 -0.9108
 7338SOL     OW33472   3.003   4.439   4.115 -0.1146  0.2372  0.2575
 7338SOL    HW133473   3.066   4.460   4.046  0.2217  0.1211  0.5287
 7338SOL    HW233474   2.929   4.466   4.060  3.2155  1.5091 -3.6169
 7339SOL     OW33475   0.722   0.209   3.628  0.3718  0.6142  0.6005
 7339SOL    HW133476   0.769   0.144   3.681  1.6697  0.0292 -1.2691
 7339SOL    HW233477   0.636   0.170   3.644  0.1738 -0.1730 -2.3061
 7340SOL     OW33478   3.614   2.546  16.375 -0.3544 -0.7570  0.3341
 7340SOL    HW133479   3.703   2.552  16.341 -0.6628 -0.9767 -0.5209
 7340SOL    HW233480   3.580   2.626  16.334  0.7048 -0.4246  0.0935
 7341SOL     OW33481   1.307   2.736   2.459  0.1329 -0.0367 -0.6094
 7341SOL    HW133482   1.275   2.647   2.469 -2.4913  0.8267 -1.3632
 7341SOL    HW233483   1.382   2.732   2.519 -0.2429 -2.7496 -0.3405
 7342SOL     OW33484   1.254   3.044   0.530 -0.7531 -0.8892 -0.4146
 7342SOL    HW133485   1.161   3.034   0.513 -1.3761  1.8027  1.4753
 7342SOL    HW233486   1.257   3.017   0.622  2.2799 -0.3841 -0.3566
 7343SOL     OW33487   2.345   4.227   9.132  0.1178 -0.4101  0.0848
 7343SOL    HW133488   2.382   4.168   9.066  0.9362  0.7344 -0.4907
 7343SOL    HW233489   2.315   4.161   9.194  0.7386 -1.0225 -0.2605
 7344SOL     OW33490   4.396   4.030   8.816 -0.5288  0.2096 -0.4088
 7344SOL    HW133491   4.420   4.116   8.783 -2.2770  0.7498 -0.2381
 7344SOL    HW233492   4.449   4.019   8.894 -1.3748 -2.7172 -0.2230
 7345SOL     OW33493   4.705   4.413   3.668 -0.1707  0.2371 -0.5421
 7345SOL    HW133494   4.658   4.331   3.683  1.3749 -0.1537  2.1363
 7345SOL    HW233495   4.655   4.454   3.598  0.5302  1.9620 -0.0266
 7346SOL     OW33496   3.748   4.213   8.870  0.0012 -0.0343 -0.7958
 7346SOL    HW133497   3.671   4.166   8.902 -0.3892  0.0771 -1.5665
 7346SOL    HW233498   3.739   4.213   8.775 -1.9989 -1.0225 -0.6189
 7347SOL     OW33499   1.372   3.124  11.345  0.2856  0.3642  0.0342
 7347SOL    HW133500   1.346   3.144  11.435 -1.8755 -1.5341 -0.1685
 7347SOL    HW233501   1.407   3.209  11.319 -0.6270  0.7312  0.0266
 7348SOL     OW33502   4.327   4.011   4.636 -0.4893 -0.1893  0.2518
 7348SOL    HW133503   4.419   3.993   4.616 -1.5697 -3.5001 -1.6941
 7348SOL    HW233504   4.328   4.107   4.635  1.5769 -0.2226 -0.0182
 7349SOL     OW33505   0.018   2.562   8.223  0.1808  0.2503 -0.1730
 7349SOL    HW133506   4.719   2.639   8.170 -0.4733  1.8751  2.4791
 7349SOL    HW233507   0.111   2.577   8.244  0.7210 -0.4840 -2.0058
 7350SOL     OW33508   4.243   3.287   6.640 -0.4037  0.0180 -0.1341
 7350SOL    HW133509   4.261   3.345   6.565 -1.9345 -0.5450 -0.9354
 7350SOL    HW233510   4.327   3.241   6.642  0.4643  1.7971  3.4936
 7351SOL     OW33511   0.271   0.155   2.316  0.6964  0.1553  0.2051
 7351SOL    HW133512   0.278   0.139   2.410 -0.3027 -1.8609 -0.0786
 7351SOL    HW233513   0.348   0.109   2.280 -0.7117  0.4273 -3.1703
 7352SOL     OW33514   0.811   3.320   4.996 -0.5029 -0.2519  0.0446
 7352SOL    HW133515   0.792   3.409   4.966 -1.4656 -0.4154  0.1755
 7352SOL    HW233516   0.738   3.303   5.055  0.1920 -2.5156  0.2480
 7353SOL     OW33517   0.554   2.220  14.538  0.5812  0.5548  0.2506
 7353SOL    HW133518   0.624   2.212  14.473  0.9118 -0.1969  0.6894
 7353SOL    HW233519   0.486   2.174  14.489  0.5009  3.2333 -2.1431
 7354SOL     OW33520   3.555   2.485  14.402 -0.4202  0.2690 -0.8939
 7354SOL    HW133521   3.492   2.432  14.353 -0.6845  0.8726 -1.1983
 7354SOL    HW233522   3.590   2.544  14.336  1.7347 -1.2241 -1.0848
 7355SOL     OW33523   3.592   3.764   4.551  0.2967 -0.1361  0.6303
 7355SOL    HW133524   3.684   3.751   4.528 -0.4416 -1.8681 -1.3071
 7355SOL    HW233525   3.555   3.676   4.548  2.7714 -1.1739  0.2087
 7356SOL     OW33526   3.072   1.222  15.952  0.0334  0.0780  0.4236
 7356SOL    HW133527   2.985   1.261  15.945 -0.1625 -0.0565  1.9606
 7356SOL    HW233528   3.052   1.131  15.972 -1.1475  0.1033 -0.6163
 7357SOL     OW33529   1.865   4.421   7.582 -0.6666  0.1309 -0.0848
 7357SOL    HW133530   1.954   4.400   7.610 -0.6485  0.6589  0.2448
 7357SOL    HW233531   1.833   4.343   7.536 -1.6155  0.7458 -0.4485
 7358SOL     OW33532   3.720   4.103  12.719  0.2289  0.1739 -0.1591
 7358SOL    HW133533   3.753   4.191  12.739  1.2451 -0.4435  0.8729
 7358SOL    HW233534   3.772   4.048  12.777 -1.5073 -0.3272  0.9059
 7359SOL     OW33535   3.987   0.840   7.536 -0.4915  0.7367  0.8032
 7359SOL    HW133536   3.953   0.751   7.542  0.0910  0.4848  0.3651
 7359SOL    HW233537   4.072   0.832   7.580  0.7872 -0.9785 -2.0124
 7360SOL     OW33538   3.905   0.141  16.569  0.2891 -0.5914 -0.2807
 7360SOL    HW133539   3.990   0.098  16.564  1.9089  2.3704  1.7434
 7360SOL    HW233540   3.920   0.225  16.612  0.3308 -0.4019 -0.6674
 7361SOL     OW33541   2.254   0.898  12.143 -0.5596  0.2679 -0.2464
 7361SOL    HW133542   2.178   0.947  12.175 -0.1412  1.3110 -0.8752
 7361SOL    HW233543   2.322   0.936  12.198 -0.8400  0.9062 -0.3504
 7362SOL     OW33544   3.896   1.708   5.353  0.0433  0.3219  0.5765
 7362SOL    HW133545   3.841   1.678   5.425  0.4365 -1.5875  0.0709
 7362SOL    HW233546   3.927   1.626   5.314  0.0413  1.2864 -1.4721
 7363SOL     OW33547   0.294   3.220   0.973  0.2360  0.2500 -0.2811
 7363SOL    HW133548   0.295   3.163   1.050 -1.6191 -1.3716 -1.4659
 7363SOL    HW233549   0.244   3.168   0.910 -0.6156  0.3486  0.3146
 7364SOL     OW33550   0.261   0.132  13.836  0.1735 -0.1411 -0.3281
 7364SOL    HW133551   0.322   0.205  13.826  0.3118 -0.2563 -0.3214
 7364SOL    HW233552   0.199   0.152  13.766 -0.6540 -1.9314 -0.1162
 7365SOL     OW33553   0.377   0.607  14.405  0.0417 -0.3524 -0.4255
 7365SOL    HW133554   0.445   0.557  14.361  1.0205  0.6660 -0.0673
 7365SOL    HW233555   0.407   0.698  14.402  0.2819 -0.5159 -2.8356
 7366SOL     OW33556   3.171   4.370   2.110  0.5848 -0.3974 -0.6039
 7366SOL    HW133557   3.227   4.423   2.053  0.9410  0.5953  0.6621
 7366SOL    HW233558   3.213   4.284   2.101 -2.3063 -1.8241 -0.3598
 7367SOL     OW33559   2.994   2.938   9.040  0.1560  0.5180 -0.0224
 7367SOL    HW133560   2.989   2.935   9.136 -2.4230  0.6075 -0.1592
 7367SOL    HW233561   2.918   2.992   9.017  1.2941  1.9128 -0.4860
 7368SOL     OW33562   1.408   1.343   7.873 -0.0529 -0.5175  0.5620
 7368SOL    HW133563   1.433   1.399   7.946 -0.6132  2.0272 -1.2040
 7368SOL    HW233564   1.483   1.284   7.864  0.6205  0.4254  0.0308
 7369SOL     OW33565   1.371   2.216   6.779  0.3249  0.0367  0.0196
 7369SOL    HW133566   1.301   2.151   6.786 -1.0445  1.5554  0.4788
 7369SOL    HW233567   1.442   2.168   6.822 -0.9681 -0.7813  1.2436
 7370SOL     OW33568   4.254   0.094   3.328 -0.1958  0.7449  0.0999
 7370SOL    HW133569   4.251   0.084   3.423  0.4980 -0.2199  0.0252
 7370SOL    HW233570   4.282   0.185   3.317 -1.3459  1.2617  1.3988
 7371SOL     OW33571   1.442   0.966   1.934 -0.0634 -0.1173 -0.3480
 7371SOL    HW133572   1.489   0.901   1.987 -0.1860  0.0983  0.0209
 7371SOL    HW233573   1.408   0.910   1.864 -1.7756 -0.6810  0.9342
 7372SOL     OW33574   1.627   0.916   5.681 -0.0230  0.0225 -0.3706
 7372SOL    HW133575   1.539   0.906   5.646 -0.7238  1.6839  0.9181
 7372SOL    HW233576   1.601   0.981   5.746 -1.9623 -0.9050 -0.2120
 7373SOL     OW33577   3.032   4.198  15.418  0.6079  0.7046 -0.1962
 7373SOL    HW133578   3.100   4.201  15.350  0.5701  0.9825 -0.2248
 7373SOL    HW233579   3.088   4.185  15.494 -0.4227 -0.8623  0.2915
 7374SOL     OW33580   2.706   0.088   5.371 -0.0866 -0.4910  0.0515
 7374SOL    HW133581   2.706   0.034   5.450 -1.9116  0.8448  0.9668
 7374SOL    HW233582   2.649   0.035   5.315  0.1108 -1.7714  1.0547
 7375SOL     OW33583   4.620   2.620   8.896 -0.0304 -0.4373  0.1559
 7375SOL    HW133584   4.610   2.533   8.935 -1.2629 -0.2898  0.1447
 7375SOL    HW233585   4.547   2.667   8.937  0.1394 -1.4696  1.6694
 7376SOL     OW33586   0.372   2.397   8.036 -0.5529 -0.1158 -0.1641
 7376SOL    HW133587   0.418   2.421   7.955  1.6921 -0.6931  0.9375
 7376SOL    HW233588   0.285   2.420   8.005 -0.3540  0.7003 -0.1040
 7377SOL     OW33589   1.807   1.926   7.701  0.4349 -0.4778 -0.0637
 7377SOL    HW133590   1.865   2.002   7.706  2.5939 -2.2247  1.5094
 7377SOL    HW233591   1.873   1.858   7.720 -0.2232 -0.1098  3.5434
 7378SOL     OW33592   1.172   2.338   8.249 -0.3512 -0.3859 -0.6259
 7378SOL    HW133593   1.115   2.333   8.172 -0.1020 -0.3306 -0.8149
 7378SOL    HW233594   1.118   2.357   8.326  0.9096 -1.3176  0.4820
 7379SOL     OW33595   4.237   1.690   5.746 -0.3628  0.5415  0.7177
 7379SOL    HW133596   4.305   1.709   5.810 -1.4200  0.4698  1.8570
 7379SOL    HW233597   4.290   1.692   5.666 -0.4637  0.9492  0.6574
 7380SOL     OW33598   3.223   3.679   0.308  0.1790  0.8248  0.6293
 7380SOL    HW133599   3.292   3.615   0.289 -0.9456  0.2122 -1.4813
 7380SOL    HW233600   3.199   3.665   0.399  0.6664  0.7645  0.7494
 7381SOL     OW33601   3.068   4.661   6.250 -0.3166 -0.3954  0.2619
 7381SOL    HW133602   3.048   4.634   6.339  1.8961 -0.4229  0.7444
 7381SOL    HW233603   3.152   4.707   6.251  0.1950 -1.2718 -2.0490
 7382SOL     OW33604   4.204   1.416   2.683  0.7967  0.1423 -0.0302
 7382SOL    HW133605   4.299   1.405   2.682  0.7389 -0.2296 -0.8622
 7382SOL    HW233606   4.200   1.507   2.712  1.2864 -0.1516  0.9782
 7383SOL     OW33607   0.898   2.583   3.193 -0.0640  0.0819  0.2756
 7383SOL    HW133608   0.940   2.647   3.251  0.7100 -0.1340 -0.0470
 7383SOL    HW233609   0.915   2.624   3.108 -2.1824  0.5309  0.0743
 7384SOL     OW33610   3.847   3.510   1.335  0.5048  0.0595 -0.2175
 7384SOL    HW133611   3.929   3.504   1.286  1.6858 -0.0701  1.7679
 7384SOL    HW233612   3.808   3.580   1.282 -0.4406 -0.1227  0.2308
 7385SOL     OW33613   1.629   3.680   8.804  0.2213 -0.5285 -0.8566
 7385SOL    HW133614   1.536   3.674   8.824  0.7307  1.2788  2.0231
 7385SOL    HW233615   1.629   3.676   8.708 -3.4814 -0.9919 -0.8342
 7386SOL     OW33616   0.376   0.673   8.609 -0.2448 -0.5265 -0.3631
 7386SOL    HW133617   0.360   0.587   8.572 -1.8284  0.6173 -2.3164
 7386SOL    HW233618   0.334   0.739   8.554 -1.6011  1.2680  2.7672
 7387SOL     OW33619   2.407   4.298   8.005 -0.8326 -0.6195 -0.5788
 7387SOL    HW133620   2.447   4.383   7.985 -1.9893  0.4125  1.4685
 7387SOL    HW233621   2.404   4.297   8.100  2.2514  0.7514 -0.4718
 7388SOL     OW33622   3.659   4.058  15.209  0.2283  0.0504 -0.3949
 7388SOL    HW133623   3.604   4.049  15.287  0.5139  1.3507 -0.0467
 7388SOL    HW233624   3.593   4.081  15.143  0.8762  3.1975  0.0562
 7389SOL     OW33625   1.721   3.715   6.166  0.1574 -0.7508  0.0243
 7389SOL    HW133626   1.761   3.749   6.087 -2.4665  1.3467 -0.3756
 7389SOL    HW233627   1.639   3.685   6.128  0.7414 -1.5202 -0.6393
 7390SOL     OW33628   0.991   2.043   6.712  0.4635  0.1512 -0.1497
 7390SOL    HW133629   1.049   1.977   6.750 -1.3711 -1.3062  0.1120
 7390SOL    HW233630   1.043   2.087   6.644 -1.1189  0.5001 -1.1216
 7391SOL     OW33631   1.746   2.219   6.463 -0.1657  0.1461  0.2809
 7391SOL    HW133632   1.762   2.309   6.488  0.7012 -0.0858  0.5424
 7391SOL    HW233633   1.677   2.242   6.401  0.2239  1.4858  0.3492
 7392SOL     OW33634   2.616   0.196  14.682  0.3522  0.2818  0.2653
 7392SOL    HW133635   2.680   0.241  14.626  1.2073 -1.3620 -0.0617
 7392SOL    HW233636   2.629   0.104  14.660 -1.9515  0.4368 -1.6851
 7393SOL     OW33637   3.252   1.260   4.729 -0.0867  0.3164  0.5518
 7393SOL    HW133638   3.277   1.170   4.708 -1.1444 -0.0774  0.9766
 7393SOL    HW233639   3.337   1.300   4.711 -0.3863  0.7045 -0.0183
 7394SOL     OW33640   3.303   3.631   7.457  0.3360 -0.4591 -0.3586
 7394SOL    HW133641   3.384   3.672   7.487  0.4709 -1.6775  0.9376
 7394SOL    HW233642   3.241   3.695   7.492  1.6474 -0.4235  1.9216
 7395SOL     OW33643   0.339   2.811  10.201  0.3386  0.0495  0.0314
 7395SOL    HW133644   0.360   2.810  10.108 -1.0710  0.3783 -0.2964
 7395SOL    HW233645   0.412   2.760  10.236  2.1316  1.5012 -1.6331
 7396SOL     OW33646   2.632   0.742   7.656 -0.2708 -0.3737 -0.2783
 7396SOL    HW133647   2.691   0.675   7.623  0.7181 -0.2607  1.2351
 7396SOL    HW233648   2.560   0.689   7.690 -1.4599  1.6530  0.4065
 7397SOL     OW33649   2.049   3.383   5.111 -0.0271 -0.0684 -0.2516
 7397SOL    HW133650   2.029   3.460   5.165  1.5185  0.4636 -0.4351
 7397SOL    HW233651   2.139   3.394   5.082 -0.4013 -1.5729 -1.9733
 7398SOL     OW33652   1.764   3.465  13.003 -0.8213  0.2722 -0.3264
 7398SOL    HW133653   1.702   3.488  12.934  0.1518  1.2223 -0.8761
 7398SOL    HW233654   1.831   3.417  12.955  0.9235  1.9061  0.4619
 7399SOL     OW33655   1.089   1.632   9.370  0.4316 -0.3380 -0.1544
 7399SOL    HW133656   1.016   1.570   9.367 -0.1499  0.3396 -0.1062
 7399SOL    HW233657   1.163   1.572   9.377  0.6016 -0.0507  0.5346
 7400SOL     OW33658   0.961   0.019   2.147  0.5853  0.5115  0.0993
 7400SOL    HW133659   0.952   0.112   2.168  1.1988  0.2468  1.5177
 7400SOL    HW233660   0.955   4.690   2.227  1.9845 -0.0775 -0.1878
 7401SOL     OW33661   3.019   2.831  16.710  0.5889 -0.1665 -0.0836
 7401SOL    HW133662   2.971   2.870  16.784  0.3168 -2.4415  0.9457
 7401SOL    HW233663   3.103   2.822  16.755  0.5270 -2.6243 -0.4700
 7402SOL     OW33664   1.696   0.469   0.704  0.0512 -0.5386  0.0634
 7402SOL    HW133665   1.673   0.406   0.635 -0.2469 -0.2697 -0.0814
 7402SOL    HW233666   1.675   0.410   0.777 -0.0976 -1.0263 -0.3752
 7403SOL     OW33667   3.663   2.259   1.555  0.2481  0.0589  0.0240
 7403SOL    HW133668   3.602   2.217   1.494 -0.7235  1.5509 -0.0396
 7403SOL    HW233669   3.745   2.223   1.522  1.1114  0.3615  1.8794
 7404SOL     OW33670   4.359   0.861  16.013 -0.0173 -0.1260 -0.5750
 7404SOL    HW133671   4.284   0.915  16.040 -1.0852 -1.8756 -0.0855
 7404SOL    HW233672   4.327   0.816  15.935 -0.7228 -0.5703 -0.0264
 7405SOL     OW33673   3.082   0.447  15.994 -0.2473  0.1771 -0.4010
 7405SOL    HW133674   3.075   0.352  15.982  0.4411  0.0186  0.4887
 7405SOL    HW233675   3.151   0.477  15.935  1.7681  0.6408  2.2129
 7406SOL     OW33676   2.131   1.071  13.708 -0.3140  0.1250  0.2397
 7406SOL    HW133677   2.087   1.085  13.792 -0.8327  0.9652 -0.1746
 7406SOL    HW233678   2.207   1.128  13.722  0.4152 -0.4980 -1.1051
 7407SOL     OW33679   2.540   0.332   6.704 -0.3992 -0.2871  0.4946
 7407SOL    HW133680   2.509   0.351   6.615 -0.9025 -0.5246  0.6216
 7407SOL    HW233681   2.552   0.422   6.735  1.7453  0.3717 -2.2104
 7408SOL     OW33682   3.831   3.059   4.576 -0.0786  0.2558  0.5465
 7408SOL    HW133683   3.775   3.071   4.652 -0.9894 -1.0478  0.0864
 7408SOL    HW233684   3.901   3.023   4.630  1.6052  1.0915 -1.1051
 7409SOL     OW33685   1.494   3.086  15.508  0.3086 -0.1086 -0.1827
 7409SOL    HW133686   1.515   3.026  15.437  0.6697 -1.7200  1.3017
 7409SOL    HW233687   1.485   3.013  15.569 -2.7367  1.4958  1.3285
 7410SOL     OW33688   4.577   1.234  15.523 -0.0445 -0.0833  0.1089
 7410SOL    HW133689   4.573   1.265  15.614 -2.5181  3.0118 -1.0658
 7410SOL    HW233690   4.652   1.175  15.535 -1.8024 -1.9889  1.8780
 7411SOL     OW33691   0.390   3.219  12.361 -0.0102  0.0996 -0.7982
 7411SOL    HW133692   0.405   3.287  12.295  1.9489 -0.2018 -0.6585
 7411SOL    HW233693   0.424   3.265  12.438 -0.3754 -0.8478 -0.0754
 7412SOL     OW33694   4.632   4.312   3.046  0.4919 -0.7141  0.0867
 7412SOL    HW133695   4.580   4.355   2.978 -0.6579 -0.4688  1.0969
 7412SOL    HW233696   4.598   4.223   3.036 -1.1666  0.2594 -3.1007
 7413SOL     OW33697   2.207   0.502   6.663  0.1065  0.6921 -0.0607
 7413SOL    HW133698   2.259   0.576   6.695  0.5341  0.9328 -1.3139
 7413SOL    HW233699   2.118   0.517   6.694 -0.9384 -1.8883 -1.8828
 7414SOL     OW33700   1.371   2.617   6.204  0.6986  0.1910  0.0065
 7414SOL    HW133701   1.376   2.522   6.212 -0.6934  0.2052  0.9730
 7414SOL    HW233702   1.413   2.629   6.119 -1.1780 -4.0237 -1.5213
 7415SOL     OW33703   2.651   2.745   4.061  0.6780 -0.4471  0.1570
 7415SOL    HW133704   2.735   2.702   4.078  0.3325 -1.3890 -0.5338
 7415SOL    HW233705   2.597   2.718   4.135  0.4870 -1.4049 -0.3298
 7416SOL     OW33706   3.446   4.380   3.312  0.2660 -0.6338 -0.0721
 7416SOL    HW133707   3.515   4.444   3.295 -1.5362  0.4044 -3.4930
 7416SOL    HW233708   3.369   4.427   3.345  0.4284  0.8916 -1.8678
 7417SOL     OW33709   2.049   3.941   2.064  0.3959  0.0171  0.2505
 7417SOL    HW133710   2.105   3.954   2.140  0.1462  2.6935 -0.0283
 7417SOL    HW233711   2.116   3.949   1.995 -0.4133 -3.1919 -0.9018
 7418SOL     OW33712   3.093   0.400   7.810  0.3054  0.2990 -0.1434
 7418SOL    HW133713   3.040   0.479   7.815 -1.6340 -1.0212  0.1452
 7418SOL    HW233714   3.158   0.423   7.876  0.6110  0.0731 -0.3659
 7419SOL     OW33715   2.443   1.084  17.205 -0.1458  0.3844  0.4351
 7419SOL    HW133716   2.400   1.168  17.223 -0.0012  0.6729 -0.5717
 7419SOL    HW233717   2.431   1.084  17.110  1.3625  4.3987  0.2789
 7420SOL     OW33718   0.448   0.849   7.734 -0.7697 -0.0309  0.2361
 7420SOL    HW133719   0.539   0.857   7.703 -0.5295 -1.4498  0.6029
 7420SOL    HW233720   0.440   0.761   7.772 -1.4287  0.1214  0.4522
 7421SOL     OW33721   1.692   0.850   7.647  0.4989  0.2206 -0.7631
 7421SOL    HW133722   1.599   0.856   7.627  0.3273 -0.0452 -0.0221
 7421SOL    HW233723   1.723   0.820   7.561  0.9172  0.8929 -0.8478
 7422SOL     OW33724   2.046   3.933   0.814 -0.0474  0.3204  0.3728
 7422SOL    HW133725   2.046   3.914   0.720 -0.8013  0.5670  0.3230
 7422SOL    HW233726   2.033   3.845   0.850 -2.1871  0.0434 -1.0589
 7423SOL     OW33727   4.580   0.791  16.649 -0.2534  0.8499  0.6167
 7423SOL    HW133728   4.598   0.779  16.742  1.9426  1.7717  0.3176
 7423SOL    HW233729   4.487   0.812  16.651 -0.3525  0.5230 -0.9948
 7424SOL     OW33730   3.371   2.393   2.023 -0.1836 -0.4423 -0.0031
 7424SOL    HW133731   3.463   2.368   2.014 -0.0665 -0.6279  1.6908
 7424SOL    HW233732   3.347   2.399   1.930  0.8053 -0.9312 -0.2974
 7425SOL     OW33733   1.206   1.641   0.112  0.2302  0.3549 -0.1851
 7425SOL    HW133734   1.245   1.574   0.168  0.4221  1.2346  0.7415
 7425SOL    HW233735   1.117   1.639   0.147 -0.8112  2.0500 -2.7190
 7426SOL     OW33736   1.124   2.692   6.832  0.2858 -0.2298  0.0825
 7426SOL    HW133737   1.127   2.627   6.762 -0.9552 -1.6223  1.3112
 7426SOL    HW233738   1.149   2.771   6.784  1.5134 -0.3914  0.4666
 7427SOL     OW33739   2.325   4.468  10.829  0.1104  0.4929  0.5722
 7427SOL    HW133740   2.293   4.558  10.822  0.6988  0.7588  1.2256
 7427SOL    HW233741   2.283   4.427  10.753 -1.9654  0.8483  1.5150
 7428SOL     OW33742   1.577   0.071   1.709 -0.3511  0.1724 -0.0184
 7428SOL    HW133743   1.585   0.052   1.802 -1.1782 -0.7445 -0.1368
 7428SOL    HW233744   1.539   4.712   1.677 -0.8897  0.5214 -0.2771
 7429SOL     OW33745   2.497   4.467   4.465  0.0311  0.5293 -0.5745
 7429SOL    HW133746   2.576   4.417   4.441  0.0753  0.4555 -0.2702
 7429SOL    HW233747   2.497   4.525   4.389 -0.4525  0.5560 -0.5556
 7430SOL     OW33748   4.695   2.717   6.296 -0.1408  0.1401 -0.3295
 7430SOL    HW133749   0.022   2.767   6.361 -0.7179  0.0256  0.2071
 7430SOL    HW233750   4.666   2.643   6.349  0.8286 -0.0301 -0.0337
 7431SOL     OW33751   1.379   2.955   4.436 -0.0220  0.1314  0.3067
 7431SOL    HW133752   1.458   2.902   4.451 -0.5113 -0.8444 -0.5752
 7431SOL    HW233753   1.390   2.984   4.345 -1.2929  1.1009  0.4691
 7432SOL     OW33754   3.198   4.700   5.438 -0.3763  0.1331 -0.1775
 7432SOL    HW133755   3.211   4.703   5.343 -0.0725 -0.3740 -0.1540
 7432SOL    HW233756   3.168   4.612   5.459 -0.3505 -0.4422 -2.5402
 7433SOL     OW33757   0.476   0.160  17.514 -0.4665 -0.0472  0.1157
 7433SOL    HW133758   0.463   0.091  17.579 -0.1191 -1.3069 -1.1441
 7433SOL    HW233759   0.561   0.193  17.541  0.0253 -0.3179 -1.1020
 7434SOL     OW33760   1.748   2.091  13.735  0.1064  0.3388  0.2767
 7434SOL    HW133761   1.710   2.170  13.773  0.3877  0.4522  0.3239
 7434SOL    HW233762   1.664   2.048  13.717  1.3216 -1.6809 -0.6181
 7435SOL     OW33763   3.371   1.553   6.808  0.5302  0.1554  0.1201
 7435SOL    HW133764   3.428   1.619   6.769  0.0413  0.0774 -0.7249
 7435SOL    HW233765   3.420   1.471   6.799 -0.1138 -0.1122 -1.0044
 7436SOL     OW33766   3.289   2.977   0.871  0.5540  0.0770  0.2923
 7436SOL    HW133767   3.345   2.967   0.949 -0.4908  0.0806  1.0396
 7436SOL    HW233768   3.329   2.904   0.824 -1.6918 -1.9618  1.5270
 7437SOL     OW33769   0.668   0.606   4.495 -0.0871  0.0601 -0.3565
 7437SOL    HW133770   0.663   0.599   4.400 -0.9745  2.5492 -0.4714
 7437SOL    HW233771   0.623   0.528   4.528 -1.6814  0.6647 -1.1136
 7438SOL     OW33772   0.213   1.736  17.524  0.1782  0.2302 -0.3998
 7438SOL    HW133773   0.189   1.659  17.471  0.7726 -0.5273  0.4337
 7438SOL    HW233774   0.134   1.750  17.577 -1.2996  0.3606 -2.6313
 7439SOL     OW33775   2.035   1.907   7.400  0.9591 -0.1549 -0.0251
 7439SOL    HW133776   2.078   1.853   7.333  1.6676 -1.1939  1.2618
 7439SOL    HW233777   2.071   1.876   7.483  0.4115 -1.4585 -0.2749
 7440SOL     OW33778   1.344   0.524   4.252 -0.0204  0.2539 -0.5077
 7440SOL    HW133779   1.407   0.550   4.184  0.2389 -0.8580 -0.6842
 7440SOL    HW233780   1.385   0.442   4.276 -1.3454 -0.8233 -1.8985
 7441SOL     OW33781   1.329   1.244   4.119 -0.6539  0.2928  0.6694
 7441SOL    HW133782   1.268   1.263   4.049 -0.1766  0.8751  0.4111
 7441SOL    HW233783   1.397   1.311   4.109  0.5726 -1.2603 -1.2329
 7442SOL     OW33784   4.018   3.629   7.684  0.0607 -0.4753  0.6137
 7442SOL    HW133785   4.070   3.701   7.646  1.6514 -2.6402 -1.3076
 7442SOL    HW233786   4.039   3.625   7.777  1.1267 -0.3740  0.3825
 7443SOL     OW33787   3.053   1.552   1.410  0.0409  0.6077 -0.0345
 7443SOL    HW133788   3.034   1.511   1.326 -0.9554 -1.5911  1.2578
 7443SOL    HW233789   3.030   1.642   1.388 -2.1261 -0.5832 -2.5972
 7444SOL     OW33790   1.988   3.725   7.066 -0.3933 -0.1590  0.0931
 7444SOL    HW133791   2.051   3.732   7.138 -0.5030  0.6673  0.1152
 7444SOL    HW233792   1.914   3.692   7.117 -0.8357  1.8202  0.7462
 7445SOL     OW33793   2.698   3.813  12.942  0.5635 -0.3069  0.1463
 7445SOL    HW133794   2.701   3.870  13.020  0.7575 -2.9144  2.0348
 7445SOL    HW233795   2.791   3.791  12.930  0.1924 -1.2040 -1.0350
 7446SOL     OW33796   4.186   0.738   2.670 -0.7338 -0.2304  0.2022
 7446SOL    HW133797   4.117   0.681   2.706 -0.5679  0.2934  1.3474
 7446SOL    HW233798   4.138   0.808   2.625 -1.2262 -1.3482 -0.9818
 7447SOL     OW33799   0.387   3.967  16.786 -0.1932  0.4990  0.3345
 7447SOL    HW133800   0.482   3.957  16.794 -0.2793  0.8224  1.9116
 7447SOL    HW233801   0.363   4.000  16.873 -0.1022  1.8527 -0.1500
 7448SOL     OW33802   2.709   0.807   8.705 -0.3030  0.1556 -0.2404
 7448SOL    HW133803   2.626   0.787   8.661 -0.6978  2.0311 -0.3703
 7448SOL    HW233804   2.720   0.898   8.678 -1.1263  0.2546 -0.2481
 7449SOL     OW33805   3.430   0.318  16.195  0.3985  0.1342 -0.1635
 7449SOL    HW133806   3.522   0.292  16.185  0.2237 -1.2319  1.8550
 7449SOL    HW233807   3.389   0.233  16.206 -0.6408  0.5295 -1.0034
 7450SOL     OW33808   0.927   0.261   2.254 -0.1305 -0.5035  0.2220
 7450SOL    HW133809   0.963   0.341   2.293  2.1594 -1.7454  0.6455
 7450SOL    HW233810   0.839   0.295   2.235 -0.7200 -1.2731  1.5942
 7451SOL     OW33811   3.418   1.765   6.400  0.2885 -0.2075  0.1580
 7451SOL    HW133812   3.430   1.796   6.490  2.8334  0.9145 -0.5817
 7451SOL    HW233813   3.334   1.720   6.399 -1.1698  2.5194 -0.2952
 7452SOL     OW33814   2.523   0.504   6.476  0.0440 -0.1306 -0.0043
 7452SOL    HW133815   2.592   0.549   6.427  1.3889 -1.3865  0.7516
 7452SOL    HW233816   2.514   0.420   6.432 -1.9553  0.2180 -0.2446
 7453SOL     OW33817   0.283   2.372   4.748 -0.3969  0.7011 -0.0249
 7453SOL    HW133818   0.238   2.290   4.764 -1.9367  1.2744 -1.4297
 7453SOL    HW233819   0.266   2.416   4.831 -1.5982 -0.3156  0.2576
 7454SOL     OW33820   3.714   2.956   0.365 -0.5302  0.6336 -0.5887
 7454SOL    HW133821   3.661   2.943   0.443  0.4088 -1.2018 -0.2578
 7454SOL    HW233822   3.758   3.040   0.380 -2.3109  1.2863  0.8825
 7455SOL     OW33823   2.381   3.331  16.489 -0.1635 -0.6879  0.2074
 7455SOL    HW133824   2.426   3.349  16.406  0.0171  1.6071  0.8132
 7455SOL    HW233825   2.300   3.296  16.451 -0.9618  0.6752  0.6921
 7456SOL     OW33826   0.362   1.360   9.062  0.1650 -0.3586  0.5732
 7456SOL    HW133827   0.418   1.306   9.007 -3.2973 -2.0907 -1.2520
 7456SOL    HW233828   0.397   1.447   9.048 -1.1784  0.4114  2.0339
 7457SOL     OW33829   1.611   0.180   7.732 -0.0640  0.3067 -0.0704
 7457SOL    HW133830   1.609   0.224   7.817 -1.8766  1.0188 -0.5016
 7457SOL    HW233831   1.593   0.092   7.765 -1.0998  0.8578  0.8259
 7458SOL     OW33832   3.604   3.624   8.468  0.3126 -0.1781 -0.0759
 7458SOL    HW133833   3.614   3.539   8.425  1.8776  0.7023 -1.4702
 7458SOL    HW233834   3.614   3.592   8.558 -0.2496  0.3317  0.1754
 7459SOL     OW33835   0.409   2.952   5.383 -0.5569 -0.2925  0.6056
 7459SOL    HW133836   0.377   2.896   5.313 -2.7757  0.9291  0.6457
 7459SOL    HW233837   0.364   2.915   5.460 -0.9083  0.0781  0.5755
 7460SOL     OW33838   0.982   2.592  10.060  0.1397  0.0213  0.5186
 7460SOL    HW133839   1.076   2.602  10.051  0.1515 -2.1785 -1.8023
 7460SOL    HW233840   0.976   2.650  10.136  0.2697  1.6251 -0.6984
 7461SOL     OW33841   1.443   2.813   6.001  0.1551  0.2658 -0.2487
 7461SOL    HW133842   1.409   2.792   5.914  1.2968  0.2697 -0.6921
 7461SOL    HW233843   1.371   2.845   6.056 -0.3274 -0.1861 -0.6146
 7462SOL     OW33844   1.983   2.342   4.383  0.1416 -0.4803 -0.0479
 7462SOL    HW133845   1.992   2.421   4.436  0.1948  1.1812 -2.5842
 7462SOL    HW233846   2.073   2.314   4.369 -0.4507 -1.9815 -0.8434
 7463SOL     OW33847   2.710   1.603  10.486 -0.8144 -0.1812 -0.7372
 7463SOL    HW133848   2.701   1.551  10.566  0.5444 -0.0831 -0.5176
 7463SOL    HW233849   2.645   1.574  10.423 -1.5246 -0.3092  0.0542
 7464SOL     OW33850   3.365   3.229   0.117 -0.0934  0.0004 -0.2020
 7464SOL    HW133851   3.283   3.264   0.152  1.2705  2.9222  0.1517
 7464SOL    HW233852   3.423   3.261   0.186  1.9667  1.3155 -2.5772
 7465SOL     OW33853   2.862   1.068  15.745  0.7477 -0.4864 -0.0393
 7465SOL    HW133854   2.932   1.011  15.774  0.2313 -0.1018  1.9468
 7465SOL    HW233855   2.900   1.114  15.670 -0.7602 -1.5499 -1.4621
 7466SOL     OW33856   3.166   3.034   8.267 -0.1038  0.4134  0.2479
 7466SOL    HW133857   3.137   2.946   8.243  1.9075 -0.4759  1.1230
 7466SOL    HW233858   3.153   3.087   8.188 -1.3804 -1.5993 -0.8925
 7467SOL     OW33859   2.896   0.811   4.945 -0.3577 -0.1076  0.1776
 7467SOL    HW133860   2.932   0.763   4.871  1.7697 -0.5414  1.4712
 7467SOL    HW233861   2.948   0.891   4.937 -0.3419 -0.4045 -2.4858
 7468SOL     OW33862   0.495   3.792   9.035 -0.3880  0.4307  0.2894
 7468SOL    HW133863   0.571   3.742   9.063 -1.8058 -2.4281 -0.9356
 7468SOL    HW233864   0.438   3.786   9.112  0.8062 -1.9475  0.9917
 7469SOL     OW33865   2.758   0.690   2.725  0.3163 -0.2920  0.1942
 7469SOL    HW133866   2.831   0.680   2.786  3.0244 -1.1113 -3.1608
 7469SOL    HW233867   2.801   0.740   2.656 -0.2596  0.1229  0.1295
 7470SOL     OW33868   1.227   1.830   5.355 -0.6629 -0.7047  0.1076
 7470SOL    HW133869   1.163   1.821   5.426  2.0889 -0.7713  2.6240
 7470SOL    HW233870   1.201   1.917   5.326 -0.3972 -0.5070  0.4543
 7471SOL     OW33871   1.913   2.777  11.738  0.0440 -0.4326 -0.0151
 7471SOL    HW133872   1.874   2.825  11.665 -0.1894  0.2843  0.5745
 7471SOL    HW233873   1.934   2.848  11.800  0.9628  0.3307 -1.1989
 7472SOL     OW33874   2.098   0.141  11.651 -0.6699 -0.7181 -0.2887
 7472SOL    HW133875   2.021   0.130  11.596  0.1202 -0.8713 -1.3642
 7472SOL    HW233876   2.101   0.063  11.707 -0.1525 -0.2759  0.2905
 7473SOL     OW33877   2.198   4.508  11.096 -0.8548  0.1510 -0.1450
 7473SOL    HW133878   2.271   4.567  11.117 -1.7649  1.0676  0.4358
 7473SOL    HW233879   2.244   4.457  11.029 -1.4684  0.9267 -1.1540
 7474SOL     OW33880   3.631   0.982   1.457  0.0121  0.0600  0.2846
 7474SOL    HW133881   3.545   1.023   1.460 -0.4847 -1.1139  2.4037
 7474SOL    HW233882   3.639   0.964   1.551  0.0866  1.4640  0.5533
 7475SOL     OW33883   3.162   4.108  15.676 -0.2374 -0.7624 -0.3849
 7475SOL    HW133884   3.156   4.067  15.763  0.1877  0.7881  0.3846
 7475SOL    HW233885   3.239   4.165  15.680  0.4837 -1.7216 -0.6130
 7476SOL     OW33886   0.853   3.154   2.768  0.1550 -0.1766 -0.1944
 7476SOL    HW133887   0.886   3.166   2.679  0.1318 -0.6342 -0.2649
 7476SOL    HW233888   0.781   3.216   2.765 -0.8141 -1.2176  1.2100
 7477SOL     OW33889   4.167   4.164   7.680  0.1237 -0.1462 -0.4729
 7477SOL    HW133890   4.141   4.212   7.602 -1.2585  0.8495  0.5965
 7477SOL    HW233891   4.112   4.203   7.748 -1.3085 -0.8459 -1.2207
 7478SOL     OW33892   0.573   1.004   3.513 -0.4163 -0.0595 -0.1986
 7478SOL    HW133893   0.614   0.962   3.589  1.0539 -0.6245 -1.2979
 7478SOL    HW233894   0.633   1.078   3.503 -2.5936  1.6932 -0.2159
 7479SOL     OW33895   2.608   4.076  12.608  0.0881  0.3156  0.2119
 7479SOL    HW133896   2.672   4.091  12.678  0.3074 -4.4173  1.0263
 7479SOL    HW233897   2.568   4.162  12.600  0.9703  0.6803 -0.3503
 7480SOL     OW33898   0.514   1.074  17.099  0.1157  0.3099  0.1552
 7480SOL    HW133899   0.608   1.070  17.113  0.2316  0.8436 -0.4168
 7480SOL    HW233900   0.521   1.131  17.022 -1.0703 -0.7106 -0.7192
 7481SOL     OW33901   4.555   1.030   4.568  0.1896  0.4582 -0.1374
 7481SOL    HW133902   4.506   0.957   4.608  3.7590 -1.5749  0.4967
 7481SOL    HW233903   4.494   1.099   4.595 -1.5652 -1.9411  2.0008
 7482SOL     OW33904   1.986   1.261   0.414 -0.7586  0.0981  0.3625
 7482SOL    HW133905   1.920   1.268   0.345  0.0060 -0.9268 -0.4818
 7482SOL    HW233906   1.964   1.345   0.453 -0.2336  1.4729 -2.2592
 7483SOL     OW33907   2.281   4.224   3.800  0.0649  0.1075  0.0327
 7483SOL    HW133908   2.370   4.253   3.779  0.1417  0.1604  0.4315
 7483SOL    HW233909   2.296   4.184   3.886 -1.5972 -0.1837  0.1868
 7484SOL     OW33910   0.368   0.412  10.053 -0.2964  0.2547  0.2616
 7484SOL    HW133911   0.316   0.473  10.106  0.1401  1.7673 -1.0231
 7484SOL    HW233912   0.302   0.343  10.057  1.6848 -1.6087  0.5201
 7485SOL     OW33913   3.886   1.499  14.712 -0.3619 -0.1357  0.9186
 7485SOL    HW133914   3.967   1.499  14.763  1.6596  1.1489 -2.2977
 7485SOL    HW233915   3.914   1.554  14.639 -0.0798  0.8984  1.8103
 7486SOL     OW33916   3.573   2.245   4.326  0.3217 -0.7218 -0.4190
 7486SOL    HW133917   3.640   2.178   4.309  0.3092 -0.9206  0.3034
 7486SOL    HW233918   3.496   2.203   4.288 -1.2972 -0.0373  2.0905
 7487SOL     OW33919   1.638   3.960   8.267 -0.5150  0.1838  0.0287
 7487SOL    HW133920   1.732   3.945   8.276 -0.6726 -0.6138  0.2744
 7487SOL    HW233921   1.639   4.000   8.179 -4.4364  0.8580  0.2894
 7488SOL     OW33922   4.249   4.552   8.115 -0.3999 -0.5560  0.0761
 7488SOL    HW133923   4.218   4.538   8.204 -2.6357 -2.9562 -1.1031
 7488SOL    HW233924   4.329   4.602   8.135  1.7067 -3.6122 -0.6480
 7489SOL     OW33925   2.100   0.850   6.609  0.9415  0.1180 -0.0963
 7489SOL    HW133926   2.191   0.822   6.598  0.4487 -0.8515 -1.6326
 7489SOL    HW233927   2.065   0.779   6.663 -0.1289  0.5087 -0.2718
 7490SOL     OW33928   0.864   3.175   0.296 -0.0782 -0.3389  0.2795
 7490SOL    HW133929   0.861   3.251   0.354 -2.7816 -0.3656  0.1793
 7490SOL    HW233930   0.889   3.217   0.214  0.3454 -3.1503 -1.0530
 7491SOL     OW33931   1.766   3.473  10.888  0.5183  0.7000 -0.0649
 7491SOL    HW133932   1.806   3.540  10.833 -1.6676  1.1628 -1.1143
 7491SOL    HW233933   1.797   3.487  10.977 -0.2868 -0.8136  0.4454
 7492SOL     OW33934   3.420   2.553   7.035 -0.0769  0.3766 -0.1968
 7492SOL    HW133935   3.400   2.512   6.951 -1.1646 -2.6868  1.5503
 7492SOL    HW233936   3.457   2.637   7.007  0.0459 -0.4058 -2.3882
 7493SOL     OW33937   1.793   3.713   4.705  0.0641 -0.6267 -0.2711
 7493SOL    HW133938   1.761   3.731   4.793 -1.8201 -0.3817 -0.9943
 7493SOL    HW233939   1.886   3.735   4.710 -0.2838  0.9674 -0.7725
 7494SOL     OW33940   2.478   3.763  13.810 -0.3754 -0.0060 -0.2488
 7494SOL    HW133941   2.477   3.853  13.842  1.2782 -0.0567 -0.0362
 7494SOL    HW233942   2.401   3.737  13.860  0.4403  2.3015  2.1879
 7495SOL     OW33943   0.027   0.402   5.961 -0.1204 -0.0527  0.2163
 7495SOL    HW133944   4.659   0.403   5.934 -0.7626 -0.6564  2.3771
 7495SOL    HW233945   0.029   0.334   6.029 -1.1588 -0.1936  0.1100
 7496SOL     OW33946   3.431   1.292  14.796  0.3057  0.1676 -0.0862
 7496SOL    HW133947   3.385   1.211  14.775  1.5427  0.0266 -2.2419
 7496SOL    HW233948   3.503   1.291  14.733 -1.9561  0.0991 -2.6563
 7497SOL     OW33949   4.087   3.857   4.098  0.1332 -0.0974  0.1439
 7497SOL    HW133950   4.100   3.774   4.144  0.3625  0.9332  1.9788
 7497SOL    HW233951   4.063   3.828   4.010 -0.0505  1.8665 -0.4544
 7498SOL     OW33952   1.495   4.718   4.025 -0.0141  0.0139  0.6094
 7498SOL    HW133953   1.505   0.071   4.081 -0.1070  0.4228  0.0713
 7498SOL    HW233954   1.407   0.001   3.987  0.8549 -0.6688 -1.5308
 7499SOL     OW33955   3.321   3.185  16.567  0.4057  0.1443 -0.6818
 7499SOL    HW133956   3.299   3.195  16.659  0.3537  0.2158 -0.7018
 7499SOL    HW233957   3.246   3.131  16.542  0.6438  0.0825 -1.2651
 7500SOL     OW33958   0.371   1.598  13.985 -0.5905  0.0470 -0.2946
 7500SOL    HW133959   0.337   1.556  13.906  0.4663 -2.0223  0.3568
 7500SOL    HW233960   0.361   1.528  14.049 -1.5662  0.6980  0.2724
 7501SOL     OW33961   0.037   1.522  17.399 -0.5663  0.1927 -0.0903
 7501SOL    HW133962   4.714   1.553  17.321 -1.0198 -0.4277 -0.0734
 7501SOL    HW233963   4.689   1.522  17.463  1.1533  2.0596  1.8574
 7502SOL     OW33964   2.500   2.284   7.877 -0.2549 -0.2962 -0.0938
 7502SOL    HW133965   2.536   2.363   7.838 -1.6204  0.9307  1.1337
 7502SOL    HW233966   2.412   2.276   7.841 -0.1135 -0.0919 -0.4827
 7503SOL     OW33967   3.190   2.907   3.758  0.5082 -0.1565  0.3040
 7503SOL    HW133968   3.261   2.845   3.772 -0.5731 -1.3394  0.4663
 7503SOL    HW233969   3.115   2.848   3.755  1.1273 -0.9117 -0.0177
 7504SOL     OW33970   2.208   2.972  12.636  0.1231  0.7250  0.2939
 7504SOL    HW133971   2.282   2.960  12.695 -0.4994  1.1070  1.1623
 7504SOL    HW233972   2.228   2.917  12.561  1.3259  0.6695  0.6552
 7505SOL     OW33973   1.839   0.243   1.320  0.3049 -0.2487 -0.4560
 7505SOL    HW133974   1.930   0.274   1.314  0.2746  0.0001  0.3613
 7505SOL    HW233975   1.837   0.214   1.411 -0.1621 -0.5582 -0.5649
 7506SOL     OW33976   1.396   0.158   2.422  0.1828  0.5711  0.0470
 7506SOL    HW133977   1.313   0.123   2.454 -1.0375  0.1124 -3.5654
 7506SOL    HW233978   1.400   0.246   2.460  1.3306 -0.1099  1.4780
 7507SOL     OW33979   2.440   2.089  16.029  0.2906  1.5819 -0.1356
 7507SOL    HW133980   2.530   2.069  16.054  0.0630  0.3072 -0.3257
 7507SOL    HW233981   2.446   2.038  15.948  0.1132  0.7194  0.4005
 7508SOL     OW33982   2.807   0.258   7.735 -0.5246  0.2248 -0.1736
 7508SOL    HW133983   2.880   0.215   7.691 -0.5502  0.5938 -0.5777
 7508SOL    HW233984   2.811   0.225   7.825 -0.5668 -0.3349 -0.3785
 7509SOL     OW33985   2.423   3.948   8.428 -0.0988 -0.2105 -0.1845
 7509SOL    HW133986   2.368   4.025   8.446 -0.7417 -1.1033  1.7383
 7509SOL    HW233987   2.473   3.944   8.510 -0.8447  0.7618  0.3246
 7510SOL     OW33988   2.530   4.525  13.113  0.2136  0.0469 -0.4791
 7510SOL    HW133989   2.517   4.619  13.100  1.1126  0.2599  0.1343
 7510SOL    HW233990   2.539   4.499  13.022 -0.3074  1.0761 -0.8294
 7511SOL     OW33991   2.437   1.949   5.604  0.3705 -0.0932 -0.0089
 7511SOL    HW133992   2.369   1.933   5.539  1.5394 -1.0696 -0.9827
 7511SOL    HW233993   2.463   2.032   5.565 -0.6804 -0.4026 -1.3799
 7512SOL     OW33994   0.827   1.787   8.465  0.1982  0.1708 -0.2842
 7512SOL    HW133995   0.919   1.802   8.444 -0.0338  1.2828 -0.5092
 7512SOL    HW233996   0.792   1.845   8.398 -1.0503  0.7603  0.8661
 7513SOL     OW33997   0.173   2.497   3.273  0.2816  0.4252  0.0230
 7513SOL    HW133998   0.234   2.570   3.287  0.8763  0.6583 -3.5425
 7513SOL    HW233999   0.231   2.430   3.237 -0.0796  1.1464 -1.9075
 7514SOL     OW34000   0.356   4.110   7.569 -0.0153 -0.2030  0.4708
 7514SOL    HW134001   0.327   4.042   7.508  0.1729  0.6991 -0.6207
 7514SOL    HW234002   0.435   4.059   7.585  0.5940  1.4352  2.6462
 7515SOL     OW34003   3.018   3.476   7.078  0.3021 -0.4160 -0.3238
 7515SOL    HW134004   3.025   3.551   7.137  0.9734  0.9584 -2.1221
 7515SOL    HW234005   2.992   3.405   7.136 -1.4618  1.3354  1.0328
 7516SOL     OW34006   2.298   0.022   8.002 -0.4443  0.3114 -0.0901
 7516SOL    HW134007   2.271   0.113   8.018  0.6392  0.9114 -1.6346
 7516SOL    HW234008   2.222   4.698   8.037  0.3117  0.3473  1.5908
 7517SOL     OW34009   0.803   1.055   9.191 -0.3654  0.1111  0.2389
 7517SOL    HW134010   0.889   1.097   9.199 -0.1823 -0.7146  2.4172
 7517SOL    HW234011   0.774   1.062   9.100 -0.3237 -2.3108  0.0637
 7518SOL     OW34012   0.779   4.241   3.435  0.0425 -0.3231 -0.4137
 7518SOL    HW134013   0.847   4.285   3.383 -1.1422  2.2269  0.1623
 7518SOL    HW234014   0.758   4.164   3.383 -0.0521 -0.7047  0.1989
 7519SOL     OW34015   2.979   3.531   4.071 -0.1322 -0.7130 -0.2880
 7519SOL    HW134016   2.996   3.590   4.145  0.4185  0.8328 -1.6525
 7519SOL    HW234017   2.925   3.467   4.117  0.3091 -1.3171 -0.6252
 7520SOL     OW34018   3.087   0.296   2.914 -0.0471  0.1314 -0.1129
 7520SOL    HW134019   3.015   0.296   2.977 -1.4325  0.0728 -1.7284
 7520SOL    HW234020   3.038   0.247   2.849  0.9499 -3.3341  1.7233
 7521SOL     OW34021   0.407   0.369   2.826  0.0171 -0.2546  0.0655
 7521SOL    HW134022   0.391   0.289   2.776  2.7255 -1.1078  0.5641
 7521SOL    HW234023   0.484   0.412   2.789 -0.8027  1.8966  0.9035
 7522SOL     OW34024   1.116   3.978  12.131 -0.0847 -0.1659  0.3334
 7522SOL    HW134025   1.112   3.964  12.037  2.5409 -0.2898  0.2217
 7522SOL    HW234026   1.045   3.925  12.166  0.9936 -1.3649  0.7144
 7523SOL     OW34027   4.083   2.836   2.370 -0.2576 -0.1405 -0.3688
 7523SOL    HW134028   4.143   2.776   2.328 -0.2673  0.1953 -0.8661
 7523SOL    HW234029   4.102   2.913   2.316  0.4224  0.4223  0.6735
 7524SOL     OW34030   0.843   2.223   3.519 -0.2332  0.3984 -0.4025
 7524SOL    HW134031   0.888   2.261   3.444  0.6840  2.3364  1.1417
 7524SOL    HW234032   0.877   2.133   3.514  1.7563  1.0989  0.3540
 7525SOL     OW34033   2.532   3.832  12.735 -1.2690  0.2318  0.2348
 7525SOL    HW134034   2.549   3.910  12.683  1.5008  0.7202  1.8717
 7525SOL    HW234035   2.602   3.838  12.801 -0.3738  0.0915 -0.7017
 7526SOL     OW34036   3.878   0.677   5.897  0.2206  0.5599  0.2602
 7526SOL    HW134037   3.902   0.584   5.899 -1.1309  0.1894 -1.4473
 7526SOL    HW234038   3.899   0.704   5.808 -0.9568  0.7664  0.0567
 7527SOL     OW34039   3.441   1.287   3.708  0.1267  0.8976  0.4982
 7527SOL    HW134040   3.475   1.199   3.719  0.3742  0.6138 -2.6949
 7527SOL    HW234041   3.500   1.319   3.641 -0.6159  1.3347  0.0463
 7528SOL     OW34042   3.632   3.445   1.487 -0.2271  0.1621 -0.6845
 7528SOL    HW134043   3.567   3.507   1.454  0.6221  0.8737 -1.0039
 7528SOL    HW234044   3.709   3.499   1.471 -0.1954  0.3671  0.1624
 7529SOL     OW34045   0.898   2.544   4.509 -0.5160  0.4846  0.2565
 7529SOL    HW134046   0.953   2.474   4.475  3.2610  2.9058  1.3348
 7529SOL    HW234047   0.970   2.598   4.542 -0.8441 -1.1533  3.6861
 7530SOL     OW34048   0.698   1.003  17.454 -0.0947 -0.1065 -0.2320
 7530SOL    HW134049   0.698   0.917  17.495 -0.6496  0.8097  1.7228
 7530SOL    HW234050   0.669   1.051  17.532 -0.2707  2.1986 -1.7061
 7531SOL     OW34051   3.089   3.327  10.887 -0.3468 -0.3146  0.2073
 7531SOL    HW134052   3.167   3.376  10.914  0.0544 -0.0808 -1.4039
 7531SOL    HW234053   3.035   3.367  10.955  0.9717 -0.2172  1.1927
 7532SOL     OW34054   0.944   1.925   4.155 -0.5462  0.0755 -0.0332
 7532SOL    HW134055   0.880   1.865   4.193  0.1128 -1.1790 -0.8975
 7532SOL    HW234056   0.903   1.944   4.071  0.0680  1.5109 -0.0001
 7533SOL     OW34057   1.925   4.222   3.291 -0.1375 -0.5334  0.0972
 7533SOL    HW134058   1.904   4.137   3.328  1.8790 -2.4736 -3.2225
 7533SOL    HW234059   1.995   4.195   3.232  1.7263  2.1755  1.0600
 7534SOL     OW34060   0.162   0.575   1.261  0.0282 -0.7443  0.0383
 7534SOL    HW134061   0.134   0.505   1.203  0.0976 -0.4540 -0.3416
 7534SOL    HW234062   0.258   0.568   1.257 -0.0709 -0.8397 -1.8299
 7535SOL     OW34063   2.568   0.080   3.608 -0.9104 -0.3766 -0.0461
 7535SOL    HW134064   2.530   0.143   3.669 -0.9350  0.3057 -0.7558
 7535SOL    HW234065   2.527   0.114   3.528 -1.1592 -0.4510  0.0524
 7536SOL     OW34066   0.015   1.635   6.113 -0.1346 -0.4223 -0.3980
 7536SOL    HW134067   0.007   1.700   6.183  0.7844 -1.6363  0.8236
 7536SOL    HW234068   4.688   1.565   6.154  0.1961 -1.2418 -1.4034
 7537SOL     OW34069   0.354   4.435  12.216 -0.6837  0.2769  0.2190
 7537SOL    HW134070   0.403   4.509  12.181  1.8021 -2.3439 -1.8521
 7537SOL    HW234071   0.280   4.474  12.263 -0.1191  1.2252  0.3264
 7538SOL     OW34072   1.051   2.317  11.281 -0.0424 -0.4998  0.3757
 7538SOL    HW134073   1.059   2.265  11.361  0.1946  0.7728  1.1900
 7538SOL    HW234074   1.143   2.344  11.286  0.5667 -2.5616  0.2302
 7539SOL     OW34075   0.227   0.832   6.186 -0.1077 -0.2752 -0.0467
 7539SOL    HW134076   0.149   0.790   6.149  0.5611 -0.0752 -1.6715
 7539SOL    HW234077   0.226   0.919   6.145 -0.9997  0.1355  0.8367
 7540SOL     OW34078   0.873   1.099   5.224 -0.0713  0.1084 -0.4136
 7540SOL    HW134079   0.896   1.132   5.311 -1.9455  0.2550  0.0225
 7540SOL    HW234080   0.828   1.175   5.187  1.2624  2.3863  2.6040
 7541SOL     OW34081   1.995   4.472   3.427  0.3293 -0.0132 -0.4319
 7541SOL    HW134082   1.973   4.388   3.386  1.6552  0.1977 -1.5735
 7541SOL    HW234083   2.089   4.472   3.408  0.1564  1.1923 -1.3398
 7542SOL     OW34084   3.376   0.092   2.607 -0.4574  0.1400 -0.7195
 7542SOL    HW134085   3.408   0.158   2.545  1.4018 -0.4151 -0.3575
 7542SOL    HW234086   3.292   0.077   2.562  0.3355 -0.5652 -1.9861
 7543SOL     OW34087   3.178   3.114   6.045  1.1229  0.3074  0.0572
 7543SOL    HW134088   3.099   3.060   6.045  1.4941 -0.2520 -1.2109
 7543SOL    HW234089   3.148   3.192   6.090 -0.5661 -1.2947  1.7025
 7544SOL     OW34090   3.068   3.228   7.357  0.5908  0.3254 -0.1452
 7544SOL    HW134091   3.004   3.291   7.391  0.3221  0.2260 -0.4768
 7544SOL    HW234092   3.012   3.151   7.360  1.1886 -0.0605  1.4551
 7545SOL     OW34093   1.493   2.579   2.713  0.7603 -0.2828  0.4217
 7545SOL    HW134094   1.479   2.569   2.619  2.1051 -2.7745  0.5018
 7545SOL    HW234095   1.517   2.672   2.720 -1.1963  0.4363 -2.4127
 7546SOL     OW34096   4.163   3.282   3.500  0.2193  0.1932 -0.9010
 7546SOL    HW134097   4.136   3.272   3.408  2.3133 -1.5239 -1.3252
 7546SOL    HW234098   4.181   3.376   3.505  0.2747  0.2141 -1.4939
 7547SOL     OW34099   2.129   4.676   5.148  0.0267  0.1379 -0.4626
 7547SOL    HW134100   2.058   4.672   5.211  1.6484 -1.6031  1.2518
 7547SOL    HW234101   2.095   0.031   5.104 -2.2583 -0.3162  0.5005
 7548SOL     OW34102   2.100   2.280   5.039 -0.0839 -0.4101  0.8604
 7548SOL    HW134103   2.045   2.207   5.010 -0.0673  0.0213 -0.2717
 7548SOL    HW234104   2.132   2.303   4.951 -1.5316  0.1414  0.4713
 7549SOL     OW34105   3.224   2.645   6.626  0.1916 -0.0236  0.1655
 7549SOL    HW134106   3.255   2.566   6.670  0.6356 -1.1245 -2.1229
 7549SOL    HW234107   3.310   2.680   6.604 -0.1182  0.4070 -0.3484
 7550SOL     OW34108   0.444   3.386   9.895 -0.0155 -0.0756  0.2751
 7550SOL    HW134109   0.446   3.471   9.939  3.1786  0.1096 -0.2623
 7550SOL    HW234110   0.427   3.332   9.973 -1.1056 -0.5921 -0.3215
 7551SOL     OW34111   0.873   1.190  10.588  0.1259  0.2107  0.2642
 7551SOL    HW134112   0.919   1.231  10.515 -2.1490  0.0477 -1.2723
 7551SOL    HW234113   0.788   1.181  10.544  0.3116  0.5758 -0.1700
 7552SOL     OW34114   2.219   0.216   6.512  0.1108  0.2877  0.2211
 7552SOL    HW134115   2.183   0.282   6.572  0.4847 -0.1378  0.9184
 7552SOL    HW234116   2.269   0.159   6.570  2.5217  2.6690  0.4728
 7553SOL     OW34117   1.241   2.326  15.375  0.5956  0.0654  0.6206
 7553SOL    HW134118   1.179   2.254  15.373  0.8251 -0.1033 -0.3860
 7553SOL    HW234119   1.181   2.395  15.405 -0.2975 -0.5651  0.2757
 7554SOL     OW34120   0.755   4.671   7.249 -0.4343  0.0627 -0.5825
 7554SOL    HW134121   0.803   4.691   7.330  0.8370  0.5267 -1.4533
 7554SOL    HW234122   0.751   4.576   7.263  0.6253  0.4967  2.6540
 7555SOL     OW34123   2.879   2.283   7.755 -0.6608  0.2380  0.4005
 7555SOL    HW134124   2.974   2.283   7.770 -0.0509 -0.5567 -3.4530
 7555SOL    HW234125   2.869   2.209   7.696 -0.1654 -0.8255  1.6479
 7556SOL     OW34126   0.765   2.814  17.687  0.8694  0.0618 -0.2328
 7556SOL    HW134127   0.851   2.854  17.680  0.4474  0.9823 -0.2268
 7556SOL    HW234128   0.797   2.743   0.049 -0.8818 -0.7977 -0.2895
 7557SOL     OW34129   3.673   3.439   4.167 -0.6412 -0.1800  0.2524
 7557SOL    HW134130   3.719   3.511   4.210  0.8784 -0.4493 -0.9256
 7557SOL    HW234131   3.654   3.476   4.081 -2.2322 -1.1644  0.1866
 7558SOL     OW34132   1.877   2.467   1.950  0.4228  0.7262 -0.0276
 7558SOL    HW134133   1.962   2.473   1.993  0.1428 -1.1592  0.7939
 7558SOL    HW234134   1.866   2.373   1.934  0.7308  0.6880 -0.0132
 7559SOL     OW34135   1.284   0.977  12.712  0.0458  0.1108 -0.7356
 7559SOL    HW134136   1.341   1.016  12.778 -0.0317 -2.3191  0.7745
 7559SOL    HW234137   1.246   0.900  12.755  1.9623 -1.4609 -1.8687
 7560SOL     OW34138   1.777   1.453   1.014 -0.4298  0.2093  0.3751
 7560SOL    HW134139   1.691   1.486   1.039 -1.3112 -0.1163 -2.2332
 7560SOL    HW234140   1.771   1.468   0.919  1.0801  0.7314  0.3580
 7561SOL     OW34141   2.964   1.688   2.561  0.6944  0.4697 -0.1848
 7561SOL    HW134142   3.055   1.669   2.541  1.3817  2.6380  0.8312
 7561SOL    HW234143   2.976   1.764   2.618 -1.3625  1.2785 -0.8039
 7562SOL     OW34144   2.021   1.796   0.047 -0.1816  0.1825  0.0154
 7562SOL    HW134145   1.996   1.719   0.098  0.0112  0.7092  0.9041
 7562SOL    HW234146   1.948   1.851   0.075 -0.2878  0.0611 -0.0210
 7563SOL     OW34147   3.759   1.220   8.049 -0.5147 -0.4243 -0.0736
 7563SOL    HW134148   3.695   1.257   8.109 -1.1859 -1.2288 -0.2886
 7563SOL    HW234149   3.757   1.131   8.084  0.5642 -0.8013 -0.9746
 7564SOL     OW34150   1.897   3.335   1.023 -0.0885 -0.3005 -0.5723
 7564SOL    HW134151   1.838   3.266   0.993  2.6572 -3.0136  0.2964
 7564SOL    HW234152   1.837   3.409   1.030 -0.0512 -0.3371  0.1732
 7565SOL     OW34153   4.337   0.402   1.392 -0.3472 -0.3867  0.2811
 7565SOL    HW134154   4.270   0.452   1.345  0.0611  2.0731  2.3220
 7565SOL    HW234155   4.311   0.411   1.483  0.8673 -0.7276  0.6549
 7566SOL     OW34156   1.990   0.808  11.587  0.1545 -0.3594 -0.2895
 7566SOL    HW134157   1.972   0.714  11.585  2.0565 -0.6963 -1.2911
 7566SOL    HW234158   2.031   0.820  11.673 -1.8070 -1.5490  0.8167
 7567SOL     OW34159   2.062   1.926   5.814  0.3790 -0.0907 -0.0995
 7567SOL    HW134160   2.101   1.857   5.762  0.6809  0.7263 -0.9514
 7567SOL    HW234161   2.074   2.007   5.765  3.6324 -0.4121  0.1907
 7568SOL     OW34162   1.845   3.955   5.183  0.6300  0.2011  0.1405
 7568SOL    HW134163   1.876   3.887   5.123  0.6750  0.7839 -0.4996
 7568SOL    HW234164   1.765   3.981   5.137  0.0884  0.3378  1.1540
 7569SOL     OW34165   2.245   2.176   4.032  0.2685 -0.3730 -0.3195
 7569SOL    HW134166   2.299   2.231   3.975 -1.0347  0.7198 -0.4841
 7569SOL    HW234167   2.161   2.165   3.989  0.4915  3.8191 -1.8792
 7570SOL     OW34168   0.127   0.499  12.838 -0.3376 -0.6321 -0.0614
 7570SOL    HW134169   0.133   0.540  12.751 -1.7946  1.5350  0.8516
 7570SOL    HW234170   0.136   0.576  12.894  0.6923  0.1902 -1.3595
 7571SOL     OW34171   2.576   0.931   3.589 -0.2280  0.0268  0.7347
 7571SOL    HW134172   2.563   1.025   3.604  1.6538  0.7507 -2.1579
 7571SOL    HW234173   2.615   0.907   3.673  1.2851  1.2317  0.3787
 7572SOL     OW34174   0.547   0.312  13.388 -0.3457  0.0278  0.6513
 7572SOL    HW134175   0.566   0.385  13.328  0.1184 -0.2911  0.4066
 7572SOL    HW234176   0.451   0.310  13.384 -0.4746  5.3426  1.3290
 7573SOL     OW34177   3.927   1.448   8.351 -0.5762  0.7631  0.0360
 7573SOL    HW134178   3.989   1.520   8.340  1.3739 -0.8997  0.2000
 7573SOL    HW234179   3.866   1.476   8.283 -1.1213 -1.6645 -0.4539
 7574SOL     OW34180   2.120   1.121   5.151 -0.0132 -0.1150  0.1577
 7574SOL    HW134181   2.066   1.089   5.079 -2.2347 -1.7461  2.5554
 7574SOL    HW234182   2.073   1.092   5.230 -1.2032 -1.4096 -1.0159
 7575SOL     OW34183   2.850   0.407  10.935 -0.5969 -0.0020  0.0924
 7575SOL    HW134184   2.892   0.451  11.009  1.0736 -0.4571 -0.5872
 7575SOL    HW234185   2.903   0.327  10.927 -0.2262 -0.0161  2.5848
 7576SOL     OW34186   3.278   1.110   5.842  0.1218  0.0672  0.5847
 7576SOL    HW134187   3.274   1.028   5.891 -0.1949 -0.3699 -0.1866
 7576SOL    HW234188   3.309   1.170   5.910  0.9031 -1.1752  1.3192
 7577SOL     OW34189   1.168   2.148  14.279  0.1151  0.2509  0.2944
 7577SOL    HW134190   1.214   2.096  14.345 -0.8642  1.5907  2.0262
 7577SOL    HW234191   1.208   2.234  14.290 -0.3647  0.3788  1.0097
 7578SOL     OW34192   1.386   0.441   4.567 -0.2444  0.5905 -0.0830
 7578SOL    HW134193   1.436   0.477   4.495 -1.0966 -1.5535 -1.7593
 7578SOL    HW234194   1.331   0.375   4.523  0.6217  0.3345 -0.7737
 7579SOL     OW34195   4.409   3.729   4.839  0.5011  0.5040 -0.0517
 7579SOL    HW134196   4.317   3.712   4.817  0.4028  0.2576  0.5553
 7579SOL    HW234197   4.435   3.793   4.773 -0.2577  0.7905 -0.0745
 7580SOL     OW34198   2.433   1.795  10.246 -0.4388 -0.2773 -0.4721
 7580SOL    HW134199   2.513   1.836  10.278 -0.7704 -0.5219  0.6742
 7580SOL    HW234200   2.372   1.864  10.222 -1.9354 -1.6444 -0.6373
 7581SOL     OW34201   1.048   2.444  16.590 -0.2153 -0.3217 -0.4797
 7581SOL    HW134202   1.026   2.405  16.505  1.3885 -1.0752 -0.5456
 7581SOL    HW234203   1.105   2.513  16.557 -0.4455 -0.7701 -1.8064
 7582SOL     OW34204   0.662   3.036   9.674 -0.2244 -0.4972 -0.0403
 7582SOL    HW134205   0.708   3.114   9.642 -0.0938 -0.8729 -0.7716
 7582SOL    HW234206   0.699   2.965   9.622  1.3309  0.5101 -0.3202
 7583SOL     OW34207   2.738   1.753   2.207  0.1102  0.1771 -0.7801
 7583SOL    HW134208   2.830   1.750   2.180  0.0998  0.5840 -0.8652
 7583SOL    HW234209   2.715   1.822   2.145 -1.5016  1.8361  1.6916
 7584SOL     OW34210   4.306   2.752   6.905  0.2286 -0.8410 -0.6661
 7584SOL    HW134211   4.268   2.785   6.823 -0.4833 -1.0330 -0.4134
 7584SOL    HW234212   4.233   2.772   6.965  2.1660  2.2162  0.6911
 7585SOL     OW34213   2.687   2.187   2.684  0.2901 -0.6639 -0.6469
 7585SOL    HW134214   2.734   2.269   2.663 -0.4298 -0.4764 -1.5300
 7585SOL    HW234215   2.600   2.219   2.704  0.7917  0.5993 -0.4736
 7586SOL     OW34216   1.676   2.472   3.790  0.3653 -0.5026  0.3411
 7586SOL    HW134217   1.743   2.421   3.745 -0.9689 -0.8023 -1.3240
 7586SOL    HW234218   1.697   2.452   3.881  0.5138 -0.0944  0.3981
 7587SOL     OW34219   1.760   4.171   6.401  0.3306 -0.2464  0.2081
 7587SOL    HW134220   1.690   4.234   6.417 -0.1773 -1.4866  2.8823
 7587SOL    HW234221   1.761   4.201   6.310  3.1593 -0.2058  0.2686
 7588SOL     OW34222   2.210   0.756   2.948 -0.7067 -0.3974  0.0215
 7588SOL    HW134223   2.284   0.776   3.005  0.6751 -0.9085 -1.5765
 7588SOL    HW234224   2.195   0.844   2.914 -0.5654  0.3271  1.8330
 7589SOL     OW34225   4.080   4.091   8.582  0.4538 -0.0275 -0.2162
 7589SOL    HW134226   4.100   4.055   8.496 -0.5180  0.6679 -0.7321
 7589SOL    HW234227   4.091   4.015   8.639  1.8948  0.1514 -0.2465
 7590SOL     OW34228   4.480   2.994   5.228 -0.3645  0.1081  0.6283
 7590SOL    HW134229   4.436   2.943   5.297 -0.1672 -0.4033  0.3799
 7590SOL    HW234230   4.559   2.940   5.229  0.1235  0.7976 -0.7824
 7591SOL     OW34231   3.828   0.090  10.097  0.0244  0.1493 -0.0522
 7591SOL    HW134232   3.784   0.093  10.012 -0.0879 -0.3285 -0.0128
 7591SOL    HW234233   3.838   4.718  10.109 -0.9760 -0.1260 -1.4122
 7592SOL     OW34234   2.273   2.095   6.579  0.2247  0.1335 -0.1489
 7592SOL    HW134235   2.366   2.114   6.576  0.4908 -1.1630 -0.0032
 7592SOL    HW234236   2.269   2.000   6.568 -0.0709 -0.2174  3.1173
 7593SOL     OW34237   0.076   1.379   6.708  0.3513  0.3466  0.3516
 7593SOL    HW134238   0.093   1.433   6.786  1.1499  0.8673 -0.1880
 7593SOL    HW234239   0.054   1.444   6.641  2.0378  1.7206  1.1262
 7594SOL     OW34240   4.648   0.277   1.848 -0.3990 -0.1779 -0.4976
 7594SOL    HW134241   4.692   0.194   1.862 -0.3374  0.0772  0.8735
 7594SOL    HW234242   4.567   0.251   1.804 -0.2031 -3.2103  0.9538
 7595SOL     OW34243   4.040   3.073   8.769 -0.1451 -0.0905 -0.6106
 7595SOL    HW134244   4.025   3.019   8.691  0.0812 -1.9575  0.6472
 7595SOL    HW234245   4.070   3.005   8.829 -0.1607  1.1482  0.8112
 7596SOL     OW34246   3.844   2.683   4.856 -0.2395  0.0964  0.3397
 7596SOL    HW134247   3.779   2.613   4.861  0.0850 -0.2831 -0.8555
 7596SOL    HW234248   3.890   2.658   4.936 -2.2883 -1.8882  0.9085
 7597SOL     OW34249   3.112   3.627   6.624  0.4033 -0.5716 -0.7369
 7597SOL    HW134250   3.063   3.616   6.543 -0.2647  1.0386 -0.5422
 7597SOL    HW234251   3.172   3.553   6.612  0.9183  0.0047 -1.7033
 7598SOL     OW34252   0.985   4.653   8.554  0.1188 -0.8817  0.5061
 7598SOL    HW134253   1.072   4.617   8.535  0.0923 -0.9891  0.5860
 7598SOL    HW234254   0.932   4.605   8.490  3.3023 -2.4536 -0.9787
 7599SOL     OW34255   4.312   3.223  10.496  0.2084  0.4556 -0.1093
 7599SOL    HW134256   4.398   3.192  10.469  1.7656  2.3947  2.5671
 7599SOL    HW234257   4.340   3.277  10.570  0.0108  0.6413 -0.1710
 7600SOL     OW34258   0.498   2.484   5.040 -0.3830 -0.3250  0.3289
 7600SOL    HW134259   0.523   2.540   4.967  2.7184 -0.2128  1.4366
 7600SOL    HW234260   0.583   2.479   5.085  0.4134  0.1773 -1.1120
 7601SOL     OW34261   2.956   1.765   5.361 -0.0760  0.3677  0.1489
 7601SOL    HW134262   2.978   1.704   5.291 -1.6511 -1.5058  1.2691
 7601SOL    HW234263   2.995   1.844   5.324 -1.9844  0.3304 -1.9412
 7602SOL     OW34264   2.974   2.651   2.588 -0.3206  0.5729 -0.3450
 7602SOL    HW134265   2.999   2.641   2.496  0.6273  2.7598 -0.3379
 7602SOL    HW234266   3.061   2.635   2.625 -0.4861 -0.7062 -0.5320
 7603SOL     OW34267   1.025   1.752   4.863  0.3829 -0.7448 -0.2990
 7603SOL    HW134268   1.090   1.734   4.931 -0.6413  0.4462  0.9973
 7603SOL    HW234269   1.069   1.801   4.794 -0.5469 -2.1044 -1.8570
 7604SOL     OW34270   2.743   3.029   0.956  0.0473  0.5501  0.3759
 7604SOL    HW134271   2.800   2.972   1.006 -0.5533 -1.0988 -0.8209
 7604SOL    HW234272   2.797   3.052   0.881 -1.6034  1.7738 -0.4466
 7605SOL     OW34273   0.001   2.547   6.765 -0.3215 -0.1017  0.1176
 7605SOL    HW134274   0.078   2.599   6.786 -0.4699 -0.0143  0.4397
 7605SOL    HW234275   0.024   2.461   6.802  1.9104  0.6556  0.4947
 7606SOL     OW34276   3.041   2.773   8.256  0.1413 -0.1300  0.0008
 7606SOL    HW134277   2.965   2.756   8.200  0.1593 -0.1550 -0.0157
 7606SOL    HW234278   3.006   2.741   8.339  0.4761 -0.0019  0.1902
 7607SOL     OW34279   0.451   1.988   3.856  0.3978 -0.5950  0.1241
 7607SOL    HW134280   0.531   1.938   3.841  0.9452 -0.6787  3.3928
 7607SOL    HW234281   0.385   1.924   3.831  1.3115 -0.9837 -1.3010
 7608SOL     OW34282   3.903   3.568   3.920  0.1043 -0.0678 -0.7991
 7608SOL    HW134283   3.835   3.506   3.945  0.3783  0.1381  0.4608
 7608SOL    HW234284   3.883   3.579   3.827  1.9584 -0.2397 -1.2304
 7609SOL     OW34285   3.443   0.552   0.829  0.5896  0.5374 -0.5429
 7609SOL    HW134286   3.410   0.481   0.884  1.7229  0.4321 -0.0094
 7609SOL    HW234287   3.369   0.612   0.835  0.1759  0.0105 -0.3472
 7610SOL     OW34288   4.454   1.350   8.367  0.5522 -0.4410 -0.2072
 7610SOL    HW134289   4.539   1.315   8.340  0.1908 -1.6828  0.2696
 7610SOL    HW234290   4.425   1.269   8.409 -1.9536 -0.7653 -2.6151
 7611SOL     OW34291   2.482   4.427   7.314 -0.3727  0.0351  0.4595
 7611SOL    HW134292   2.486   4.457   7.405 -0.0952  0.0397  0.4477
 7611SOL    HW234293   2.522   4.495   7.259  0.7580 -1.1714 -0.2269
 7612SOL     OW34294   4.203   2.271  10.416  0.0492  0.4878  0.3035
 7612SOL    HW134295   4.188   2.262  10.322  0.7104 -1.9582  0.4343
 7612SOL    HW234296   4.164   2.189  10.446 -0.0743  0.9445  1.4186
 7613SOL     OW34297   0.930   3.177   4.777 -0.2831 -0.1835  0.3786
 7613SOL    HW134298   0.866   3.221   4.833  1.2021  1.0029  1.1297
 7613SOL    HW234299   0.888   3.094   4.754 -0.4317 -0.2082  0.7390
 7614SOL     OW34300   3.945   3.235   5.592  0.2302 -0.0288 -0.2618
 7614SOL    HW134301   3.968   3.244   5.684  1.1289  0.4263 -0.5306
 7614SOL    HW234302   4.018   3.282   5.550 -0.0986  1.9477  1.3978
 7615SOL     OW34303   2.298   2.865   7.437 -0.3077  0.2358 -0.6269
 7615SOL    HW134304   2.357   2.913   7.379 -0.8203  2.1277  0.4181
 7615SOL    HW234305   2.341   2.876   7.522 -0.0513  2.8348 -1.1133
 7616SOL     OW34306   2.189   3.908   6.243 -0.3653  0.4711  0.0283
 7616SOL    HW134307   2.138   3.975   6.198 -0.9178 -0.7287 -1.1344
 7616SOL    HW234308   2.123   3.890   6.310  2.3571 -0.4005  2.5179
 7617SOL     OW34309   4.522   1.636  11.737  0.1646  0.0305  0.5364
 7617SOL    HW134310   4.518   1.611  11.645  1.3056 -0.5260  0.6379
 7617SOL    HW234311   4.586   1.707  11.746  0.7589 -0.9279  3.8045
 7618SOL     OW34312   2.290   3.528  13.139 -0.2064  0.4835 -0.0141
 7618SOL    HW134313   2.197   3.548  13.134 -0.5159 -1.0388 -0.4189
 7618SOL    HW234314   2.322   3.592  13.202  0.9327  0.4480 -0.5464
 7619SOL     OW34315   3.055   1.628  17.154  0.1903 -0.7110 -0.0505
 7619SOL    HW134316   3.138   1.626  17.105  0.0253 -1.0889 -0.3097
 7619SOL    HW234317   3.059   1.711  17.201 -1.0182 -0.5841 -0.1750
 7620SOL     OW34318   4.290   2.963   2.722 -0.0803  0.5449 -0.5596
 7620SOL    HW134319   4.382   2.949   2.699 -0.4245 -2.1730 -0.3334
 7620SOL    HW234320   4.281   2.944   2.815 -1.4200  0.7118 -0.6537
 7621SOL     OW34321   3.399   0.416   6.162  0.4090  0.2247 -0.2481
 7621SOL    HW134322   3.428   0.387   6.249 -0.4378  1.5489  0.4689
 7621SOL    HW234323   3.349   0.495   6.181 -1.1754 -1.1324  1.1666
 7622SOL     OW34324   0.822   1.122   1.727  0.0743  0.1777 -0.2603
 7622SOL    HW134325   0.858   1.152   1.810  0.3939  1.3421 -0.8219
 7622SOL    HW234326   0.890   1.065   1.691  2.0157  2.4744 -0.1809
 7623SOL     OW34327   1.479   1.727  12.804  0.2210  0.1111 -0.5271
 7623SOL    HW134328   1.450   1.711  12.894  0.5571  0.2519 -0.3921
 7623SOL    HW234329   1.532   1.806  12.814  1.5484 -0.8657  0.2050
 7624SOL     OW34330   2.125   0.650   9.616  0.3663  0.7061 -0.3357
 7624SOL    HW134331   2.172   0.689   9.690  1.1488 -2.4300  0.7987
 7624SOL    HW234332   2.175   0.574   9.588  0.1031 -0.2405  1.7570
 7625SOL     OW34333   3.346   1.268   7.180 -0.5150 -0.1189 -0.2667
 7625SOL    HW134334   3.372   1.358   7.201  1.8820 -1.2619  1.6431
 7625SOL    HW234335   3.432   1.228   7.166 -1.0808 -0.0548 -3.8440
 7626SOL     OW34336   0.940   1.725   5.350  0.2002 -0.2052  0.0332
 7626SOL    HW134337   0.889   1.728   5.430  1.0437 -0.1060  0.5688
 7626SOL    HW234338   0.939   1.815   5.317 -2.0709  0.0680  0.8367
 7627SOL     OW34339   2.251   3.050  15.388  0.2333  0.4236 -0.7796
 7627SOL    HW134340   2.194   2.973  15.389  0.8820 -0.0480 -0.5302
 7627SOL    HW234341   2.325   3.031  15.331  1.7114  1.1026  0.9033
 7628SOL     OW34342   1.213   2.371   7.605 -0.3221 -0.5404 -0.4384
 7628SOL    HW134343   1.164   2.376   7.523 -0.3214 -1.1927 -0.4837
 7628SOL    HW234344   1.248   2.459   7.620 -0.7937 -0.7613  1.8987
 7629SOL     OW34345   4.419   4.430   8.306  0.5517 -0.3740 -0.1954
 7629SOL    HW134346   4.496   4.388   8.346  0.6180 -0.5108 -0.4678
 7629SOL    HW234347   4.360   4.362   8.338  2.1015 -1.0332  1.2887
 7630SOL     OW34348   2.609   4.713  12.790 -0.1466 -0.1074 -0.0198
 7630SOL    HW134349   2.579   4.623  12.797  1.1879 -0.4145  1.6197
 7630SOL    HW234350   2.703   4.696  12.795 -0.2770 -1.6822 -2.7855
 7631SOL     OW34351   4.097   4.637   6.876  0.0817 -0.6428 -0.0067
 7631SOL    HW134352   4.153   4.561   6.885  0.1736 -0.8374 -2.2241
 7631SOL    HW234353   4.030   4.612   6.940 -0.3311 -2.1870 -1.0442
 7632SOL     OW34354   4.022   2.355   5.647 -0.4393 -0.0367 -0.3543
 7632SOL    HW134355   4.092   2.368   5.582 -2.3675  1.5217 -2.1457
 7632SOL    HW234356   4.057   2.280   5.695  0.6539  0.1760 -0.8133
 7633SOL     OW34357   0.670   0.873   2.277  0.0564 -0.0383 -0.0802
 7633SOL    HW134358   0.713   0.942   2.226  1.0559 -1.7537 -1.5615
 7633SOL    HW234359   0.621   0.924   2.341  2.3041 -1.6178  2.8941
 7634SOL     OW34360   1.326   0.431   2.712  0.1135  0.2052  0.4340
 7634SOL    HW134361   1.361   0.417   2.624 -2.7428 -0.3758 -0.6208
 7634SOL    HW234362   1.339   0.524   2.731 -0.8859  0.7264 -1.4983
 7635SOL     OW34363   0.835   0.081   5.544 -0.4228  0.6437 -0.0695
 7635SOL    HW134364   0.799   4.720   5.574 -0.3715  0.0614 -1.5965
 7635SOL    HW234365   0.765   0.108   5.485 -0.6592 -0.9715 -0.5427
 7636SOL     OW34366   1.649   2.338   1.467 -0.0633  0.3866  0.1941
 7636SOL    HW134367   1.580   2.376   1.411 -0.7960 -1.7172 -0.3078
 7636SOL    HW234368   1.690   2.409   1.517 -0.4306  1.6540 -1.2873
 7637SOL     OW34369   0.427   3.889   4.735  0.2694 -0.1236 -0.1602
 7637SOL    HW134370   0.351   3.890   4.793  1.4124  0.3257  1.3287
 7637SOL    HW234371   0.382   3.884   4.651 -2.1683 -0.6252  1.1714
 7638SOL     OW34372   1.502   1.356   0.623  0.0246 -0.1920 -0.3968
 7638SOL    HW134373   1.439   1.286   0.609  0.8360 -0.7026 -1.4684
 7638SOL    HW234374   1.532   1.368   0.533  0.3951 -1.0104 -0.3862
 7639SOL     OW34375   1.110   0.056   6.505 -0.5716 -0.2019  0.2422
 7639SOL    HW134376   1.180   0.076   6.443 -1.0800  0.0111 -0.2693
 7639SOL    HW234377   1.034   0.041   6.448  0.5606 -0.8347 -1.0997
 7640SOL     OW34378   1.153   0.074  17.382  0.1873 -0.0617 -0.0296
 7640SOL    HW134379   1.115   0.004  17.328 -1.0909 -0.1002  0.9179
 7640SOL    HW234380   1.222   0.026  17.427 -1.5498 -2.1445  0.4028
 7641SOL     OW34381   0.864   2.766   9.854  0.2219 -0.2937  1.0024
 7641SOL    HW134382   0.914   2.835   9.810  0.5712 -1.0040  0.2825
 7641SOL    HW234383   0.923   2.737   9.923  1.8121 -1.3831 -0.8159
 7642SOL     OW34384   0.279   1.872   8.319  0.2175  0.0757 -0.0787
 7642SOL    HW134385   0.296   1.780   8.336 -0.1104  0.3027  1.4681
 7642SOL    HW234386   0.277   1.915   8.405  2.1120 -0.1100  0.0537
 7643SOL     OW34387   2.048   2.762   1.491  0.0377  0.3928  0.5889
 7643SOL    HW134388   1.967   2.810   1.474 -0.0906  0.8660  2.5882
 7643SOL    HW234389   2.021   2.731   1.577  0.5333 -0.2829  0.4991
 7644SOL     OW34390   0.158   1.316  11.515  0.3609 -0.7231 -0.2946
 7644SOL    HW134391   0.154   1.410  11.501  2.5223 -0.6050 -0.1018
 7644SOL    HW234392   0.169   1.277  11.428  0.7068 -0.2542 -0.4581
 7645SOL     OW34393   3.505   3.930   9.514 -0.6920 -0.2366  0.0737
 7645SOL    HW134394   3.438   3.990   9.547 -0.2359  1.3125 -1.8420
 7645SOL    HW234395   3.500   3.861   9.580 -0.9458 -0.6180 -0.3468
 7646SOL     OW34396   2.611   1.269  14.369  0.2067 -0.0691 -0.0829
 7646SOL    HW134397   2.537   1.281  14.310  0.0896  0.1453  0.1080
 7646SOL    HW234398   2.616   1.174  14.384  0.2502 -0.0940 -0.2561
 7647SOL     OW34399   3.857   3.709   4.621 -0.1795 -0.1917 -0.3906
 7647SOL    HW134400   3.915   3.648   4.574 -0.5772  0.2380 -1.4495
 7647SOL    HW234401   3.916   3.778   4.650 -1.0041 -0.3349  1.5875
 7648SOL     OW34402   0.039   3.833   8.391  0.7419  0.3932  0.2308
 7648SOL    HW134403   0.113   3.801   8.442  0.0329  0.3039  1.1868
 7648SOL    HW234404   4.714   3.889   8.452  0.0134  1.1265 -0.9914
 7649SOL     OW34405   1.050   4.155  17.636 -0.3021 -0.2131 -0.2274
 7649SOL    HW134406   1.127   4.098  17.637  1.1625  1.7506 -0.3300
 7649SOL    HW234407   1.079   4.225  17.577 -0.8371 -0.6506 -1.0065
 7650SOL     OW34408   0.692   2.282   8.533  1.0709 -0.1902 -0.5254
 7650SOL    HW134409   0.665   2.253   8.620  1.3441 -0.0744 -0.3997
 7650SOL    HW234410   0.682   2.377   8.541 -1.1867 -0.3469 -1.6666
 7651SOL     OW34411   2.584   1.963  16.608 -0.2731  0.4962 -0.2439
 7651SOL    HW134412   2.571   2.000  16.521 -2.2221 -0.6937 -0.4544
 7651SOL    HW234413   2.511   1.902  16.616  2.0877 -1.9802  2.7921
 7652SOL     OW34414   1.621   4.009   3.135  0.2469 -0.5128 -0.2439
 7652SOL    HW134415   1.690   3.987   3.073  0.0137  0.5545 -0.8887
 7652SOL    HW234416   1.654   3.986   3.222 -0.8334  1.3594  0.6595
 7653SOL     OW34417   1.551   0.683   4.766 -0.5408  0.6372  0.5879
 7653SOL    HW134418   1.489   0.754   4.784 -1.6232 -0.9191  2.9377
 7653SOL    HW234419   1.491   0.612   4.789 -1.8137  2.2225  2.1610
 7654SOL     OW34420   2.053   1.164   2.597 -0.9542 -0.5107 -0.9068
 7654SOL    HW134421   2.145   1.152   2.620 -1.0895  1.2423  0.5869
 7654SOL    HW234422   2.020   1.087   2.643  1.3428 -1.0307 -0.1277
 7655SOL     OW34423   1.829   3.489   6.684  0.6622  0.6695  0.0150
 7655SOL    HW134424   1.850   3.582   6.684 -1.0162  1.0515 -1.6971
 7655SOL    HW234425   1.793   3.489   6.595 -0.3181 -0.6693  0.3977
 7656SOL     OW34426   2.818   1.980   3.337  0.0220 -0.0660 -0.5053
 7656SOL    HW134427   2.848   2.046   3.275  1.0630  0.0284  0.1002
 7656SOL    HW234428   2.829   1.901   3.284  0.1204  0.4910 -1.3156
 7657SOL     OW34429   0.439   0.080   5.889 -0.1797 -0.5303  0.4932
 7657SOL    HW134430   0.437   4.720   5.936 -0.9073 -0.3954  0.6993
 7657SOL    HW234431   0.529   0.080   5.856  0.7697 -1.3583  3.1172
 7658SOL     OW34432   1.209   1.334  16.065  0.0196 -0.3696  0.0693
 7658SOL    HW134433   1.236   1.382  15.986  0.1104  0.9691  0.9137
 7658SOL    HW234434   1.288   1.328  16.119  1.2472  1.1412 -1.5392
 7659SOL     OW34435   0.941   1.144  15.586  0.3889 -0.7795  0.0449
 7659SOL    HW134436   0.937   1.215  15.650  1.6144 -1.3464  0.7643
 7659SOL    HW234437   1.026   1.161  15.545  0.1960 -1.0239 -0.4537
 7660SOL     OW34438   3.533   2.861   7.256 -0.0749 -0.2001  0.0358
 7660SOL    HW134439   3.597   2.921   7.218  0.1017  0.2558  1.0514
 7660SOL    HW234440   3.578   2.778   7.239  0.6551  0.0901  0.5629
 7661SOL     OW34441   0.282   4.359   7.499 -0.8468 -0.1026 -0.9478
 7661SOL    HW134442   0.190   4.362   7.526 -1.0087  0.4594 -1.5761
 7661SOL    HW234443   0.318   4.280   7.541 -0.6633 -0.7727 -2.3782
 7662SOL     OW34444   3.278   0.369   0.036  0.0114  0.1071  0.2176
 7662SOL    HW134445   3.190   0.376   0.072  0.4458 -0.1243  1.3389
 7662SOL    HW234446   3.262   0.309  17.658  0.0105  0.5731 -0.1715
 7663SOL     OW34447   1.390   0.701   2.080  0.1560  0.2981 -0.1985
 7663SOL    HW134448   1.478   0.716   2.114 -0.3130  2.1495  0.1838
 7663SOL    HW234449   1.400   0.710   1.985  0.4345 -3.0698 -0.4732
 7664SOL     OW34450   0.087   3.956   3.166 -0.1614  0.0343  0.4950
 7664SOL    HW134451   0.157   3.898   3.136 -1.1759  0.6699 -3.2078
 7664SOL    HW234452   0.045   3.961   3.079  1.2899  0.7458 -0.1627
 7665SOL     OW34453   4.614   1.944   4.592  0.1338  0.4512 -0.3783
 7665SOL    HW134454   4.614   2.037   4.571  0.6470  0.6315  0.4029
 7665SOL    HW234455   4.707   1.923   4.600 -0.6028 -2.6294  0.0473
 7666SOL     OW34456   4.579   2.186   5.181 -0.7975 -0.4983  0.1414
 7666SOL    HW134457   4.498   2.153   5.142 -0.2583  1.2712 -2.4679
 7666SOL    HW234458   4.592   2.265   5.129 -1.6227 -0.8701 -0.6291
 7667SOL     OW34459   4.649   3.961   8.595  0.4042  0.4902  0.3501
 7667SOL    HW134460   4.634   4.034   8.656  0.6376  2.8814 -2.4513
 7667SOL    HW234461   0.004   3.920   8.634  0.9188  0.7885 -0.3710
 7668SOL     OW34462   4.294   2.898   6.032  0.4167  0.2768  0.6279
 7668SOL    HW134463   4.251   2.844   5.966 -0.3030 -1.2637  2.3785
 7668SOL    HW234464   4.349   2.953   5.976  0.2445  2.3986  2.5380
 7669SOL     OW34465   3.285   2.174  15.109  0.3177 -0.0493 -0.3389
 7669SOL    HW134466   3.193   2.197  15.117  0.3014 -0.0194 -0.5907
 7669SOL    HW234467   3.275   2.083  15.078 -1.2626 -0.4155  1.2462
 7670SOL     OW34468   1.613   0.195   3.324  0.6027 -0.4973  0.3177
 7670SOL    HW134469   1.610   0.149   3.241 -1.4154  1.0967 -0.4688
 7670SOL    HW234470   1.619   0.115   3.376  0.4938 -0.9499 -0.3704
 7671SOL     OW34471   1.079   1.825   1.709  0.8089  0.0827  0.2475
 7671SOL    HW134472   1.074   1.731   1.727 -0.8234  0.0398 -0.4084
 7671SOL    HW234473   0.989   1.853   1.728  0.0882 -2.7506  1.0586
 7672SOL     OW34474   4.487   4.469   4.100  0.0404  0.3490  0.5748
 7672SOL    HW134475   4.447   4.416   4.031 -1.4524  1.9633  0.2009
 7672SOL    HW234476   4.556   4.406   4.117 -0.7801 -0.9288 -0.8107
 7673SOL     OW34477   3.197   2.106   2.860 -0.2527  0.1245  0.7023
 7673SOL    HW134478   3.104   2.127   2.871 -0.2020  0.1170  1.1299
 7673SOL    HW234479   3.198   2.011   2.877  2.1213  0.1681  0.7966
 7674SOL     OW34480   2.611   3.795   2.206  0.3798  0.1135  0.0282
 7674SOL    HW134481   2.528   3.751   2.188 -0.1998  1.7687 -1.2773
 7674SOL    HW234482   2.674   3.749   2.151  1.0323  2.6861 -1.3647
 7675SOL     OW34483   3.875   1.743   3.225 -0.1255  0.0297 -0.4263
 7675SOL    HW134484   3.903   1.652   3.236  2.5845  0.8889 -0.2589
 7675SOL    HW234485   3.780   1.726   3.229 -0.2408  0.7706  0.0394
 7676SOL     OW34486   3.785   0.144   4.185  0.0376 -0.1855 -0.1786
 7676SOL    HW134487   3.835   0.164   4.106 -0.6714 -2.3032 -1.1481
 7676SOL    HW234488   3.742   0.069   4.146  0.3929 -0.1732 -0.5845
 7677SOL     OW34489   2.493   0.867   8.327 -0.5292 -0.1310  0.5396
 7677SOL    HW134490   2.489   0.960   8.351 -1.3055 -0.0387  0.0501
 7677SOL    HW234491   2.403   0.841   8.306 -0.2051 -1.8306  1.3126
 7678SOL     OW34492   1.243   4.242  10.283 -0.4512 -0.3975 -0.1420
 7678SOL    HW134493   1.329   4.285  10.285  0.5450 -2.4724  2.0328
 7678SOL    HW234494   1.248   4.167  10.341 -2.4038  1.3890  2.3461
 7679SOL     OW34495   2.535   3.677   1.925  0.3772  0.1383  0.2140
 7679SOL    HW134496   2.626   3.649   1.940  0.9759  2.0484  0.2264
 7679SOL    HW234497   2.539   3.752   1.866 -0.3153  0.5550  0.6943
 7680SOL     OW34498   3.173   0.053  10.496 -0.4606  0.2538 -0.1367
 7680SOL    HW134499   3.196   0.107  10.572  1.1627  2.7152 -2.3961
 7680SOL    HW234500   3.239   0.096  10.442 -1.3063 -0.2616 -1.5622
 7681SOL     OW34501   3.667   1.064   1.170 -0.2134  0.3063 -0.0398
 7681SOL    HW134502   3.648   1.157   1.162 -0.6926  0.1111 -1.3439
 7681SOL    HW234503   3.691   1.058   1.262 -0.6921  0.7986  0.1142
 7682SOL     OW34504   2.364   2.256   3.355  0.0414 -0.1208  0.2791
 7682SOL    HW134505   2.409   2.339   3.339 -0.3024  0.4437  2.2911
 7682SOL    HW234506   2.420   2.227   3.427 -0.0760 -0.6955  0.1379
 7683SOL     OW34507   3.248   2.732  16.843 -0.4442 -0.3317 -0.0686
 7683SOL    HW134508   3.341   2.715  16.853 -0.4303 -0.6593 -0.7761
 7683SOL    HW234509   3.213   2.694  16.924  0.4361 -2.0561 -0.4986
 7684SOL     OW34510   3.315   3.246   9.315  0.0318  0.0360  0.3862
 7684SOL    HW134511   3.387   3.204   9.269 -2.1654 -0.1099 -2.9282
 7684SOL    HW234512   3.369   3.306   9.366  0.2667 -0.5303  0.7994
 7685SOL     OW34513   2.972   0.946   8.856 -0.1654 -0.2494 -0.2057
 7685SOL    HW134514   2.926   0.949   8.940  0.4702  2.0397  0.0634
 7685SOL    HW234515   2.902   0.901   8.809 -0.8499  0.1768  0.4005
 7686SOL     OW34516   0.998   3.621  14.435  0.5174  0.2904 -0.1337
 7686SOL    HW134517   1.071   3.596  14.491 -0.2520 -1.2452  0.1631
 7686SOL    HW234518   0.920   3.599  14.484  0.2885  1.2556 -0.0663
 7687SOL     OW34519   1.246   1.565  11.866 -0.0846  0.7245 -0.5561
 7687SOL    HW134520   1.272   1.653  11.840 -0.4620  0.9214 -0.2677
 7687SOL    HW234521   1.168   1.589  11.915 -0.8572 -0.8212 -1.0380
 7688SOL     OW34522   3.855   0.335  13.597 -0.1769 -0.1027 -0.4426
 7688SOL    HW134523   3.939   0.378  13.608 -0.0796 -0.6787  1.1279
 7688SOL    HW234524   3.888   0.261  13.547  0.9491  1.0639 -1.4030
 7689SOL     OW34525   0.347   4.419   6.813  0.1481  0.7725 -0.3114
 7689SOL    HW134526   0.375   4.344   6.864  0.4886  1.1616  0.0743
 7689SOL    HW234527   0.299   4.471   6.877 -2.0421 -1.1050 -0.4567
 7690SOL     OW34528   0.026   1.447   9.508  0.0843 -0.0701 -0.1295
 7690SOL    HW134529   0.111   1.478   9.479 -0.5284  0.7916 -0.9886
 7690SOL    HW234530   4.699   1.451   9.427  1.4980 -1.9006 -1.0736
 7691SOL     OW34531   2.553   1.367  10.080 -0.1939 -0.1749 -0.0642
 7691SOL    HW134532   2.522   1.291  10.130 -0.8635 -0.3602 -0.7637
 7691SOL    HW234533   2.626   1.329  10.033 -0.5699 -0.7845 -0.1513
 7692SOL     OW34534   3.115   3.431   8.740 -0.1762 -0.4992  0.0577
 7692SOL    HW134535   3.076   3.395   8.820  2.1443 -0.2671  1.2825
 7692SOL    HW234536   3.043   3.488   8.715 -1.1783 -1.8740 -0.2149
 7693SOL     OW34537   3.003   2.121   5.034 -0.3184  0.1732 -0.5400
 7693SOL    HW134538   3.002   2.085   4.946  3.7985 -0.9515 -0.1124
 7693SOL    HW234539   2.912   2.144   5.051  0.1659 -0.2743  2.6301
 7694SOL     OW34540   0.591   0.508   1.443 -0.8725  0.1458 -0.0793
 7694SOL    HW134541   0.518   0.503   1.505  0.0610  1.7095  1.1395
 7694SOL    HW234542   0.664   0.504   1.505 -0.1592  1.2627 -0.8549
 7695SOL     OW34543   2.834   3.878   2.690 -0.2385  0.2142 -0.0060
 7695SOL    HW134544   2.795   3.829   2.618  1.6658 -1.5799  0.2151
 7695SOL    HW234545   2.918   3.835   2.677 -0.2931 -0.4144  1.7113
 7696SOL     OW34546   1.705   3.814  16.123 -0.3545  0.0608  0.4615
 7696SOL    HW134547   1.732   3.726  16.147  2.4024  0.4887 -1.0332
 7696SOL    HW234548   1.768   3.824  16.052 -0.2766 -2.2427  0.2162
 7697SOL     OW34549   3.003   4.625  13.278  0.5850  0.5248  0.0829
 7697SOL    HW134550   2.986   4.664  13.364  0.4843  2.7396 -0.9392
 7697SOL    HW234551   2.916   4.589  13.263 -0.2461  1.8789  1.5759
 7698SOL     OW34552   3.918   0.969   1.133  0.0445  0.4147 -0.2846
 7698SOL    HW134553   3.824   0.985   1.125 -0.3948 -1.3727  1.1117
 7698SOL    HW234554   3.939   0.938   1.222  4.7036  0.3171 -1.4406
 7699SOL     OW34555   4.665   2.290   2.639 -0.0853 -0.0065  0.1344
 7699SOL    HW134556   4.721   2.322   2.568  1.5644  3.0957  2.8534
 7699SOL    HW234557   4.585   2.283   2.587 -0.0691  1.6749 -0.1113
 7700SOL     OW34558   2.426   3.584  11.002  0.5720  0.2888  0.0151
 7700SOL    HW134559   2.425   3.641  10.926 -1.7699  0.6132  0.2971
 7700SOL    HW234560   2.481   3.635  11.061  1.0845  1.5268 -1.5451
 7701SOL     OW34561   3.277   3.871   6.607 -0.0742 -0.6045 -0.2967
 7701SOL    HW134562   3.290   3.862   6.701 -0.1026 -1.5110 -0.3781
 7701SOL    HW234563   3.188   3.905   6.607 -0.1610 -0.8167 -1.3405
 7702SOL     OW34564   3.600   1.767  14.374 -0.4430 -0.2828 -0.5279
 7702SOL    HW134565   3.540   1.828  14.332 -0.7377  0.8218  1.5183
 7702SOL    HW234566   3.619   1.807  14.459  1.8188 -3.1348  0.3167
 7703SOL     OW34567   2.961   0.023   5.263 -0.2150  0.1686 -0.1203
 7703SOL    HW134568   3.005   0.098   5.301  0.2744 -0.4547  0.5434
 7703SOL    HW234569   2.868   0.034   5.286 -0.1387 -0.6773  0.5852
 7704SOL     OW34570   3.036   0.420   6.952  0.0505  0.1807 -0.2188
 7704SOL    HW134571   2.964   0.378   7.000  1.9679 -0.7173  1.8347
 7704SOL    HW234572   3.002   0.503   6.919  3.2624  1.3522 -0.5574
 7705SOL     OW34573   4.097   4.329   7.488 -1.1119  0.3673  0.2368
 7705SOL    HW134574   4.007   4.309   7.462 -1.9881  1.3235  2.5178
 7705SOL    HW234575   4.098   4.422   7.509  2.0191  0.5083 -0.6523
 7706SOL     OW34576   1.582   4.446   8.455 -0.2821  0.2761  0.4330
 7706SOL    HW134577   1.613   4.398   8.532  1.4913 -0.8088 -0.9422
 7706SOL    HW234578   1.533   4.374   8.415 -1.4258  0.6740  1.1364
 7707SOL     OW34579   3.050   1.157   6.858  0.0643  0.5710 -0.1013
 7707SOL    HW134580   2.988   1.097   6.899 -1.3447  0.5004 -2.3016
 7707SOL    HW234581   3.124   1.170   6.917  0.1490 -1.6582  0.2482
 7708SOL     OW34582   3.641   4.121   9.267 -0.3732 -0.5582  0.0333
 7708SOL    HW134583   3.563   4.140   9.319  0.3711  0.9710  0.5969
 7708SOL    HW234584   3.721   4.139   9.318 -1.0001 -1.6529  1.4130
 7709SOL     OW34585   3.099   2.044   1.570  0.2919  0.5354 -0.3999
 7709SOL    HW134586   3.090   2.124   1.620  2.2708 -0.1526  1.0336
 7709SOL    HW234587   3.073   2.076   1.484  0.6003  2.6202  0.3013
 7710SOL     OW34588   2.102   0.400   7.300  0.4259 -0.5133  0.3998
 7710SOL    HW134589   2.031   0.336   7.297 -1.4518  1.4738  2.2400
 7710SOL    HW234590   2.156   0.365   7.229  1.6044 -1.1971  1.6486
 7711SOL     OW34591   0.474   0.277   1.310  0.4470  0.4260 -0.3290
 7711SOL    HW134592   0.505   0.246   1.395 -1.5468 -1.0717 -0.1525
 7711SOL    HW234593   0.489   0.370   1.325  0.0299  0.2225  1.3605
 7712SOL     OW34594   4.602   0.160   1.274 -0.5887 -0.0034  0.8905
 7712SOL    HW134595   4.604   0.089   1.338  0.0736 -0.8635 -0.0923
 7712SOL    HW234596   4.604   0.112   1.191 -0.2154 -1.9675  2.0461
 7713SOL     OW34597   2.855   0.485  15.185  0.1391  0.0873 -0.0551
 7713SOL    HW134598   2.770   0.476  15.228  0.7433  0.7702  1.2923
 7713SOL    HW234599   2.905   0.522  15.258 -2.5267  0.4318  1.6014
 7714SOL     OW34600   0.147   2.683  10.495 -0.0459 -0.0050  0.2504
 7714SOL    HW134601   0.129   2.674  10.401 -1.9816 -0.3757  0.6512
 7714SOL    HW234602   0.225   2.628  10.501  1.1595  1.8689  1.5433
 7715SOL     OW34603   0.876   3.981   4.120  0.2491 -0.0574  0.7515
 7715SOL    HW134604   0.814   3.995   4.192 -0.1438  1.0798  0.1917
 7715SOL    HW234605   0.870   3.888   4.099 -0.7946  0.3374 -0.7333
 7716SOL     OW34606   0.319   1.113   4.549  0.3758 -0.4295 -0.1691
 7716SOL    HW134607   0.386   1.047   4.568  1.7084 -0.3562 -4.5335
 7716SOL    HW234608   0.308   1.095   4.456 -1.2335 -0.7567  0.0706
 7717SOL     OW34609   3.363   1.875  11.673 -0.5200  0.1309 -0.1640
 7717SOL    HW134610   3.310   1.925  11.736  2.0707  1.6296  0.8192
 7717SOL    HW234611   3.295   1.828  11.625  1.5602 -1.1008 -1.8814
 7718SOL     OW34612   2.984   1.914  12.977 -0.2233 -0.2278 -0.8136
 7718SOL    HW134613   3.035   1.987  12.942  2.3326 -1.1672  1.0232
 7718SOL    HW234614   3.041   1.841  12.953  0.4638  0.1073 -0.1941
 7719SOL     OW34615   4.716   1.679   7.341  0.0367  0.6828  0.2865
 7719SOL    HW134616   0.043   1.702   7.420  0.5626  3.4036 -0.8333
 7719SOL    HW234617   0.065   1.690   7.278  0.4002  1.5709  0.8546
 7720SOL     OW34618   4.718   4.107   2.324 -0.2776 -0.1048  0.0846
 7720SOL    HW134619   4.638   4.099   2.271 -0.3266  1.1119 -0.0371
 7720SOL    HW234620   4.702   4.034   2.383 -0.5714 -1.7035 -1.9532
 7721SOL     OW34621   3.340   3.876  11.720 -0.3058 -0.0813  0.3037
 7721SOL    HW134622   3.372   3.841  11.803 -2.5075  0.1890  1.2551
 7721SOL    HW234623   3.415   3.930  11.695 -2.2779  2.4931 -0.0821
 7722SOL     OW34624   0.490   3.468   4.648 -0.2799  0.4890 -0.3166
 7722SOL    HW134625   0.540   3.432   4.574 -0.0208 -0.7569  0.4718
 7722SOL    HW234626   0.501   3.402   4.716 -2.9417  0.7288  0.3198
 7723SOL     OW34627   4.400   2.826   6.294  0.0692 -0.0496  0.0541
 7723SOL    HW134628   4.360   2.831   6.207  0.9113 -0.2136 -0.3445
 7723SOL    HW234629   4.419   2.733   6.305  1.1193 -0.0433 -1.6579
 7724SOL     OW34630   3.191   2.197   1.147  0.3635 -0.0132  0.0154
 7724SOL    HW134631   3.218   2.251   1.221 -2.3458  3.0677 -1.1969
 7724SOL    HW234632   3.124   2.257   1.113  2.0499  0.4334 -2.5464
 7725SOL     OW34633   0.144   1.482   4.938 -0.2659 -0.1997 -0.3322
 7725SOL    HW134634   0.198   1.436   4.874 -4.1538 -1.8879 -2.3885
 7725SOL    HW234635   0.117   1.404   4.987 -0.9981  0.8344  0.9036
 7726SOL     OW34636   0.400   4.188   6.950 -0.1188 -0.5169 -0.1827
 7726SOL    HW134637   0.325   4.140   6.986 -1.1186  0.0996 -1.4377
 7726SOL    HW234638   0.441   4.120   6.896 -1.6308 -1.3929 -0.2305
 7727SOL     OW34639   3.348   2.120   5.686  0.0069 -0.2925 -0.1206
 7727SOL    HW134640   3.336   2.175   5.763  0.2166 -0.8465  0.3143
 7727SOL    HW234641   3.268   2.113   5.634  1.2439  1.7164 -2.2757
 7728SOL     OW34642   3.419   0.968   2.900 -0.0063  0.0788  0.4189
 7728SOL    HW134643   3.408   0.887   2.849 -0.1855 -0.5718  1.5004
 7728SOL    HW234644   3.345   0.964   2.959  1.4167 -1.8433  2.0694
 7729SOL     OW34645   3.526   1.919   9.021  0.0997 -0.3217  0.3160
 7729SOL    HW134646   3.589   1.946   9.088 -0.2819  0.3145  0.4181
 7729SOL    HW234647   3.580   1.917   8.941 -0.5118  1.2038 -0.1384
 7730SOL     OW34648   3.575   2.802   0.195  0.1793  0.1522 -0.4556
 7730SOL    HW134649   3.499   2.835   0.244 -0.6957  0.1162 -1.7931
 7730SOL    HW234650   3.634   2.856   0.249  0.2250 -0.9866  0.6372
 7731SOL     OW34651   4.385   1.721   5.515  0.3812 -0.5221  0.6315
 7731SOL    HW134652   4.467   1.722   5.563  0.7370  0.3872  0.0064
 7731SOL    HW234653   4.404   1.710   5.422  0.9231  3.5222  0.2665
 7732SOL     OW34654   2.098   1.160   7.507  0.2467 -0.0575 -0.1810
 7732SOL    HW134655   2.026   1.130   7.451  0.2598 -0.6761  0.1360
 7732SOL    HW234656   2.157   1.194   7.440  1.2614 -0.3778  0.5447
 7733SOL     OW34657   1.923   4.656  11.254  0.2825  0.0609  0.0740
 7733SOL    HW134658   1.979   4.711  11.308 -1.4330 -1.1077  3.0162
 7733SOL    HW234659   1.927   4.696  11.167 -1.8953 -0.0119 -0.0675
 7734SOL     OW34660   2.241   1.008  15.381 -0.0912  0.5777 -0.2300
 7734SOL    HW134661   2.199   1.094  15.375 -0.8395  0.1821 -0.7376
 7734SOL    HW234662   2.169   0.962  15.425 -0.4645  0.1502 -1.3023
 7735SOL     OW34663   0.312   3.485   4.008 -0.1148  0.2572 -0.0515
 7735SOL    HW134664   0.285   3.400   3.973 -2.0593  0.2306  1.5035
 7735SOL    HW234665   0.262   3.545   3.952 -0.8560 -0.9740 -0.7128
 7736SOL     OW34666   0.288   1.354   4.235 -0.3593 -0.3587  0.3234
 7736SOL    HW134667   0.324   1.335   4.321 -1.0690  0.1001  0.7194
 7736SOL    HW234668   0.350   1.420   4.203 -1.8975  2.2439  2.6991
 7737SOL     OW34669   3.413   0.619   5.485 -0.0810 -0.1949  0.1484
 7737SOL    HW134670   3.337   0.575   5.524 -1.0558 -0.0650 -1.6242
 7737SOL    HW234671   3.476   0.629   5.557 -1.1250 -1.7514  1.2927
 7738SOL     OW34672   3.401   1.134  16.285  0.4094 -0.0862 -0.7495
 7738SOL    HW134673   3.330   1.083  16.324  0.3408  0.7480  0.2209
 7738SOL    HW234674   3.390   1.208  16.345  0.6226  1.3815 -2.5138
 7739SOL     OW34675   3.821   2.821   6.682 -0.1810  0.2860 -0.8513
 7739SOL    HW134676   3.819   2.842   6.588 -0.1318  1.4229 -0.5990
 7739SOL    HW234677   3.829   2.908   6.721 -1.6965 -0.3855  0.9311
 7740SOL     OW34678   1.871   4.091  15.541 -0.0663  0.4227 -0.3032
 7740SOL    HW134679   1.820   4.024  15.588 -0.2846  0.8061  0.0108
 7740SOL    HW234680   1.802   4.155  15.524 -0.5895 -0.3459 -1.0577
 7741SOL     OW34681   2.992   1.198   2.992  0.1617 -0.6897 -0.8555
 7741SOL    HW134682   3.042   1.257   3.049  1.0308  0.8598 -3.1991
 7741SOL    HW234683   2.989   1.258   2.917  0.6000  2.5137  1.6803
 7742SOL     OW34684   2.645   1.366   5.454  0.3230 -0.6921  0.1509
 7742SOL    HW134685   2.645   1.335   5.545  1.7214 -0.7025  0.1403
 7742SOL    HW234686   2.707   1.309   5.408  2.8500  2.7887 -0.7518
 7743SOL     OW34687   2.134   0.191  16.108  0.0301  0.2710  0.3964
 7743SOL    HW134688   2.071   0.177  16.179 -0.3252 -0.1866 -0.0016
 7743SOL    HW234689   2.222   0.175  16.142 -0.0258  0.5524  0.6675
 7744SOL     OW34690   1.260   3.874   5.258  0.2828  0.2035 -0.7291
 7744SOL    HW134691   1.237   3.877   5.166  1.0354 -0.1651 -0.9322
 7744SOL    HW234692   1.177   3.911   5.288  1.8478  2.3767  0.9318
 7745SOL     OW34693   1.733   0.509   4.308  0.1586 -0.7466 -0.6110
 7745SOL    HW134694   1.728   0.513   4.404 -0.2965 -0.0215 -0.6675
 7745SOL    HW234695   1.778   0.590   4.285  0.0253 -0.1688  1.1016
 7746SOL     OW34696   0.326   3.655   2.480  0.6569  0.0716  0.0377
 7746SOL    HW134697   0.293   3.578   2.527 -1.4046  2.1912  2.1128
 7746SOL    HW234698   0.330   3.612   2.395  1.5463  1.7909 -0.7998
 7747SOL     OW34699   2.159   3.839   7.922 -0.4862 -0.2395 -0.2035
 7747SOL    HW134700   2.175   3.932   7.936  0.0251 -0.5804  1.3814
 7747SOL    HW234701   2.165   3.832   7.826 -1.1196  0.8353 -0.3196
 7748SOL     OW34702   1.534   1.537   1.064  0.0431  0.1723  0.3040
 7748SOL    HW134703   1.454   1.545   1.114  1.9386 -2.1091  3.7100
 7748SOL    HW234704   1.559   1.630   1.071 -1.4519  0.5846 -0.0121
 7749SOL     OW34705   3.791   3.528   7.385  0.1617  0.1376  0.2290
 7749SOL    HW134706   3.781   3.554   7.293  3.0847  2.0343  0.4456
 7749SOL    HW234707   3.849   3.453   7.372 -0.9871 -0.8850  1.0101
 7750SOL     OW34708   0.704   4.307   2.978  0.2508 -0.3563 -0.4088
 7750SOL    HW134709   0.655   4.314   3.060 -2.4223  0.0293 -2.0291
 7750SOL    HW234710   0.777   4.366   2.998  0.3014 -0.0175 -1.5827
 7751SOL     OW34711   4.180   0.806   7.773 -0.4085 -0.5713 -0.1919
 7751SOL    HW134712   4.265   0.825   7.734 -0.1831 -1.5957 -0.2196
 7751SOL    HW234713   4.149   0.891   7.803 -0.7327 -0.4372 -0.8982
 7752SOL     OW34714   4.325   3.084   8.685 -0.1536 -0.3122  0.0876
 7752SOL    HW134715   4.238   3.112   8.655 -0.2655  1.4291  2.0648
 7752SOL    HW234716   4.338   3.147   8.755 -2.2521 -0.1000  0.2976
 7753SOL     OW34717   3.898   1.835   7.785 -1.0417  0.4588 -0.1115
 7753SOL    HW134718   3.828   1.885   7.827  0.1504  1.3875  0.7676
 7753SOL    HW234719   3.924   1.886   7.708  4.1166  2.2454  2.8022
 7754SOL     OW34720   1.132   0.949   4.663 -0.1193 -0.1285  0.4639
 7754SOL    HW134721   1.064   1.016   4.661  1.7409  1.7909  0.5748
 7754SOL    HW234722   1.097   0.896   4.734  1.4743 -0.4357  1.0254
 7755SOL     OW34723   2.942   1.303  11.503  0.0657 -0.0085 -0.1784
 7755SOL    HW134724   2.951   1.351  11.585 -0.2013  0.8340 -0.6482
 7755SOL    HW234725   2.913   1.372  11.444  1.6312  2.1772  1.6452
 7756SOL     OW34726   0.601   1.813  14.291  0.0490  0.1901 -0.1591
 7756SOL    HW134727   0.587   1.774  14.205 -0.6975  1.3569 -0.5708
 7756SOL    HW234728   0.565   1.746  14.348 -4.1371  1.3050 -1.5327
 7757SOL     OW34729   3.516   1.661   2.172 -0.2151 -0.4424  0.0753
 7757SOL    HW134730   3.526   1.656   2.267 -0.2797 -2.1633 -0.0060
 7757SOL    HW234731   3.548   1.749   2.157  1.5809 -1.8847 -4.6395
 7758SOL     OW34732   3.597   3.268  11.058 -0.6207 -0.2063 -0.7310
 7758SOL    HW134733   3.672   3.254  11.116 -0.5452  2.3449 -0.2252
 7758SOL    HW234734   3.607   3.195  10.997 -0.2062  0.1993 -1.1397
 7759SOL     OW34735   2.144   0.690   3.318  0.0596 -0.2910  0.0783
 7759SOL    HW134736   2.202   0.615   3.325  3.1533  2.3119  2.3226
 7759SOL    HW234737   2.183   0.745   3.387 -0.2356  0.3970 -0.3033
 7760SOL     OW34738   1.944   1.488  10.161 -0.2625 -0.0656  0.4494
 7760SOL    HW134739   1.957   1.460  10.252 -1.7748 -0.4052  0.5528
 7760SOL    HW234740   2.037   1.500  10.139 -0.6234 -0.2307 -1.1605
 7761SOL     OW34741   2.923   2.266   8.199 -0.3538 -0.1816  0.1462
 7761SOL    HW134742   2.862   2.248   8.128  0.2223 -0.4808 -0.2731
 7761SOL    HW234743   2.880   2.340   8.243 -0.9463  0.4719 -1.5242
 7762SOL     OW34744   2.470   0.584   3.568 -0.3752  0.4606  0.2347
 7762SOL    HW134745   2.420   0.651   3.615 -1.7572 -0.9484  0.7633
 7762SOL    HW234746   2.407   0.514   3.552  1.3456 -1.1225  0.4271
 7763SOL     OW34747   0.104   3.576   4.781 -0.0018  0.1267 -0.0184
 7763SOL    HW134748   0.009   3.561   4.782  0.3056 -1.9527 -2.2017
 7763SOL    HW234749   0.114   3.661   4.739 -0.8242 -0.2941 -1.0885
 7764SOL     OW34750   1.825   2.948   0.518 -0.5136  0.2248 -0.0610
 7764SOL    HW134751   1.804   2.859   0.545  0.2156 -0.6929 -2.5371
 7764SOL    HW234752   1.742   2.988   0.490 -1.6845 -1.4842  0.9612
 7765SOL     OW34753   1.643   3.724   0.577 -0.6502 -0.6266  0.0682
 7765SOL    HW134754   1.604   3.797   0.627  0.1458 -0.0068 -0.2124
 7765SOL    HW234755   1.624   3.760   0.490  1.0034  1.3413  0.5110
 7766SOL     OW34756   1.188   2.125   9.022  0.1599  0.4317  0.1989
 7766SOL    HW134757   1.123   2.195   9.015  0.4752  0.7135  0.1073
 7766SOL    HW234758   1.267   2.177   9.008  0.5934 -0.3464 -0.2466
 7767SOL     OW34759   4.413   4.595  10.726  0.0568 -0.0959 -0.3786
 7767SOL    HW134760   4.381   4.686  10.729  1.6034  0.4254  0.2723
 7767SOL    HW234761   4.332   4.545  10.715  0.7052 -1.3796  0.6675
 7768SOL     OW34762   4.342   1.599   8.899 -0.0306 -0.0475 -0.4345
 7768SOL    HW134763   4.402   1.672   8.883  1.4712 -1.0808  0.5118
 7768SOL    HW234764   4.380   1.542   8.833  1.4463 -0.1605  0.5193
 7769SOL     OW34765   0.691   3.832   0.907  0.0801  0.5233  0.0888
 7769SOL    HW134766   0.633   3.776   0.856  2.0058  1.1042 -2.7656
 7769SOL    HW234767   0.630   3.887   0.956 -0.1063  0.3673  0.0336
 7770SOL     OW34768   0.874   1.204   3.655  0.0413  0.0797 -0.3560
 7770SOL    HW134769   0.903   1.276   3.599 -1.7390  1.5485  0.6235
 7770SOL    HW234770   0.780   1.215   3.667 -0.0583  1.8983 -2.7139
 7771SOL     OW34771   1.164   1.317   2.306 -0.1299  0.9974 -0.6162
 7771SOL    HW134772   1.252   1.351   2.322  0.0737  0.7876 -1.2817
 7771SOL    HW234773   1.167   1.224   2.330  0.2458  1.0708 -0.3843
 7772SOL     OW34774   3.189   2.220  13.659  0.0083 -0.2380  0.8401
 7772SOL    HW134775   3.157   2.243  13.747  1.6830  0.1697  1.3507
 7772SOL    HW234776   3.183   2.308  13.623 -0.9717 -0.8131 -0.3974
 7773SOL     OW34777   3.308   4.657   4.860  0.0644 -0.2855 -0.1260
 7773SOL    HW134778   3.402   4.648   4.844  0.3931  0.2670  1.4677
 7773SOL    HW234779   3.302   0.026   4.886 -1.0161 -0.3199 -0.2499
 7774SOL     OW34780   3.936   4.315   8.098 -0.0091  0.5556 -0.4612
 7774SOL    HW134781   3.894   4.229   8.103 -0.8150  0.8812 -1.4274
 7774SOL    HW234782   3.943   4.343   8.189 -2.1918  0.6659 -0.3217
 7775SOL     OW34783   1.837   4.056   2.615 -0.5034 -0.3024 -0.6456
 7775SOL    HW134784   1.902   3.996   2.580  1.2868  0.0561  2.0975
 7775SOL    HW234785   1.757   4.008   2.592  0.2155 -0.7725 -2.1780
 7776SOL     OW34786   0.772   0.345   2.497 -0.3042 -0.5215 -0.4296
 7776SOL    HW134787   0.868   0.346   2.486 -0.5315  2.0911 -2.2496
 7776SOL    HW234788   0.741   0.343   2.407 -1.3506  0.3998 -0.0842
 7777SOL     OW34789   4.122   1.996   3.779 -0.3325 -0.0745 -0.4074
 7777SOL    HW134790   4.078   2.062   3.724 -0.2160  1.4389  1.3129
 7777SOL    HW234791   4.209   2.035   3.778 -0.3369 -0.0662 -0.4870
 7778SOL     OW34792   2.832   3.445  16.784 -0.0526 -0.7187  0.2760
 7778SOL    HW134793   2.872   3.411  16.705 -0.5008  0.4998 -0.4813
 7778SOL    HW234794   2.741   3.455  16.758  0.5425  0.0074 -1.5163
 7779SOL     OW34795   3.494   1.510   3.225 -0.2463 -0.2716 -0.1485
 7779SOL    HW134796   3.576   1.514   3.275 -0.5359 -2.1189  0.4529
 7779SOL    HW234797   3.449   1.439   3.270 -0.7273  1.6477  2.3921
 7780SOL     OW34798   3.582   0.743   7.858 -0.1545 -0.6973  0.4228
 7780SOL    HW134799   3.610   0.824   7.900 -1.9329 -0.2363  0.7259
 7780SOL    HW234800   3.486   0.749   7.860 -0.1436 -0.1286 -0.5699
 7781SOL     OW34801   0.500   4.479   7.071 -0.1718  0.1143 -0.0538
 7781SOL    HW134802   0.435   4.407   7.072  0.0970 -0.1280 -0.0299
 7781SOL    HW234803   0.455   4.556   7.106  0.9953  1.1579 -0.8787
 7782SOL     OW34804   3.104   2.222   8.841  0.3647 -0.0161  0.0511
 7782SOL    HW134805   3.162   2.258   8.908  0.2550  1.5922 -0.7202
 7782SOL    HW234806   3.155   2.257   8.768  1.8439  1.0560  1.6084
 7783SOL     OW34807   1.629   4.266   4.290 -0.4575  0.4856  0.2242
 7783SOL    HW134808   1.611   4.328   4.221  1.7048  2.6721  1.6314
 7783SOL    HW234809   1.569   4.296   4.358 -0.3377  1.0094  0.0955
 7784SOL     OW34810   2.924   0.661  15.825  0.5663  0.1153  0.3540
 7784SOL    HW134811   2.833   0.683  15.844 -0.3109 -0.4296 -3.4143
 7784SOL    HW234812   2.926   0.566  15.824  0.2826  0.0724  2.6317
 7785SOL     OW34813   3.998   0.442   5.231  0.5046 -0.2365 -0.8804
 7785SOL    HW134814   4.009   0.467   5.139 -1.2229  0.9825 -0.7504
 7785SOL    HW234815   4.019   0.523   5.277  1.7723  0.3667 -2.5481
 7786SOL     OW34816   2.006   3.772   1.793  0.0146  0.6396 -0.3492
 7786SOL    HW134817   2.047   3.745   1.711  0.6665  1.5806 -0.3261
 7786SOL    HW234818   2.069   3.832   1.831 -1.3629  0.7264  1.8240
 7787SOL     OW34819   0.470   0.746   6.117  0.0265 -0.2863  0.2581
 7787SOL    HW134820   0.490   0.837   6.092  1.1731 -1.1609 -2.0018
 7787SOL    HW234821   0.380   0.759   6.147  0.7639 -0.2519  2.4250
 7788SOL     OW34822   1.526   0.888  15.129 -0.1061 -0.4835  0.1041
 7788SOL    HW134823   1.528   0.976  15.091 -0.6320 -1.1864 -1.5416
 7788SOL    HW234824   1.476   0.903  15.209  1.3827  0.2071  0.9061
 7789SOL     OW34825   0.282   3.357   5.137  0.0796 -0.3736  0.1476
 7789SOL    HW134826   0.356   3.297   5.150  0.9548  0.4642 -0.8908
 7789SOL    HW234827   0.262   3.378   5.228  2.2887  1.1802  0.2798
 7790SOL     OW34828   3.747   4.439  13.531  0.2460 -0.0629 -1.1486
 7790SOL    HW134829   3.832   4.404  13.506 -0.5756 -2.8626  0.0002
 7790SOL    HW234830   3.763   4.462  13.623  0.7838  2.0666 -1.7569
 7791SOL     OW34831   0.124   3.369   6.736 -0.1306  0.2077  0.0662
 7791SOL    HW134832   0.104   3.306   6.667 -0.2963 -1.3914  1.5680
 7791SOL    HW234833   0.206   3.328   6.763 -0.8140 -1.3615 -0.2068
 7792SOL     OW34834   3.720   4.528   8.847  0.3892  0.4151 -0.5921
 7792SOL    HW134835   3.775   4.463   8.803 -0.4581 -1.0289  0.4937
 7792SOL    HW234836   3.639   4.521   8.797 -0.4027 -0.8938  0.9070
 7793SOL     OW34837   4.112   3.941   5.031  0.2790 -0.0361 -0.1922
 7793SOL    HW134838   4.048   3.912   4.967 -0.3882  1.4263 -0.1791
 7793SOL    HW234839   4.062   3.985   5.099 -0.9117  0.8266 -1.6519
 7794SOL     OW34840   1.525   1.064  10.206 -0.1830 -0.1894 -0.3612
 7794SOL    HW134841   1.614   1.099  10.211 -0.1070 -0.2883 -1.0531
 7794SOL    HW234842   1.479   1.084  10.287 -0.5201 -1.3401 -0.2567
 7795SOL     OW34843   1.975   2.537   6.980 -0.0734  0.0742  0.3825
 7795SOL    HW134844   1.916   2.612   6.981 -2.3597 -1.6903 -1.5572
 7795SOL    HW234845   1.909   2.468   6.975 -0.2475  0.2172  0.7314
 7796SOL     OW34846   4.669   1.459   1.645  0.0244 -0.3288  0.3293
 7796SOL    HW134847   4.627   1.398   1.585 -0.7091  0.1467  0.3502
 7796SOL    HW234848   4.592   1.464   1.702  0.7322 -2.6346  1.4711
 7797SOL     OW34849   3.476   4.458   2.231 -0.5409 -0.0764 -0.0583
 7797SOL    HW134850   3.559   4.443   2.185 -0.4202  0.0631  0.1159
 7797SOL    HW234851   3.450   4.367   2.249  1.0942 -0.2398  1.3939
 7798SOL     OW34852   1.977   0.710   6.271  0.0308 -0.0579 -0.0798
 7798SOL    HW134853   1.927   0.701   6.352 -0.1483  2.4445  0.0797
 7798SOL    HW234854   2.045   0.771   6.300  0.0350 -0.8805  1.6758
 7799SOL     OW34855   2.681   3.083   0.243  0.4036  0.3962 -0.2825
 7799SOL    HW134856   2.588   3.081   0.263 -0.1031 -1.2496 -2.7749
 7799SOL    HW234857   2.715   3.095   0.332  1.5156 -2.2089 -0.3564
 7800SOL     OW34858   0.899   4.467   5.727  0.2191 -0.4296  0.7489
 7800SOL    HW134859   0.945   4.551   5.731  1.9407 -1.3304 -0.2278
 7800SOL    HW234860   0.864   4.450   5.814  2.4751 -0.3855  1.6623
 7801SOL     OW34861   4.398   1.141  15.863  0.0381 -0.3434 -0.0413
 7801SOL    HW134862   4.399   1.237  15.864  1.0634 -0.3659  0.9273
 7801SOL    HW234863   4.320   1.124  15.915 -0.6650 -0.4664 -1.1340
 7802SOL     OW34864   2.442   2.381  13.244  0.0563  0.2816  0.0431
 7802SOL    HW134865   2.450   2.442  13.171  0.7243 -0.0302 -0.1485
 7802SOL    HW234866   2.503   2.315  13.211  0.3081  0.3022  0.4628
 7803SOL     OW34867   3.581   0.613   5.680 -0.0365  0.2466  0.3027
 7803SOL    HW134868   3.583   0.701   5.716 -0.7700  0.6260 -0.5922
 7803SOL    HW234869   3.589   0.574   5.767 -1.2257  1.9952  1.2012
 7804SOL     OW34870   2.870   1.145   6.596 -0.2908  0.2452  0.3102
 7804SOL    HW134871   2.784   1.115   6.624 -0.5334  0.9374  0.3295
 7804SOL    HW234872   2.909   1.179   6.677  0.9336 -0.7225  0.1289
 7805SOL     OW34873   0.136   4.495  12.988 -0.5243 -0.2229 -0.4905
 7805SOL    HW134874   0.189   4.450  13.054 -1.7674  0.9047  1.2663
 7805SOL    HW234875   0.107   4.571  13.038 -0.3649 -1.1190  0.9832
 7806SOL     OW34876   3.886   4.062   6.977  0.0873  0.3465 -0.6951
 7806SOL    HW134877   3.918   4.146   7.008 -0.6768  0.7251 -0.9428
 7806SOL    HW234878   3.791   4.075   6.975  0.1542  0.9574  0.5922
 7807SOL     OW34879   2.686   4.537   6.962 -0.5992  0.2988  0.2394
 7807SOL    HW134880   2.780   4.520   6.965 -0.3501  1.9418  2.2240
 7807SOL    HW234881   2.671   4.582   7.045 -2.9055 -1.2006  0.6314
 7808SOL     OW34882   0.662   2.418  12.398 -0.4737 -0.0897  0.3136
 7808SOL    HW134883   0.707   2.497  12.369 -2.7552  1.1561  0.2355
 7808SOL    HW234884   0.694   2.348  12.341 -0.7941  0.8594 -1.0078
 7809SOL     OW34885   3.200   2.117  11.639 -0.0438 -0.4156 -0.1286
 7809SOL    HW134886   3.266   2.092  11.573 -0.5244 -0.9328 -0.4129
 7809SOL    HW234887   3.165   2.192  11.591 -0.0965  0.4755  1.3103
 7810SOL     OW34888   2.430   0.932   6.133  0.2583 -0.4303  0.0492
 7810SOL    HW134889   2.497   0.864   6.136  0.4973 -0.1711  0.4654
 7810SOL    HW234890   2.490   1.004   6.115 -1.1172  0.3557 -1.3908
 7811SOL     OW34891   4.094   3.559   3.184  0.0775  0.4627 -0.4689
 7811SOL    HW134892   4.135   3.555   3.097 -0.1340  0.3821 -0.5649
 7811SOL    HW234893   4.108   3.470   3.214  0.5648  0.4194 -0.8196
 7812SOL     OW34894   4.054   0.483   4.984 -0.0944 -0.0554  0.2348
 7812SOL    HW134895   4.001   0.512   4.911 -2.1788 -0.7463  1.4825
 7812SOL    HW234896   4.127   0.457   4.927  0.8474  0.4929  1.1823
 7813SOL     OW34897   3.961   3.025   6.416  0.6378 -0.0233  0.3859
 7813SOL    HW134898   3.895   2.956   6.416  0.4318  0.1778 -1.1444
 7813SOL    HW234899   3.919   3.101   6.375 -0.3491 -0.9556 -0.3380
 7814SOL     OW34900   0.215   4.001  14.831  0.0040 -0.0138 -0.2654
 7814SOL    HW134901   0.233   3.910  14.809 -0.0756 -0.0363 -0.2383
 7814SOL    HW234902   0.143   4.021  14.771 -0.9505 -0.8169  0.5979
 7815SOL     OW34903   0.258   4.218  13.923 -0.2549  0.2105  0.3254
 7815SOL    HW134904   0.298   4.270  13.993  2.1759 -0.4706 -0.5530
 7815SOL    HW234905   0.184   4.273  13.899  1.2059  2.2324  0.4726
 7816SOL     OW34906   0.507   2.958   7.087  0.3006 -0.2563  0.0309
 7816SOL    HW134907   0.518   3.048   7.119 -2.4591 -0.5360  1.7010
 7816SOL    HW234908   0.508   2.908   7.169 -1.1470  0.6704  0.6078
 7817SOL     OW34909   1.270   2.986   0.789  0.3405 -0.8027 -0.3625
 7817SOL    HW134910   1.275   2.893   0.811  0.5393 -0.6117  0.4155
 7817SOL    HW234911   1.231   3.024   0.868  0.2314  0.2429 -0.9212
 7818SOL     OW34912   2.066   1.552   3.067  0.4494 -0.0348  0.3405
 7818SOL    HW134913   2.016   1.476   3.039  0.6687 -0.0015 -0.1527
 7818SOL    HW234914   2.028   1.620   3.011 -1.3994 -1.2952  0.0792
 7819SOL     OW34915   4.403   0.621   0.553 -0.6621  0.1565  0.3541
 7819SOL    HW134916   4.459   0.575   0.615 -1.4824 -0.6594  0.4988
 7819SOL    HW234917   4.416   0.578   0.468 -3.5658  1.9003 -0.9485
 7820SOL     OW34918   2.519   1.094  15.790 -0.3129 -0.4570  0.2783
 7820SOL    HW134919   2.495   1.016  15.740  0.4992  0.3769 -1.4102
 7820SOL    HW234920   2.471   1.157  15.736 -1.1927 -2.2517 -1.0151
 7821SOL     OW34921   4.455   1.184   7.593 -0.3852  0.1292 -0.3063
 7821SOL    HW134922   4.450   1.267   7.641 -1.4425  0.6183 -1.2604
 7821SOL    HW234923   4.522   1.214   7.531 -1.5128  1.5675 -0.8126
 7822SOL     OW34924   4.573   0.271  16.277  0.2863  0.0491  0.0855
 7822SOL    HW134925   4.497   0.287  16.221 -1.1424  0.2849  2.0911
 7822SOL    HW234926   4.598   0.356  16.313  0.0149  0.5333 -0.8595
 7823SOL     OW34927   0.519   2.830  13.003  0.5061 -0.7093  0.3686
 7823SOL    HW134928   0.532   2.856  13.094  1.2892  0.0167  0.0489
 7823SOL    HW234929   0.595   2.773  12.999  1.0117  0.0415 -0.7082
 7824SOL     OW34930   2.197   2.646   3.445 -0.2473  0.3362  0.0850
 7824SOL    HW134931   2.173   2.682   3.360  1.9631  3.3727  0.7583
 7824SOL    HW234932   2.167   2.715   3.504 -0.2909  1.0132 -0.7171
 7825SOL     OW34933   4.706   1.856  11.762  0.1107 -0.1014  0.1658
 7825SOL    HW134934   4.717   1.930  11.702  0.8577  0.6276  1.2081
 7825SOL    HW234935   0.066   1.811  11.749  0.4987  0.0854  2.0840
 7826SOL     OW34936   3.397   0.733   8.125  0.0668 -0.1520  0.1935
 7826SOL    HW134937   3.397   0.811   8.182 -1.4771 -0.2095  0.2945
 7826SOL    HW234938   3.351   0.767   8.048 -0.3254  0.5539  0.7292
 7827SOL     OW34939   3.089   2.581   8.477  0.1314  0.3609 -0.2601
 7827SOL    HW134940   3.004   2.571   8.434 -0.5747  1.4897  0.8560
 7827SOL    HW234941   3.071   2.610   8.567  1.6852  0.5570 -0.0068
 7828SOL     OW34942   2.340   2.574  15.051 -0.2701 -0.6341 -0.5168
 7828SOL    HW134943   2.382   2.580  15.137 -1.1524  1.1217 -0.2108
 7828SOL    HW234944   2.246   2.588  15.057  0.3145  2.5009  1.2040
 7829SOL     OW34945   0.306   1.133  11.951  0.2707 -0.4133  0.0686
 7829SOL    HW134946   0.314   1.206  12.012 -2.7422 -1.2354  1.4590
 7829SOL    HW234947   0.263   1.186  11.883 -0.9143 -1.4183  0.0247
 7830SOL     OW34948   2.912   2.949   3.154  0.0527 -0.6448 -0.7770
 7830SOL    HW134949   2.846   2.925   3.089 -0.0371 -0.7956 -0.6293
 7830SOL    HW234950   2.884   3.040   3.167  2.4176  0.2550 -1.8360
 7831SOL     OW34951   4.049   0.779   8.875 -0.6151  0.0846  0.1775
 7831SOL    HW134952   3.999   0.727   8.938  2.0486 -0.3530  1.9570
 7831SOL    HW234953   4.116   0.814   8.934 -0.0798 -1.7865  0.6883
 7832SOL     OW34954   1.137   2.568   9.800  0.2262 -0.1581 -0.6922
 7832SOL    HW134955   1.118   2.661   9.812  3.4717  0.2452  1.5490
 7832SOL    HW234956   1.216   2.551   9.852 -0.6338  0.2831  0.7509
 7833SOL     OW34957   1.960   1.235   3.458 -0.5683  0.2041 -0.2327
 7833SOL    HW134958   1.873   1.269   3.475 -0.5403  0.5014 -0.6877
 7833SOL    HW234959   1.969   1.197   3.546  1.1642 -1.1524 -0.9681
 7834SOL     OW34960   0.125   2.278   8.858  0.7623  0.3061  0.1909
 7834SOL    HW134961   0.059   2.305   8.922  1.0539  0.1190  0.5658
 7834SOL    HW234962   0.132   2.354   8.800 -2.5000  1.7650  1.6815
 7835SOL     OW34963   0.175   2.824   7.645  0.2273  0.1839 -0.0762
 7835SOL    HW134964   0.096   2.803   7.695  0.8553 -2.4279 -0.2041
 7835SOL    HW234965   0.137   2.830   7.557 -3.3654  2.0325  1.5877
 7836SOL     OW34966   0.457   1.320   3.012  0.4566  0.0547  0.2728
 7836SOL    HW134967   0.481   1.299   3.103 -1.3896 -1.1535  0.5039
 7836SOL    HW234968   0.451   1.415   3.017  0.6304  0.1033 -0.6293
 7837SOL     OW34969   2.573   4.362   5.150 -0.4105 -0.2982 -0.7832
 7837SOL    HW134970   2.624   4.312   5.214  0.4077  0.6958 -0.6616
 7837SOL    HW234971   2.489   4.325   5.177 -0.2150  1.2171  1.8369
 7838SOL     OW34972   0.975   0.047  11.515  0.0774 -0.2962 -0.3263
 7838SOL    HW134973   0.998   0.051  11.422  2.2691  1.7033  0.2913
 7838SOL    HW234974   0.885   0.077  11.515  0.6059  1.2546  1.2281
 7839SOL     OW34975   4.569   2.915   6.652 -0.3727 -0.1179 -0.1501
 7839SOL    HW134976   4.649   2.863   6.662  0.8888  1.4565 -2.2091
 7839SOL    HW234977   4.582   2.986   6.715  1.5544 -1.0330  0.5089
 7840SOL     OW34978   3.416   2.289   9.189  0.5062 -0.3127  0.2543
 7840SOL    HW134979   3.459   2.349   9.250 -0.3797 -2.5831  3.1199
 7840SOL    HW234980   3.413   2.218   9.253 -0.1525  0.7440  1.3926
 7841SOL     OW34981   1.794   3.948   8.704 -0.1588 -0.3003 -0.3264
 7841SOL    HW134982   1.810   3.869   8.756  1.4845  0.6494  0.5894
 7841SOL    HW234983   1.708   3.916   8.675  0.2159 -0.1169 -1.6289
 7842SOL     OW34984   3.994   4.433   8.376  0.6518  0.0773 -0.5035
 7842SOL    HW134985   3.970   4.424   8.468  0.5477 -1.3229 -0.6662
 7842SOL    HW234986   4.023   4.524   8.372  0.8620  0.0072 -0.6039
 7843SOL     OW34987   2.548   3.778  17.308  0.0248  0.5541 -0.4352
 7843SOL    HW134988   2.510   3.744  17.227  0.7294  1.6783 -1.2533
 7843SOL    HW234989   2.551   3.705  17.369  0.1621  0.0036 -1.1106
 7844SOL     OW34990   0.304   0.434   8.116 -0.3534 -0.4348 -0.0070
 7844SOL    HW134991   0.376   0.459   8.175 -0.2029 -0.7169 -0.0666
 7844SOL    HW234992   0.247   0.398   8.184 -0.0618 -0.8555  0.0197
 7845SOL     OW34993   4.272   0.651   5.067  0.3232  0.6322 -0.8880
 7845SOL    HW134994   4.217   0.580   5.032 -1.4897  0.6875  1.8545
 7845SOL    HW234995   4.237   0.729   5.024  0.7017  0.6820 -1.1058
 7846SOL     OW34996   2.249   0.744   1.577  0.1488  0.1848  0.0859
 7846SOL    HW134997   2.191   0.691   1.522 -0.0108  2.0062 -1.5185
 7846SOL    HW234998   2.273   0.685   1.648 -1.5542  0.7180  1.0873
 7847SOL     OW34999   3.193   3.547   1.802 -0.1698 -0.4670 -1.0077
 7847SOL    HW135000   3.215   3.490   1.876  0.9459  1.4401  0.1433
 7847SOL    HW235001   3.238   3.500   1.732 -0.3030  0.1077 -1.4780
 7848SOL     OW35002   0.224   2.516   4.978  0.3075  0.2942  0.2187
 7848SOL    HW135003   0.173   2.577   4.924  0.6158 -0.4760 -0.9167
 7848SOL    HW235004   0.312   2.552   4.967  0.9541 -1.0922  0.8703
 7849SOL     OW35005   0.146   0.184   6.372  0.0761 -0.3034  0.6526
 7849SOL    HW135006   0.194   0.136   6.304  1.2172 -0.7824  1.8079
 7849SOL    HW235007   0.093   0.242   6.317  1.5778  0.3714 -0.1078
 7850SOL     OW35008   1.552   2.144  16.549  0.3216 -0.6214 -0.3053
 7850SOL    HW135009   1.562   2.171  16.458  1.4900 -1.6983 -0.4885
 7850SOL    HW235010   1.466   2.186  16.562  1.2878  1.2075  0.1992
 7851SOL     OW35011   4.034   1.246   9.009 -0.0253  1.0435  0.2837
 7851SOL    HW135012   4.090   1.309   9.054 -0.2422  0.9067  0.7417
 7851SOL    HW235013   4.039   1.164   9.058  1.6718  1.8260  1.3967
 7852SOL     OW35014   4.614   3.780  10.077 -0.5860 -0.5825  0.1707
 7852SOL    HW135015   4.652   3.778   9.989  0.4731  0.6007  0.5981
 7852SOL    HW235016   4.558   3.859  10.073  0.9370  0.4893  0.0436
 7853SOL     OW35017   1.773   4.397   3.155 -0.2157  0.5701  0.0806
 7853SOL    HW135018   1.822   4.480   3.159 -1.8892  1.5280  0.5712
 7853SOL    HW235019   1.828   4.336   3.203 -0.2708 -0.1054 -0.7117
 7854SOL     OW35020   2.085   4.393   7.759 -0.3309 -0.8118 -1.0617
 7854SOL    HW135021   2.123   4.306   7.752  1.1088 -0.1648 -1.2980
 7854SOL    HW235022   2.049   4.381   7.847  0.6135 -1.2723 -0.7411
 7855SOL     OW35023   3.169   1.841  15.302 -0.0310  0.0986 -0.4983
 7855SOL    HW135024   3.154   1.921  15.353  0.1943  0.4588 -0.9910
 7855SOL    HW235025   3.264   1.850  15.304 -0.1126  0.6824  1.2046
 7856SOL     OW35026   1.386   4.076   4.019  0.0297  0.6339 -0.0616
 7856SOL    HW135027   1.477   4.103   4.011  0.4656 -0.0847  2.3752
 7856SOL    HW235028   1.373   4.011   3.949  3.2564  1.1305 -1.0921
 7857SOL     OW35029   3.666   1.517  14.851 -0.4666 -0.3388 -0.3315
 7857SOL    HW135030   3.736   1.514  14.786 -1.8224 -0.5854 -1.7864
 7857SOL    HW235031   3.705   1.460  14.918 -0.6516  0.4855  0.4837
 7858SOL     OW35032   2.863   1.353   5.901  0.2087  0.6329 -0.4318
 7858SOL    HW135033   2.955   1.355   5.928  0.3811 -0.6590 -0.9359
 7858SOL    HW235034   2.838   1.441   5.873 -1.9073  0.3230  0.5094
 7859SOL     OW35035   1.372   4.382   9.004 -0.1003 -0.4021 -0.5269
 7859SOL    HW135036   1.374   4.449   8.936 -0.3672 -0.5862 -0.7197
 7859SOL    HW235037   1.333   4.306   8.960 -0.6971 -1.7157  2.2807
 7860SOL     OW35038   1.847   0.522   7.543 -0.4434 -0.5579 -0.0483
 7860SOL    HW135039   1.785   0.496   7.611  1.4617 -2.3138  1.0210
 7860SOL    HW235040   1.930   0.511   7.588 -1.1787 -3.0535  0.6818
 7861SOL     OW35041   2.792   1.087   4.765 -0.3243 -0.4443  0.4061
 7861SOL    HW135042   2.789   1.147   4.690 -1.5853 -0.1459  0.7023
 7861SOL    HW235043   2.855   1.032   4.718 -1.3481  1.5171 -3.2575
 7862SOL     OW35044   3.918   1.430   9.226  0.1702  0.0169  0.2549
 7862SOL    HW135045   3.939   1.348   9.270 -1.4279 -1.3992 -1.6428
 7862SOL    HW235046   3.853   1.398   9.163 -0.1915 -0.0252  0.6489
 7863SOL     OW35047   4.502   4.336   4.700  0.2067 -0.3615 -0.5909
 7863SOL    HW135048   4.478   4.427   4.720  2.1138 -0.5104  2.3104
 7863SOL    HW235049   4.491   4.334   4.605 -0.2935 -0.4659 -0.5304
 7864SOL     OW35050   0.237   4.284  11.165 -0.1759 -0.7496  0.4769
 7864SOL    HW135051   0.165   4.344  11.186  0.7583  0.3356  0.5866
 7864SOL    HW235052   0.309   4.340  11.135  0.6135 -2.4206 -0.7173
 7865SOL     OW35053   1.728   2.615   9.225  0.2886 -0.1381 -0.4795
 7865SOL    HW135054   1.741   2.525   9.196 -1.0148 -0.7240  0.7153
 7865SOL    HW235055   1.663   2.601   9.295 -1.1550 -0.7241 -1.9319
 7866SOL     OW35056   2.814   3.167   6.829  0.5636 -0.1031 -0.3390
 7866SOL    HW135057   2.749   3.231   6.854 -0.7824 -1.3453 -0.6495
 7866SOL    HW235058   2.873   3.187   6.901  2.4678  2.4582 -2.6088
 7867SOL     OW35059   2.719   2.520   6.064 -0.3408  0.2880 -0.5361
 7867SOL    HW135060   2.652   2.570   6.018 -1.7441 -3.3734 -2.5148
 7867SOL    HW235061   2.778   2.592   6.085  1.5536 -0.6030 -2.6956
 7868SOL     OW35062   3.204   1.592   3.325  0.4393  0.6307  0.2719
 7868SOL    HW135063   3.268   1.522   3.342  0.4421  0.4382 -0.5144
 7868SOL    HW235064   3.125   1.562   3.371  0.9263 -2.6770 -1.0374
 7869SOL     OW35065   4.658   4.483   2.679 -0.4290 -0.0184  0.2811
 7869SOL    HW135066   4.575   4.505   2.639 -0.5276 -1.0050 -0.0518
 7869SOL    HW235067   4.629   4.392   2.678  1.6415 -0.7052  2.3839
 7870SOL     OW35068   3.015   4.508   8.005  0.2282  0.3495 -0.1788
 7870SOL    HW135069   3.033   4.437   8.067 -2.4699  0.3727  0.6497
 7870SOL    HW235070   3.094   4.560   8.020  0.0232  0.3263  0.9847
 7871SOL     OW35071   3.815   4.678  17.084  0.0880  0.2390 -0.0562
 7871SOL    HW135072   3.897   4.651  17.125 -0.9246  0.2750  1.9631
 7871SOL    HW235073   3.789   0.027  17.141  1.9499  0.9353 -0.0715
 7872SOL     OW35074   3.009   0.712   8.612 -0.5042  0.3698  0.5836
 7872SOL    HW135075   2.977   0.638   8.665 -0.7236 -0.8760 -1.2739
 7872SOL    HW235076   2.927   0.748   8.577 -0.3446  1.2976  1.1637
 7873SOL     OW35077   2.060   4.463  11.442 -0.3405 -0.3408  0.3783
 7873SOL    HW135078   2.120   4.466  11.516 -1.6505  3.2313  1.2694
 7873SOL    HW235079   1.989   4.511  11.485  0.3534  0.2914  0.8107
 7874SOL     OW35080   4.098   2.633   8.336  0.1410  0.2082  0.3359
 7874SOL    HW135081   4.156   2.626   8.412 -0.2171 -0.5019  0.5491
 7874SOL    HW235082   4.156   2.633   8.260  0.3486  1.4553  0.4934
 7875SOL     OW35083   2.974   2.173   6.915 -0.1574 -0.3352 -0.0213
 7875SOL    HW135084   2.950   2.088   6.877 -0.9818 -1.0013  1.9645
 7875SOL    HW235085   3.026   2.218   6.849  0.4869 -1.2423 -0.1298
 7876SOL     OW35086   3.583   4.642   2.622  0.5396  0.4690 -0.4044
 7876SOL    HW135087   3.498   4.683   2.638  1.5930  1.6956  2.0998
 7876SOL    HW235088   3.589   4.640   2.526  0.2541  1.4193 -0.4439
 7877SOL     OW35089   2.139   2.737   9.537 -0.3633 -0.5640  0.3041
 7877SOL    HW135090   2.135   2.809   9.600  0.7764  1.9411 -2.4829
 7877SOL    HW235091   2.231   2.716   9.553 -0.1491  0.4024  0.3600
 7878SOL     OW35092   1.352   2.990   8.886  0.5106  0.2730 -0.5129
 7878SOL    HW135093   1.422   2.937   8.925  0.8986  0.9774 -0.2551
 7878SOL    HW235094   1.394   3.019   8.805  1.3122  2.0433  0.5375
 7879SOL     OW35095   2.589   2.174   5.525  0.1070 -0.0278 -0.0674
 7879SOL    HW135096   2.652   2.107   5.500 -1.2616 -0.6204 -1.9315
 7879SOL    HW235097   2.616   2.241   5.463 -0.8368  0.9560  0.5740
 7880SOL     OW35098   3.779   1.109   2.241  0.2187 -0.2873  0.4789
 7880SOL    HW135099   3.847   1.176   2.230  2.1605 -2.1288  1.3119
 7880SOL    HW235100   3.776   1.110   2.337 -2.1374  0.0513  0.3947
 7881SOL     OW35101   4.311   3.981   6.614  0.7044  0.0888 -0.5533
 7881SOL    HW135102   4.382   3.959   6.674  0.4136  0.5401 -0.0498
 7881SOL    HW235103   4.355   3.956   6.532 -1.0099 -0.0445 -1.4288
 7882SOL     OW35104   1.696   4.657   8.225 -0.3733  0.1894  0.0934
 7882SOL    HW135105   1.758   4.686   8.292 -0.2951  2.6352 -1.0166
 7882SOL    HW235106   1.733   4.569   8.215  1.0567  0.6672  1.1622
 7883SOL     OW35107   0.241   0.991  16.660  0.5867 -0.3419  0.4977
 7883SOL    HW135108   0.197   1.024  16.738 -1.5122 -0.8318 -0.5007
 7883SOL    HW235109   0.167   0.968  16.605  1.7577 -1.0713 -0.7810
 7884SOL     OW35110   0.515   1.119   5.796  0.0971 -0.3333  0.0229
 7884SOL    HW135111   0.430   1.159   5.777  1.0900  2.7136  2.1370
 7884SOL    HW235112   0.538   1.078   5.713  0.2014  2.4568 -1.3222
 7885SOL     OW35113   1.604   2.018   7.135 -0.0458  0.3323  0.2464
 7885SOL    HW135114   1.673   1.986   7.192  0.1226  1.6460  0.7906
 7885SOL    HW235115   1.568   1.932   7.115  2.2514 -0.5965  0.1436
 7886SOL     OW35116   0.229   3.017  13.292 -0.6132  0.1316 -1.3675
 7886SOL    HW135117   0.301   3.003  13.353  0.0437  0.3925 -2.0883
 7886SOL    HW235118   0.143   3.013  13.333  0.4953 -2.1199  0.7121
 7887SOL     OW35119   0.153   2.696   4.788  0.0418 -0.0618  0.1428
 7887SOL    HW135120   0.238   2.737   4.779  0.0655 -0.2228 -0.3884
 7887SOL    HW235121   0.097   2.766   4.822  1.3290 -0.1796  2.4510
 7888SOL     OW35122   3.084   0.033   3.838  0.6819  0.6300 -0.1392
 7888SOL    HW135123   3.029   0.044   3.760  0.4831 -3.4536 -0.5450
 7888SOL    HW235124   3.040   0.094   3.898 -1.5912 -0.1928 -0.9712
 7889SOL     OW35125   0.754   3.657   9.689  0.2747 -0.0708 -0.0667
 7889SOL    HW135126   0.719   3.745   9.702  1.8322  0.3678  1.1873
 7889SOL    HW235127   0.788   3.627   9.773  0.6198 -0.3321 -0.2998
 7890SOL     OW35128   2.538   4.674   5.217  0.1526  0.0828 -0.1108
 7890SOL    HW135129   2.457   4.672   5.266  0.8644  1.4726  1.1134
 7890SOL    HW235130   2.554   4.583   5.192 -0.2791 -0.3307  1.1255
 7891SOL     OW35131   4.293   0.330   1.998 -0.3919 -0.5913 -0.3582
 7891SOL    HW135132   4.219   0.306   1.943  1.3570 -1.1184 -2.4608
 7891SOL    HW235133   4.324   0.247   2.031 -1.5753 -0.9279 -0.0883
 7892SOL     OW35134   1.373   4.624   2.098  0.6129 -0.4012  0.4000
 7892SOL    HW135135   1.287   4.649   2.064  1.3761  0.8254 -0.6544
 7892SOL    HW235136   1.428   4.696   2.066 -0.3001  1.0167  2.0215
 7893SOL     OW35137   1.526   3.954   1.588  0.1263 -0.3196  0.1590
 7893SOL    HW135138   1.517   4.047   1.565  1.4881  0.1719  1.6245
 7893SOL    HW235139   1.609   3.940   1.634 -0.6698 -0.9140  1.4346
 7894SOL     OW35140   2.794   0.284   9.421 -0.6020  0.0257  0.1443
 7894SOL    HW135141   2.830   0.202   9.389  3.1902  1.5999  0.2584
 7894SOL    HW235142   2.862   0.349   9.399  1.1956 -2.2978 -1.0958
 7895SOL     OW35143   2.581   0.283  11.851 -0.0834  0.1368 -0.0578
 7895SOL    HW135144   2.667   0.323  11.865 -0.4119  1.2195 -1.1342
 7895SOL    HW235145   2.597   0.234  11.770  1.5213 -0.0567  0.3727
 7896SOL     OW35146   0.086   2.297   6.820 -0.1970 -0.0213  0.5223
 7896SOL    HW135147   0.016   2.232   6.827  1.9513 -2.1940  2.2971
 7896SOL    HW235148   0.146   2.270   6.890  0.8589 -2.4510 -1.3017
 7897SOL     OW35149   4.444   1.468   4.403  0.1637  0.1535 -0.3550
 7897SOL    HW135150   4.371   1.479   4.464  0.0287 -0.5801 -0.3841
 7897SOL    HW235151   4.469   1.560   4.399  0.8517 -0.0396 -0.6007
 7898SOL     OW35152   4.401   2.049  11.563 -0.6178 -0.5799 -0.3913
 7898SOL    HW135153   4.391   1.954  11.556 -1.9623 -0.3993 -1.0662
 7898SOL    HW235154   4.487   2.051  11.523 -0.8764 -0.1541 -0.9277
 7899SOL     OW35155   1.279   1.781   5.846 -0.2205 -0.6663 -0.3638
 7899SOL    HW135156   1.281   1.797   5.940  0.0833  1.9028 -0.8108
 7899SOL    HW235157   1.291   1.686   5.849 -1.2144 -0.8275 -1.1832
 7900SOL     OW35158   0.554   3.820  15.550 -0.0962  0.3146 -0.2734
 7900SOL    HW135159   0.503   3.840  15.471  0.2175  1.7392 -0.1189
 7900SOL    HW235160   0.482   3.807  15.611 -0.4031 -0.9088 -0.8923
 7901SOL     OW35161   4.616   3.110  11.878  0.4965 -0.0932 -0.5912
 7901SOL    HW135162   4.610   3.023  11.918  2.2212 -0.7168 -1.6862
 7901SOL    HW235163   4.649   3.076  11.794  2.5343  3.0895 -1.0693
 7902SOL     OW35164   1.647   0.280   3.795  0.6748 -0.1073 -0.1071
 7902SOL    HW135165   1.725   0.247   3.840  2.4787  0.5016 -2.7744
 7902SOL    HW235166   1.652   0.375   3.804 -0.3282  0.0068 -0.7625
 7903SOL     OW35167   4.087   4.571   9.544 -0.2670  0.1403  0.3774
 7903SOL    HW135168   3.992   4.559   9.535  0.0245 -0.2819 -2.1214
 7903SOL    HW235169   4.111   4.550   9.453  0.2941  0.7368  0.3873
 7904SOL     OW35170   1.793   0.954   6.761 -0.5373  0.0610 -0.1553
 7904SOL    HW135171   1.784   0.861   6.778 -2.1331  0.2611  0.1419
 7904SOL    HW235172   1.842   0.979   6.839 -0.0974 -0.0603 -0.3917
 7905SOL     OW35173   2.382   2.120   4.497  0.4314 -0.5522 -0.4461
 7905SOL    HW135174   2.430   2.046   4.461  0.2714 -0.2396 -1.3007
 7905SOL    HW235175   2.453   2.184   4.502  3.0399 -3.5185  0.2654
 7906SOL     OW35176   4.604   1.004   2.225 -0.3651  0.2097  0.3174
 7906SOL    HW135177   4.658   1.019   2.302 -0.9104 -1.1320  0.9583
 7906SOL    HW235178   4.676   1.013   2.162 -0.8500  2.3556  0.0562
 7907SOL     OW35179   4.204   1.187   2.368  0.0362 -0.2986 -0.6035
 7907SOL    HW135180   4.120   1.212   2.331  0.5189 -0.8613 -2.0885
 7907SOL    HW235181   4.230   1.132   2.294 -0.8481 -3.7014  1.6111
 7908SOL     OW35182   0.955   2.557   9.246 -0.4077 -0.1477 -0.4028
 7908SOL    HW135183   0.972   2.587   9.335  2.1838 -0.8080 -0.6677
 7908SOL    HW235184   0.898   2.483   9.267 -0.3606 -0.4033 -1.1988
 7909SOL     OW35185   0.815   0.704   4.157 -0.2121  0.6552  0.2807
 7909SOL    HW135186   0.737   0.662   4.192  0.4533 -2.1913 -1.6740
 7909SOL    HW235187   0.856   0.733   4.239 -0.5449  1.4513  0.1569
 7910SOL     OW35188   3.533   3.649   5.713 -0.2593  0.0407  0.0698
 7910SOL    HW135189   3.553   3.678   5.802 -0.2786 -0.4666  0.2425
 7910SOL    HW235190   3.551   3.556   5.725  1.1113  0.1221 -1.4804
 7911SOL     OW35191   2.142   1.895   1.300 -0.0430  0.1937  0.0521
 7911SOL    HW135192   2.235   1.896   1.278 -0.1828  1.0196 -0.4903
 7911SOL    HW235193   2.126   1.800   1.303 -0.7564  0.3114  0.1688
 7912SOL     OW35194   3.299   0.584   8.623 -0.4347 -0.0300 -0.1374
 7912SOL    HW135195   3.314   0.582   8.528 -1.7949  1.7344 -0.3917
 7912SOL    HW235196   3.204   0.581   8.624 -0.4307  0.4120  1.2082
 7913SOL     OW35197   0.546   3.027  16.588  0.5914  0.1654  0.2855
 7913SOL    HW135198   0.487   3.088  16.542  0.7997  0.1231 -0.0379
 7913SOL    HW235199   0.543   3.069  16.674  1.2520 -2.0132  1.3704
 7914SOL     OW35200   4.552   3.545   2.333 -0.0777  0.0525 -0.4010
 7914SOL    HW135201   4.536   3.638   2.322 -0.7849  0.1628  1.4802
 7914SOL    HW235202   4.618   3.534   2.265  0.0746 -1.8656  0.0416
 7915SOL     OW35203   3.005   1.439   4.072  0.0533  0.0550 -0.3936
 7915SOL    HW135204   3.003   1.354   4.114 -1.1480 -1.6013 -3.7718
 7915SOL    HW235205   2.976   1.415   3.984 -1.4933  0.9254 -0.1374
 7916SOL     OW35206   3.725   0.319   4.711  0.1638  0.4885 -0.2681
 7916SOL    HW135207   3.803   0.310   4.765 -0.3092  0.8248  0.4766
 7916SOL    HW235208   3.750   0.275   4.629 -1.6876 -1.9123  0.4394
 7917SOL     OW35209   0.206   3.853   6.481  0.1682 -0.0444 -0.0168
 7917SOL    HW135210   0.293   3.890   6.470  2.1819 -4.8986 -0.6485
 7917SOL    HW235211   0.210   3.833   6.575 -1.3372  0.7785  0.2277
 7918SOL     OW35212   0.556   3.860  15.988 -0.1688 -0.6274  0.0552
 7918SOL    HW135213   0.482   3.918  16.010 -0.4480  0.1416 -2.8834
 7918SOL    HW235214   0.625   3.923  15.967 -1.0012 -0.5050 -2.2958
 7919SOL     OW35215   0.804   0.541   5.046  0.1655 -0.0734 -0.3497
 7919SOL    HW135216   0.834   0.606   5.110 -0.5400 -1.3985  1.3379
 7919SOL    HW235217   0.888   0.535   5.000  0.5109  0.0806  0.2612
 7920SOL     OW35218   0.615   0.250  13.643 -0.0384  0.5286 -0.4705
 7920SOL    HW135219   0.533   0.267  13.689  1.5474  3.9677  1.1081
 7920SOL    HW235220   0.590   0.272  13.553  0.2222  0.1192 -0.6465
 7921SOL     OW35221   3.796   3.740   1.214 -0.0882 -0.3073 -0.1027
 7921SOL    HW135222   3.813   3.808   1.279  2.3987 -3.2018  2.2066
 7921SOL    HW235223   3.859   3.761   1.145  0.3334  0.0954  0.4113
 7922SOL     OW35224   2.475   1.263   6.525  0.2992  0.2365  0.3974
 7922SOL    HW135225   2.433   1.320   6.460  1.8624  0.2650 -0.5784
 7922SOL    HW235226   2.535   1.216   6.467 -0.4677  1.5293 -1.4749
 7923SOL     OW35227   1.787   3.429   5.431  0.3904 -0.7204  0.6579
 7923SOL    HW135228   1.781   3.484   5.353  1.5791 -0.5665  0.6848
 7923SOL    HW235229   1.695   3.403   5.439  0.4164 -0.4160  1.9045
 7924SOL     OW35230   3.091   2.394   1.362  0.0238 -0.6944 -0.1097
 7924SOL    HW135231   3.003   2.376   1.327  0.1521 -0.5860 -0.4902
 7924SOL    HW235232   3.082   2.475   1.411 -1.0319 -0.6817 -0.3231
 7925SOL     OW35233   0.117   2.130   8.156 -0.4513 -0.4951  0.0664
 7925SOL    HW135234   0.156   2.134   8.069  0.5504 -2.2911  0.4369
 7925SOL    HW235235   0.157   2.058   8.205 -0.4577  0.1195  0.9739
 7926SOL     OW35236   2.044   4.605   7.997 -0.5722  0.4093 -0.3931
 7926SOL    HW135237   2.004   4.543   7.937  0.4218  0.1842 -0.8224
 7926SOL    HW235238   1.974   4.670   7.985 -1.5448 -0.6882 -0.6032
 7927SOL     OW35239   4.339   0.910  16.819  0.4407 -0.8558 -0.2021
 7927SOL    HW135240   4.334   0.820  16.787 -1.0975 -0.2417 -1.6572
 7927SOL    HW235241   4.247   0.935  16.815  1.0025  1.1153 -0.6846
 7928SOL     OW35242   3.751   3.840  15.485  0.3473 -0.1204  0.0184
 7928SOL    HW135243   3.712   3.754  15.464 -0.4304  0.2049  0.1228
 7928SOL    HW235244   3.803   3.811  15.560  0.4465 -3.0706 -1.1547
 7929SOL     OW35245   2.204   2.139   7.648 -0.2044 -0.1119  0.4115
 7929SOL    HW135246   2.118   2.161   7.613  0.5884 -0.2397 -1.6238
 7929SOL    HW235247   2.195   2.125   7.742  1.0695 -2.7461  0.1451
 7930SOL     OW35248   1.435   2.222   5.387  0.3786 -0.1713 -0.1464
 7930SOL    HW135249   1.423   2.315   5.367 -3.5148 -0.2804  1.5963
 7930SOL    HW235250   1.345   2.198   5.363 -0.0052  2.0861 -1.0660
 7931SOL     OW35251   1.296   3.765   9.114  0.1657  0.1809 -1.0923
 7931SOL    HW135252   1.223   3.814   9.076 -1.3623  0.6033  2.4030
 7931SOL    HW235253   1.265   3.773   9.204 -2.3311  0.4546 -1.9880
 7932SOL     OW35254   2.214   2.374   4.817 -0.2608 -0.4140  0.0497
 7932SOL    HW135255   2.207   2.470   4.824 -0.4055 -0.5025  1.1270
 7932SOL    HW235256   2.306   2.372   4.842  0.3494 -0.8798 -2.1898
 7933SOL     OW35257   2.373   2.000   5.160  0.0852  0.1537 -0.1634
 7933SOL    HW135258   2.415   1.949   5.091 -1.1008 -1.3364  0.2088
 7933SOL    HW235259   2.347   1.928   5.218  0.9776 -0.9616 -1.1671
 7934SOL     OW35260   2.623   2.912   2.179  0.4146 -0.3223 -0.0044
 7934SOL    HW135261   2.545   2.858   2.189  0.5316  0.1139  3.0243
 7934SOL    HW235262   2.678   2.851   2.129 -0.2990 -1.4026  0.5444
 7935SOL     OW35263   2.966   2.435  12.492 -0.5172 -0.6435  0.1561
 7935SOL    HW135264   3.029   2.418  12.422  1.4484  1.9158  1.3023
 7935SOL    HW235265   2.976   2.528  12.512 -0.3543 -0.8989  1.2545
 7936SOL     OW35266   0.427   3.617  10.051  0.2472  0.0415  0.2334
 7936SOL    HW135267   0.517   3.622  10.083  0.7171 -0.5613 -0.9887
 7936SOL    HW235268   0.377   3.624  10.132 -2.5545 -0.9628 -1.4035
 7937SOL     OW35269   1.920   1.036   3.273 -0.0617 -0.5287 -0.6019
 7937SOL    HW135270   1.949   1.101   3.337  0.8805  0.4352 -2.0084
 7937SOL    HW235271   1.980   1.067   3.205  2.8650 -1.1684  1.6890
 7938SOL     OW35272   3.351   0.214   9.191 -0.2023 -0.3375 -0.0552
 7938SOL    HW135273   3.314   0.295   9.156  0.0823 -1.3998 -2.8485
 7938SOL    HW235274   3.332   0.218   9.284 -0.2603  2.6782 -0.2052
 7939SOL     OW35275   0.343   3.015   9.432 -0.1798  0.3003 -0.2083
 7939SOL    HW135276   0.297   2.932   9.421  3.2023 -1.7682  1.2041
 7939SOL    HW235277   0.391   3.004   9.350  1.0460  0.8123  0.4399
 7940SOL     OW35278   4.115   0.367   2.852  0.5705 -0.4002  0.1532
 7940SOL    HW135279   4.056   0.304   2.895 -0.9615  0.3474 -0.8794
 7940SOL    HW235280   4.184   0.301   2.838  1.3638  0.3309  0.6433
 7941SOL     OW35281   4.562   4.460   1.787  0.5082 -0.4112 -0.3135
 7941SOL    HW135282   4.574   4.444   1.881 -2.0278 -3.6451 -0.5521
 7941SOL    HW235283   4.586   4.376   1.750 -0.6648  0.1369 -2.2945
 7942SOL     OW35284   0.936   1.705   6.236  0.0908 -0.1708  0.7724
 7942SOL    HW135285   0.942   1.800   6.226 -1.9291 -0.1788 -0.3306
 7942SOL    HW235286   0.962   1.686   6.327  0.0591 -0.7983  0.6529
 7943SOL     OW35287   3.143   4.691   3.152  0.5154 -0.0450 -0.4822
 7943SOL    HW135288   3.174   4.628   3.217 -1.8070  0.4738  1.1187
 7943SOL    HW235289   3.049   4.673   3.160  1.1631 -2.4569  1.6983
 7944SOL     OW35290   0.814   2.255  12.241  0.0371  0.0988  0.2828
 7944SOL    HW135291   0.910   2.256  12.236  0.0312  1.3685  0.5213
 7944SOL    HW235292   0.798   2.179  12.185  1.6833  0.7532 -1.1036
 7945SOL     OW35293   0.932   1.077  13.536 -0.1911 -0.1158 -0.1394
 7945SOL    HW135294   0.973   1.156  13.571 -0.3839  0.0251 -0.2343
 7945SOL    HW235295   0.842   1.105  13.521  0.8518  3.2667  0.0397
 7946SOL     OW35296   0.793   3.290   9.492 -0.2286  0.5673 -0.5817
 7946SOL    HW135297   0.775   3.242   9.411  1.5629 -2.8593  1.0068
 7946SOL    HW235298   0.788   3.378   9.456  0.9497  1.3463  1.1336
 7947SOL     OW35299   1.115   1.629  17.144  0.6258 -0.2018 -0.3132
 7947SOL    HW135300   1.157   1.572  17.080  2.4596 -1.2340  1.8201
 7947SOL    HW235301   1.189   1.648  17.202  1.3096  0.7002 -1.4947
 7948SOL     OW35302   1.700   3.829   7.849 -0.7334  0.3002 -0.1429
 7948SOL    HW135303   1.717   3.794   7.761 -1.4265  1.6444 -0.7978
 7948SOL    HW235304   1.610   3.860   7.844 -0.8766 -0.0706  0.0827
 7949SOL     OW35305   2.465   2.505   6.434 -0.4519 -0.6078 -0.6972
 7949SOL    HW135306   2.480   2.430   6.377  0.0771 -0.6755 -0.4736
 7949SOL    HW235307   2.370   2.496   6.433 -0.4944 -0.5891  2.1875
 7950SOL     OW35308   1.255   4.376   1.667 -0.4019  0.0391  0.8850
 7950SOL    HW135309   1.163   4.352   1.672 -0.3760 -0.2568  0.0563
 7950SOL    HW235310   1.284   4.324   1.592  2.0589  1.1229  1.0868
 7951SOL     OW35311   2.728   0.891  10.043 -0.5665 -1.3975 -0.0108
 7951SOL    HW135312   2.726   0.854   9.954  0.6666 -1.3662 -0.0468
 7951SOL    HW235313   2.659   0.957  10.037  0.6729 -0.0491  0.6125
 7952SOL     OW35314   2.712   2.328  13.364  0.5346  0.1035 -0.1941
 7952SOL    HW135315   2.742   2.412  13.400  0.7103 -0.7473  1.6670
 7952SOL    HW235316   2.618   2.343  13.373  0.4035  1.1392 -3.3648
 7953SOL     OW35317   0.080   1.039  11.731 -0.0065 -0.3521  0.1819
 7953SOL    HW135318   0.000   1.042  11.678  0.2837 -1.5870 -0.3177
 7953SOL    HW235319   0.125   1.110  11.686  1.0672 -2.0056 -1.3263
 7954SOL     OW35320   2.987   1.588   6.137 -0.1113  0.1276 -0.0417
 7954SOL    HW135321   2.993   1.661   6.075 -1.8670 -1.5044 -2.1350
 7954SOL    HW235322   2.916   1.622   6.191  0.2629  0.5009  0.2112
 7955SOL     OW35323   2.825   1.720  10.186 -0.3822  0.2725  0.1217
 7955SOL    HW135324   2.771   1.674  10.122 -1.9474 -0.4613  1.9730
 7955SOL    HW235325   2.772   1.791  10.223 -0.3724 -0.6194  1.8502
 7956SOL     OW35326   1.385   0.482   4.823 -0.1569 -0.1269 -0.0918
 7956SOL    HW135327   1.394   0.392   4.854 -1.6007 -0.6741 -1.2511
 7956SOL    HW235328   1.364   0.465   4.731 -3.5020  1.8020  0.2848
 7957SOL     OW35329   4.571   0.776  17.103 -0.4779 -0.1858  0.1050
 7957SOL    HW135330   4.645   0.786  17.162  0.5185  0.8280 -1.3063
 7957SOL    HW235331   4.529   0.711  17.159  0.8175 -1.7326 -0.7293
 7958SOL     OW35332   2.566   1.850   0.204  0.0947 -0.2292  0.6079
 7958SOL    HW135333   2.482   1.805   0.203 -1.4724  2.6780  0.3726
 7958SOL    HW235334   2.590   1.836   0.296  2.2802  1.9742  0.3799
 7959SOL     OW35335   1.306   0.620   2.339 -0.7247  0.0108 -0.3361
 7959SOL    HW135336   1.308   0.665   2.254  0.7298 -0.4439 -0.5440
 7959SOL    HW235337   1.308   0.696   2.397 -2.8491  0.6949 -1.1675
 7960SOL     OW35338   3.394   2.691  13.309 -0.6407  0.3331  0.2929
 7960SOL    HW135339   3.409   2.597  13.319 -1.0904  0.2214 -0.0777
 7960SOL    HW235340   3.376   2.715  13.400 -0.2143 -1.9768  0.9946
 7961SOL     OW35341   0.095   3.440   5.838 -0.2916  0.1019  0.1653
 7961SOL    HW135342   0.028   3.426   5.771  0.1530 -1.0898 -0.0209
 7961SOL    HW235343   0.052   3.402   5.915 -2.1782  1.1210 -0.3988
 7962SOL     OW35344   0.177   2.012   6.242  0.4725 -0.2275  0.3385
 7962SOL    HW135345   0.181   1.973   6.155  2.4349  0.9379 -0.0855
 7962SOL    HW235346   0.264   2.052   6.249 -0.2076  1.4095 -0.5258
 7963SOL     OW35347   0.862   3.559  17.325 -0.3525 -0.5685  0.1017
 7963SOL    HW135348   0.861   3.653  17.304 -0.0335 -0.4975  0.4099
 7963SOL    HW235349   0.816   3.517  17.252 -1.1012  1.0795 -0.3781
 7964SOL     OW35350   3.478   2.992   4.058  0.0847 -0.3884  0.0322
 7964SOL    HW135351   3.534   3.069   4.065 -1.1910  0.7192 -1.9862
 7964SOL    HW235352   3.524   2.941   3.992 -2.1827  0.2201 -2.0054
 7965SOL     OW35353   1.445   1.606  13.072  0.2926  0.4978  0.9753
 7965SOL    HW135354   1.388   1.541  13.114 -0.1214 -0.7648 -1.5232
 7965SOL    HW235355   1.526   1.589  13.120  0.5280  0.8668  0.7082
 7966SOL     OW35356   3.404   0.994   7.756  0.2405 -0.2057 -0.0510
 7966SOL    HW135357   3.432   0.943   7.680 -0.0716  0.9128 -0.9290
 7966SOL    HW235358   3.478   0.988   7.816 -1.1658 -1.1344  1.6095
 7967SOL     OW35359   1.607   3.822   1.905  0.3933 -0.5777 -0.9770
 7967SOL    HW135360   1.576   3.912   1.893  2.2614  0.0542 -1.0511
 7967SOL    HW235361   1.673   3.819   1.836  4.2038 -1.3096  2.7179
 7968SOL     OW35362   1.825   4.316  11.324 -0.0924  0.4329 -0.0592
 7968SOL    HW135363   1.782   4.301  11.408 -0.4852  1.1858 -0.1283
 7968SOL    HW235364   1.860   4.227  11.312  0.3268  0.6788 -0.6631
 7969SOL     OW35365   4.334   1.904   4.656 -0.3309  0.1654 -0.0664
 7969SOL    HW135366   4.427   1.902   4.636 -0.6454  2.2277 -1.6865
 7969SOL    HW235367   4.336   1.862   4.743  1.5410  1.4638  0.5243
 7970SOL     OW35368   4.151   4.040   5.854  0.1535 -0.0077  0.0835
 7970SOL    HW135369   4.105   4.056   5.772 -1.3495  0.1443  0.9441
 7970SOL    HW235370   4.189   4.128   5.862  0.9475 -0.3181 -0.2732
 7971SOL     OW35371   3.216   0.577  11.056  0.2630  0.4965 -0.0511
 7971SOL    HW135372   3.211   0.557  10.963 -1.8696 -0.7509  0.3159
 7971SOL    HW235373   3.124   0.587  11.080  0.2132  1.3083 -0.6177
 7972SOL     OW35374   1.103   0.293  11.350  0.1454  0.3699  0.1167
 7972SOL    HW135375   1.169   0.255  11.408 -0.0563  1.9014  1.3400
 7972SOL    HW235376   1.139   0.277  11.263 -0.9707 -2.9952  0.2876
 7973SOL     OW35377   1.024   2.434   8.553  0.0083  0.2591  0.3968
 7973SOL    HW135378   0.976   2.446   8.635 -0.0640 -1.8200  0.6485
 7973SOL    HW235379   1.055   2.524   8.542 -1.1600  0.5939 -0.1554
 7974SOL     OW35380   4.139   1.172  13.390 -0.0276 -0.2085 -0.1032
 7974SOL    HW135381   4.207   1.156  13.326 -1.3229 -0.7577 -1.3413
 7974SOL    HW235382   4.080   1.237  13.352  0.9821  0.4796 -0.4683
 7975SOL     OW35383   1.361   3.084   3.823  0.1146  0.4079 -0.0411
 7975SOL    HW135384   1.307   3.120   3.752  0.6155 -0.9558 -1.1199
 7975SOL    HW235385   1.451   3.095   3.792  0.4471  1.2822  1.2511
 7976SOL     OW35386   1.333   2.372   3.283  0.1488  0.3211 -0.2932
 7976SOL    HW135387   1.428   2.358   3.288  0.2004  0.0073 -2.3968
 7976SOL    HW235388   1.327   2.359   3.189 -0.8444 -3.8007  0.3351
 7977SOL     OW35389   4.047   2.255   6.487 -0.3530  0.1619  0.2625
 7977SOL    HW135390   4.072   2.166   6.462 -1.8088 -0.5453  1.3408
 7977SOL    HW235391   4.093   2.275   6.569 -0.8163  1.6303  0.1782
 7978SOL     OW35392   3.536   0.595   3.382  0.4401  0.2538 -0.1171
 7978SOL    HW135393   3.576   0.652   3.316 -0.5178  1.9554  0.7527
 7978SOL    HW235394   3.561   0.513   3.341  1.1423 -0.4809  1.8018
 7979SOL     OW35395   3.851   0.634   4.271  0.5338 -0.0237 -0.0259
 7979SOL    HW135396   3.809   0.582   4.203  0.6370 -1.5706  1.1072
 7979SOL    HW235397   3.942   0.639   4.240  1.1161 -1.6162  1.4286
 7980SOL     OW35398   4.673   1.290   5.564  0.3220 -0.1083  0.2440
 7980SOL    HW135399   4.710   1.203   5.575  0.4540 -0.4294 -2.6878
 7980SOL    HW235400   4.683   1.334   5.649  0.7578  1.2256 -0.4982
 7981SOL     OW35401   0.096   0.892   8.852  0.5286 -0.1366  0.0394
 7981SOL    HW135402   0.188   0.910   8.832  0.1652  1.0380 -0.6164
 7981SOL    HW235403   0.093   0.797   8.849 -2.4749 -0.0387  0.0736
 7982SOL     OW35404   3.954   3.160   9.060  0.9210  0.3399  0.2233
 7982SOL    HW135405   4.039   3.190   9.092  1.1933 -1.4941  1.2021
 7982SOL    HW235406   3.949   3.213   8.981  0.9347 -0.6756 -0.4554
 7983SOL     OW35407   2.113   3.570   2.186 -0.6026 -0.5503  0.7315
 7983SOL    HW135408   2.050   3.639   2.210  0.4541  1.2793 -1.6935
 7983SOL    HW235409   2.069   3.545   2.105  1.2653  1.3726 -0.8882
 7984SOL     OW35410   1.607   1.746   3.255  0.2862 -0.3804  0.1068
 7984SOL    HW135411   1.637   1.775   3.169  0.4451 -1.3218 -0.1546
 7984SOL    HW235412   1.512   1.737   3.247  0.1035  2.4181 -0.7675
 7985SOL     OW35413   0.185   0.105  12.908  0.4394 -0.5793 -0.2539
 7985SOL    HW135414   0.240   0.180  12.889  1.7561 -0.9623  1.9616
 7985SOL    HW235415   0.171   0.108  13.003  0.5335 -2.5992 -0.1704
 7986SOL     OW35416   4.451   2.625  14.267 -0.2556 -0.1385  0.0918
 7986SOL    HW135417   4.458   2.701  14.210  0.8433 -0.5436 -0.3227
 7986SOL    HW235418   4.366   2.586  14.249 -0.5638  0.6410 -0.1213
 7987SOL     OW35419   2.248   2.863   6.273  0.0339 -0.0447 -0.3279
 7987SOL    HW135420   2.161   2.901   6.257  0.3607  2.0185  2.8666
 7987SOL    HW235421   2.246   2.805   6.196 -4.9315  0.1293 -0.3450
 7988SOL     OW35422   1.706   1.275   3.998 -0.6083 -0.1235 -0.4664
 7988SOL    HW135423   1.660   1.346   4.043 -0.0883  0.7863 -1.3594
 7988SOL    HW235424   1.796   1.275   4.031  0.1076  2.0424 -2.4462
 7989SOL     OW35425   1.572   4.458   6.937  0.4967  0.0262  0.0176
 7989SOL    HW135426   1.599   4.550   6.937 -0.9795  0.4585 -1.4718
 7989SOL    HW235427   1.658   4.424   6.960 -0.1547 -1.4763  0.2071
 7990SOL     OW35428   2.682   1.115   8.320 -0.4140  0.0209 -0.2999
 7990SOL    HW135429   2.599   1.137   8.361 -0.5696 -0.9781 -0.0799
 7990SOL    HW235430   2.681   1.153   8.232 -1.4418  1.7220  0.4464
 7991SOL     OW35431   4.217   1.394   2.058 -0.4286  0.0787 -0.2120
 7991SOL    HW135432   4.272   1.339   2.003 -1.6064 -0.8504 -0.4508
 7991SOL    HW235433   4.245   1.375   2.148 -1.2685  1.3864  0.3281
 7992SOL     OW35434   3.221   2.391  10.124 -0.2224 -0.5087  0.2810
 7992SOL    HW135435   3.133   2.411  10.091  0.4637  2.3858  0.2035
 7992SOL    HW235436   3.279   2.400  10.049  1.4191 -1.5911  1.4426
 7993SOL     OW35437   1.995   0.770  12.962  0.1363  0.0482 -0.7207
 7993SOL    HW135438   2.060   0.822  13.011  0.2041  0.2754 -1.0552
 7993SOL    HW235439   1.999   0.695  13.022 -3.4762  1.9592  1.8534
 7994SOL     OW35440   1.709   4.665   4.556  0.4822 -0.1258 -0.2418
 7994SOL    HW135441   1.622   4.667   4.516 -0.7953 -0.4049  2.5584
 7994SOL    HW235442   1.742   0.021   4.513  0.3148 -0.3290 -0.7404
 7995SOL     OW35443   0.626   1.676   9.461 -0.3248 -0.2217  0.1696
 7995SOL    HW135444   0.536   1.704   9.476  0.4328  2.0481  0.4595
 7995SOL    HW235445   0.612   1.619   9.385 -0.8953  0.4648 -0.2407
 7996SOL     OW35446   2.715   2.215  17.441  1.0496 -0.6079 -0.3648
 7996SOL    HW135447   2.726   2.296  17.492  1.1539  0.5691 -2.2826
 7996SOL    HW235448   2.708   2.254  17.354  1.7842 -0.2767 -0.2793
 7997SOL     OW35449   1.361   2.006   1.762 -0.0541  0.1845  0.5616
 7997SOL    HW135450   1.279   1.963   1.784  0.9252 -1.9274  0.1468
 7997SOL    HW235451   1.420   1.965   1.825  2.2628 -0.2164 -1.8675
 7998SOL     OW35452   2.300   0.423   6.096  0.2589  0.1963 -0.2204
 7998SOL    HW135453   2.345   0.343   6.124  1.6443  0.4993 -1.5958
 7998SOL    HW235454   2.245   0.435   6.173  2.7854 -0.3745  1.6731
 7999SOL     OW35455   2.585   0.268  11.583 -0.8631  0.7310  0.0857
 7999SOL    HW135456   2.581   0.347  11.529 -0.6299  0.6845 -0.0027
 7999SOL    HW235457   2.498   0.283  11.619 -1.1587  0.4686 -0.5199
 8000SOL     OW35458   1.030   0.849   3.383 -0.1836 -0.0469 -0.0145
 8000SOL    HW135459   1.016   0.830   3.476  1.1227 -0.7072  0.0496
 8000SOL    HW235460   1.054   0.760   3.356  0.1878 -0.1560  0.6862
 8001SOL     OW35461   2.382   1.702  11.258 -0.1322 -0.2897 -0.5922
 8001SOL    HW135462   2.460   1.747  11.227  2.0101 -2.3178  1.8394
 8001SOL    HW235463   2.365   1.625  11.204  0.2249 -1.1094  0.4721
 8002SOL     OW35464   1.147   0.834   8.468 -0.2632 -0.0061  0.4357
 8002SOL    HW135465   1.158   0.902   8.402  1.4568 -0.8280 -0.1097
 8002SOL    HW235466   1.235   0.803   8.486  1.0162  3.5628  0.2612
 8003SOL     OW35467   2.155   4.402  11.925  0.1514 -0.4623  0.0205
 8003SOL    HW135468   2.169   4.316  11.886  0.2379 -0.7275  0.6339
 8003SOL    HW235469   2.112   4.374  12.006 -0.3465  0.9160  0.2306
 8004SOL     OW35470   1.808   1.745   9.348 -0.2228  0.4920  0.3826
 8004SOL    HW135471   1.727   1.744   9.400 -1.7860  2.5778 -2.0188
 8004SOL    HW235472   1.781   1.800   9.275 -0.8758 -1.0130 -0.5080
 8005SOL     OW35473   2.506   0.645   4.377 -0.4737 -0.1841 -0.6471
 8005SOL    HW135474   2.580   0.706   4.381 -0.6939  0.0814 -0.5888
 8005SOL    HW235475   2.462   0.691   4.449 -1.6283  1.0131 -2.1037
 8006SOL     OW35476   2.470   3.458   8.726  0.2847 -0.0825  0.2702
 8006SOL    HW135477   2.553   3.485   8.766  1.0977 -1.3312 -0.5605
 8006SOL    HW235478   2.475   3.503   8.641  1.4039 -0.7816 -0.0376
 8007SOL     OW35479   1.415   4.024   1.128 -0.0100 -0.3261 -0.3468
 8007SOL    HW135480   1.387   4.069   1.048  0.4388  2.5925  1.1445
 8007SOL    HW235481   1.331   4.014   1.174  1.2650 -2.3262  1.5299
 8008SOL     OW35482   3.199   0.003  14.093  0.0300 -0.1319  0.5588
 8008SOL    HW135483   3.218   0.093  14.068 -0.6289 -0.2598 -0.3893
 8008SOL    HW235484   3.184   0.015  14.187 -0.6753 -1.4355  0.6166
 8009SOL     OW35485   3.267   1.682   5.468 -0.4722 -0.5456  0.2144
 8009SOL    HW135486   3.339   1.635   5.426 -0.0010  1.6116 -1.3467
 8009SOL    HW235487   3.199   1.655   5.406 -0.4854 -1.0892  0.4608
 8010SOL     OW35488   1.358   3.895   7.985 -0.0162  0.1139  0.4892
 8010SOL    HW135489   1.353   3.983   8.020 -0.7337  0.3946 -0.3103
 8010SOL    HW235490   1.391   3.887   7.895 -3.5485  0.4879 -0.8365
 8011SOL     OW35491   3.844   2.877   9.069 -0.0372 -0.0461 -0.2704
 8011SOL    HW135492   3.902   2.947   9.040  3.2174 -2.1500  1.2681
 8011SOL    HW235493   3.892   2.796   9.056 -0.1723 -0.0656 -0.6483
 8012SOL     OW35494   1.167   3.549   0.029  0.0757 -0.0950  0.0890
 8012SOL    HW135495   1.227   3.486   0.069 -0.5991  0.2286  1.5928
 8012SOL    HW235496   1.217   3.619  17.682  0.3167  0.1043  0.7169
 8013SOL     OW35497   2.855   4.160  15.646  0.2260  0.3932  0.3289
 8013SOL    HW135498   2.939   4.148  15.602  0.0821 -0.6923  0.3357
 8013SOL    HW235499   2.834   4.070  15.672  3.5119 -0.9278 -1.5482
 8014SOL     OW35500   2.364   0.891   7.352 -0.3574 -0.1955 -0.1297
 8014SOL    HW135501   2.455   0.864   7.365 -0.9075 -1.2190  1.4775
 8014SOL    HW235502   2.332   0.822   7.409 -1.4917 -0.8917 -1.6208
 8015SOL     OW35503   2.499   1.516   4.890 -0.0777 -0.3861 -0.0004
 8015SOL    HW135504   2.553   1.479   4.960  1.3513 -0.2687 -1.0486
 8015SOL    HW235505   2.439   1.575   4.937  1.5498  0.8734  0.4996
 8016SOL     OW35506   4.317   3.727   4.528 -0.2843  0.3616 -0.1017
 8016SOL    HW135507   4.305   3.773   4.445  1.9496 -1.9213 -1.6732
 8016SOL    HW235508   4.234   3.680   4.539 -0.3466  0.7948  1.2786
 8017SOL     OW35509   1.521   1.194   4.968 -0.4716  0.3420  0.3698
 8017SOL    HW135510   1.574   1.252   5.021 -1.5947  1.5808  0.1416
 8017SOL    HW235511   1.528   1.107   5.007  0.3412 -0.1442 -0.8467
 8018SOL     OW35512   2.923   2.125   1.362 -0.2292 -0.2713  0.2010
 8018SOL    HW135513   2.919   2.074   1.281 -0.2242  1.8263 -1.1176
 8018SOL    HW235514   2.830   2.121   1.385 -0.5821 -0.7806 -1.2628
 8019SOL     OW35515   0.301   2.273   6.639 -0.0181  0.3016 -0.3795
 8019SOL    HW135516   0.377   2.292   6.693 -0.6415 -0.7001  0.8326
 8019SOL    HW235517   0.239   2.236   6.702  1.3091  0.9023  1.2773
 8020SOL     OW35518   2.713   0.602   3.748 -0.1980  0.4242 -0.0176
 8020SOL    HW135519   2.637   0.649   3.713  0.4176  1.8327  0.5429
 8020SOL    HW235520   2.788   0.651   3.713  0.0130  1.2848  1.6288
 8021SOL     OW35521   3.701   1.328  16.408 -0.1558 -0.0045 -0.4693
 8021SOL    HW135522   3.742   1.257  16.360  1.6410  1.5119 -1.1774
 8021SOL    HW235523   3.700   1.293  16.497 -1.6478 -1.8901 -1.2306
 8022SOL     OW35524   1.729   4.041   4.489 -0.1660 -0.1328 -0.2519
 8022SOL    HW135525   1.657   4.101   4.507 -0.7128 -1.4976  1.9416
 8022SOL    HW235526   1.800   4.094   4.525  0.3623  0.1656 -1.7128
 8023SOL     OW35527   1.193   3.660   2.926 -0.0198 -0.2799 -0.2859
 8023SOL    HW135528   1.185   3.570   2.957 -0.6734  0.1956  0.9340
 8023SOL    HW235529   1.281   3.658   2.889 -0.6597 -0.0909 -1.8393
 8024SOL     OW35530   3.574   0.283   9.471  0.3085  0.3051  0.2433
 8024SOL    HW135531   3.639   0.229   9.515 -1.2224  0.0181  2.1809
 8024SOL    HW235532   3.547   0.224   9.401  0.6766 -0.5385  0.8114
 8025SOL     OW35533   3.076   0.474   1.643 -0.1706  0.0305 -0.8248
 8025SOL    HW135534   3.083   0.535   1.716  2.5440 -1.0697 -0.1782
 8025SOL    HW235535   3.087   0.393   1.694  1.0299  0.6053 -0.1868
 8026SOL     OW35536   3.428   1.468   8.398  0.3568 -0.9269  0.2808
 8026SOL    HW135537   3.349   1.442   8.350 -0.2789  2.1367 -0.3631
 8026SOL    HW235538   3.441   1.561   8.376 -1.8513 -0.4771  0.8176
 8027SOL     OW35539   0.752   4.473  10.827  0.1472 -0.8468  0.2230
 8027SOL    HW135540   0.744   4.461  10.732 -1.0073  0.2575  0.1824
 8027SOL    HW235541   0.845   4.455  10.838 -0.2338 -2.5247  0.6768
 8028SOL     OW35542   4.699   3.503   0.603 -0.1758  0.0566  0.6657
 8028SOL    HW135543   4.709   3.598   0.592  1.8613  0.0968  2.9400
 8028SOL    HW235544   4.718   3.465   0.517 -1.7065 -0.2784  0.4642
 8029SOL     OW35545   0.577   2.802  12.640  0.1596  0.0130  0.4359
 8029SOL    HW135546   0.625   2.747  12.579  0.2131 -1.5461  1.8863
 8029SOL    HW235547   0.522   2.733  12.678  0.0832 -0.5352 -0.6873
 8030SOL     OW35548   4.235   1.445   5.240 -0.2655  0.7348 -0.0768
 8030SOL    HW135549   4.218   1.503   5.166 -0.4340  0.6180 -0.1314
 8030SOL    HW235550   4.308   1.390   5.212  1.1353  1.9257  1.2307
 8031SOL     OW35551   1.694   4.576  11.931 -0.3798 -0.5064 -0.6576
 8031SOL    HW135552   1.725   4.499  11.978 -1.0779 -0.0009  0.6571
 8031SOL    HW235553   1.674   4.546  11.843  2.8591 -0.2520 -1.4814
 8032SOL     OW35554   3.964   3.714  13.592  0.3914 -0.0732 -0.0645
 8032SOL    HW135555   3.943   3.733  13.683 -1.7372 -1.5684 -0.2302
 8032SOL    HW235556   4.046   3.763  13.593  1.5529 -2.0583  1.0382
 8033SOL     OW35557   1.503   3.756  11.923  0.2559  0.3710  0.4024
 8033SOL    HW135558   1.497   3.731  11.831 -2.1874 -0.3831  0.7662
 8033SOL    HW235559   1.441   3.828  11.931 -0.2257  0.1086 -0.9903
 8034SOL     OW35560   2.769   0.852  14.573 -0.6268 -0.1113 -0.6476
 8034SOL    HW135561   2.711   0.789  14.531  0.8515 -1.2266 -0.9821
 8034SOL    HW235562   2.848   0.852  14.519 -1.5594  2.3629 -2.0521
 8035SOL     OW35563   1.882   2.599   8.713  0.2470 -0.1606  0.1540
 8035SOL    HW135564   1.860   2.634   8.627 -1.4133 -0.4132  0.4686
 8035SOL    HW235565   1.838   2.515   8.707 -1.1809  0.5556  0.4511
 8036SOL     OW35566   4.430   4.384   4.396 -0.3304  0.3135  0.1890
 8036SOL    HW135567   4.499   4.357   4.335  0.0080  0.3235  0.5612
 8036SOL    HW235568   4.454   4.475   4.411  0.7792  0.4230 -2.2433
 8037SOL     OW35569   1.350   1.734  10.194 -0.0063  0.6108  0.2585
 8037SOL    HW135570   1.381   1.743  10.284  1.0788  2.4848 -0.2897
 8037SOL    HW235571   1.425   1.779  10.154  0.6189  0.7117  1.5454
 8038SOL     OW35572   0.909   1.226   1.001  0.1127  1.3741  0.1451
 8038SOL    HW135573   0.867   1.157   1.053  0.0901  2.5781  1.7144
 8038SOL    HW235574   0.990   1.183   0.973 -1.0923 -0.1803 -0.9750
 8039SOL     OW35575   2.987   0.562   3.396 -0.7468 -0.2561  0.1529
 8039SOL    HW135576   2.920   0.615   3.439 -1.4560 -1.0260 -0.0001
 8039SOL    HW235577   3.070   0.599   3.424 -1.2356  0.3854  0.7715
 8040SOL     OW35578   4.511   2.035   2.900 -0.2071 -0.6260  0.3604
 8040SOL    HW135579   4.476   2.020   2.988  2.2482  1.3223  1.6796
 8040SOL    HW235580   4.468   2.120   2.887 -1.4018 -1.1028  1.1793
 8041SOL     OW35581   4.398   0.299  16.589  0.3838  0.3619  0.6842
 8041SOL    HW135582   4.448   0.324  16.511 -0.3839 -1.3622 -0.3465
 8041SOL    HW235583   4.466   0.272  16.650  2.5609  0.6194 -1.6453
 8042SOL     OW35584   0.552   2.626  10.179  0.4655 -0.3757 -0.1567
 8042SOL    HW135585   0.624   2.583  10.225  0.3915 -0.9246 -0.5547
 8042SOL    HW235586   0.607   2.646  10.103 -0.4292  0.0475 -0.6878
 8043SOL     OW35587   1.122   1.135   1.836 -0.2480  0.5178 -0.0668
 8043SOL    HW135588   1.203   1.186   1.835 -0.2652  0.5799  1.2041
 8043SOL    HW235589   1.078   1.182   1.907 -1.0900 -0.4935  0.0811
 8044SOL     OW35590   3.304   4.405   4.178 -0.3222  0.2643 -0.1498
 8044SOL    HW135591   3.290   4.500   4.182 -0.1575  0.4147 -2.8405
 8044SOL    HW235592   3.307   4.396   4.083 -1.4421  1.5912 -0.3104
 8045SOL     OW35593   3.029   2.092  14.673 -0.4045 -0.7039  0.4828
 8045SOL    HW135594   2.945   2.054  14.699  0.5701 -2.2443  1.3709
 8045SOL    HW235595   3.069   2.021  14.622  0.3996  0.1947 -0.1335
 8046SOL     OW35596   3.120   1.173   7.332 -0.1901  0.1122 -0.0092
 8046SOL    HW135597   3.159   1.184   7.418  1.3165  0.2558 -0.7081
 8046SOL    HW235598   3.188   1.201   7.271  0.7208 -1.6790  0.2034
 8047SOL     OW35599   0.572   0.537   8.223  0.6090  0.3347  0.0023
 8047SOL    HW135600   0.546   0.484   8.298  0.3941  1.1547  0.5059
 8047SOL    HW235601   0.642   0.482   8.189  0.2890  0.6714 -1.1871
 8048SOL     OW35602   1.101   4.516   3.719 -0.0019 -0.1078 -0.3576
 8048SOL    HW135603   1.097   4.446   3.785  1.0049 -2.9211 -3.2754
 8048SOL    HW235604   1.193   4.543   3.713  0.0158 -0.1398 -0.2359
 8049SOL     OW35605   2.942   4.227   0.709 -0.4138 -0.3918 -0.0943
 8049SOL    HW135606   2.951   4.204   0.801 -1.9638  1.2817  0.4497
 8049SOL    HW235607   3.022   4.278   0.699 -0.8573  0.7800  2.3989
 8050SOL     OW35608   1.399   0.559   3.786 -0.0794 -0.1140 -0.4570
 8050SOL    HW135609   1.442   0.623   3.730  0.1693  0.1522  0.0369
 8050SOL    HW235610   1.344   0.515   3.721  1.3754 -2.9876  0.2634
 8051SOL     OW35611   3.635   2.610  16.703  0.3254 -0.6789  0.0173
 8051SOL    HW135612   3.554   2.569  16.673  1.3213 -1.1780 -1.9445
 8051SOL    HW235613   3.640   2.671  16.630  1.5932  0.9589  1.4642
 8052SOL     OW35614   4.627   0.018   6.136  0.7730 -0.1362 -0.1469
 8052SOL    HW135615   4.589   0.006   6.049 -0.3763 -0.6283  0.4311
 8052SOL    HW235616   4.699   4.678   6.127  0.7971 -0.3805  1.7133
 8053SOL     OW35617   2.838   0.129   3.940 -0.5897 -0.0063  0.0676
 8053SOL    HW135618   2.892   0.208   3.938 -0.1150 -0.3614 -1.5118
 8053SOL    HW235619   2.757   0.160   3.899  0.2115  1.7960 -0.1397
 8054SOL     OW35620   0.193   3.603   4.410  0.4999 -0.0046  0.5550
 8054SOL    HW135621   0.230   3.515   4.421 -0.3913 -0.4814 -0.2802
 8054SOL    HW235622   0.122   3.573   4.354  0.6892 -1.0940  0.8769
 8055SOL     OW35623   3.725   2.466   1.003  0.0077  0.2953  0.4079
 8055SOL    HW135624   3.775   2.384   1.014  2.9758  1.9752 -0.5539
 8055SOL    HW235625   3.652   2.437   1.059 -0.5511 -1.4529 -1.2345
 8056SOL     OW35626   1.117   2.756  14.294  0.1914  0.1527 -0.6775
 8056SOL    HW135627   1.078   2.806  14.222  0.6687 -0.3773 -1.3017
 8056SOL    HW235628   1.049   2.691  14.311  1.8390 -1.1137  1.0556
 8057SOL     OW35629   3.627   1.698   3.636 -0.4684  0.3881  0.3740
 8057SOL    HW135630   3.619   1.661   3.724 -0.8154  0.3670  0.3349
 8057SOL    HW235631   3.650   1.618   3.590 -0.3311  0.1340  0.8800
 8058SOL     OW35632   3.303   1.537  16.959  0.1010  0.2157  0.3886
 8058SOL    HW135633   3.384   1.486  16.964 -0.5082 -0.8753 -0.9653
 8058SOL    HW235634   3.325   1.617  17.006 -1.4930 -0.3509  2.0904
 8059SOL     OW35635   0.283   3.082   0.658  0.3261 -0.2823 -0.0079
 8059SOL    HW135636   0.200   3.127   0.640  0.1278 -0.0455  1.4945
 8059SOL    HW235637   0.248   2.994   0.676 -0.1948 -0.1140 -0.1979
 8060SOL     OW35638   2.584   0.871  12.400  0.1700  0.1489 -0.3132
 8060SOL    HW135639   2.570   0.956  12.358  0.0052 -0.4189 -1.4022
 8060SOL    HW235640   2.495   0.846  12.422 -0.3471  1.8898 -0.4391
 8061SOL     OW35641   0.782   2.381   0.039  0.4890  0.1448 -0.1300
 8061SOL    HW135642   0.726   2.355   0.112  1.0383 -3.9324 -1.2077
 8061SOL    HW235643   0.771   2.476   0.046 -3.1169 -0.4072  1.7208
 8062SOL     OW35644   2.354   1.858   6.777 -0.3712 -0.2697 -0.1617
 8062SOL    HW135645   2.301   1.912   6.835  0.2787 -1.5673  1.6522
 8062SOL    HW235646   2.441   1.894   6.793  0.2034 -1.4195 -0.6389
 8063SOL     OW35647   0.250   3.796   5.349 -0.1483  0.1284 -0.5389
 8063SOL    HW135648   0.207   3.769   5.268  0.6127 -1.6856 -0.3242
 8063SOL    HW235649   0.187   3.853   5.394 -2.0394 -1.5228 -1.1170
 8064SOL     OW35650   3.511   1.852   5.318 -0.4872  0.1295  0.4294
 8064SOL    HW135651   3.500   1.757   5.321  0.1131  0.0518  0.1058
 8064SOL    HW235652   3.506   1.875   5.411 -1.3072 -1.4761  0.7920
 8065SOL     OW35653   2.877   0.763  10.211  0.6267 -0.5754  0.1249
 8065SOL    HW135654   2.822   0.802  10.143 -2.3530 -0.3405  2.6964
 8065SOL    HW235655   2.900   0.839  10.264 -3.3380  1.2889 -0.8472
 8066SOL     OW35656   0.699   0.711   8.388 -0.4067  0.0671 -0.0524
 8066SOL    HW135657   0.632   0.667   8.335 -1.0194  0.8172  0.1029
 8066SOL    HW235658   0.738   0.759   8.315  0.6290 -0.0455  0.4215
 8067SOL     OW35659   4.594   2.589   5.225 -0.7550 -0.4583 -0.1218
 8067SOL    HW135660   4.631   2.544   5.149 -1.5284  0.1444 -0.8537
 8067SOL    HW235661   4.673   2.616   5.272 -0.1346 -1.1637 -0.7558
 8068SOL     OW35662   2.181   4.411   7.143  0.1574  0.5741  0.0683
 8068SOL    HW135663   2.237   4.339   7.172 -1.0695  0.2347  1.6255
 8068SOL    HW235664   2.212   4.491   7.187 -0.1450  0.7533 -0.0465
 8069SOL     OW35665   1.541   0.803   2.755 -0.9468  0.5857 -0.5914
 8069SOL    HW135666   1.597   0.738   2.713 -2.5463 -0.3867 -1.2316
 8069SOL    HW235667   1.590   0.884   2.767 -1.1995  0.4312  1.5214
 8070SOL     OW35668   1.230   2.967   2.947  0.1938  0.5209  0.2261
 8070SOL    HW135669   1.205   2.916   2.870 -0.3535  0.2770  0.5677
 8070SOL    HW235670   1.224   3.059   2.921 -2.2462  0.2119 -0.2194
 8071SOL     OW35671   2.908   0.732   4.547 -0.0318  0.6697 -0.0567
 8071SOL    HW135672   2.858   0.695   4.474 -0.1446  0.3881  0.1664
 8071SOL    HW235673   2.961   0.656   4.568  0.5218  0.4631 -2.1498
 8072SOL     OW35674   4.142   1.144   5.082 -0.2844  0.0059  0.7274
 8072SOL    HW135675   4.050   1.118   5.076 -0.1645 -0.2508 -0.0914
 8072SOL    HW235676   4.160   1.112   5.170  0.2417 -0.1800  0.5491
 8073SOL     OW35677   2.648   4.589   4.762  0.0122  0.4258  0.4222
 8073SOL    HW135678   2.571   4.594   4.705  0.4008  1.8410  0.0118
 8073SOL    HW235679   2.620   4.511   4.810 -1.8017  0.2887 -0.8571
 8074SOL     OW35680   2.453   3.146   0.604  0.0730  0.4868  0.3692
 8074SOL    HW135681   2.534   3.165   0.556  0.3807 -2.2115 -0.2276
 8074SOL    HW235682   2.484   3.077   0.663  1.1559  0.3784 -0.3212
 8075SOL     OW35683   0.222   2.763   9.327 -0.3406  0.0306  0.4612
 8075SOL    HW135684   0.146   2.707   9.341 -1.4413  1.0536 -1.4921
 8075SOL    HW235685   0.207   2.793   9.237 -0.8792  2.6215  1.4398
 8076SOL     OW35686   0.137   3.074   2.733 -0.0072  0.5182 -0.3037
 8076SOL    HW135687   0.084   3.002   2.767  0.5121  0.9514  1.4145
 8076SOL    HW235688   0.223   3.046   2.765 -0.9348 -2.0264 -0.0694
 8077SOL     OW35689   2.037   0.288  16.865  0.0786 -0.0111 -0.2923
 8077SOL    HW135690   2.044   0.193  16.858  0.8298 -0.0019  0.3321
 8077SOL    HW235691   1.945   0.292  16.892  0.0893 -3.5514  0.2429
 8078SOL     OW35692   2.310   3.301   8.171 -0.6800  0.5635  0.4685
 8078SOL    HW135693   2.292   3.254   8.090 -2.9288 -0.9823  1.8497
 8078SOL    HW235694   2.392   3.348   8.158 -2.0770  2.4171 -1.5337
 8079SOL     OW35695   1.076   3.945   5.631  0.6283 -0.0588  0.3818
 8079SOL    HW135696   1.042   3.876   5.688 -1.7307 -0.4048 -1.4232
 8079SOL    HW235697   1.095   4.008   5.700  1.3087 -0.3449  0.4663
 8080SOL     OW35698   1.689   3.997  17.654  0.3525  0.1381  0.0088
 8080SOL    HW135699   1.698   3.909  17.617  2.3608  0.1966  0.3415
 8080SOL    HW235700   1.611   4.028  17.607  0.2726  1.3055  0.9119
 8081SOL     OW35701   0.108   2.566  15.889 -0.3495  0.0293  0.0984
 8081SOL    HW135702   0.040   2.619  15.848 -0.1711  1.7737  2.0959
 8081SOL    HW235703   0.159   2.549  15.810 -0.3201 -1.9397  0.5368
 8082SOL     OW35704   4.250   2.867   2.966  0.0155  0.0633 -0.1108
 8082SOL    HW135705   4.286   2.870   3.055 -1.0336 -0.0980  0.3125
 8082SOL    HW235706   4.157   2.877   2.981 -0.0612 -0.3399 -0.3133
 8083SOL     OW35707   0.797   2.532   2.537 -0.0529  0.4502 -0.4058
 8083SOL    HW135708   0.815   2.626   2.538 -0.2458  0.5195 -3.6275
 8083SOL    HW235709   0.746   2.524   2.456  0.6283 -1.4580 -0.6484
 8084SOL     OW35710   3.346   1.230   7.932  0.0304  0.0853  0.0705
 8084SOL    HW135711   3.322   1.201   8.020 -1.5028  0.1597 -0.3177
 8084SOL    HW235712   3.350   1.144   7.890 -0.1824 -0.0776  0.3817
 8085SOL     OW35713   4.419   4.653   1.102  0.4904  0.2962 -0.0621
 8085SOL    HW135714   4.372   4.720   1.152 -1.6323 -0.7777 -0.6456
 8085SOL    HW235715   4.477   4.628   1.175  1.5154 -0.1753 -1.0476
 8086SOL     OW35716   0.141   3.527  10.620  0.3322 -0.7091 -0.2345
 8086SOL    HW135717   0.157   3.433  10.612  0.7781 -0.4650 -2.2478
 8086SOL    HW235718   0.171   3.557  10.705  1.5116 -0.2241 -0.8294
 8087SOL     OW35719   0.534   0.143  16.147 -0.4239 -0.9956  0.4031
 8087SOL    HW135720   0.565   0.059  16.181 -0.6470 -0.9674  0.6868
 8087SOL    HW235721   0.592   0.144  16.071 -2.3022  1.4831 -0.9860
 8088SOL     OW35722   2.658   4.314  15.536 -0.1309 -0.2693  0.2055
 8088SOL    HW135723   2.739   4.271  15.563  0.0753  0.5245  0.8377
 8088SOL    HW235724   2.650   4.270  15.451 -1.1892  0.3741 -0.0284
 8089SOL     OW35725   1.668   4.297  15.496 -0.3289  0.3005  0.6163
 8089SOL    HW135726   1.575   4.290  15.474 -0.0234  1.1014 -0.9233
 8089SOL    HW235727   1.672   4.388  15.468  2.7190 -0.1511 -0.4064
 8090SOL     OW35728   0.578   3.315   3.315 -0.3135 -0.3888  0.2520
 8090SOL    HW135729   0.633   3.255   3.366 -1.7001 -1.1138  0.9136
 8090SOL    HW235730   0.524   3.257   3.261  0.0901 -0.6346  0.1058
 8091SOL     OW35731   4.322   0.456   1.661 -0.8830 -0.4240  0.1408
 8091SOL    HW135732   4.356   0.467   1.750  2.4221  3.8897 -1.6725
 8091SOL    HW235733   4.378   0.517   1.612  0.8682 -1.1770  1.2301
 8092SOL     OW35734   0.667   2.959   9.928 -0.0934 -0.6903 -0.6742
 8092SOL    HW135735   0.675   3.007   9.845 -0.2663  1.5110  0.5785
 8092SOL    HW235736   0.737   2.895   9.918 -0.3323 -0.6762 -2.5255
 8093SOL     OW35737   4.616   2.486   1.472 -0.3709 -0.4393  0.2302
 8093SOL    HW135738   4.643   2.394   1.476  2.4041  0.4059  0.7487
 8093SOL    HW235739   4.634   2.504   1.379  0.4563 -3.3978 -0.1934
 8094SOL     OW35740   4.334   3.281   5.682  0.6259 -0.2912 -0.4600
 8094SOL    HW135741   4.366   3.364   5.719  1.1835 -0.7961  0.1869
 8094SOL    HW235742   4.273   3.325   5.623  0.0151  0.8581  0.9984
 8095SOL     OW35743   0.688   4.571   9.550  0.2703  0.4186 -0.2568
 8095SOL    HW135744   0.732   4.486   9.551  2.4365  1.5313  0.1565
 8095SOL    HW235745   0.633   4.573   9.629 -0.2290 -1.2229 -0.5646
 8096SOL     OW35746   4.676   2.665   7.794  0.2514  0.1978 -0.0670
 8096SOL    HW135747   4.600   2.613   7.821  1.6296 -0.4240  2.5326
 8096SOL    HW235748   4.629   2.734   7.746  0.7576 -0.1486 -1.0473
 8097SOL     OW35749   2.147   0.595   5.927 -0.3583 -0.4718  0.3970
 8097SOL    HW135750   2.172   0.525   5.866  2.0772  1.5521 -0.9191
 8097SOL    HW235751   2.183   0.575   6.014  0.3090 -0.4327  0.1296
 8098SOL     OW35752   0.879   1.747   5.802  0.0504  0.0594  0.3547
 8098SOL    HW135753   0.870   1.653   5.818 -1.2670 -0.1167 -1.3733
 8098SOL    HW235754   0.846   1.744   5.712  1.4510 -1.9118 -0.0955
 8099SOL     OW35755   3.546   0.060   8.457  0.4852 -0.0812  0.1049
 8099SOL    HW135756   3.509   0.125   8.517 -1.6265 -0.9252 -0.2811
 8099SOL    HW235757   3.516   0.082   8.369  0.7276  0.8528  0.2639
 8100SOL     OW35758   4.643   0.877  14.578 -0.9637 -0.2085  0.4735
 8100SOL    HW135759   4.563   0.923  14.604 -1.3108  0.4319 -1.7204
 8100SOL    HW235760   4.608   0.803  14.528  4.6670 -0.5675 -2.8749
 8101SOL     OW35761   4.390   0.068   6.452  0.1752 -0.0503 -0.1197
 8101SOL    HW135762   4.346   0.052   6.535 -0.7093  2.5200 -0.0988
 8101SOL    HW235763   4.453   4.720   6.442 -0.7175 -0.9523  0.6603
 8102SOL     OW35764   2.178   2.458   1.619  0.0072  0.3790  0.3438
 8102SOL    HW135765   2.084   2.461   1.638 -1.2225 -1.9290 -5.0783
 8102SOL    HW235766   2.221   2.508   1.687  0.1017  0.3638  0.2958
 8103SOL     OW35767   2.784   2.185   1.946 -0.3411 -0.1169  0.0084
 8103SOL    HW135768   2.776   2.276   1.976 -0.1754 -0.7090  1.8453
 8103SOL    HW235769   2.851   2.194   1.878  1.3014 -0.6052  1.5893
 8104SOL     OW35770   2.598   1.723   5.618 -0.8695 -0.3524 -0.1016
 8104SOL    HW135771   2.565   1.811   5.597  1.3026  0.7900  1.2861
 8104SOL    HW235772   2.675   1.743   5.670 -0.0735 -0.4759 -1.2330
 8105SOL     OW35773   1.424   0.242  17.168  0.0963  0.4391  0.0499
 8105SOL    HW135774   1.493   0.298  17.205  1.6911 -1.7409  0.3610
 8105SOL    HW235775   1.356   0.309  17.158  1.4446  1.5828 -1.4894
 8106SOL     OW35776   3.044   3.695   8.294 -0.4886 -0.4708 -0.6546
 8106SOL    HW135777   3.099   3.717   8.370 -0.8674  2.2165 -1.1420
 8106SOL    HW235778   3.004   3.781   8.282 -0.6953 -0.0592  3.2141
 8107SOL     OW35779   4.182   2.283   6.721 -0.6005 -0.0504  0.0642
 8107SOL    HW135780   4.201   2.377   6.720  1.0371 -0.3310  3.1431
 8107SOL    HW235781   4.165   2.271   6.814 -0.6183  2.7861  0.4481
 8108SOL     OW35782   1.060   4.238  13.166  0.2345  0.6755 -0.9151
 8108SOL    HW135783   1.031   4.298  13.098 -1.0047  2.2934  1.0270
 8108SOL    HW235784   1.112   4.173  13.119  0.6511  2.1301 -2.4431
 8109SOL     OW35785   3.176   3.283   7.618 -0.0406 -0.0456 -0.1807
 8109SOL    HW135786   3.217   3.263   7.534 -1.9196 -2.8146 -0.4377
 8109SOL    HW235787   3.097   3.231   7.602 -0.2954  0.5192 -0.7948
 8110SOL     OW35788   2.829   0.233   4.522 -0.1851  0.2514  0.6922
 8110SOL    HW135789   2.849   0.266   4.434 -0.9588 -0.6429  0.1905
 8110SOL    HW235790   2.735   0.249   4.518  0.0729  1.4769 -0.6681
 8111SOL     OW35791   0.382   3.131   0.085  0.6041 -0.4137  0.2010
 8111SOL    HW135792   0.337   3.202   0.039  0.0454 -1.1866 -0.4499
 8111SOL    HW235793   0.472   3.146   0.056  0.2872 -1.4125 -1.3001
 8112SOL     OW35794   3.453   1.630   1.351 -0.4640  0.0249  0.4004
 8112SOL    HW135795   3.481   1.633   1.442 -3.5254 -2.4312  1.4383
 8112SOL    HW235796   3.364   1.664   1.360 -1.2709 -2.1798  0.9779
 8113SOL     OW35797   2.302   0.033   6.692 -0.0805  0.0423 -0.2812
 8113SOL    HW135798   2.256   4.672   6.693  1.7518 -0.9628  2.7921
 8113SOL    HW235799   2.389   0.013   6.658 -0.2602  1.7509 -1.6998
 8114SOL     OW35800   2.599   1.725   8.762  0.1073  0.0260  0.2398
 8114SOL    HW135801   2.659   1.688   8.826  2.8933  0.2130 -2.2936
 8114SOL    HW235802   2.592   1.818   8.786  0.7693  0.0648  0.2636
 8115SOL     OW35803   2.111   0.286   1.344 -0.3637 -0.2083 -0.2411
 8115SOL    HW135804   2.177   0.336   1.294  0.3238  0.3769  1.2570
 8115SOL    HW235805   2.143   0.299   1.433 -1.7679  1.2883  0.0359
 8116SOL     OW35806   0.948   3.394   7.056 -0.3374  0.0468  0.3147
 8116SOL    HW135807   0.901   3.323   7.098 -2.5754  1.4880  0.2350
 8116SOL    HW235808   0.981   3.353   6.976  1.1120  0.1396  0.8568
 8117SOL     OW35809   0.409   1.304   8.286  0.7559  0.5534 -0.2288
 8117SOL    HW135810   0.479   1.255   8.243  0.7173 -0.3576  0.7267
 8117SOL    HW235811   0.353   1.233   8.318 -1.1447  2.0904 -0.1389
 8118SOL     OW35812   0.306   3.381   2.522 -0.1736 -0.5900  0.0808
 8118SOL    HW135813   0.336   3.394   2.432 -2.5406  0.3568 -0.5651
 8118SOL    HW235814   0.253   3.303   2.510 -1.9618  0.7593 -0.8807
 8119SOL     OW35815   0.691   2.548   3.767  0.4811 -0.3357  0.1709
 8119SOL    HW135816   0.770   2.586   3.729  0.4672  0.4783  0.9418
 8119SOL    HW235817   0.663   2.629   3.810 -0.5005 -0.4349 -0.2993
 8120SOL     OW35818   3.442   0.511  16.387 -0.0408 -0.1551  0.7030
 8120SOL    HW135819   3.366   0.490  16.440 -0.1078  0.1940  0.7444
 8120SOL    HW235820   3.453   0.431  16.335 -1.0379 -0.1037  0.4200
 8121SOL     OW35821   2.625   2.207   1.199  0.0338 -0.0128 -0.2817
 8121SOL    HW135822   2.658   2.130   1.153 -1.1496 -0.2882 -0.6739
 8121SOL    HW235823   2.626   2.173   1.288 -1.8501  0.7438  0.0339
 8122SOL     OW35824   0.446   0.516   3.594 -0.2953  0.8061  0.0281
 8122SOL    HW135825   0.493   0.442   3.557  0.8704  1.2382  0.6400
 8122SOL    HW235826   0.509   0.585   3.572  0.0934  0.6188  0.5521
 8123SOL     OW35827   3.099   3.956  17.164  0.0047 -0.0496  0.3999
 8123SOL    HW135828   3.148   3.894  17.112  0.8108 -1.4145  2.7646
 8123SOL    HW235829   3.011   3.918  17.154 -1.4432  2.8201  2.2123
 8124SOL     OW35830   0.956   0.973   7.801 -0.1454  0.1762  0.1030
 8124SOL    HW135831   0.990   0.918   7.872  0.4564  1.7764  1.0624
 8124SOL    HW235832   0.983   0.925   7.723  1.8476  1.5456 -0.0602
 8125SOL     OW35833   4.045   4.558   8.980 -0.3887  0.0650  0.6791
 8125SOL    HW135834   4.124   4.611   8.972  0.8684 -1.7667  1.0795
 8125SOL    HW235835   4.076   4.470   8.959  2.0096  1.6060 -2.2261
 8126SOL     OW35836   0.972   2.833   7.738 -0.0310 -0.8872 -0.0294
 8126SOL    HW135837   0.964   2.740   7.760 -1.6017 -0.9435 -0.8469
 8126SOL    HW235838   1.007   2.856   7.824  1.1411  2.1310 -1.3128
 8127SOL     OW35839   2.918   0.007   2.883 -0.5617  0.2174  0.3472
 8127SOL    HW135840   2.916   0.037   2.792  0.5818 -1.8133 -0.3338
 8127SOL    HW235841   2.930   4.637   2.870 -0.2827 -0.1166  2.9400
 8128SOL     OW35842   1.809   0.581  14.804 -0.4637  0.0198 -0.4040
 8128SOL    HW135843   1.761   0.525  14.864  1.3974 -0.8775  0.2490
 8128SOL    HW235844   1.746   0.654  14.804  0.3045  0.6886 -0.2300
 8129SOL     OW35845   1.082   1.912   5.693 -0.3048 -0.6656  0.1566
 8129SOL    HW135846   1.021   1.854   5.738 -0.7198 -1.7417 -1.8167
 8129SOL    HW235847   1.166   1.881   5.729 -0.3688  0.7639  1.4966
 8130SOL     OW35848   0.317   0.883  12.643  0.3096 -0.3375  0.3376
 8130SOL    HW135849   0.368   0.948  12.691 -0.3839  0.2707  0.2654
 8130SOL    HW235850   0.366   0.891  12.562  0.1015  1.4344  0.3779
 8131SOL     OW35851   0.351   3.355  17.623  0.1381 -0.3268  0.2448
 8131SOL    HW135852   0.430   3.385  17.668 -0.4429  0.8880  0.4505
 8131SOL    HW235853   0.382   3.329  17.537  3.1135  1.8036  0.6798
 8132SOL     OW35854   4.500   2.274   5.447 -0.2915 -0.0493 -0.2936
 8132SOL    HW135855   4.537   2.283   5.360 -0.2656 -1.1223 -0.3965
 8132SOL    HW235856   4.547   2.195   5.474 -1.0099 -0.0684  0.9277
 8133SOL     OW35857   0.401   0.545   1.615  0.0403 -0.0866 -0.3872
 8133SOL    HW135858   0.419   0.509   1.702  1.2958  1.2669 -0.0926
 8133SOL    HW235859   0.358   0.627   1.636 -0.2716 -0.4869  0.5394
 8134SOL     OW35860   2.629   4.357  11.779 -0.0543 -0.1363  0.4375
 8134SOL    HW135861   2.593   4.277  11.816  1.8787 -1.0565  0.2911
 8134SOL    HW235862   2.688   4.317  11.716  1.2744  0.8334  1.0575
 8135SOL     OW35863   3.391   2.852   4.643  0.1503  0.1183 -0.2833
 8135SOL    HW135864   3.428   2.937   4.668 -1.7960  0.7694  0.3978
 8135SOL    HW235865   3.429   2.804   4.717 -0.2692  0.5538  0.2112
 8136SOL     OW35866   4.615   3.455  16.137  0.2035 -0.1861  0.1793
 8136SOL    HW135867   4.549   3.398  16.099  0.3983 -1.2722  1.4563
 8136SOL    HW235868   4.563   3.524  16.177  0.2041  0.2525 -0.5745
 8137SOL     OW35869   1.704   2.878   4.876 -0.6844  0.4588  0.1295
 8137SOL    HW135870   1.780   2.933   4.860 -1.0975  1.2125  0.8144
 8137SOL    HW235871   1.738   2.788   4.875 -1.5531  0.1274 -0.2124
 8138SOL     OW35872   3.196   4.340   3.588 -0.2945  0.3003  0.0091
 8138SOL    HW135873   3.291   4.328   3.579 -0.5850 -0.6442 -1.9323
 8138SOL    HW235874   3.178   4.417   3.534  1.0700  1.8783  1.8047
 8139SOL     OW35875   1.643   0.565   2.357  0.1551 -0.4581 -0.2418
 8139SOL    HW135876   1.737   0.552   2.356  0.5092  2.1825  0.8838
 8139SOL    HW235877   1.631   0.659   2.371 -0.6235 -0.2549 -2.1746
 8140SOL     OW35878   2.365   2.357  16.239 -0.5582 -0.0743  0.0737
 8140SOL    HW135879   2.348   2.435  16.292 -1.1643 -1.0748  1.3332
 8140SOL    HW235880   2.436   2.383  16.180 -0.4834 -0.2441  0.0904
 8141SOL     OW35881   2.774   2.301   7.043 -0.5842 -0.5586  0.1692
 8141SOL    HW135882   2.765   2.362   6.970 -2.2706  1.1700  1.8110
 8141SOL    HW235883   2.848   2.246   7.018 -0.8176  0.4342 -2.6507
 8142SOL     OW35884   3.111   2.913  15.816  0.3406 -0.2131 -0.6164
 8142SOL    HW135885   3.155   2.926  15.732  0.8063 -1.5161 -0.5883
 8142SOL    HW235886   3.020   2.916  15.787  0.4437  2.6167 -0.5944
 8143SOL     OW35887   1.917   2.999   5.142 -0.2917  0.5240  0.3043
 8143SOL    HW135888   1.825   2.976   5.130  0.1716 -0.8798 -0.5998
 8143SOL    HW235889   1.916   3.039   5.228 -1.2721  1.6800 -0.2394
 8144SOL     OW35890   4.121   0.105  11.946  0.7725 -0.5760 -0.2878
 8144SOL    HW135891   4.117   0.195  11.912 -0.6379 -1.0737 -1.4081
 8144SOL    HW235892   4.214   0.115  11.968  0.8358  0.8380 -1.1544
 8145SOL     OW35893   4.081   0.885   2.432 -0.5793  0.1024  0.4417
 8145SOL    HW135894   4.098   0.859   2.341  1.1540  0.3526  0.6935
 8145SOL    HW235895   4.161   0.936   2.441 -1.4353  1.0778  2.4882
 8146SOL     OW35896   2.978   3.260   6.515  0.9731 -0.6054  0.5643
 8146SOL    HW135897   2.963   3.183   6.571  0.9851 -0.5418  0.6552
 8146SOL    HW235898   2.890   3.270   6.478  0.6663 -1.5888  1.0000
 8147SOL     OW35899   1.336   3.072   2.591  0.8118  0.0052 -0.4531
 8147SOL    HW135900   1.305   3.120   2.515 -0.0301 -1.5802 -1.1093
 8147SOL    HW235901   1.403   3.133   2.622  2.3546 -1.0780 -1.5662
 8148SOL     OW35902   4.675   2.539  16.599  0.4719 -0.0098 -0.1040
 8148SOL    HW135903   4.666   2.476  16.527  1.9255 -0.3652  0.0192
 8148SOL    HW235904   0.012   2.490  16.655  0.7037  1.2119  0.7123
 8149SOL     OW35905   1.250   3.833   5.859 -0.4134 -0.2707 -0.2379
 8149SOL    HW135906   1.180   3.871   5.912 -0.2158  0.4084 -0.4618
 8149SOL    HW235907   1.224   3.741   5.862  3.1910 -1.3092 -1.3230
 8150SOL     OW35908   0.094   1.506   6.951 -0.1887  0.4195 -0.1974
 8150SOL    HW135909   0.144   1.581   6.983  0.7029 -0.5847  0.7486
 8150SOL    HW235910   0.006   1.538   6.969 -1.3312 -2.0536 -1.4782
 8151SOL     OW35911   0.416   0.538   5.937 -0.1575 -0.6667 -0.0748
 8151SOL    HW135912   0.476   0.546   5.863  0.9050  2.7607  1.1627
 8151SOL    HW235913   0.437   0.626   5.968 -0.0152 -0.0820 -1.8165
 8152SOL     OW35914   0.697   1.371   6.653  0.2549 -0.2462 -0.0434
 8152SOL    HW135915   0.631   1.313   6.691  0.7739 -0.8908 -0.1231
 8152SOL    HW235916   0.654   1.401   6.572  1.0466 -0.3250 -0.4896
 8153SOL     OW35917   3.940   0.294   5.532 -0.0829  0.0505  0.2434
 8153SOL    HW135918   3.975   0.271   5.446 -0.1786 -2.0510  0.7756
 8153SOL    HW235919   3.863   0.347   5.510  1.3787  1.6528 -0.9872
 8154SOL     OW35920   0.384   3.990   8.878 -0.2174  0.0899 -0.0525
 8154SOL    HW135921   0.438   3.939   8.938  1.3222  1.8945  0.0956
 8154SOL    HW235922   0.454   4.006   8.815 -0.7312 -1.3714 -1.0024
 8155SOL     OW35923   2.970   4.014   3.113  0.4688 -0.2269  0.1455
 8155SOL    HW135924   3.039   3.958   3.150  0.7898  0.0525 -0.0403
 8155SOL    HW235925   2.957   4.076   3.185  1.8630  1.6432 -1.2113
 8156SOL     OW35926   4.128   1.238  16.345  0.3749  0.2851 -0.0909
 8156SOL    HW135927   4.045   1.277  16.318  0.7260 -0.2009 -1.8816
 8156SOL    HW235928   4.192   1.310  16.344 -0.0101  0.6424  2.1903
 8157SOL     OW35929   1.505   2.364   7.750 -0.3520  0.2673 -0.5521
 8157SOL    HW135930   1.534   2.273   7.752  0.9102  0.7238  1.8167
 8157SOL    HW235931   1.439   2.351   7.818  0.2718  1.1179  0.2109
 8158SOL     OW35932   2.902   0.280   6.035  0.3395  0.6626 -0.0865
 8158SOL    HW135933   2.909   0.277   6.130 -0.7591  0.1692 -0.0171
 8158SOL    HW235934   2.928   0.191   6.013 -2.1664 -0.2949  0.8648
 8159SOL     OW35935   3.806   3.740   8.670 -0.6753 -0.0003 -0.0971
 8159SOL    HW135936   3.755   3.814   8.702  0.2725  0.8181 -0.4670
 8159SOL    HW235937   3.753   3.666   8.700 -0.1723  0.0219  0.8382
 8160SOL     OW35938   0.527   1.205   8.913 -0.2119  0.7063 -0.2105
 8160SOL    HW135939   0.589   1.138   8.941 -1.4274 -0.3972 -0.1765
 8160SOL    HW235940   0.593   1.267   8.881  0.3962  0.8963  1.4337
 8161SOL     OW35941   2.192   2.835   2.615 -0.1715  0.2685  0.2299
 8161SOL    HW135942   2.228   2.747   2.602  0.9399  0.7617 -0.0014
 8161SOL    HW235943   2.271   2.882   2.590  0.5125 -1.8044 -1.4603
 8162SOL     OW35944   1.334   4.381   4.351  0.0508 -0.0466 -0.0823
 8162SOL    HW135945   1.316   4.293   4.385  1.1012 -0.2027  0.0754
 8162SOL    HW235946   1.267   4.420   4.407  1.5238  0.6375  1.1889
 8163SOL     OW35947   2.104   3.179  10.738  0.6374 -0.6584 -0.1384
 8163SOL    HW135948   2.126   3.099  10.784 -0.9489 -0.8517  0.2943
 8163SOL    HW235949   2.022   3.201  10.782  2.3155 -0.9409  3.0783
 8164SOL     OW35950   4.396   0.595  10.455  0.5252 -0.4284 -0.0529
 8164SOL    HW135951   4.345   0.608  10.374  0.3125 -0.7244  0.0329
 8164SOL    HW235952   4.376   0.501  10.462 -2.4828  0.1140 -1.1640
 8165SOL     OW35953   4.564   0.529  16.391 -0.2060 -0.5190  0.4472
 8165SOL    HW135954   4.536   0.603  16.445 -0.3826  0.0238 -0.3859
 8165SOL    HW235955   4.658   0.541  16.376 -0.1223 -1.0734  0.5230
 8166SOL     OW35956   2.800   2.278   3.696 -0.3097 -0.1138  0.6659
 8166SOL    HW135957   2.874   2.234   3.654 -0.0876  1.5141 -0.6264
 8166SOL    HW235958   2.723   2.235   3.658  1.2346 -2.4035  0.1092
 8167SOL     OW35959   1.681   0.002   9.011 -0.3357  0.2371 -0.0824
 8167SOL    HW135960   1.690   0.053   8.931 -1.9517  0.3823 -0.1744
 8167SOL    HW235961   1.718   0.061   9.077  5.0783 -1.8083 -1.3052
 8168SOL     OW35962   4.393   4.551  14.868  0.3415 -0.5665 -0.7437
 8168SOL    HW135963   4.357   4.636  14.895  0.8680 -1.3127  2.3306
 8168SOL    HW235964   4.343   4.536  14.788  1.6893 -2.1615 -1.2894
 8169SOL     OW35965   4.293   3.528   3.489 -0.2489 -0.4466 -0.4665
 8169SOL    HW135966   4.328   3.548   3.403  1.0310 -3.0654 -0.5539
 8169SOL    HW235967   4.320   3.605   3.539 -2.7608  2.2422 -3.2195
 8170SOL     OW35968   1.593   1.542   7.164 -0.2066 -0.1820 -0.7399
 8170SOL    HW135969   1.635   1.463   7.198  0.1023  0.7496  1.0358
 8170SOL    HW235970   1.605   1.535   7.070  1.3683 -0.9483 -0.4752
 8171SOL     OW35971   3.255   1.416  11.406 -0.5498  0.5939 -0.0644
 8171SOL    HW135972   3.259   1.404  11.311 -0.1934 -1.4277  0.1955
 8171SOL    HW235973   3.329   1.472  11.430  0.9725 -1.5141  0.2285
 8172SOL     OW35974   1.963   3.117   7.392 -0.4127  0.0820  0.0605
 8172SOL    HW135975   1.984   3.034   7.350 -3.4855 -0.4044 -0.5406
 8172SOL    HW235976   1.935   3.167   7.315 -0.3391  2.1385  1.3739
 8173SOL     OW35977   2.849   3.542   3.212 -0.1384 -0.3573 -0.1354
 8173SOL    HW135978   2.805   3.598   3.276 -0.3059 -0.5750 -0.0591
 8173SOL    HW235979   2.859   3.470   3.276 -0.0230 -1.9159 -1.9166
 8174SOL     OW35980   4.621   3.240   9.981  0.3486 -0.3140 -0.0833
 8174SOL    HW135981   4.528   3.218   9.989  0.7230 -1.9225 -0.2564
 8174SOL    HW235982   4.637   3.222   9.888 -2.3873  0.6774 -0.7602
 8175SOL     OW35983   1.227   3.019   9.144 -0.4150  0.4356  0.1041
 8175SOL    HW135984   1.277   3.018   9.062 -2.4148 -2.0861 -1.0726
 8175SOL    HW235985   1.223   2.925   9.162  2.5936  0.6293  1.6638
 8176SOL     OW35986   1.315   3.973   2.101  0.6673  0.6209 -0.4983
 8176SOL    HW135987   1.358   3.899   2.144 -0.2499  0.9030  0.8954
 8176SOL    HW235988   1.377   4.001   2.033 -0.2045 -0.3900 -1.7014
 8177SOL     OW35989   2.729   2.268   5.283  0.2760  0.0353  0.1581
 8177SOL    HW135990   2.752   2.326   5.211  1.1553 -0.5119  0.0098
 8177SOL    HW235991   2.700   2.194   5.229  1.3997 -0.7424  0.6142
 8178SOL     OW35992   2.473   1.796  17.240  0.5590 -0.2540 -0.3429
 8178SOL    HW135993   2.454   1.845  17.160 -0.3725  1.3869  0.8749
 8178SOL    HW235994   2.567   1.809  17.251  0.3506 -0.4206  1.6535
 8179SOL     OW35995   2.548   0.568  14.063 -0.4168 -0.4294  0.5472
 8179SOL    HW135996   2.567   0.644  14.009 -0.5612 -2.2439 -2.0312
 8179SOL    HW235997   2.506   0.509  14.001 -1.5252 -1.5215  2.3294
 8180SOL     OW35998   1.708   4.206   8.898 -0.3795 -0.2761 -0.5601
 8180SOL    HW135999   1.667   4.290   8.919 -2.2762 -1.1913 -0.6372
 8180SOL    HW236000   1.797   4.219   8.933 -0.3755 -1.6676 -0.0526
 8181SOL     OW36001   1.021   1.540   6.050  0.1859 -0.0749  0.1475
 8181SOL    HW136002   0.960   1.491   5.994  0.7993 -0.0098 -0.5869
 8181SOL    HW236003   0.973   1.611   6.092  0.0646 -1.0754  1.6681
 8182SOL     OW36004   2.650   2.019   7.074  0.4619 -0.4510 -0.2145
 8182SOL    HW136005   2.601   2.061   7.144  1.3505  2.0349 -1.0817
 8182SOL    HW236006   2.718   2.085   7.060  2.5385 -1.8643  3.2620
 8183SOL     OW36007   2.417   3.854   6.600  0.3890 -0.5183 -0.0605
 8183SOL    HW136008   2.329   3.882   6.626  0.1089  0.2485 -1.8648
 8183SOL    HW236009   2.396   3.867   6.508  1.0242  0.7621 -0.0227
 8184SOL     OW36010   2.081   1.226  12.055 -0.5619 -0.4015  0.0638
 8184SOL    HW136011   2.154   1.212  11.995 -1.2007 -0.2684 -0.7370
 8184SOL    HW236012   2.076   1.137  12.090 -0.9587  0.0458  1.1359
 8185SOL     OW36013   1.150   2.353  10.845  0.1533  0.1313 -0.0790
 8185SOL    HW136014   1.161   2.406  10.924 -0.8823 -3.1076  2.2484
 8185SOL    HW236015   1.061   2.323  10.862  0.2930 -1.7901 -2.7416
 8186SOL     OW36016   0.358   2.254  14.219 -0.5487  0.1896  0.2946
 8186SOL    HW136017   0.321   2.231  14.134  0.0608 -1.5939  0.5054
 8186SOL    HW236018   0.402   2.174  14.249 -0.0478 -0.1467 -1.3666
 8187SOL     OW36019   3.314   2.273   7.404 -0.1185 -0.4307 -0.0093
 8187SOL    HW136020   3.310   2.365   7.432  0.0560  0.1510 -1.8785
 8187SOL    HW236021   3.226   2.271   7.366 -0.1857  0.6901  0.0827
 8188SOL     OW36022   0.185   3.696  12.265  0.2179  0.1980 -0.2767
 8188SOL    HW136023   0.134   3.649  12.199  0.8571 -1.1599  0.2098
 8188SOL    HW236024   0.229   3.629  12.317 -1.0046 -0.4231 -0.0337
 8189SOL     OW36025   2.753   2.899   8.807 -0.0633 -0.1712  0.1249
 8189SOL    HW136026   2.712   2.847   8.737  1.6218  0.2239 -1.1561
 8189SOL    HW236027   2.823   2.930   8.750  0.9602 -0.6806  1.1197
 8190SOL     OW36028   2.772   0.175  15.433 -0.2041  0.1236 -0.2260
 8190SOL    HW136029   2.720   0.232  15.377 -0.7712  0.7592  0.9390
 8190SOL    HW236030   2.706   0.164  15.502  2.6954 -0.9505  2.3680
 8191SOL     OW36031   0.381   4.225   0.742  0.5275  0.0229 -0.1771
 8191SOL    HW136032   0.337   4.271   0.670  0.5718 -1.7900 -1.3660
 8191SOL    HW236033   0.378   4.300   0.802 -2.5062 -2.1251  2.3330
 8192SOL     OW36034   0.957   4.311   4.401  0.3275 -0.0537 -0.8945
 8192SOL    HW136035   0.875   4.291   4.446 -0.0192  0.5171 -1.2806
 8192SOL    HW236036   0.996   4.351   4.478 -2.2498 -0.7299  0.7533
 8193SOL     OW36037   2.725   1.976   5.398  0.2686 -0.4341 -0.3683
 8193SOL    HW136038   2.657   1.951   5.335 -0.4639 -1.7521  0.9451
 8193SOL    HW236039   2.799   1.931   5.358  1.9133  0.5171  1.5703
 8194SOL     OW36040   2.018   0.925   1.205 -0.7496  0.0578 -0.2479
 8194SOL    HW136041   1.991   0.856   1.266 -0.3314 -0.1249 -0.2680
 8194SOL    HW236042   1.973   0.892   1.127 -3.0606  0.8074  0.7579
 8195SOL     OW36043   2.908   4.527   8.328  0.3492 -0.4491 -0.0683
 8195SOL    HW136044   2.840   4.555   8.268  1.2738  0.6305 -0.6152
 8195SOL    HW236045   2.980   4.543   8.266 -2.0072 -1.1801 -2.9867
 8196SOL     OW36046   3.824   3.567   5.327  0.2884 -0.0731 -0.1073
 8196SOL    HW136047   3.808   3.486   5.375  0.3092  0.5825  0.9911
 8196SOL    HW236048   3.811   3.538   5.237  0.0446  1.7869 -0.6743
 8197SOL     OW36049   1.878   4.383   1.840  0.1849 -0.4671 -0.2514
 8197SOL    HW136050   1.859   4.298   1.880 -1.0438  0.4519  1.1311
 8197SOL    HW236051   1.921   4.351   1.761 -1.9846  0.3283 -1.7924
 8198SOL     OW36052   0.641   3.176  15.320  0.3259  0.2701 -0.2687
 8198SOL    HW136053   0.556   3.145  15.289  0.8441 -0.4256 -0.9742
 8198SOL    HW236054   0.679   3.092  15.346 -0.3190 -0.7056 -2.4896
 8199SOL     OW36055   1.144   3.038   4.555  0.2178 -0.5303  0.0117
 8199SOL    HW136056   1.214   3.034   4.491 -0.1147  1.7132 -0.5060
 8199SOL    HW236057   1.187   3.057   4.638  0.9763  2.4336 -1.0697
 8200SOL     OW36058   0.732   1.988   2.840 -0.4661 -0.4035 -0.0246
 8200SOL    HW136059   0.807   2.048   2.834 -0.0896 -0.7084  1.5754
 8200SOL    HW236060   0.691   2.004   2.755  3.3432 -1.0776 -2.0334
 8201SOL     OW36061   2.735   3.691   4.311 -0.1461  0.2319  0.1282
 8201SOL    HW136062   2.770   3.775   4.283  3.3187 -2.0007 -2.2608
 8201SOL    HW236063   2.677   3.685   4.235  0.0391  0.2887 -0.0184
 8202SOL     OW36064   0.702   4.374   7.342  0.1003 -0.6248  0.0695
 8202SOL    HW136065   0.615   4.400   7.372  0.7936 -0.9911  2.3963
 8202SOL    HW236066   0.752   4.357   7.421 -1.7396 -0.3240  1.2871
 8203SOL     OW36067   2.849   3.188   2.880  0.0631 -0.0185  0.3825
 8203SOL    HW136068   2.867   3.275   2.915 -0.3467  0.1150  0.2625
 8203SOL    HW236069   2.885   3.192   2.792 -1.3592  2.3833 -0.1016
 8204SOL     OW36070   0.238   0.214  12.557 -0.6308  0.5875  0.1671
 8204SOL    HW136071   0.237   0.299  12.512  2.3421 -1.2459 -3.3277
 8204SOL    HW236072   0.164   0.171  12.515  0.0403 -0.8776  0.4880
 8205SOL     OW36073   1.885   0.584  12.019  0.1957 -0.3014  0.0797
 8205SOL    HW136074   1.854   0.493  12.021 -0.9919  0.0736 -1.2655
 8205SOL    HW236075   1.850   0.616  11.936  0.0784  2.4358  1.2059
 8206SOL     OW36076   1.769   1.696   4.834  0.0124 -0.0795  0.1142
 8206SOL    HW136077   1.789   1.645   4.755 -0.9048  1.3608 -1.0430
 8206SOL    HW236078   1.775   1.781   4.790 -1.4926  0.1438  0.3595
 8207SOL     OW36079   2.618   2.102   5.997 -0.1151 -0.4168  0.2706
 8207SOL    HW136080   2.638   2.169   5.933  0.9591  0.2970  1.3442
 8207SOL    HW236081   2.708   2.095   6.028 -0.5838  1.2345  2.0672
 8208SOL     OW36082   2.051   0.722   4.717 -0.2710 -0.0424  0.2259
 8208SOL    HW136083   2.011   0.672   4.789  1.6556 -1.3394  0.3819
 8208SOL    HW236084   2.106   0.788   4.758 -0.0690 -1.1932  1.8245
 8209SOL     OW36085   1.346   1.707   9.582  0.4159  0.0957 -0.1111
 8209SOL    HW136086   1.344   1.620   9.542  0.5445  0.2468 -0.4480
 8209SOL    HW236087   1.274   1.708   9.645 -1.7165 -0.1414 -2.5927
 8210SOL     OW36088   0.944   2.151   2.798  0.5355  0.2637 -0.0145
 8210SOL    HW136089   0.952   2.119   2.708 -2.2706  0.9261 -0.5002
 8210SOL    HW236090   0.963   2.244   2.789 -0.0215  0.3001 -0.8252
 8211SOL     OW36091   1.565   2.279   4.796 -0.1043  0.0531  0.4115
 8211SOL    HW136092   1.568   2.227   4.876  1.6008 -1.6419 -0.7522
 8211SOL    HW236093   1.621   2.232   4.733  1.7711 -0.5378  2.5264
 8212SOL     OW36094   2.757   3.816  15.490  0.5174 -0.3260  0.1212
 8212SOL    HW136095   2.713   3.775  15.415  0.3064 -0.7721  0.4879
 8212SOL    HW236096   2.743   3.745  15.553  0.1746 -1.1169 -0.8395
 8213SOL     OW36097   2.702   4.242   1.045 -0.0210  0.1361 -0.1784
 8213SOL    HW136098   2.793   4.230   1.018 -0.1657  1.6797 -1.3964
 8213SOL    HW236099   2.658   4.158   1.036  0.0454  0.0796  0.0313
 8214SOL     OW36100   0.299   0.377   3.783 -0.0669 -0.2419 -0.5057
 8214SOL    HW136101   0.213   0.418   3.779 -0.2841 -0.6517 -0.0658
 8214SOL    HW236102   0.350   0.442   3.734 -0.2151 -0.4683 -0.9557
 8215SOL     OW36103   3.378   4.076   2.492  0.2393  0.0907 -0.2405
 8215SOL    HW136104   3.302   4.064   2.550  1.2066 -0.1558  0.9850
 8215SOL    HW236105   3.429   4.144   2.536 -0.1602  0.3514 -0.1809
 8216SOL     OW36106   1.599   1.931  15.995  0.2696 -0.2971 -0.3866
 8216SOL    HW136107   1.576   1.848  16.038  0.9645 -0.6674 -0.7269
 8216SOL    HW236108   1.659   1.895  15.930  0.7620  1.3492 -0.8260
 8217SOL     OW36109   1.853   0.544   7.094 -0.2557 -0.1938  0.2022
 8217SOL    HW136110   1.914   0.616   7.110  0.4458 -0.6163 -0.6242
 8217SOL    HW236111   1.793   0.592   7.036  1.9294 -0.4377 -2.2279
 8218SOL     OW36112   0.279   1.439   3.333  0.1441 -0.8407  0.6366
 8218SOL    HW136113   0.184   1.433   3.348 -0.2102  0.9874 -0.9273
 8218SOL    HW236114   0.284   1.530   3.304 -1.5031 -0.9604 -0.0486
 8219SOL     OW36115   2.895   3.648   4.555  0.3789  0.0911  0.0391
 8219SOL    HW136116   2.981   3.690   4.566  1.6543 -1.9015 -2.3802
 8219SOL    HW236117   2.857   3.683   4.475  1.4156 -0.9174 -0.8917
 8220SOL     OW36118   1.383   0.532   9.076  0.0693 -0.0449  0.7998
 8220SOL    HW136119   1.386   0.554   9.169  0.8756 -2.0785  1.2577
 8220SOL    HW236120   1.416   0.612   9.035  1.2223 -0.8454  0.1678
 8221SOL     OW36121   3.425   0.667   9.543  0.0338  0.1488 -0.1515
 8221SOL    HW136122   3.514   0.657   9.509  0.0649  1.9264 -0.5664
 8221SOL    HW236123   3.369   0.624   9.478 -0.0440 -0.9109  0.6236
 8222SOL     OW36124   0.891   4.511   3.062  0.1762 -0.1949  0.3698
 8222SOL    HW136125   0.930   4.448   3.123  1.5989  0.0596 -0.2688
 8222SOL    HW236126   0.968   4.568   3.058 -1.5281  2.2723  2.3526
 8223SOL     OW36127   4.277   0.720  16.648  0.3190 -0.4471  0.2104
 8223SOL    HW136128   4.220   0.722  16.571  5.0508  3.1480 -3.1968
 8223SOL    HW236129   4.237   0.646  16.693 -0.3025 -0.5179 -0.4708
 8224SOL     OW36130   3.182   3.338   9.058  0.2095  0.1590 -0.0180
 8224SOL    HW136131   3.201   3.316   9.149 -0.1645  1.4483  0.3744
 8224SOL    HW236132   3.255   3.397   9.039 -0.7250  0.6441 -2.1406
 8225SOL     OW36133   4.683   4.224  14.974 -0.5233  0.0582 -0.5510
 8225SOL    HW136134   0.047   4.249  14.943 -0.4921 -0.1255 -0.6118
 8225SOL    HW236135   4.700   4.160  15.043 -0.3575  1.9911  1.2339
 8226SOL     OW36136   3.521   1.605   1.909  0.0169  0.5751  0.0517
 8226SOL    HW136137   3.444   1.552   1.890  2.0456 -1.1408 -3.3701
 8226SOL    HW236138   3.510   1.621   2.003 -0.4502  1.8462 -0.2192
 8227SOL     OW36139   0.559   4.022   8.676  0.0808 -0.5271  0.7860
 8227SOL    HW136140   0.591   3.984   8.594 -1.4534  0.7326 -0.4113
 8227SOL    HW236141   0.549   4.111   8.642  0.5193 -0.9963 -0.5703
 8228SOL     OW36142   3.452   4.467  13.431 -0.7880  0.0229  0.2134
 8228SOL    HW136143   3.373   4.482  13.379 -0.5514 -1.4569 -0.5683
 8228SOL    HW236144   3.413   4.428  13.509  0.8514 -0.3949  0.8147
 8229SOL     OW36145   0.386   0.745   2.155 -0.0762  0.0363  0.4657
 8229SOL    HW136146   0.462   0.687   2.161 -0.1497 -0.1024  0.0975
 8229SOL    HW236147   0.429   0.819   2.112 -0.4545  1.4199  2.4806
 8230SOL     OW36148   2.246   0.010   2.458  0.5788  0.3221  0.1616
 8230SOL    HW136149   2.198   0.084   2.495  0.4252  0.8392 -1.0566
 8230SOL    HW236150   2.221   0.015   2.366  1.2140  0.2705 -0.0108
 8231SOL     OW36151   2.973   4.446   6.966  0.4006 -0.1355  0.2065
 8231SOL    HW136152   3.064   4.475   6.971  0.5604 -0.6636  0.3660
 8231SOL    HW236153   2.977   4.374   6.903  1.2646 -0.6936  0.8968
 8232SOL     OW36154   1.833   2.935   7.554  1.0227 -0.7230  0.5497
 8232SOL    HW136155   1.898   2.979   7.498  0.4512 -0.1062  0.3768
 8232SOL    HW236156   1.800   2.867   7.495 -1.2800 -0.1359  1.1688
 8233SOL     OW36157   2.119   0.156   3.479  0.2040  0.4031 -0.3202
 8233SOL    HW136158   2.029   0.125   3.483 -0.7833  3.0445 -2.6933
 8233SOL    HW236159   2.171   0.076   3.476 -0.0393  0.3123 -2.0910
 8234SOL     OW36160   2.769   1.319  14.583 -0.2877  0.3297 -0.1839
 8234SOL    HW136161   2.725   1.387  14.634  1.2369  0.8187  0.4973
 8234SOL    HW236162   2.706   1.296  14.516  1.7108 -0.8816 -1.6462
 8235SOL     OW36163   3.805   1.392   6.623  0.0621  0.1787 -0.6821
 8235SOL    HW136164   3.852   1.367   6.703 -1.9610 -2.5237 -0.3089
 8235SOL    HW236165   3.828   1.484   6.629 -1.8907  0.6970 -1.0340
 8236SOL     OW36166   4.523   2.392  11.049  0.2542  0.6051 -0.3035
 8236SOL    HW136167   4.569   2.405  11.131  0.1299  1.5780 -0.3948
 8236SOL    HW236168   4.467   2.469  11.044  0.0083  0.5890  2.1852
 8237SOL     OW36169   3.928   3.317  15.594 -0.0246  0.2058  0.1319
 8237SOL    HW136170   3.927   3.410  15.615 -1.8520  0.5478 -1.5985
 8237SOL    HW236171   3.976   3.290  15.673  0.7700 -0.0073 -0.4241
 8238SOL     OW36172   4.143   0.938  13.979 -0.1104 -0.1642  0.1234
 8238SOL    HW136173   4.126   0.993  14.055 -1.0759 -0.4318  0.1055
 8238SOL    HW236174   4.227   0.979  13.959 -0.7447 -0.3021 -2.9528
 8239SOL     OW36175   2.004   1.414   4.017 -0.5655 -0.3380 -0.1166
 8239SOL    HW136176   1.941   1.475   3.979  1.9469  0.7773 -2.4829
 8239SOL    HW236177   2.033   1.454   4.099  0.0371 -0.0180 -0.4812
 8240SOL     OW36178   0.879   0.879   8.814  0.2290  0.4722  0.0452
 8240SOL    HW136179   0.968   0.898   8.782 -0.2492  0.0527 -1.5587
 8240SOL    HW236180   0.847   0.822   8.744  2.0417 -0.0976 -0.3360
 8241SOL     OW36181   4.310   2.961   5.020  0.3944  0.7150  0.3648
 8241SOL    HW136182   4.368   2.984   5.092 -0.2886  1.1289  0.7843
 8241SOL    HW236183   4.288   2.870   5.036 -2.3040  1.1903 -0.6608
 8242SOL     OW36184   0.990   0.775   3.637  0.3603  0.1656  0.2438
 8242SOL    HW136185   0.916   0.834   3.649  0.6682  0.4114  0.9486
 8242SOL    HW236186   1.041   0.798   3.714 -1.1440 -2.9301  2.1855
 8243SOL     OW36187   1.721   2.689   0.629 -0.2021 -0.0667 -0.1724
 8243SOL    HW136188   1.644   2.656   0.676  0.7317 -1.4988  0.3496
 8243SOL    HW236189   1.736   2.614   0.571  1.0902  2.2262 -2.8373
 8244SOL     OW36190   0.419   1.990   9.257 -0.0337 -0.0677 -0.1543
 8244SOL    HW136191   0.444   2.080   9.236 -0.1031  0.5763  2.4958
 8244SOL    HW236192   0.484   1.950   9.200  0.3045  2.2067 -1.3813
 8245SOL     OW36193   4.580   3.794  13.069 -0.4248  0.1770  0.4897
 8245SOL    HW136194   4.616   3.871  13.024  0.4868 -0.7981 -0.4363
 8245SOL    HW236195   4.487   3.795  13.051 -0.5633 -2.1783  1.1456
 8246SOL     OW36196   3.331   0.159   8.829  0.2482 -0.3786  0.1608
 8246SOL    HW136197   3.426   0.162   8.818 -0.0309  1.8666 -1.6984
 8246SOL    HW236198   3.322   0.230   8.894  0.6819 -1.9962  1.9929
 8247SOL     OW36199   0.707   0.231   7.368  0.3081  0.3406  0.0308
 8247SOL    HW136200   0.636   0.176   7.401 -0.0830  1.8490  1.7067
 8247SOL    HW236201   0.713   0.209   7.275  0.8294  1.6437 -0.2375
 8248SOL     OW36202   3.493   3.270   0.361  0.0061 -0.1039  0.4174
 8248SOL    HW136203   3.464   3.258   0.451  0.2513 -0.6776  0.4218
 8248SOL    HW236204   3.585   3.289   0.379 -0.2598  0.8020  0.8331
 8249SOL     OW36205   4.253   2.242   5.132 -0.2205  0.4577 -0.2521
 8249SOL    HW136206   4.207   2.308   5.184 -0.6075  1.5330 -1.9694
 8249SOL    HW236207   4.296   2.298   5.067 -1.8561  0.0782 -1.6424
 8250SOL     OW36208   2.428   1.818  16.859  0.2856 -0.0285 -0.0357
 8250SOL    HW136209   2.516   1.854  16.851  0.6469 -0.7073  0.9496
 8250SOL    HW236210   2.394   1.837  16.771 -0.3307  2.8780  0.8133
 8251SOL     OW36211   1.799   0.319   9.432  0.0372  0.3175  0.1534
 8251SOL    HW136212   1.800   0.253   9.502  0.0087 -0.1056 -0.2435
 8251SOL    HW236213   1.718   0.365   9.455 -0.1343  0.1080 -0.0318
 8252SOL     OW36214   1.477   3.473   0.518 -0.9143  0.0075  0.1810
 8252SOL    HW136215   1.511   3.453   0.430 -0.8364 -2.8418  0.8473
 8252SOL    HW236216   1.521   3.554   0.543  0.5403 -0.3297 -1.2225
 8253SOL     OW36217   0.669   1.427  11.231  0.2518 -0.3814  0.0869
 8253SOL    HW136218   0.721   1.388  11.162  0.5986 -0.2103  0.2485
 8253SOL    HW236219   0.661   1.518  11.202  1.3846 -0.2425  0.2148
 8254SOL     OW36220   0.996   1.516   5.528  0.2114 -0.9820 -0.4089
 8254SOL    HW136221   1.078   1.549   5.562  1.2647 -2.4347 -1.5403
 8254SOL    HW236222   0.960   1.601   5.502  2.0688 -0.2584 -0.5790
 8255SOL     OW36223   3.518   0.688  12.662 -0.2642 -0.3365  0.3855
 8255SOL    HW136224   3.554   0.630  12.595 -1.4305  1.7420 -2.0261
 8255SOL    HW236225   3.427   0.710  12.641  0.0714  0.1111 -0.6228
 8256SOL     OW36226   3.723   1.043   4.239  0.4675 -0.0718  0.3341
 8256SOL    HW136227   3.695   1.072   4.153  1.0930  2.1452  0.8635
 8256SOL    HW236228   3.801   1.096   4.256  0.9450 -0.3012 -1.1691
 8257SOL     OW36229   0.686   4.349   0.928 -0.0261  0.4139  0.0233
 8257SOL    HW136230   0.695   4.306   0.843  0.4550  1.5550 -0.4958
 8257SOL    HW236231   0.595   4.380   0.930  0.3760  1.4666  1.8295
 8258SOL     OW36232   3.807   0.967   8.837  0.1439 -0.1892  0.1485
 8258SOL    HW136233   3.847   0.974   8.750  1.0350  0.8085  0.6375
 8258SOL    HW236234   3.784   0.874   8.847  1.8428 -0.6325  0.1093
 8259SOL     OW36235   3.285   4.720  12.202  0.3659 -0.0425 -0.5269
 8259SOL    HW136236   3.269   4.648  12.142 -0.2934  0.1921 -0.6317
 8259SOL    HW236237   3.209   4.709  12.259 -0.3096 -0.8010 -1.5758
 8260SOL     OW36238   3.353   3.124   2.943  0.2251  0.0813  0.5462
 8260SOL    HW136239   3.393   3.105   2.859 -0.7510  0.0532  0.0853
 8260SOL    HW236240   3.266   3.158   2.920  0.4280 -0.1458 -0.5366
 8261SOL     OW36241   3.091   1.952   5.210  0.1134  0.1837 -0.2069
 8261SOL    HW136242   3.073   2.021   5.146 -0.5989  0.0235 -0.1795
 8261SOL    HW236243   3.176   1.923   5.177 -0.2377  0.9678 -1.8187
 8262SOL     OW36244   4.470   1.905   7.629  0.5529  0.0713  0.1739
 8262SOL    HW136245   4.378   1.909   7.654  0.5923  1.1233  0.1509
 8262SOL    HW236246   4.478   1.810   7.623  0.9317  0.1307 -0.2406
 8263SOL     OW36247   3.824   4.206   2.458  0.7331 -0.0797  0.3983
 8263SOL    HW136248   3.796   4.196   2.367 -1.6508  0.6162  1.0370
 8263SOL    HW236249   3.844   4.114   2.473  0.8258 -0.2362 -0.7121
 8264SOL     OW36250   2.473   4.440   0.509 -0.2633 -0.3585  0.1408
 8264SOL    HW136251   2.526   4.371   0.549 -2.0767 -1.6634  0.2873
 8264SOL    HW236252   2.516   4.437   0.423 -1.4652  1.5337 -0.5191
 8265SOL     OW36253   4.174   0.947   4.388 -0.0388  0.6398  0.0346
 8265SOL    HW136254   4.207   1.036   4.400  2.7493 -0.5921  1.4226
 8265SOL    HW236255   4.236   0.916   4.321 -1.2260 -0.0010 -0.7774
 8266SOL     OW36256   2.020   1.180   2.309 -0.2294  0.0508  0.2342
 8266SOL    HW136257   1.997   1.199   2.400 -0.1243  2.7989 -0.2973
 8266SOL    HW236258   1.977   1.095   2.306 -2.3817  1.1624 -0.7566
 8267SOL     OW36259   2.381   0.228  16.205 -0.0240 -0.2774  0.0244
 8267SOL    HW136260   2.411   0.317  16.218 -0.8146  0.0650 -0.4952
 8267SOL    HW236261   2.360   0.194  16.292  0.0497 -1.7020 -0.5149
 8268SOL     OW36262   0.324   1.299   5.724  0.3516 -0.2503  0.0807
 8268SOL    HW136263   0.405   1.343   5.699  2.3355 -3.4440  0.8457
 8268SOL    HW236264   0.265   1.370   5.750 -0.6136 -0.9628 -0.1368
 8269SOL     OW36265   3.504   1.631   4.158 -0.4871 -0.1139 -0.0054
 8269SOL    HW136266   3.525   1.683   4.081  1.3494 -2.0691 -0.8407
 8269SOL    HW236267   3.568   1.560   4.162 -1.1794 -0.6931  0.7307
 8270SOL     OW36268   2.883   2.532   5.508 -0.7819  0.1772  0.9634
 8270SOL    HW136269   2.972   2.546   5.476 -0.6308 -0.4483  1.1209
 8270SOL    HW236270   2.885   2.440   5.533  1.6759  0.3098  1.2768
 8271SOL     OW36271   3.264   0.247  10.688  0.3522  0.5568  0.7654
 8271SOL    HW136272   3.351   0.259  10.726  1.9254  0.5043 -2.8798
 8271SOL    HW236273   3.264   0.312  10.617 -1.6290 -2.0318 -1.5934
 8272SOL     OW36274   3.899   0.545   7.480  0.3234 -0.2069  0.1006
 8272SOL    HW136275   3.826   0.502   7.525 -0.2224 -0.9777 -1.5102
 8272SOL    HW236276   3.848   0.595   7.416 -2.8512  0.4071  3.1076
 8273SOL     OW36277   0.919   4.310  16.643  0.5835  0.2133 -0.2808
 8273SOL    HW136278   0.961   4.345  16.564  1.8719 -1.2826 -0.2571
 8273SOL    HW236279   0.846   4.372  16.649 -0.7280 -1.4626  0.8478
 8274SOL     OW36280   1.381   0.064   0.400  0.2741 -0.1410  1.1702
 8274SOL    HW136281   1.351   0.050   0.490  0.2487 -1.2825  0.9874
 8274SOL    HW236282   1.385   0.159   0.407 -1.4932  0.0670 -0.5495
 8275SOL     OW36283   4.679   1.952   8.524  0.1987  0.0314 -0.4247
 8275SOL    HW136284   0.010   2.019   8.565 -0.8499  0.8843 -0.4417
 8275SOL    HW236285   4.711   1.958   8.434 -0.2569  0.6073 -0.5506
 8276SOL     OW36286   2.149   0.759   5.723  0.1908  0.1157 -0.1263
 8276SOL    HW136287   2.150   0.700   5.799 -0.2857  1.5267  0.9679
 8276SOL    HW236288   2.068   0.806   5.742  0.0358  0.1535 -0.9012
 8277SOL     OW36289   2.917   4.627   7.299  0.1218 -0.2460  0.9992
 8277SOL    HW136290   2.918   4.532   7.288 -1.6216 -0.1041 -0.4429
 8277SOL    HW236291   2.981   4.637   7.228  0.2751  1.2249  1.3621
 8278SOL     OW36292   1.537   3.356   6.898 -0.4871  0.0012 -0.0207
 8278SOL    HW136293   1.494   3.295   6.958  0.3234  0.1989  0.7644
 8278SOL    HW236294   1.476   3.429   6.900 -0.5433 -0.0748  1.1979
 8279SOL     OW36295   0.600   2.868  17.498  0.3596 -0.2451 -0.3079
 8279SOL    HW136296   0.619   2.792  17.444  0.2240 -0.4654 -0.0468
 8279SOL    HW236297   0.669   2.854  17.563 -0.1565 -0.7581  0.1325
 8280SOL     OW36298   1.082   2.039  13.397  0.1654 -0.6607  0.1351
 8280SOL    HW136299   1.070   1.993  13.313 -0.6334 -0.5895  0.2114
 8280SOL    HW236300   0.991   2.045  13.425  0.4829  2.4434  0.4662
 8281SOL     OW36301   3.100   3.457  13.441  0.2561 -0.1396  0.1380
 8281SOL    HW136302   3.136   3.545  13.452  1.8597 -0.8257  0.2842
 8281SOL    HW236303   3.067   3.427  13.525 -0.6600 -0.3539 -0.2983
 8282SOL     OW36304   2.244   3.537   5.311 -0.0520  0.5588 -0.0532
 8282SOL    HW136305   2.169   3.502   5.359  0.2559 -0.7062 -0.4800
 8282SOL    HW236306   2.322   3.514   5.360 -0.4360 -0.2060  0.2036
 8283SOL     OW36307   4.191   3.218   5.074  0.3470  0.2283  0.1211
 8283SOL    HW136308   4.156   3.130   5.088  1.0749  0.2137  1.8058
 8283SOL    HW236309   4.229   3.204   4.987 -2.8201  0.8592 -1.3468
 8284SOL     OW36310   2.279   3.219   5.466 -0.3658 -0.2868 -0.1630
 8284SOL    HW136311   2.366   3.258   5.469 -0.9851  1.2907 -2.2645
 8284SOL    HW236312   2.226   3.292   5.432  0.3479 -0.7188 -2.2139
 8285SOL     OW36313   0.344   4.393   4.239 -0.3768 -0.2007  0.5516
 8285SOL    HW136314   0.385   4.428   4.160  0.2066 -2.6995 -0.2645
 8285SOL    HW236315   0.326   4.300   4.225 -0.4045 -0.1432  0.2189
 8286SOL     OW36316   4.618   4.715   4.090 -0.3120 -0.6662  0.2918
 8286SOL    HW136317   4.645   4.713   4.182  0.9315 -0.4638 -0.0677
 8286SOL    HW236318   4.572   4.631   4.089 -0.4283 -0.5972  0.0237
 8287SOL     OW36319   1.713   3.495   2.265 -0.7335 -1.0267  0.3503
 8287SOL    HW136320   1.672   3.569   2.221 -0.5063  0.1773  2.1519
 8287SOL    HW236321   1.750   3.451   2.188 -1.0937 -1.1584  0.2533
 8288SOL     OW36322   1.885   3.407   8.073  0.7797  0.6309  0.3397
 8288SOL    HW136323   1.924   3.402   8.160 -0.5623  1.0674  0.9618
 8288SOL    HW236324   1.934   3.482   8.039  0.5383  0.4405 -0.4416
 8289SOL     OW36325   1.622   3.120  10.951  0.0786 -0.3259  0.6269
 8289SOL    HW136326   1.607   3.190  11.014  1.7417  1.2960 -0.7604
 8289SOL    HW236327   1.560   3.151  10.884 -0.4284 -2.9169 -0.0861
 8290SOL     OW36328   0.125   1.344   2.901 -0.3018  0.2959  0.1188
 8290SOL    HW136329   0.106   1.433   2.932  2.0840  1.2591 -1.1622
 8290SOL    HW236330   0.217   1.338   2.926  0.6032  0.1962 -3.1349
 8291SOL     OW36331   4.477   0.164   7.489 -0.6286 -0.2152 -0.4847
 8291SOL    HW136332   4.494   0.244   7.538  0.2303 -1.2125  0.8403
 8291SOL    HW236333   4.420   0.193   7.417  0.4782  1.7565 -0.5629
 8292SOL     OW36334   2.698   0.602   7.320  0.2892 -0.3020  0.0798
 8292SOL    HW136335   2.688   0.507   7.305 -1.0230 -0.2185  0.4151
 8292SOL    HW236336   2.780   0.613   7.272  0.5186  0.4254  0.6556
 8293SOL     OW36337   1.705   0.626   8.038 -0.4016  0.4460 -0.6783
 8293SOL    HW136338   1.638   0.624   8.106  0.4390  1.1955  0.1781
 8293SOL    HW236339   1.776   0.584   8.088  0.2634  2.3100 -0.0629
 8294SOL     OW36340   4.241   2.551   4.691 -0.0644 -0.7618 -0.1843
 8294SOL    HW136341   4.160   2.514   4.658  0.8919 -1.8292 -1.3361
 8294SOL    HW236342   4.239   2.644   4.669 -0.7113 -0.8323 -0.4007
 8295SOL     OW36343   2.079   0.519   7.668 -0.7688 -0.2823 -0.3738
 8295SOL    HW136344   2.169   0.535   7.640 -1.4355  0.7081 -1.9699
 8295SOL    HW236345   2.090   0.497   7.761  1.8302 -2.0606 -1.1345
 8296SOL     OW36346   0.132   3.266   3.415 -0.1242  0.3895 -0.1839
 8296SOL    HW136347   0.185   3.296   3.341  1.7574 -1.9388  0.2189
 8296SOL    HW236348   0.141   3.337   3.479 -1.5238  1.5644 -1.3103
 8297SOL     OW36349   2.778   4.089   2.920 -0.1276  0.1669  0.5177
 8297SOL    HW136350   2.818   4.039   2.848  1.7024  2.5899 -0.1318
 8297SOL    HW236351   2.837   4.055   2.988 -0.5627 -1.1160  0.2569
 8298SOL     OW36352   2.096   1.102   9.798  0.6980  0.0503 -0.2583
 8298SOL    HW136353   2.089   1.196   9.816 -3.2067 -0.0162 -1.6090
 8298SOL    HW236354   2.006   1.074   9.782  0.9448 -1.3982  0.9361
 8299SOL     OW36355   0.680   0.879   5.603 -0.4607 -0.3118  0.1975
 8299SOL    HW136356   0.618   0.927   5.549  0.7026  0.0456 -0.8219
 8299SOL    HW236357   0.760   0.929   5.585 -0.9683  1.5224  3.0966
 8300SOL     OW36358   0.801   1.856  11.766 -0.3688 -0.6939  0.4907
 8300SOL    HW136359   0.835   1.935  11.809 -1.0908 -0.9660  1.5595
 8300SOL    HW236360   0.885   1.811  11.755 -1.5440 -3.1972  1.9765
 8301SOL     OW36361   0.783   4.398   3.950 -0.2967  0.0247  0.1772
 8301SOL    HW136362   0.797   4.458   4.023  2.6671 -0.7805  0.2702
 8301SOL    HW236363   0.830   4.325   3.990  0.9267  1.6139  1.6134
 8302SOL     OW36364   3.153   0.246   3.495  0.1696  0.3016 -0.2943
 8302SOL    HW136365   3.242   0.239   3.529  0.4441  0.5887 -0.9575
 8302SOL    HW236366   3.163   0.214   3.406 -1.2454  0.1067 -0.3808
 8303SOL     OW36367   3.562   4.290   5.471 -0.2362 -0.0266 -0.1296
 8303SOL    HW136368   3.601   4.377   5.459  1.1806 -0.8129 -1.1765
 8303SOL    HW236369   3.548   4.284   5.566 -0.5245 -0.1313 -0.1814
 8304SOL     OW36370   2.316   3.898   4.626  0.1460  0.2624 -0.2768
 8304SOL    HW136371   2.399   3.858   4.651  0.6854  0.7660 -1.2458
 8304SOL    HW236372   2.352   3.987   4.630  0.9717 -0.0218 -1.6377
 8305SOL     OW36373   3.033   2.606   1.509  0.0626 -0.3954  0.3584
 8305SOL    HW136374   2.950   2.648   1.533  1.0581  1.4462  0.5831
 8305SOL    HW236375   3.094   2.664   1.553  1.0757 -0.7373 -0.5976
 8306SOL     OW36376   0.064   2.388   5.554 -0.4813 -0.0316 -0.7719
 8306SOL    HW136377   0.072   2.425   5.642 -0.2266 -0.4484 -0.6168
 8306SOL    HW236378   4.709   2.333   5.555 -1.9937  2.1252 -0.5671
 8307SOL     OW36379   4.394   3.270   8.870 -0.2294 -0.8904 -0.3138
 8307SOL    HW136380   4.440   3.216   8.934  0.1140 -0.2623 -0.0383
 8307SOL    HW236381   4.444   3.351   8.876 -1.1006 -0.3960  0.3709
 8308SOL     OW36382   1.069   4.170   7.850  0.3900  0.1799  0.6807
 8308SOL    HW136383   1.124   4.142   7.776  0.0028 -1.4822  1.0082
 8308SOL    HW236384   1.000   4.216   7.802  0.7375  0.7814  0.7644
 8309SOL     OW36385   1.437   3.375   2.283 -0.3430  0.6009  0.6593
 8309SOL    HW136386   1.531   3.396   2.288 -0.4916  1.3036  0.4951
 8309SOL    HW236387   1.431   3.366   2.188  0.5302  2.2825  0.4262
 8310SOL     OW36388   0.322   2.856   6.692  0.0216 -0.5670  0.0841
 8310SOL    HW136389   0.309   2.767   6.725 -2.1916  0.3399  1.7165
 8310SOL    HW236390   0.311   2.898   6.777 -2.1405  0.2480 -0.5955
 8311SOL     OW36391   1.196   3.783  11.639  0.8001 -0.4242 -0.3253
 8311SOL    HW136392   1.145   3.752  11.713  0.0284  3.2787  0.6834
 8311SOL    HW236393   1.123   3.830  11.599  0.3882 -0.0487  0.8935
 8312SOL     OW36394   1.629   2.043   3.110 -0.2066  0.6761  0.2827
 8312SOL    HW136395   1.561   2.017   3.173 -0.1255  2.2133  0.9931
 8312SOL    HW236396   1.587   2.059   3.026  2.8934 -1.1509 -1.6332
 8313SOL     OW36397   4.108   4.214  17.553 -0.0339  0.1099  0.0336
 8313SOL    HW136398   4.184   4.273  17.551  2.8391 -3.6112  0.3047
 8313SOL    HW236399   4.160   4.135  17.565  1.6668  1.2905  0.3434
 8314SOL     OW36400   2.484   2.633   2.485  0.0779  0.4802 -0.3737
 8314SOL    HW136401   2.402   2.586   2.494 -0.3540  1.5163  0.9851
 8314SOL    HW236402   2.508   2.642   2.577 -0.0462 -0.0273 -0.2933
 8315SOL     OW36403   4.175   3.522   3.807 -0.3826  0.2230  0.2967
 8315SOL    HW136404   4.202   3.614   3.801  2.7024 -0.6388  1.4397
 8315SOL    HW236405   4.082   3.540   3.794 -0.1053 -0.8208 -3.1713
 8316SOL     OW36406   2.269   0.070   4.103 -0.3992 -0.6074 -0.2488
 8316SOL    HW136407   2.228   0.145   4.146 -1.8725 -2.1343  0.9926
 8316SOL    HW236408   2.237   4.719   4.155 -2.0037  0.9511  0.9909
 8317SOL     OW36409   3.746   3.423   0.364 -0.3672  0.5822  0.7955
 8317SOL    HW136410   3.803   3.498   0.345 -0.4243  0.3251 -0.3955
 8317SOL    HW236411   3.808   3.356   0.394  1.3092  1.3321 -0.9703
 8318SOL     OW36412   0.794   1.574   3.844 -0.0725  0.1512  0.1438
 8318SOL    HW136413   0.867   1.604   3.790 -0.3038 -0.4668 -0.5125
 8318SOL    HW236414   0.763   1.501   3.791  1.5242 -1.4788  1.4855
 8319SOL     OW36415   1.810   1.206  11.996 -0.3678  0.0157  0.6847
 8319SOL    HW136416   1.844   1.117  11.987 -0.6946  0.0111 -0.5321
 8319SOL    HW236417   1.889   1.258  11.981 -1.3730  1.7037  1.3063
 8320SOL     OW36418   1.060   2.757  15.857 -0.3595  0.2729 -0.0313
 8320SOL    HW136419   1.093   2.669  15.872  0.7704  0.9606  1.5281
 8320SOL    HW236420   1.144   2.802  15.847 -1.2705  1.4512 -2.3294
 8321SOL     OW36421   2.276   1.093  11.939  0.1556 -0.0923  0.0359
 8321SOL    HW136422   2.337   1.096  11.865 -0.6663 -0.9272 -0.6784
 8321SOL    HW236423   2.278   0.999  11.956 -0.0622  0.0201  0.6691
 8322SOL     OW36424   3.246   3.577   0.580  0.2626  0.3893  0.0322
 8322SOL    HW136425   3.177   3.595   0.643 -1.1362 -0.5812 -1.2012
 8322SOL    HW236426   3.227   3.488   0.549 -0.6502  0.2457  1.0185
 8323SOL     OW36427   0.069   0.151   2.954  0.5249 -0.0641  0.2912
 8323SOL    HW136428   0.113   0.236   2.952  0.9645 -0.3337 -1.6574
 8323SOL    HW236429   0.143   0.101   2.990  0.0007 -1.3970 -0.4628
 8324SOL     OW36430   3.333   3.069   7.734 -0.5205 -0.3076 -0.7362
 8324SOL    HW136431   3.310   3.024   7.653  1.2979 -0.8749 -0.9511
 8324SOL    HW236432   3.299   3.156   7.717 -3.1328 -1.4344 -1.1758
 8325SOL     OW36433   0.963   2.318   2.520  0.1726 -0.0020 -0.0775
 8325SOL    HW136434   0.889   2.376   2.536 -0.7783 -0.3079 -3.3735
 8325SOL    HW236435   0.907   2.239   2.521  1.2104 -0.7629 -2.3382
 8326SOL     OW36436   1.311   2.424   7.967 -0.2216 -0.3803 -0.8247
 8326SOL    HW136437   1.344   2.429   8.057 -0.7804  1.7149 -0.7323
 8326SOL    HW236438   1.301   2.514   7.935 -2.0507  0.9550  3.5446
 8327SOL     OW36439   0.937   3.489   6.326  0.1941 -0.4365 -0.1267
 8327SOL    HW136440   0.878   3.437   6.271  0.7578 -1.4635  0.2319
 8327SOL    HW236441   1.009   3.425   6.329  0.7262  0.1303 -0.7203
 8328SOL     OW36442   0.795   3.450   0.361  0.3235  0.4619  0.4444
 8328SOL    HW136443   0.877   3.457   0.409 -1.3593  1.0898  3.2092
 8328SOL    HW236444   0.812   3.512   0.290 -2.2550 -0.8800 -1.3679
 8329SOL     OW36445   4.104   2.561  11.906  0.2808  0.1534  0.0103
 8329SOL    HW136446   4.118   2.646  11.864 -1.2786 -0.0897 -0.9672
 8329SOL    HW236447   4.134   2.503  11.837 -1.6565 -1.4408  0.4980
 8330SOL     OW36448   2.429   2.458  10.847 -0.1538 -0.7084 -0.2924
 8330SOL    HW136449   2.479   2.377  10.835  3.6877  1.5114  0.7666
 8330SOL    HW236450   2.417   2.471  10.941  0.4079  1.6548 -0.5580
 8331SOL     OW36451   3.438   4.367  15.288 -0.1839  0.1076 -0.0993
 8331SOL    HW136452   3.442   4.279  15.325 -1.3523 -0.9019 -2.3707
 8331SOL    HW236453   3.529   4.386  15.265 -0.0717 -0.4117 -0.0806
 8332SOL     OW36454   0.042   3.763  15.015 -0.0169 -0.1322 -0.0300
 8332SOL    HW136455   4.695   3.827  15.003 -1.1000 -1.6213 -1.6337
 8332SOL    HW236456   0.036   3.734  14.924  1.0020 -0.1368 -0.0942
 8333SOL     OW36457   2.373   1.522  10.674  0.3547 -0.4067  0.3140
 8333SOL    HW136458   2.335   1.533  10.587  2.2355  2.2691 -0.1657
 8333SOL    HW236459   2.346   1.603  10.717  2.3831  0.4566 -0.0326
 8334SOL     OW36460   0.821   0.289   6.614  0.0667 -0.1497 -0.0998
 8334SOL    HW136461   0.850   0.211   6.567 -1.7468  0.2004 -1.7639
 8334SOL    HW236462   0.775   0.247   6.687 -1.2445  2.1603  0.3737
 8335SOL     OW36463   0.382   1.018   7.546  0.0350  0.0024  0.2909
 8335SOL    HW136464   0.400   0.961   7.621 -2.1330 -1.6824 -0.4651
 8335SOL    HW236465   0.287   1.026   7.545 -0.0662 -1.2391  0.0954
 8336SOL     OW36466   2.794   1.062   1.757  0.2041  0.3404  0.4772
 8336SOL    HW136467   2.701   1.083   1.757  0.1296 -0.0005  1.1242
 8336SOL    HW236468   2.825   1.132   1.814  1.4278 -1.1767  1.6922
 8337SOL     OW36469   4.643   0.049   8.345 -0.1443 -0.1391 -0.7257
 8337SOL    HW136470   4.574   0.015   8.402 -1.4024 -0.1224 -2.2450
 8337SOL    HW236471   4.714   0.034   8.407 -1.4467 -1.7626  0.3667
 8338SOL     OW36472   0.376   2.585   4.041  0.0890  0.0350 -0.0947
 8338SOL    HW136473   0.396   2.493   4.023  0.8028 -0.1856  1.8363
 8338SOL    HW236474   0.283   2.587   4.022 -0.1913 -3.4115  0.8857
 8339SOL     OW36475   3.563   1.317   6.528  0.6470  0.0390 -0.3316
 8339SOL    HW136476   3.644   1.326   6.579 -1.4354 -0.6903  3.0848
 8339SOL    HW236477   3.561   1.399   6.480  1.6820  0.1876 -0.1231
 8340SOL     OW36478   1.202   1.172   0.452  0.5239 -0.3262  0.4644
 8340SOL    HW136479   1.138   1.102   0.457  0.2549 -0.0695  0.5923
 8340SOL    HW236480   1.212   1.190   0.545  0.0019 -1.5255  0.7443
 8341SOL     OW36481   1.209   3.499   4.971 -0.6486 -0.1637  0.0717
 8341SOL    HW136482   1.173   3.416   4.940  0.4126 -0.5065 -0.2364
 8341SOL    HW236483   1.168   3.554   4.904  3.1830  0.5625 -1.6726
 8342SOL     OW36484   0.885   4.162   0.731 -0.5480  0.3667  0.0736
 8342SOL    HW136485   0.794   4.145   0.707 -1.2637  3.9570  0.1227
 8342SOL    HW236486   0.898   4.077   0.773  1.1821  1.5347  1.8876
 8343SOL     OW36487   1.873   4.278   4.579 -0.8093  0.3352 -0.2586
 8343SOL    HW136488   1.830   4.342   4.523  0.7073 -0.4306 -2.3219
 8343SOL    HW236489   1.961   4.317   4.576 -0.1433 -1.1694 -0.1348
 8344SOL     OW36490   2.098   2.414  11.112  0.4184 -0.2171 -0.6816
 8344SOL    HW136491   2.138   2.455  11.036 -1.7883  2.4872 -0.3583
 8344SOL    HW236492   2.163   2.433  11.179  1.1928 -0.1425 -1.4659
 8345SOL     OW36493   0.966   2.282   8.074 -0.1520  0.5482  0.1210
 8345SOL    HW136494   0.877   2.278   8.039  0.3564  3.0812 -1.4258
 8345SOL    HW236495   1.031   2.269   8.006 -0.0388  0.0270  0.3221
 8346SOL     OW36496   0.116   4.065   7.392 -0.5068  0.2099  0.0349
 8346SOL    HW136497   0.068   4.112   7.460  1.0749 -0.0175  1.3117
 8346SOL    HW236498   0.048   3.999   7.380  0.0858 -0.5613  0.9726
 8347SOL     OW36499   2.854   1.632   5.565 -0.0516  0.0923  0.4979
 8347SOL    HW136500   2.809   1.555   5.528  0.4386  0.4795 -0.9097
 8347SOL    HW236501   2.900   1.667   5.489 -0.9314  1.3589  0.5563
 8348SOL     OW36502   4.642   2.418   0.458  0.0562 -0.0513 -0.0333
 8348SOL    HW136503   4.645   2.510   0.434 -0.8169  0.3094  1.2609
 8348SOL    HW236504   0.002   2.378   0.433  1.1080  2.8792 -1.1604
 8349SOL     OW36505   1.864   4.226  16.604 -0.8543 -0.1269 -0.4573
 8349SOL    HW136506   1.779   4.189  16.582 -0.3424 -1.9441  0.5861
 8349SOL    HW236507   1.899   4.158  16.662 -0.4550  1.2977  0.9969
 8350SOL     OW36508   2.201   1.946   3.706  0.6938 -0.6948 -0.2094
 8350SOL    HW136509   2.153   1.920   3.628  0.1518 -0.7082  0.1306
 8350SOL    HW236510   2.289   1.954   3.670  0.9760  2.1759  1.0877
 8351SOL     OW36511   3.448   0.605   7.600  0.7127 -0.0670  0.1484
 8351SOL    HW136512   3.404   0.536   7.650 -3.6146  2.0409 -0.7629
 8351SOL    HW236513   3.521   0.627   7.658 -1.6398  0.1125  3.0103
 8352SOL     OW36514   1.581   3.208  11.986  0.3258  0.0112 -0.3569
 8352SOL    HW136515   1.539   3.197  12.072  0.1241 -3.0924 -0.8506
 8352SOL    HW236516   1.643   3.279  12.004 -0.5517  0.6589  0.1421
 8353SOL     OW36517   2.438   1.576   9.777 -0.4283  0.3033 -0.0112
 8353SOL    HW136518   2.380   1.537   9.842 -0.8358  1.9444  0.6195
 8353SOL    HW236519   2.406   1.666   9.783  0.1979  0.6417 -1.7057
 8354SOL     OW36520   2.673   1.209   3.583 -0.8385 -0.0821  0.3074
 8354SOL    HW136521   2.710   1.162   3.508  0.2475 -0.8842  1.3384
 8354SOL    HW236522   2.579   1.203   3.570 -1.3626  2.1744  3.0022
 8355SOL     OW36523   0.206   2.028   7.283 -0.0690  0.3834  0.0418
 8355SOL    HW136524   0.251   1.966   7.340  0.0787  1.3510  0.9943
 8355SOL    HW236525   0.113   2.023   7.306 -0.2721 -1.9415 -1.3533
 8356SOL     OW36526   1.785   1.659  12.687 -0.1026  0.5573  0.5726
 8356SOL    HW136527   1.789   1.619  12.601  0.0310 -1.7681  1.6547
 8356SOL    HW236528   1.756   1.745  12.659 -0.5537  0.6971  1.4406
 8357SOL     OW36529   1.369   3.912   3.034  0.0059  0.3117 -0.0810
 8357SOL    HW136530   1.315   3.991   3.034 -0.3513  0.0701 -0.3865
 8357SOL    HW236531   1.438   3.939   3.094  1.5861 -2.1405 -0.7881
 8358SOL     OW36532   4.308   1.836  15.108  0.1889 -0.5326  0.3143
 8358SOL    HW136533   4.297   1.931  15.107  0.9208 -0.4269  1.9475
 8358SOL    HW236534   4.313   1.811  15.015  0.1380  1.4382 -0.2061
 8359SOL     OW36535   4.053   0.312   3.751 -0.6855  0.2475 -0.2910
 8359SOL    HW136536   4.122   0.376   3.737  0.6410 -1.1507 -0.1615
 8359SOL    HW236537   4.056   0.281   3.660 -1.5285  1.2565 -0.6661
 8360SOL     OW36538   0.024   4.063   5.583  0.0376  0.3176 -0.2597
 8360SOL    HW136539   0.021   3.988   5.524 -1.3569  0.0266  0.1774
 8360SOL    HW236540   4.678   4.118   5.544 -0.3638 -0.7346 -1.0275
 8361SOL     OW36541   2.501   2.951   0.808  0.5165  0.0973  0.2013
 8361SOL    HW136542   2.430   2.930   0.868  1.1732 -0.8786  0.6401
 8361SOL    HW236543   2.564   2.983   0.873  0.5751  0.9512 -0.2836
 8362SOL     OW36544   0.283   4.595   8.704 -0.2624  0.5025  0.2418
 8362SOL    HW136545   0.300   4.608   8.797 -1.1292  1.9328  0.2090
 8362SOL    HW236546   0.360   4.639   8.668  0.0176  1.1446  1.6475
 8363SOL     OW36547   0.536   4.009   6.816  0.0083 -0.4585  0.7024
 8363SOL    HW136548   0.587   4.059   6.753 -1.0873  0.0559  0.2189
 8363SOL    HW236549   0.566   3.920   6.797 -0.1479 -0.2618 -0.4718
 8364SOL     OW36550   0.584   3.678   5.608  0.2041  0.1544  0.3579
 8364SOL    HW136551   0.544   3.752   5.563  2.5374  1.6866  0.8043
 8364SOL    HW236552   0.544   3.685   5.694 -2.0077 -0.1242 -0.6621
 8365SOL     OW36553   0.706   3.832   4.376  0.4936 -0.2478 -0.0291
 8365SOL    HW136554   0.626   3.780   4.372  1.8631 -2.2443 -1.3579
 8365SOL    HW236555   0.672   3.920   4.362 -3.5391 -2.3304 -3.3451
 8366SOL     OW36556   0.198   3.513   7.648 -0.7112 -0.0105  0.3793
 8366SOL    HW136557   0.168   3.597   7.683 -0.4936  1.3866 -2.8034
 8366SOL    HW236558   0.126   3.484   7.592 -1.4983  0.9390  0.8810
 8367SOL     OW36559   3.316   3.937  14.213 -0.6718 -0.0263  0.4115
 8367SOL    HW136560   3.331   4.028  14.240 -2.0526  0.3665 -0.0876
 8367SOL    HW236561   3.258   3.896  14.277  1.1243 -0.2255  1.8866
 8368SOL     OW36562   2.570   2.258  16.978 -0.3901 -0.2634 -0.0664
 8368SOL    HW136563   2.483   2.287  16.951  0.4810  1.1962 -1.2216
 8368SOL    HW236564   2.609   2.242  16.892 -0.6929  0.4819 -0.3383
 8369SOL     OW36565   2.725   3.519   8.862 -0.2804 -0.1539 -0.1707
 8369SOL    HW136566   2.724   3.585   8.932  0.1273  0.6696 -0.9296
 8369SOL    HW236567   2.799   3.476   8.905 -1.5928  0.2117  2.4207
 8370SOL     OW36568   1.178   3.326  11.553 -0.3924  0.0669  0.4476
 8370SOL    HW136569   1.141   3.392  11.495  1.6622 -0.0986 -1.0558
 8370SOL    HW236570   1.206   3.385  11.624 -0.9681 -0.1203  0.8310
 8371SOL     OW36571   3.812   2.603   8.879 -0.1556  0.5796 -0.3322
 8371SOL    HW136572   3.880   2.622   8.943  1.1638  2.5292 -2.3330
 8371SOL    HW236573   3.793   2.514   8.909 -0.2145  1.0818  1.1017
 8372SOL     OW36574   1.440   2.826   7.487  0.1238  0.0187  0.8335
 8372SOL    HW136575   1.403   2.767   7.553 -0.2785  0.1803  0.7546
 8372SOL    HW236576   1.388   2.907   7.491 -1.1668 -0.6665 -1.9599
 8373SOL     OW36577   0.112   4.664   2.751 -0.0829  0.6807 -0.8679
 8373SOL    HW136578   0.043   4.603   2.725  1.8538 -0.6874 -2.7549
 8373SOL    HW236579   0.068   4.717   2.817 -1.0936  0.5185 -1.4011
 8374SOL     OW36580   2.184   1.727   7.227  0.0386  0.2877 -0.8816
 8374SOL    HW136581   2.216   1.648   7.183 -0.6664 -0.7361  0.4210
 8374SOL    HW236582   2.262   1.775   7.255  0.3122 -0.6914  0.0412
 8375SOL     OW36583   0.438   2.786   2.986  0.4264  0.1037  0.3286
 8375SOL    HW136584   0.399   2.806   3.071 -1.3023  0.3048 -0.5075
 8375SOL    HW236585   0.498   2.716   3.010  0.7947  0.5284  0.6597
 8376SOL     OW36586   3.299   0.290   9.432 -0.3805 -0.0901 -0.1929
 8376SOL    HW136587   3.259   0.373   9.407  0.5540  0.8123  1.3408
 8376SOL    HW236588   3.388   0.319   9.451 -0.8523  0.3457  1.2899
 8377SOL     OW36589   3.956   0.608   3.683 -0.2058 -0.4367  0.2424
 8377SOL    HW136590   3.979   0.545   3.752  1.0174 -1.9487 -1.5487
 8377SOL    HW236591   4.032   0.609   3.625 -0.5235 -0.3579 -0.1677
 8378SOL     OW36592   0.076   1.520  16.916 -0.2016  0.2540  0.4767
 8378SOL    HW136593   0.053   1.499  17.007 -0.1772  1.0970  0.6698
 8378SOL    HW236594   0.162   1.478  16.911 -0.5703 -0.3864 -0.7111
 8379SOL     OW36595   3.111   1.653   0.373 -0.2766  0.3703 -0.3806
 8379SOL    HW136596   3.030   1.698   0.397  0.2300  0.9861  0.1796
 8379SOL    HW236597   3.176   1.723   0.378  0.5007 -0.2573 -1.7932
 8380SOL     OW36598   2.609   1.625   7.480 -0.5803 -0.1716 -0.3355
 8380SOL    HW136599   2.700   1.631   7.508 -0.8705  1.1135  0.3381
 8380SOL    HW236600   2.598   1.530   7.477  2.3854 -0.5172 -0.0929
 8381SOL     OW36601   1.396   3.444   7.513  0.0533  0.1278  0.1407
 8381SOL    HW136602   1.401   3.384   7.438 -0.9259 -0.2476  0.3850
 8381SOL    HW236603   1.384   3.374   7.578  2.4670  1.1322  1.6762
 8382SOL     OW36604   1.795   0.917   6.491  0.1806  0.3386 -0.3203
 8382SOL    HW136605   1.836   0.833   6.510 -0.8119 -0.1900 -0.5113
 8382SOL    HW236606   1.790   0.945   6.582 -0.2897 -0.7523 -0.0187
 8383SOL     OW36607   3.299   2.607   4.262  0.5069  0.3265  0.0565
 8383SOL    HW136608   3.294   2.656   4.179 -0.6910  0.1890  0.0496
 8383SOL    HW236609   3.366   2.542   4.238  2.0491  2.1957 -0.7383
 8384SOL     OW36610   1.529   0.217   5.117  0.4646  0.1506 -0.6720
 8384SOL    HW136611   1.521   0.131   5.075  0.4132  0.1295 -0.6199
 8384SOL    HW236612   1.440   0.249   5.129  0.8663  1.2102 -0.5641
 8385SOL     OW36613   2.228   1.006  10.111  0.3221  0.1032 -0.5133
 8385SOL    HW136614   2.236   1.073  10.178  1.1672 -0.6945  0.1737
 8385SOL    HW236615   2.135   1.020  10.090  0.1019  0.2320  0.5643
 8386SOL     OW36616   2.739   2.454   6.784 -0.7841  0.6349  0.6745
 8386SOL    HW136617   2.741   2.549   6.770 -0.1602  0.6972  1.2065
 8386SOL    HW236618   2.713   2.429   6.695 -0.0075  2.7266 -0.1361
 8387SOL     OW36619   2.374   0.543  13.844  0.0210 -0.0472  0.5572
 8387SOL    HW136620   2.294   0.509  13.805  1.1415  1.6358 -3.1441
 8387SOL    HW236621   2.434   0.473  13.819 -1.9005 -0.6628 -2.2034
 8388SOL     OW36622   0.646   3.117  15.749 -0.3072  0.0253 -0.3418
 8388SOL    HW136623   0.709   3.182  15.718 -2.1170  1.3832 -1.2150
 8388SOL    HW236624   0.711   3.051  15.772 -1.2741 -0.0104  2.1842
 8389SOL     OW36625   1.636   2.910   0.794  0.0675  0.0814  0.2530
 8389SOL    HW136626   1.695   2.848   0.750  0.5351 -0.5852  1.8075
 8389SOL    HW236627   1.580   2.933   0.720  0.1392  2.0314  0.8071
 8390SOL     OW36628   4.063   3.567   5.989  0.3427  0.0767  0.2875
 8390SOL    HW136629   4.127   3.636   6.000 -0.2398  0.7754 -0.6825
 8390SOL    HW236630   4.006   3.626   5.939 -0.3613 -2.7820 -2.3087
 8391SOL     OW36631   1.658   4.427  11.711 -0.0332  0.1992 -0.2891
 8391SOL    HW136632   1.576   4.379  11.699  0.2404 -0.6060  1.0687
 8391SOL    HW236633   1.713   4.353  11.683 -0.4610  0.2904 -1.3873
 8392SOL     OW36634   2.147   1.059  12.428  0.2689  0.4333 -0.5323
 8392SOL    HW136635   2.075   1.107  12.468  0.0836 -0.2061 -0.0953
 8392SOL    HW236636   2.101   1.035  12.347 -3.2696 -1.4120  2.0369
 8393SOL     OW36637   0.158   0.382  16.469  0.2023 -0.8309 -0.0125
 8393SOL    HW136638   0.143   0.476  16.477  3.5352 -0.5898  3.3484
 8393SOL    HW236639   0.228   0.365  16.406  0.2359 -3.7675  0.7897
 8394SOL     OW36640   2.816   0.609   4.311 -0.1078  0.1328  0.4004
 8394SOL    HW136641   2.822   0.667   4.235 -3.2247  1.7776  1.3874
 8394SOL    HW236642   2.881   0.544   4.285 -0.4190  1.2753 -3.1958
 8395SOL     OW36643   4.289   0.578   6.781  0.6473 -0.3947 -0.4510
 8395SOL    HW136644   4.296   0.578   6.686  1.6771  0.8781 -0.3732
 8395SOL    HW236645   4.240   0.496   6.789  0.4500  0.0683  2.9435
 8396SOL     OW36646   4.507   2.301   9.817  0.6288  0.7922 -0.1207
 8396SOL    HW136647   4.602   2.295   9.829  0.2508 -3.4225  0.7169
 8396SOL    HW236648   4.479   2.219   9.857 -1.2116  1.8481  0.7356
 8397SOL     OW36649   0.768   3.512   2.893  0.0031 -0.6340 -0.4684
 8397SOL    HW136650   0.724   3.519   2.809 -0.0897 -2.4288 -0.5781
 8397SOL    HW236651   0.809   3.598   2.900 -3.0613  0.9657 -2.0107
 8398SOL     OW36652   0.089   4.301   5.858  0.4153 -0.1514  0.1186
 8398SOL    HW136653   0.134   4.221   5.830  0.5698  0.2272 -0.7151
 8398SOL    HW236654   0.078   4.354   5.779  0.8589 -0.1986  0.0237
 8399SOL     OW36655   3.068   3.659   7.263 -0.4480 -0.1245  0.1580
 8399SOL    HW136656   3.127   3.615   7.323  0.2235  0.2082 -0.2659
 8399SOL    HW236657   3.106   3.746   7.252 -1.2204  0.1160 -0.6279
 8400SOL     OW36658   4.682   1.099   7.782 -0.0536 -0.3419 -0.6548
 8400SOL    HW136659   4.648   1.024   7.830  0.1412 -0.3046 -0.4597
 8400SOL    HW236660   4.594   1.133   7.767  0.6387  2.1045  0.8174
 8401SOL     OW36661   1.764   4.389   5.654 -0.2368 -0.3373 -0.0980
 8401SOL    HW136662   1.788   4.437   5.575  0.9733 -1.9870 -0.7422
 8401SOL    HW236663   1.684   4.353   5.617 -0.0176 -0.5339 -0.3851
 8402SOL     OW36664   2.034   0.993   0.493  0.0474  0.1249  0.2540
 8402SOL    HW136665   2.024   1.088   0.493 -1.3893 -0.0563 -2.1586
 8402SOL    HW236666   2.015   0.971   0.402 -1.6116 -0.3024  0.7027
 8403SOL     OW36667   0.165   2.998   2.091 -0.4856 -0.0438  0.4366
 8403SOL    HW136668   0.085   2.962   2.130 -1.3630 -1.0239 -2.2235
 8403SOL    HW236669   0.213   2.916   2.083 -2.2896 -0.9638 -0.9091
 8404SOL     OW36670   3.567   0.224   5.621  0.7047 -0.2653  0.2147
 8404SOL    HW136671   3.599   0.289   5.558  0.2386 -0.2448  0.0000
 8404SOL    HW236672   3.628   0.235   5.693  0.0212  1.2831  0.5695
 8405SOL     OW36673   0.515   1.746  10.940 -0.1092 -0.2635  0.3711
 8405SOL    HW136674   0.562   1.715  11.017 -1.6924 -1.9187  0.6825
 8405SOL    HW236675   0.553   1.833  10.927  0.3341 -0.7287 -1.3847
 8406SOL     OW36676   0.779   4.504   8.785  0.2380 -0.0192 -0.3524
 8406SOL    HW136677   0.762   4.444   8.858 -0.7068 -2.2234 -2.3560
 8406SOL    HW236678   0.725   4.457   8.721 -0.2080  2.8951 -2.0983
 8407SOL     OW36679   3.180   0.055   9.519 -0.0866 -0.1377  0.4388
 8407SOL    HW136680   3.149   0.015   9.438  0.5698 -2.0029  1.1051
 8407SOL    HW236681   3.204   0.144   9.491  3.9189 -1.0761  0.8512
 8408SOL     OW36682   0.909   3.503   8.923  0.2044 -0.1966 -0.2567
 8408SOL    HW136683   0.992   3.545   8.902 -0.0406  0.2338 -0.3609
 8408SOL    HW236684   0.953   3.427   8.961 -0.8582 -0.6889 -0.0008
 8409SOL     OW36685   4.295   4.355   5.903 -0.1250 -0.4674  0.2392
 8409SOL    HW136686   4.385   4.382   5.918  0.1080 -0.7937 -0.5684
 8409SOL    HW236687   4.254   4.408   5.971  0.2970 -0.1516  0.2440
 8410SOL     OW36688   2.411   4.231   2.986 -0.6354  0.6099 -0.2472
 8410SOL    HW136689   2.383   4.244   3.077 -1.6430 -1.2825 -0.2764
 8410SOL    HW236690   2.390   4.140   2.966 -1.5247  0.7541  0.0245
 8411SOL     OW36691   0.837   3.495  17.607 -0.3421 -0.0490  0.3562
 8411SOL    HW136692   0.843   3.588  17.631 -0.8260  0.2846 -0.7961
 8411SOL    HW236693   0.857   3.494  17.513 -0.5472 -1.1379  0.3271
 8412SOL     OW36694   1.343   1.771   3.171 -0.2840  0.2010  0.2265
 8412SOL    HW136695   1.334   1.831   3.245 -0.3060  0.1695  0.2489
 8412SOL    HW236696   1.266   1.720   3.195  0.4809  0.6086  3.5967
 8413SOL     OW36697   1.413   2.104   3.277  0.5052  0.0053  0.2927
 8413SOL    HW136698   1.409   2.052   3.357  2.2361 -0.0911  0.3185
 8413SOL    HW236699   1.352   2.169   3.312  0.8616  0.7207 -0.4235
 8414SOL     OW36700   3.470   1.425   4.700 -0.3170 -0.1625  0.2225
 8414SOL    HW136701   3.513   1.341   4.685 -0.9369  0.1138 -3.0856
 8414SOL    HW236702   3.461   1.459   4.610 -1.1986  0.7940  0.6728
 8415SOL     OW36703   3.719   1.530  11.844 -0.0044 -0.4599 -0.5097
 8415SOL    HW136704   3.764   1.446  11.855  0.6998 -0.0996 -0.6361
 8415SOL    HW236705   3.637   1.499  11.805  0.0657 -1.0061 -0.2250
 8416SOL     OW36706   2.114   2.444   2.051 -0.0022 -0.2625  0.5261
 8416SOL    HW136707   2.165   2.500   1.992  0.7114 -1.0420  0.4151
 8416SOL    HW236708   2.178   2.390   2.097  0.5619 -0.6003 -0.6545
 8417SOL     OW36709   2.242   3.735  14.539  0.0995 -0.1047  0.0924
 8417SOL    HW136710   2.284   3.722  14.454  0.1790 -0.1959  0.1461
 8417SOL    HW236711   2.222   3.829  14.544  0.3963 -0.1568  2.3220
 8418SOL     OW36712   4.550   3.759   7.872 -0.4746  0.0135 -0.1162
 8418SOL    HW136713   4.558   3.816   7.949  1.3070  0.5249 -0.6735
 8418SOL    HW236714   4.486   3.695   7.901 -0.3616 -0.5032 -1.0087
 8419SOL     OW36715   4.423   4.102   7.623  1.0336  0.0694 -0.0465
 8419SOL    HW136716   4.392   4.133   7.538  1.8126  0.1052 -0.3165
 8419SOL    HW236717   4.337   4.110   7.666 -0.1627 -0.5417 -2.3313
 8420SOL     OW36718   0.495   0.070   7.447  0.4603  0.2652  0.2421
 8420SOL    HW136719   0.542   4.712   7.466 -0.1055 -0.2209 -0.4426
 8420SOL    HW236720   0.424   0.061   7.511  0.0559 -0.8670 -0.3707
 8421SOL     OW36721   4.440   1.284   2.448 -0.3399 -0.1131 -0.1501
 8421SOL    HW136722   4.475   1.200   2.475 -0.4106 -0.6119 -1.6027
 8421SOL    HW236723   4.352   1.257   2.422  1.1655 -3.5573 -1.5676
 8422SOL     OW36724   1.715   0.900   7.907 -0.1794 -0.1257 -0.3202
 8422SOL    HW136725   1.701   0.884   7.814  1.1166 -1.6769 -0.2612
 8422SOL    HW236726   1.730   0.814   7.947 -1.0257  0.9633  2.3423
 8423SOL     OW36727   0.434   0.641   1.257  0.2152 -0.8814  0.5088
 8423SOL    HW136728   0.496   0.630   1.185  0.8430 -1.6542  1.1721
 8423SOL    HW236729   0.479   0.619   1.339 -0.4248  0.9964  1.3634
 8424SOL     OW36730   0.214   1.512   1.629 -0.1642  0.8982  0.6814
 8424SOL    HW136731   0.277   1.443   1.607 -0.2211 -0.4605  4.8180
 8424SOL    HW236732   0.131   1.478   1.596 -0.5208  2.0189  0.4337
 8425SOL     OW36733   0.734   2.083   6.701 -0.4411  0.4515  0.3751
 8425SOL    HW136734   0.827   2.081   6.724 -0.7063  0.8145  1.4676
 8425SOL    HW236735   0.697   2.095   6.788  0.6833  0.4540  0.8523
 8426SOL     OW36736   0.132   2.386  10.752  0.1466  0.0211  0.3076
 8426SOL    HW136737   0.090   2.471  10.744 -0.0737  0.1259  2.5923
 8426SOL    HW236738   0.173   2.372  10.666 -0.0570  0.6611  0.1041
 8427SOL     OW36739   2.851   2.621   2.288 -0.2672 -0.2486  0.0273
 8427SOL    HW136740   2.839   2.660   2.202 -0.4780 -1.8265 -0.6569
 8427SOL    HW236741   2.946   2.610   2.287 -0.2832 -0.7991  3.2424
 8428SOL     OW36742   0.694   0.255  17.665  0.8037  0.4411 -0.3567
 8428SOL    HW136743   0.788   0.237  17.657  0.6295 -0.0263 -1.2307
 8428SOL    HW236744   0.685   0.207   0.053  0.1333  1.9291  0.4491
 8429SOL     OW36745   3.561   0.097  17.011  0.0397  0.4801  0.0226
 8429SOL    HW136746   3.538   0.185  16.981 -0.3066 -0.0980 -1.4136
 8429SOL    HW236747   3.613   0.063  16.938 -0.1724 -1.8190  0.9498
 8430SOL     OW36748   4.266   3.825  14.440 -0.0510  0.0766 -0.0843
 8430SOL    HW136749   4.177   3.804  14.467 -0.4745  0.1309 -1.4493
 8430SOL    HW236750   4.252   3.910  14.398 -0.5829 -0.8538 -1.7986
 8431SOL     OW36751   0.245   3.372   4.601 -0.4795  0.2059  0.0504
 8431SOL    HW136752   0.195   3.428   4.661  0.9444  3.2048 -1.5800
 8431SOL    HW236753   0.328   3.419   4.606  0.2764 -1.2794  1.4142
 8432SOL     OW36754   4.654   2.557   1.225  0.9157  0.2872  0.0661
 8432SOL    HW136755   4.690   2.532   1.139 -1.0948  2.3063 -1.3556
 8432SOL    HW236756   4.582   2.618   1.211  1.8682  1.4616  0.2510
 8433SOL     OW36757   0.955   3.309  10.005 -0.0218 -0.4889  0.1247
 8433SOL    HW136758   0.912   3.378  10.056 -1.0105  0.0868 -1.4643
 8433SOL    HW236759   0.889   3.296   9.937  0.5574 -0.1860 -0.4916
 8434SOL     OW36760   3.076   2.387  15.020 -0.0433  0.1102 -0.7505
 8434SOL    HW136761   3.106   2.357  14.934 -1.4094 -0.5950 -0.9838
 8434SOL    HW236762   3.001   2.439  14.990  0.3107  1.6255  0.9438
 8435SOL     OW36763   0.920   2.052   3.911 -0.2327 -0.1851  0.3650
 8435SOL    HW136764   0.867   2.121   3.870 -2.0306 -0.5988  1.9743
 8435SOL    HW236765   0.995   2.108   3.932 -1.8808  1.2298  2.5312
 8436SOL     OW36766   2.494   3.950  10.615  0.3327  0.3318 -0.7076
 8436SOL    HW136767   2.578   3.966  10.571  0.4756  2.6692  0.4161
 8436SOL    HW236768   2.471   4.042  10.621  1.1066  0.5186 -0.5574
 8437SOL     OW36769   0.595   0.704   1.887  0.1399  0.0241  0.0598
 8437SOL    HW136770   0.562   0.792   1.906 -2.3891 -1.0409  0.6564
 8437SOL    HW236771   0.658   0.724   1.818  0.3045 -0.5639  0.0380
 8438SOL     OW36772   2.243   1.927   0.123  0.6820 -0.0105  0.2459
 8438SOL    HW136773   2.260   1.860   0.189 -2.1659 -0.6295  0.3243
 8438SOL    HW236774   2.165   1.892   0.081  0.3182  0.2267  0.7345
 8439SOL     OW36775   4.423   3.094   3.172 -0.0048 -0.4807  0.0302
 8439SOL    HW136776   4.492   3.146   3.213  0.2934  1.9124 -3.4955
 8439SOL    HW236777   4.479   3.051   3.107 -1.2194 -2.2000  0.1363
 8440SOL     OW36778   2.192   4.200  12.624 -0.0653 -0.7411 -0.0573
 8440SOL    HW136779   2.259   4.250  12.669  2.9982 -4.2211 -0.7453
 8440SOL    HW236780   2.235   4.150  12.555  1.2790  1.0731 -0.5306
 8441SOL     OW36781   4.254   2.436   5.490  0.2953 -0.0111 -0.2597
 8441SOL    HW136782   4.317   2.363   5.491  0.4865  0.1803  1.8537
 8441SOL    HW236783   4.311   2.505   5.524  1.0781 -0.6595 -0.2332
 8442SOL     OW36784   0.529   3.427   9.323 -0.2580 -0.5673 -0.0999
 8442SOL    HW136785   0.625   3.426   9.324 -0.2246  3.6983  0.3954
 8442SOL    HW236786   0.519   3.513   9.363  0.7961 -0.3124 -0.4051
 8443SOL     OW36787   4.127   2.899   8.321 -0.5176 -0.6996 -0.3810
 8443SOL    HW136788   4.193   2.887   8.253  0.5834  0.1613  0.5440
 8443SOL    HW236789   4.113   2.809   8.350  1.1543 -2.2125 -4.2144
 8444SOL     OW36790   0.802   4.353   5.959 -0.5096  0.6421 -0.2794
 8444SOL    HW136791   0.772   4.343   6.049 -0.5692 -1.7157 -0.5705
 8444SOL    HW236792   0.748   4.297   5.903 -0.4974 -0.4438  0.8041
 8445SOL     OW36793   3.111   1.380   0.404  0.7074 -0.0590  0.2432
 8445SOL    HW136794   3.113   1.476   0.396 -1.8907  0.2682  3.7174
 8445SOL    HW236795   3.026   1.366   0.362  1.6833  0.0300 -1.7748
 8446SOL     OW36796   4.519   0.193   7.827  0.3317 -0.2020 -0.3923
 8446SOL    HW136797   4.429   0.217   7.848  1.1202  0.5217  2.1064
 8446SOL    HW236798   4.513   0.116   7.770  0.7425  0.2886 -1.0993
 8447SOL     OW36799   3.263   1.514  11.149 -0.8747 -0.7527  0.5164
 8447SOL    HW136800   3.297   1.451  11.086  2.6929 -0.0015  1.6811
 8447SOL    HW236801   3.325   1.585  11.131 -2.3190  0.1050 -1.1172
 8448SOL     OW36802   4.478   3.346   3.526  0.2559 -0.2260 -0.3746
 8448SOL    HW136803   4.456   3.264   3.481  1.4058 -0.2569 -0.8555
 8448SOL    HW236804   4.397   3.396   3.533 -0.9490 -2.0518 -1.1995
 8449SOL     OW36805   4.322   3.669   6.348 -0.1596 -0.3226 -0.3793
 8449SOL    HW136806   4.412   3.641   6.365 -0.4154 -2.0654 -1.8708
 8449SOL    HW236807   4.331   3.712   6.263 -1.3860  1.6450  0.4768
 8450SOL     OW36808   0.952   4.208   7.230 -0.2936  0.1241 -0.3951
 8450SOL    HW136809   0.978   4.256   7.309 -0.9088 -3.0423  1.7181
 8450SOL    HW236810   0.878   4.258   7.197 -0.6764  0.1745  0.5344
 8451SOL     OW36811   2.555   2.172   4.190 -1.0461 -0.6902  0.0457
 8451SOL    HW136812   2.525   2.262   4.197 -0.0006 -0.5088  1.9047
 8451SOL    HW236813   2.649   2.183   4.203 -0.8497 -0.7712 -1.2273
 8452SOL     OW36814   2.278   1.391   5.833 -0.1366  0.5942 -0.4397
 8452SOL    HW136815   2.362   1.415   5.871 -0.2706 -1.9279  1.3763
 8452SOL    HW236816   2.272   1.298   5.852  3.6906  0.2166 -1.0845
 8453SOL     OW36817   4.301   1.782  11.821 -0.1705  0.1170  0.0890
 8453SOL    HW136818   4.364   1.839  11.866  0.8259  1.1480 -2.6312
 8453SOL    HW236819   4.370   1.727  11.785 -1.7449  0.5588 -3.5751
 8454SOL     OW36820   1.968   4.178   3.727 -0.1358 -0.1720 -0.1915
 8454SOL    HW136821   2.046   4.132   3.759 -1.0249 -0.6334  1.3081
 8454SOL    HW236822   2.004   4.199   3.641 -2.6381 -2.0445 -1.6759
 8455SOL     OW36823   0.243   4.063   0.103  0.1049 -0.5583 -0.1502
 8455SOL    HW136824   0.273   3.975   0.128  0.1363 -0.4322  0.2486
 8455SOL    HW236825   0.259   4.112   0.183 -3.0211  1.3135 -0.7026
 8456SOL     OW36826   1.382   4.344   7.684 -0.7564 -0.0844 -0.0314
 8456SOL    HW136827   1.351   4.348   7.775 -0.2472 -0.6174  0.1651
 8456SOL    HW236828   1.303   4.354   7.630 -0.5495 -0.1808 -0.3525
 8457SOL     OW36829   3.067   4.541   6.507 -0.1969  0.5130 -0.3566
 8457SOL    HW136830   3.032   4.452   6.499  2.8182 -0.5753 -1.5785
 8457SOL    HW236831   3.157   4.533   6.539 -0.2923  0.4082 -0.1156
 8458SOL     OW36832   1.415   3.958   6.081 -0.3023 -0.0152  0.0322
 8458SOL    HW136833   1.382   3.909   6.006 -0.1878 -0.8204  0.5130
 8458SOL    HW236834   1.333   3.972   6.128  0.6664 -0.3224  1.7831
 8459SOL     OW36835   2.754   0.795   3.362 -0.3210 -0.4397 -0.1369
 8459SOL    HW136836   2.703   0.714   3.355  1.0657 -1.0119 -3.6050
 8459SOL    HW236837   2.691   0.860   3.392  0.6109  0.4217 -0.0692
 8460SOL     OW36838   3.342   3.236   2.642 -0.0749  0.7868  0.0025
 8460SOL    HW136839   3.401   3.282   2.583  0.4038  1.2542  0.8420
 8460SOL    HW236840   3.351   3.146   2.609 -0.1922  1.1170 -0.9116
 8461SOL     OW36841   3.123   0.340  14.982 -0.1170 -0.2614  0.5505
 8461SOL    HW136842   3.138   0.434  14.976  2.0807 -0.7221 -1.0779
 8461SOL    HW236843   3.088   0.324  14.895  0.2931 -2.2262  0.7324
 8462SOL     OW36844   1.034   0.108   0.502 -0.3299  0.2582  0.2151
 8462SOL    HW136845   1.014   0.017   0.524  0.2810  0.0562 -0.0825
 8462SOL    HW236846   1.105   0.128   0.563  1.7530 -1.7991 -1.5798
 8463SOL     OW36847   3.886   0.439  15.624 -0.3152 -0.4531  0.1392
 8463SOL    HW136848   3.833   0.384  15.567  0.6674 -3.0315  1.7366
 8463SOL    HW236849   3.818   0.487  15.671 -0.6985 -0.1311 -0.7284
 8464SOL     OW36850   0.404   2.398  11.209  1.0213 -0.5563  0.0826
 8464SOL    HW136851   0.395   2.314  11.164 -0.9529 -1.1948  1.6742
 8464SOL    HW236852   0.491   2.399  11.250  0.7302  1.3876  0.6500
 8465SOL     OW36853   2.943   3.134  11.082  0.4217  0.0811  0.1317
 8465SOL    HW136854   2.897   3.133  10.998 -0.4770 -0.7909  0.6309
 8465SOL    HW236855   3.001   3.210  11.079  0.3575 -0.0174 -2.9345
 8466SOL     OW36856   4.531   1.011  16.993  0.6422 -0.8157  0.2920
 8466SOL    HW136857   4.484   0.963  16.925 -0.0827  1.2642 -0.6940
 8466SOL    HW236858   4.550   0.945  17.059 -0.9069 -0.3309  1.2073
 8467SOL     OW36859   1.036   3.514   1.940  0.1261  0.2132 -0.2804
 8467SOL    HW136860   0.988   3.592   1.913 -0.5656 -0.4758 -1.0440
 8467SOL    HW236861   1.124   3.547   1.959  0.6880 -0.9770 -0.8410
 8468SOL     OW36862   0.516   3.616  14.205 -0.2447 -0.5086 -0.6394
 8468SOL    HW136863   0.522   3.553  14.277  0.6057 -0.6304 -0.8245
 8468SOL    HW236864   0.422   3.609  14.185  0.1242 -2.1695 -1.7912
 8469SOL     OW36865   2.267   3.865  10.386  0.4063  0.5436  0.2299
 8469SOL    HW136866   2.270   3.951  10.345  1.4702 -0.7029 -2.3804
 8469SOL    HW236867   2.330   3.866  10.458  0.9062 -1.7785 -0.1600
 8470SOL     OW36868   0.998   2.544  14.384  0.0885 -0.0715 -0.0706
 8470SOL    HW136869   0.931   2.558  14.450  0.9083  2.3404  0.2618
 8470SOL    HW236870   1.073   2.510  14.433  0.3564 -0.1891 -0.5587
 8471SOL     OW36871   3.724   4.152   3.416 -0.3847  0.4334  0.1977
 8471SOL    HW136872   3.714   4.243   3.444  0.5618  0.8042 -0.6709
 8471SOL    HW236873   3.818   4.145   3.399 -0.5674 -0.1580 -0.5746
 8472SOL     OW36874   1.741   1.972   4.972  0.1213 -0.2357  0.7559
 8472SOL    HW136875   1.732   1.937   4.884  2.5043  1.4138 -0.1252
 8472SOL    HW236876   1.655   2.011   4.988  1.1970  2.9003 -1.1166
 8473SOL     OW36877   3.727   3.186  15.487 -0.0108  0.0008  0.3682
 8473SOL    HW136878   3.728   3.230  15.402 -0.7586 -0.6740  0.0137
 8473SOL    HW236879   3.794   3.234  15.536  0.9900  0.0509 -1.0694
 8474SOL     OW36880   4.255   3.135   6.254  0.3396 -0.1118  0.1474
 8474SOL    HW136881   4.186   3.087   6.300 -2.1836  1.3324 -2.1472
 8474SOL    HW236882   4.265   3.086   6.172  0.3381 -1.4123  0.9223
 8475SOL     OW36883   0.519   2.997  12.315 -0.1749 -0.2388 -0.7840
 8475SOL    HW136884   0.570   3.038  12.385 -0.0640 -0.4030 -0.7674
 8475SOL    HW236885   0.456   3.068  12.305 -2.7839 -2.4513  0.1671
 8476SOL     OW36886   3.326   4.129   6.173 -0.7247  0.0898  0.4310
 8476SOL    HW136887   3.353   4.117   6.264 -0.3350  2.9271  0.7060
 8476SOL    HW236888   3.230   4.134   6.175 -0.9485 -3.5708 -1.3149
 8477SOL     OW36889   1.843   0.539   2.923  0.2282 -0.3018  0.6194
 8477SOL    HW136890   1.833   0.623   2.968  1.2440 -0.2338  0.7126
 8477SOL    HW236891   1.929   0.511   2.953  0.0151 -0.2490  1.2927
 8478SOL     OW36892   0.335   4.019   6.033  0.3735  0.0148 -0.0125
 8478SOL    HW136893   0.302   4.003   5.945 -1.8520  0.5250  0.7083
 8478SOL    HW236894   0.290   3.951   6.084 -0.1387 -1.5229 -2.4960
 8479SOL     OW36895   3.431   4.669   6.473  0.2706 -0.0911 -0.4941
 8479SOL    HW136896   3.380   4.591   6.496  2.7167 -0.6964  2.8949
 8479SOL    HW236897   3.520   4.644   6.500  0.5843 -1.8908 -3.2547
 8480SOL     OW36898   2.399   2.253   8.304  0.1605 -0.2396 -0.1301
 8480SOL    HW136899   2.430   2.321   8.245 -0.4416  0.1604  0.0089
 8480SOL    HW236900   2.323   2.300   8.341  2.5941  2.3606  1.6104
 8481SOL     OW36901   1.124   0.003   5.362 -0.2609  0.8871 -0.3391
 8481SOL    HW136902   1.095   4.704   5.274 -2.1345 -0.4468  0.6203
 8481SOL    HW236903   1.036   0.015   5.397 -1.0152 -0.7127 -1.6793
 8482SOL     OW36904   1.248   1.967   6.818  0.8975  0.5062 -0.2803
 8482SOL    HW136905   1.297   1.926   6.889  0.2754 -1.6320 -1.0728
 8482SOL    HW236906   1.242   1.893   6.757 -0.5053 -1.9445  2.7796
 8483SOL     OW36907   4.622   3.565   3.428 -0.0370  0.4020  0.1962
 8483SOL    HW136908   4.610   3.471   3.439  0.9485  0.1896 -0.4838
 8483SOL    HW236909   4.549   3.582   3.368  0.7294 -1.9547 -1.3995
 8484SOL     OW36910   0.338   0.352   4.277  0.4221  0.1936  0.7141
 8484SOL    HW136911   0.335   0.287   4.208  1.1039 -0.1243  0.9897
 8484SOL    HW236912   0.285   0.415   4.229 -1.9011 -0.9001  1.8416
 8485SOL     OW36913   2.931   1.455   1.767  0.3110  0.5192  0.2359
 8485SOL    HW136914   2.847   1.435   1.726 -0.9719  2.4123  1.9145
 8485SOL    HW236915   2.907   1.509   1.842  0.4742  1.4672 -0.3935
 8486SOL     OW36916   3.738   3.472   7.669  0.1814  0.3990 -0.2833
 8486SOL    HW136917   3.713   3.455   7.578  0.3344  1.9309 -0.6047
 8486SOL    HW236918   3.829   3.503   7.661  0.0690  0.8958  0.3826
 8487SOL     OW36919   3.335   2.819   6.390 -0.2390 -0.3023  0.5172
 8487SOL    HW136920   3.384   2.779   6.462 -0.0006 -1.3566 -0.2260
 8487SOL    HW236921   3.352   2.912   6.401  0.7230 -0.1706 -2.1016
 8488SOL     OW36922   0.304   2.873   6.250  0.0975 -0.1126 -0.1863
 8488SOL    HW136923   0.380   2.898   6.196  0.8067 -0.1459  0.8043
 8488SOL    HW236924   0.307   2.779   6.231 -0.6014 -0.2172  0.2287
 8489SOL     OW36925   3.535   3.768  13.395 -0.3660  0.4787 -0.0852
 8489SOL    HW136926   3.497   3.826  13.330 -0.5460  1.5071  0.9502
 8489SOL    HW236927   3.568   3.706  13.330 -1.3351 -0.1933  0.0633
 8490SOL     OW36928   1.261   4.082   9.217  0.6518  0.2835  0.6649
 8490SOL    HW136929   1.286   4.019   9.285  0.2853 -1.0622 -0.4486
 8490SOL    HW236930   1.242   4.020   9.147  0.8039  0.2994  0.6090
 8491SOL     OW36931   1.374   2.828   3.251  0.2350 -0.3330 -0.0158
 8491SOL    HW136932   1.384   2.768   3.325 -2.6431 -1.2085 -0.3497
 8491SOL    HW236933   1.376   2.757   3.187  0.5919 -1.3327  1.1073
 8492SOL     OW36934   0.567   2.491   3.315 -0.5646  0.6409 -0.4193
 8492SOL    HW136935   0.572   2.449   3.400  0.0967  1.8026  0.1153
 8492SOL    HW236936   0.634   2.559   3.312  0.1437 -0.0607 -0.6125
 8493SOL     OW36937   0.568   4.374   6.244  0.2793 -0.4437 -0.1873
 8493SOL    HW136938   0.558   4.453   6.297 -0.5369 -0.0244 -0.9736
 8493SOL    HW236939   0.516   4.311   6.293  3.0253 -1.9156  0.8724
 8494SOL     OW36940   3.399   2.466   6.320  0.1202  0.4519  0.2276
 8494SOL    HW136941   3.451   2.538   6.285 -0.6879  0.7525 -0.3640
 8494SOL    HW236942   3.436   2.401   6.260  2.3818  1.7194  0.2909
 8495SOL     OW36943   3.517   3.685   1.429  0.4930 -0.2618 -0.2183
 8495SOL    HW136944   3.585   3.752   1.417  1.2637 -1.0923 -0.5041
 8495SOL    HW236945   3.444   3.724   1.380  1.4456  0.7840 -0.8148
 8496SOL     OW36946   4.703   1.693   4.886 -0.1184 -0.2664  0.1370
 8496SOL    HW136947   4.643   1.665   4.817  0.5341 -0.0181 -0.5234
 8496SOL    HW236948   0.016   1.608   4.909 -0.9749 -0.9617 -1.1158
 8497SOL     OW36949   2.239   1.456  11.347 -0.5003 -0.5595  0.4860
 8497SOL    HW136950   2.234   1.419  11.436  2.4616 -1.3741  0.2987
 8497SOL    HW236951   2.233   1.549  11.368  1.2293 -0.3874  0.2005
 8498SOL     OW36952   1.678   0.022   0.369 -0.1251  0.7126  0.2365
 8498SOL    HW136953   1.736   4.713   0.299 -0.7551  1.9810 -0.8796
 8498SOL    HW236954   1.599   4.698   0.341 -0.7445  1.5912  0.5126
 8499SOL     OW36955   4.157   0.815   4.898  0.2780  0.0885  0.1307
 8499SOL    HW136956   4.081   0.872   4.890 -0.0913 -0.6049 -1.1700
 8499SOL    HW236957   4.118   0.728   4.896 -0.1653  0.2112  2.6967
 8500SOL     OW36958   2.736   3.370   5.436 -0.2663  0.2162 -0.5201
 8500SOL    HW136959   2.729   3.275   5.430  0.3074  0.0418  1.5392
 8500SOL    HW236960   2.790   3.379   5.514 -1.2981  0.9039  0.1217
 8501SOL     OW36961   4.475   0.800   6.592 -0.5164 -0.4160 -0.1563
 8501SOL    HW136962   4.383   0.774   6.587  0.0182 -2.7153  1.7745
 8501SOL    HW236963   4.467   0.895   6.588  2.8249 -0.1290  0.3381
 8502SOL     OW36964   0.491   1.056   5.519  0.0174  0.1731 -0.2407
 8502SOL    HW136965   0.419   1.076   5.459  0.8284  0.4782 -1.1151
 8502SOL    HW236966   0.544   1.133   5.501 -2.2366  2.0476  1.2519
 8503SOL     OW36967   2.422   1.758   4.143 -0.4907  0.3120 -0.3092
 8503SOL    HW136968   2.416   1.835   4.086 -0.0467 -0.2820 -1.1509
 8503SOL    HW236969   2.355   1.703   4.102 -0.8710  0.0281  0.6996
 8504SOL     OW36970   4.673   4.576   6.716 -0.2687 -0.7546  0.2028
 8504SOL    HW136971   4.606   4.521   6.675  0.2826 -0.0609 -1.6191
 8504SOL    HW236972   4.658   4.652   6.659  1.0233  0.0702  0.9750
 8505SOL     OW36973   0.790   1.541   4.418 -0.1053 -0.0358 -0.4198
 8505SOL    HW136974   0.823   1.529   4.329  1.1844 -1.3745  0.2209
 8505SOL    HW236975   0.863   1.540   4.481  0.0105  2.0928 -0.5304
 8506SOL     OW36976   2.781   2.607  13.407  0.0339 -0.6558  1.1583
 8506SOL    HW136977   2.782   2.702  13.398 -0.0568 -0.7690 -0.0382
 8506SOL    HW236978   2.820   2.585  13.322  2.9629  0.3218  2.2433
 8507SOL     OW36979   4.286   0.544   6.499 -0.6344 -0.4874 -0.1285
 8507SOL    HW136980   4.352   0.488   6.459 -0.4562 -1.5051  1.5865
 8507SOL    HW236981   4.209   0.515   6.450  1.5204 -4.2140 -1.2589
 8508SOL     OW36982   3.558   0.413  12.243 -0.6485 -0.5751  0.1747
 8508SOL    HW136983   3.628   0.391  12.305 -0.5209 -0.7821 -0.0407
 8508SOL    HW236984   3.536   0.328  12.205  4.0464 -0.7110 -2.2954
 8509SOL     OW36985   1.485   3.961  17.430 -0.2751  0.0059  0.3565
 8509SOL    HW136986   1.515   4.006  17.351 -2.0251  1.3809  0.4637
 8509SOL    HW236987   1.425   3.892  17.400  2.3012 -1.4717 -1.3522
 8510SOL     OW36988   1.136   0.352   5.906 -0.1628  0.8124 -0.3633
 8510SOL    HW136989   1.137   0.439   5.946 -1.6677 -0.0762  1.6644
 8510SOL    HW236990   1.208   0.342   5.844 -1.1703 -1.9196 -1.1125
 8511SOL     OW36991   3.963   4.303   2.829  0.2400  0.6718  0.2320
 8511SOL    HW136992   4.010   4.374   2.871  1.6248 -0.2320  0.1974
 8511SOL    HW236993   3.991   4.227   2.880 -0.9832  0.0154 -0.0457
 8512SOL     OW36994   1.695   1.340   3.522 -0.1163  0.0961  0.1721
 8512SOL    HW136995   1.706   1.424   3.476 -3.4775  1.5845  2.0836
 8512SOL    HW236996   1.661   1.367   3.607  0.1642 -0.2736  0.4014
 8513SOL     OW36997   3.241   2.812   9.036 -0.2909  0.1278 -0.9903
 8513SOL    HW136998   3.162   2.863   9.015 -0.0217  0.7608 -0.4719
 8513SOL    HW236999   3.258   2.830   9.128  0.8510 -0.1442 -1.1552
 8514SOL     OW37000   1.714   1.769  12.239  0.0747 -0.2772 -0.1472
 8514SOL    HW137001   1.623   1.794  12.221  0.5506  0.2727 -1.7821
 8514SOL    HW237002   1.751   1.850  12.273 -3.4656  0.0402  2.9325
 8515SOL     OW37003   0.189   3.283  10.468 -0.1874  0.4975 -0.3019
 8515SOL    HW137004   0.226   3.202  10.432  0.1037  0.3380  0.3471
 8515SOL    HW237005   0.166   3.252  10.556  2.0878 -0.5448 -0.0613
 8516SOL     OW37006   3.850   1.837   8.121 -0.1019  0.3355  0.0206
 8516SOL    HW137007   3.806   1.907   8.073 -1.6320 -1.1233 -0.6744
 8516SOL    HW237008   3.817   1.863   8.207 -2.4352  2.9612 -1.6574
 8517SOL     OW37009   1.141   1.622   3.243 -0.3223  0.8644 -0.7948
 8517SOL    HW137010   1.047   1.623   3.257  0.0643  0.3408  1.8779
 8517SOL    HW237011   1.152   1.529   3.221 -0.9753  0.5065  0.4131
 8518SOL     OW37012   0.008   0.870   1.308  0.4466 -0.6904 -0.0141
 8518SOL    HW137013   0.002   0.965   1.323 -0.2649 -0.8738  0.8369
 8518SOL    HW237014   0.078   0.866   1.243  0.7805 -0.0963  0.3089
 8519SOL     OW37015   3.812   2.470   3.504 -0.1118  0.1162  0.3149
 8519SOL    HW137016   3.868   2.543   3.477  0.2947 -0.4046 -0.2766
 8519SOL    HW237017   3.725   2.504   3.482  0.8201  0.2330 -3.1846
 8520SOL     OW37018   4.052   4.207   5.170  0.3292 -0.4362 -0.3217
 8520SOL    HW137019   4.085   4.232   5.083 -0.2303 -2.4833 -1.1117
 8520SOL    HW237020   4.099   4.269   5.226  3.1461 -1.4877 -1.5054
 8521SOL     OW37021   2.659   3.953   9.015  0.3993  0.0899  0.4120
 8521SOL    HW137022   2.719   3.957   9.090  0.5556  0.2155  0.2780
 8521SOL    HW237023   2.716   3.913   8.949 -0.5353 -1.4473  0.5255
 8522SOL     OW37024   3.792   4.480  13.788 -0.6260 -0.3009 -0.1968
 8522SOL    HW137025   3.718   4.510  13.842 -0.9530 -0.4405 -0.5692
 8522SOL    HW237026   3.826   4.418  13.852  0.6642  0.4326 -0.1626
 8523SOL     OW37027   2.303   3.400   5.012 -0.0736 -0.3004  0.2752
 8523SOL    HW137028   2.335   3.310   5.016 -1.1088 -0.6329  0.9333
 8523SOL    HW237029   2.373   3.453   5.050 -0.9084  0.3336  0.9376
 8524SOL     OW37030   1.669   1.677   2.633 -0.6080 -0.3175 -0.3697
 8524SOL    HW137031   1.736   1.729   2.588 -3.0263  2.5082 -0.7071
 8524SOL    HW237032   1.710   1.590   2.642  0.5860  0.2851  0.0582
 8525SOL     OW37033   0.866   4.013  13.203 -0.3036  0.2675 -0.3991
 8525SOL    HW137034   0.793   3.981  13.256  0.2459  1.2648  0.9742
 8525SOL    HW237035   0.834   4.027  13.114 -0.3234 -2.1428 -0.7560
 8526SOL     OW37036   2.614   0.058   6.205 -0.1709 -0.4237 -0.0812
 8526SOL    HW137037   2.638   0.023   6.291 -2.6356 -0.2568  0.6470
 8526SOL    HW237038   2.646   4.704   6.158  0.8926  0.2606 -0.4843
 8527SOL     OW37039   1.415   1.640   0.360  0.2331 -0.1124 -0.7749
 8527SOL    HW137040   1.458   1.695   0.425 -0.8885 -1.2695  0.9573
 8527SOL    HW237041   1.353   1.702   0.323 -1.5486 -1.0022  0.6997
 8528SOL     OW37042   3.448   1.530   4.444 -0.0002 -0.8001  0.5469
 8528SOL    HW137043   3.464   1.457   4.384 -0.0925 -0.3320 -0.0496
 8528SOL    HW237044   3.370   1.572   4.408  0.7079 -0.6065 -0.7677
 8529SOL     OW37045   3.368   1.140   8.531 -0.3035 -0.2834 -0.0054
 8529SOL    HW137046   3.289   1.157   8.583 -1.6385 -0.1157 -2.1141
 8529SOL    HW237047   3.435   1.157   8.598  1.4305 -0.9882 -1.5618
 8530SOL     OW37048   2.676   3.776   2.881 -0.2166 -0.1555  0.0982
 8530SOL    HW137049   2.727   3.830   2.821 -1.5245  1.8958  0.8239
 8530SOL    HW237050   2.744   3.716   2.912  0.6942  0.5235 -0.5987
 8531SOL     OW37051   4.664   0.742   6.398  0.9110  0.0125  0.1800
 8531SOL    HW137052   4.595   0.724   6.462 -0.1907  1.9878 -0.4621
 8531SOL    HW237053   4.686   0.835   6.411  0.8080  0.0021  0.4334
 8532SOL     OW37054   0.056   3.341   4.296  0.3639  0.5228 -0.0726
 8532SOL    HW137055   0.001   3.398   4.242  0.3419  1.3246  0.7994
 8532SOL    HW237056   0.002   3.345   4.375  1.4264 -0.3184  0.7013
 8533SOL     OW37057   2.814   3.813   6.635 -0.4067  0.2532 -0.0815
 8533SOL    HW137058   2.821   3.741   6.698  1.6738 -0.7028 -1.4240
 8533SOL    HW237059   2.751   3.866   6.684  2.6818  1.0627  3.0847
 8534SOL     OW37060   3.474   3.486  10.930 -0.0904 -0.4142  0.3808
 8534SOL    HW137061   3.482   3.421  11.000 -0.9503  0.6171  1.4425
 8534SOL    HW237062   3.384   3.514  10.943  0.0167  0.2853 -0.3716
 8535SOL     OW37063   0.291   2.526   4.293 -0.4498 -0.3250 -0.1098
 8535SOL    HW137064   0.332   2.526   4.380  2.1902 -1.3528 -1.3475
 8535SOL    HW237065   0.336   2.581   4.229  2.4722 -2.0151  0.4945
 8536SOL     OW37066   4.525   0.050  16.005  0.3978  0.0369 -0.3962
 8536SOL    HW137067   4.477   0.122  16.047  1.7527  0.4669  0.4295
 8536SOL    HW237068   4.594   0.091  15.954  1.6313 -1.4095  0.1288
 8537SOL     OW37069   1.421   1.374  16.218 -0.3875 -0.5885  0.5645
 8537SOL    HW137070   1.510   1.367  16.184 -0.4259 -1.8302  0.7193
 8537SOL    HW237071   1.437   1.364  16.312  1.4025 -4.4173 -0.1396
 8538SOL     OW37072   0.090   1.906   1.147 -0.5090 -0.0739 -0.0607
 8538SOL    HW137073   0.159   1.907   1.214  1.4937 -2.4174 -2.0894
 8538SOL    HW237074   0.129   1.880   1.064  0.1561  0.6260  0.0423
 8539SOL     OW37075   4.699   0.262   3.548 -0.3093 -0.0527 -0.7505
 8539SOL    HW137076   4.700   0.355   3.527 -1.4210  0.1184 -0.0422
 8539SOL    HW237077   0.004   0.268   3.639 -0.4404 -2.1337 -0.5666
 8540SOL     OW37078   1.313   3.251   1.560 -0.2429  0.3380 -0.1205
 8540SOL    HW137079   1.318   3.314   1.488 -0.8427  0.7054  0.1713
 8540SOL    HW237080   1.233   3.280   1.603 -0.7679 -1.9885  0.4779
 8541SOL     OW37081   0.959   1.817   7.632 -0.4419  0.1474 -0.1039
 8541SOL    HW137082   0.952   1.894   7.577 -1.3297  1.1049  1.3454
 8541SOL    HW237083   1.051   1.802   7.609 -0.6414 -1.3089  0.0538
 8542SOL     OW37084   3.982   2.538   2.412  0.5872 -0.1268  0.1511
 8542SOL    HW137085   3.946   2.600   2.476  0.4781 -0.4697  0.4273
 8542SOL    HW237086   4.074   2.564   2.410  0.1856  1.3942  0.9692
 8543SOL     OW37087   0.713   2.982   3.651  0.0299 -0.2421 -0.2143
 8543SOL    HW137088   0.687   3.036   3.726 -0.0544  0.8541 -1.0362
 8543SOL    HW237089   0.632   2.931   3.640 -0.8934  1.4642 -1.3768
 8544SOL     OW37090   3.149   0.637   5.068  0.7524 -0.0500  0.1662
 8544SOL    HW137091   3.151   0.631   4.972  2.1349 -1.1944  0.2541
 8544SOL    HW237092   3.156   0.732   5.076 -3.3365  0.1942  0.5303
 8545SOL     OW37093   3.439   1.496  12.640  0.0840 -0.0521  0.1204
 8545SOL    HW137094   3.521   1.505  12.591  0.1565  2.6001  0.7405
 8545SOL    HW237095   3.463   1.527  12.728  0.3273  1.2626 -0.4029
 8546SOL     OW37096   3.638   3.546   9.011 -0.2343 -0.0215  0.2745
 8546SOL    HW137097   3.664   3.613   9.074 -0.7913  0.2083  0.2636
 8546SOL    HW237098   3.558   3.520   9.057  0.8331 -0.4887  1.8684
 8547SOL     OW37099   0.379   3.278   6.754  0.4432  0.5816  0.4000
 8547SOL    HW137100   0.411   3.198   6.712  1.6404  0.3342  1.8164
 8547SOL    HW237101   0.439   3.291   6.827  1.2811 -0.6754 -0.0612
 8548SOL     OW37102   2.271   1.457   1.711  0.0825  0.5302  0.2630
 8548SOL    HW137103   2.308   1.446   1.799  2.9783  1.4552 -0.8776
 8548SOL    HW237104   2.327   1.526   1.678 -1.5910  1.9435  0.4043
 8549SOL     OW37105   4.490   0.273   5.965 -0.4522 -0.4261 -0.1866
 8549SOL    HW137106   4.499   0.196   5.909 -1.5967 -1.4238  1.0057
 8549SOL    HW237107   4.424   0.326   5.921 -0.7444 -0.7811 -0.1735
 8550SOL     OW37108   3.108   2.933   4.711  0.9632 -0.0263 -0.1067
 8550SOL    HW137109   3.087   3.010   4.658  1.6586 -1.0673 -1.8925
 8550SOL    HW237110   3.185   2.909   4.661  1.2149 -0.5989  0.5533
 8551SOL     OW37111   1.526   3.100   2.279 -0.0294 -0.0287  0.0336
 8551SOL    HW137112   1.498   3.190   2.298 -0.6456 -0.3851  0.8338
 8551SOL    HW237113   1.446   3.049   2.269  1.1862 -1.4266 -2.4410
 8552SOL     OW37114   2.176   4.458   6.289 -0.0532 -0.0363  0.3680
 8552SOL    HW137115   2.235   4.399   6.334 -0.3903 -1.3535 -0.9211
 8552SOL    HW237116   2.096   4.468   6.342  1.3271  0.0893  2.4312
 8553SOL     OW37117   3.357   0.313   4.253 -0.5730 -0.6754 -0.6639
 8553SOL    HW137118   3.269   0.281   4.273 -0.0064 -0.8645  1.5143
 8553SOL    HW237119   3.407   0.273   4.324  0.8031 -2.1452 -2.4587
 8554SOL     OW37120   2.574   2.862   4.458  0.7272  0.3867  0.4970
 8554SOL    HW137121   2.563   2.893   4.548 -0.7982 -1.9279  1.0921
 8554SOL    HW237122   2.575   2.943   4.406  0.2947 -2.1127 -3.3313
 8555SOL     OW37123   1.844   3.341   0.436 -0.7628  0.1877 -0.2523
 8555SOL    HW137124   1.891   3.273   0.484 -1.0526  0.1319 -0.0412
 8555SOL    HW237125   1.863   3.413   0.496 -2.2693 -0.2019  0.7219
 8556SOL     OW37126   3.733   4.023   5.469  0.2963 -0.1260 -0.2465
 8556SOL    HW137127   3.711   4.071   5.549  1.1556 -1.3132  0.7109
 8556SOL    HW237128   3.772   4.082   5.405  0.4412  0.6211  0.5394
 8557SOL     OW37129   1.476   0.602  13.737 -0.4368 -0.5505  0.1594
 8557SOL    HW137130   1.471   0.549  13.658 -2.0056 -1.8590  1.1330
 8557SOL    HW237131   1.435   0.543  13.801  2.7273 -2.0018  0.8210
 8558SOL     OW37132   0.346   0.072   0.206 -0.4038 -0.2466  0.1260
 8558SOL    HW137133   0.292   0.148   0.184 -1.1730 -0.3471  1.6605
 8558SOL    HW237134   0.365   0.038   0.119 -0.7049 -1.7381  0.6410
 8559SOL     OW37135   4.078   3.606   4.161  0.4138  0.2887 -0.4047
 8559SOL    HW137136   4.010   3.603   4.093  1.3218  1.2376 -1.3617
 8559SOL    HW237137   4.122   3.523   4.145 -0.9076  0.0691 -3.0664
 8560SOL     OW37138   0.949   4.072  11.897 -0.5473  0.0835 -0.2498
 8560SOL    HW137139   0.914   3.999  11.846 -1.6946 -0.3656  1.1745
 8560SOL    HW237140   1.034   4.082  11.855  1.1463  1.0055  3.3606
 8561SOL     OW37141   0.882   2.250  17.515  0.0660 -0.4174 -0.2132
 8561SOL    HW137142   0.859   2.290  17.599  0.5135  0.4353 -0.4929
 8561SOL    HW237143   0.792   2.222  17.501 -0.2548 -0.3226  1.6382
 8562SOL     OW37144   3.522   4.544   8.658  0.2957  0.2085  0.1616
 8562SOL    HW137145   3.441   4.595   8.653  0.1192 -0.3100 -2.5819
 8562SOL    HW237146   3.557   4.578   8.575 -0.1601  0.2938  0.0036
 8563SOL     OW37147   2.851   2.105   8.834  0.5436 -0.6235 -0.0262
 8563SOL    HW137148   2.818   2.111   8.745  4.0117 -1.4251 -1.3905
 8563SOL    HW237149   2.926   2.165   8.832  0.9533 -1.1234  0.1229
 8564SOL     OW37150   3.781   0.947  13.030 -0.6717 -0.0473  0.2164
 8564SOL    HW137151   3.727   1.020  12.999  0.7270  1.0374  0.3612
 8564SOL    HW237152   3.783   0.974  13.121  1.6114  0.8002 -0.0806
 8565SOL     OW37153   3.114   4.416   0.390  0.0818 -0.0752  0.7756
 8565SOL    HW137154   3.184   4.351   0.388  0.2476  0.0885  1.2593
 8565SOL    HW237155   3.129   4.469   0.311 -0.7558  0.9555  1.3095
 8566SOL     OW37156   4.240   1.401   3.560  0.3767 -0.2287  0.0857
 8566SOL    HW137157   4.271   1.449   3.636 -0.0405 -0.1131  0.1829
 8566SOL    HW237158   4.150   1.433   3.568  0.0254 -1.7737  2.3706
 8567SOL     OW37159   3.963   1.643   9.042  0.2835 -0.2252 -0.1950
 8567SOL    HW137160   3.963   1.586   9.118  0.1705  0.0493  0.0103
 8567SOL    HW237161   3.928   1.720   9.087  1.8610 -0.5240  1.5481
 8568SOL     OW37162   4.610   4.497   6.985 -0.1560  0.8303 -0.3294
 8568SOL    HW137163   4.615   4.531   6.896  0.6589 -1.0702 -1.0026
 8568SOL    HW237164   4.642   4.407   6.977 -0.7018  0.5036  1.1350
 8569SOL     OW37165   0.607   4.234   7.905  0.3419  0.0274  0.1651
 8569SOL    HW137166   0.618   4.201   7.994  3.2132 -0.4375 -0.3597
 8569SOL    HW237167   0.644   4.164   7.852  1.9013  0.5443  0.5772
 8570SOL     OW37168   1.149   2.715   8.355  0.9634 -0.0726  0.2193
 8570SOL    HW137169   1.141   2.719   8.450  2.7704 -1.1238  0.4177
 8570SOL    HW237170   1.241   2.688   8.356  1.7761  2.5039 -2.7439
 8571SOL     OW37171   1.331   1.499   9.407  0.2735  0.0753  0.7103
 8571SOL    HW137172   1.408   1.542   9.370 -0.2903 -0.7279 -1.4081
 8571SOL    HW237173   1.324   1.422   9.350  0.9985  0.9993 -0.6164
 8572SOL     OW37174   0.205   2.833  12.968 -0.5217 -0.0407 -0.3248
 8572SOL    HW137175   0.181   2.896  12.900 -0.7233 -0.9504 -1.0813
 8572SOL    HW237176   0.301   2.833  12.971 -0.5500 -2.0878  0.6135
 8573SOL     OW37177   3.137   2.419  17.555 -0.2515  0.3440  0.2559
 8573SOL    HW137178   3.156   2.511  17.573 -1.9407  0.4929  1.2764
 8573SOL    HW237179   3.113   2.398  17.646  1.1643 -1.2211  0.2776
 8574SOL     OW37180   0.750   3.034   5.434 -0.5079  0.2164  0.5273
 8574SOL    HW137181   0.837   2.995   5.436  0.1252  1.5067 -1.8608
 8574SOL    HW237182   0.758   3.128   5.418  1.4977 -0.1275 -0.4342
 8575SOL     OW37183   1.463   4.365  13.103  0.3417 -0.3094  0.1645
 8575SOL    HW137184   1.447   4.356  13.196 -1.0238 -1.5579 -0.1960
 8575SOL    HW237185   1.396   4.431  13.081  0.2363 -0.5995 -0.3944
 8576SOL     OW37186   4.615   4.162  11.909  0.0992 -0.1157  0.2074
 8576SOL    HW137187   4.704   4.198  11.905  0.0138  0.6200  4.8886
 8576SOL    HW237188   4.630   4.072  11.938  0.4047 -0.0612  0.2232
 8577SOL     OW37189   3.990   3.960  14.275  0.1443 -0.0951 -0.1756
 8577SOL    HW137190   3.932   4.036  14.268 -1.3381 -1.1388  0.7338
 8577SOL    HW237191   4.068   4.005  14.309 -0.6563  0.0577  1.4899
 8578SOL     OW37192   2.068   0.383  14.020 -0.0319  0.0354 -0.0571
 8578SOL    HW137193   2.152   0.337  14.013  1.0250  1.6452  1.7558
 8578SOL    HW237194   2.055   0.354  14.110 -1.1404 -1.3643 -0.6709
 8579SOL     OW37195   0.897   0.643  11.978 -0.1765  0.1635 -0.0745
 8579SOL    HW137196   0.970   0.703  11.990  0.2300 -0.3949  0.2512
 8579SOL    HW237197   0.940   0.574  12.027  0.9261  1.5711  0.9251
 8580SOL     OW37198   2.863   2.364  14.203  0.5132 -0.2028  0.1327
 8580SOL    HW137199   2.852   2.283  14.155 -1.4151  0.1995 -0.1197
 8580SOL    HW237200   2.819   2.435  14.156 -2.8386 -2.3061  0.1212
 8581SOL     OW37201   4.534   4.199   5.494  0.1377 -0.0429 -0.3903
 8581SOL    HW137202   4.494   4.158   5.418 -1.4345 -0.2905  0.5669
 8581SOL    HW237203   4.468   4.239   5.551  0.2668 -0.7117  0.2406
 8582SOL     OW37204   4.478   0.891  14.277 -0.1404 -0.0707 -0.2711
 8582SOL    HW137205   4.416   0.826  14.311 -0.9479  0.7447 -0.1929
 8582SOL    HW237206   4.554   0.839  14.250 -1.1853 -1.2785 -0.8776
 8583SOL     OW37207   4.287   0.385   5.802  0.6315  0.3435 -0.1901
 8583SOL    HW137208   4.196   0.415   5.808 -0.0032 -1.0516 -2.4039
 8583SOL    HW237209   4.320   0.461   5.755 -0.9281  0.8770 -0.4256
 8584SOL     OW37210   4.579   1.476  17.589  0.2402  0.1500 -0.3501
 8584SOL    HW137211   4.581   1.442  17.678 -1.4927  0.1746 -0.3040
 8584SOL    HW237212   4.486   1.481  17.569 -0.0698  0.9326  1.3037
 8585SOL     OW37213   3.130   1.638  11.700 -0.1022 -0.4521  0.2653
 8585SOL    HW137214   3.163   1.641  11.610 -0.8847  3.2432  0.0774
 8585SOL    HW237215   3.045   1.598  11.686  0.8710 -2.1482 -0.8179
 8586SOL     OW37216   3.314   0.510   4.639  0.1844 -0.5950 -0.1762
 8586SOL    HW137217   3.357   0.448   4.698 -3.2293 -1.9129  0.9192
 8586SOL    HW237218   3.387   0.519   4.577  0.5682  1.3308  0.5526
 8587SOL     OW37219   1.474   3.443   9.621 -0.5659 -0.9674  0.0333
 8587SOL    HW137220   1.466   3.449   9.526  0.8616 -0.5182 -0.0651
 8587SOL    HW237221   1.474   3.349   9.639 -1.2839 -1.2892 -1.5959
 8588SOL     OW37222   0.945   4.417   1.719 -0.0755 -0.8421  0.3756
 8588SOL    HW137223   0.884   4.482   1.755  1.8309 -0.3652  2.7496
 8588SOL    HW237224   0.910   4.416   1.630 -2.4099 -1.9223  1.3192
 8589SOL     OW37225   1.001   3.798   9.509  0.3400  0.1662 -0.3423
 8589SOL    HW137226   0.949   3.848   9.573 -0.1546  0.7640 -1.2142
 8589SOL    HW237227   1.052   3.744   9.570  0.9530  0.9647 -0.1418
 8590SOL     OW37228   4.722   1.129   1.324  0.4385  0.4788  0.3433
 8590SOL    HW137229   4.707   1.161   1.235 -0.1752  2.4839  1.1655
 8590SOL    HW237230   4.636   1.149   1.361  0.9870  1.8097  0.8878
 8591SOL     OW37231   3.410   3.501   0.194 -0.1644 -0.2678  0.2984
 8591SOL    HW137232   3.445   3.430   0.248  1.1934 -1.3503 -2.0040
 8591SOL    HW237233   3.429   3.461   0.109 -3.3250  0.0636 -0.5750
 8592SOL     OW37234   1.430   4.296  11.640  0.1382 -0.2454 -0.4103
 8592SOL    HW137235   1.340   4.328  11.633  0.2608  0.3798  0.7796
 8592SOL    HW237236   1.435   4.263  11.551 -0.1934 -0.2204 -0.4395
 8593SOL     OW37237   0.908   4.673   9.227 -0.3476 -0.3198  0.3394
 8593SOL    HW137238   0.939   0.010   9.159 -1.9356  1.8175  1.4933
 8593SOL    HW237239   0.834   4.719   9.267  0.7666  3.3237 -1.7320
 8594SOL     OW37240   0.367   1.921   7.769 -0.0291 -0.7380  0.5796
 8594SOL    HW137241   0.368   1.868   7.849 -1.0276 -0.7544  0.5803
 8594SOL    HW237242   0.382   1.848   7.709  0.0717 -0.2450  0.0067
 8595SOL     OW37243   0.816   1.004   3.284  0.1868  0.0686 -0.4590
 8595SOL    HW137244   0.891   0.950   3.308 -0.9444 -0.5077  1.7248
 8595SOL    HW237245   0.761   0.937   3.243 -0.2814 -0.4526  1.0327
 8596SOL     OW37246   4.402   1.759   1.906  0.1196 -0.3381  0.3214
 8596SOL    HW137247   4.309   1.769   1.882  0.0885 -2.1336 -0.2671
 8596SOL    HW237248   4.390   1.674   1.947 -4.0415  0.2670  0.4122
 8597SOL     OW37249   2.333   2.323  15.867 -0.1317 -0.0099 -0.4023
 8597SOL    HW137250   2.263   2.259  15.854  1.1194 -1.2924 -0.8035
 8597SOL    HW237251   2.394   2.283  15.929 -0.4375  2.9136  1.7820
 8598SOL     OW37252   2.048   0.006  16.559  0.5135 -0.2775  0.3884
 8598SOL    HW137253   2.029   4.637  16.576 -3.0657  0.8278  2.3601
 8598SOL    HW237254   1.958   0.035  16.547  0.0929 -0.6597  2.5794
 8599SOL     OW37255   1.305   0.449   5.124  0.2051  0.1816  0.4150
 8599SOL    HW137256   1.325   0.493   5.041 -0.3889 -0.0377  0.1527
 8599SOL    HW237257   1.363   0.493   5.186  0.8999 -1.4708  0.9349
 8600SOL     OW37258   3.428   2.835  14.755 -0.5146 -0.4278  0.4235
 8600SOL    HW137259   3.416   2.896  14.683  0.1310 -0.3407  0.3919
 8600SOL    HW237260   3.486   2.766  14.723 -0.4531 -0.6380  0.9823
 8601SOL     OW37261   0.663   3.699  11.476 -0.7930 -0.1566  0.5560
 8601SOL    HW137262   0.661   3.666  11.386  2.3289 -0.6491  0.6739
 8601SOL    HW237263   0.705   3.784  11.468  2.0421 -1.3747  2.0452
 8602SOL     OW37264   3.884   1.083   7.646  0.5373  0.0329 -0.5838
 8602SOL    HW137265   3.919   1.011   7.594  0.0170  0.1126 -1.0397
 8602SOL    HW237266   3.967   1.118   7.679  0.2253  0.1730  0.0637
 8603SOL     OW37267   3.340   1.901   5.098 -0.1785 -0.3709  0.2533
 8603SOL    HW137268   3.396   1.858   5.162  1.2513 -0.0685 -0.7745
 8603SOL    HW237269   3.388   1.872   5.021  1.4366  0.0011  1.1152
 8604SOL     OW37270   4.108   1.412  14.870  0.7993  0.8621  0.7636
 8604SOL    HW137271   4.171   1.471  14.913  2.1311 -0.0080 -0.0042
 8604SOL    HW237272   4.060   1.389  14.950 -0.4147  2.2015  0.4253
 8605SOL     OW37273   3.797   2.024  14.002  0.5341  0.3479  0.8302
 8605SOL    HW137274   3.859   2.027  14.074  1.0706  1.2616  0.3342
 8605SOL    HW237275   3.718   2.066  14.036 -0.8376  1.2762 -3.5076
 8606SOL     OW37276   1.638   2.996   5.129 -0.0636 -0.6595  0.1216
 8606SOL    HW137277   1.625   2.979   5.036  0.7061 -3.3497  0.5326
 8606SOL    HW237278   1.561   3.046   5.158 -0.6928  0.4390 -3.4309
 8607SOL     OW37279   0.377   4.425  12.821 -0.5564  0.0570 -0.3691
 8607SOL    HW137280   0.401   4.514  12.847 -0.6052 -0.2112  0.5766
 8607SOL    HW237281   0.304   4.416  12.882 -1.2526 -0.9116 -1.3464
 8608SOL     OW37282   2.337   3.395   1.226 -0.4909 -0.0791  0.6954
 8608SOL    HW137283   2.299   3.480   1.204  3.5577  1.3197 -0.9190
 8608SOL    HW237284   2.298   3.366   1.308 -3.0173  2.8763  0.5190
 8609SOL     OW37285   2.939   0.096   2.185 -0.3780  0.6291  0.4045
 8609SOL    HW137286   2.904   0.046   2.259  1.3465 -0.9713  0.1351
 8609SOL    HW237287   3.005   0.038   2.148  1.1144  1.6745  1.4207
 8610SOL     OW37288   2.251   2.330   3.037 -0.0592 -0.2562 -0.3495
 8610SOL    HW137289   2.274   2.421   3.053 -0.5205  0.0819 -1.6553
 8610SOL    HW237290   2.184   2.343   2.970 -2.1187  1.3744  2.0028
 8611SOL     OW37291   4.098   0.482   2.429  0.5171  0.2764 -0.0775
 8611SOL    HW137292   4.095   0.511   2.520 -0.7549  1.4642 -0.4838
 8611SOL    HW237293   4.179   0.431   2.429  1.9994  2.5974  1.2910
 8612SOL     OW37294   0.630   2.544   8.623 -0.1225 -0.2444  0.0900
 8612SOL    HW137295   0.676   2.559   8.705  0.5526  1.5508 -0.6164
 8612SOL    HW237296   0.679   2.606   8.570 -0.5129 -0.4070 -0.4625
 8613SOL     OW37297   1.716   0.927   4.293 -0.0636 -0.0878  0.0974
 8613SOL    HW137298   1.641   0.880   4.255  0.4924  0.0790 -1.2198
 8613SOL    HW237299   1.794   0.892   4.251 -0.4159 -1.4794  0.5958
 8614SOL     OW37300   2.866   3.332   5.929  0.2912 -0.3958  0.0003
 8614SOL    HW137301   2.875   3.294   6.017 -3.0153 -0.8005  0.1730
 8614SOL    HW237302   2.912   3.416   5.927 -1.2463  0.4640  1.2129
 8615SOL     OW37303   1.369   4.705   4.610  0.0962  0.0456 -0.3959
 8615SOL    HW137304   1.429   4.703   4.536 -2.9868  0.0889 -2.8776
 8615SOL    HW237305   1.286   4.697   4.564  0.0328  1.0193 -0.4345
 8616SOL     OW37306   3.798   0.899  14.698  0.6115  0.2564  0.2066
 8616SOL    HW137307   3.821   0.879  14.789 -1.8197  0.5249  0.8782
 8616SOL    HW237308   3.720   0.955  14.701 -1.3104 -2.3549 -2.0126
 8617SOL     OW37309   0.557   1.723   4.727  0.3965 -0.3846 -0.2615
 8617SOL    HW137310   0.610   1.680   4.794  3.5683  2.9010 -0.7001
 8617SOL    HW237311   0.467   1.707   4.755  0.3878 -0.3671 -0.2792
 8618SOL     OW37312   1.049   0.127   6.236  0.1833 -0.0873  0.0916
 8618SOL    HW137313   1.109   0.111   6.164 -0.2216  1.2315 -0.5375
 8618SOL    HW237314   0.972   0.170   6.198 -0.7293 -1.5565  0.2762
 8619SOL     OW37315   3.826   3.578  17.280  1.1090 -0.0428 -0.4650
 8619SOL    HW137316   3.788   3.643  17.339  0.9785  0.9845 -1.7032
 8619SOL    HW237317   3.887   3.552  17.349 -0.1618  1.2080  1.1217
 8620SOL     OW37318   3.674   3.599   4.818 -0.4147  0.6758 -0.0578
 8620SOL    HW137319   3.723   3.621   4.898 -0.8364  1.5681 -0.0351
 8620SOL    HW237320   3.713   3.657   4.753 -0.1309 -1.3148 -1.6419
 8621SOL     OW37321   4.652   1.862   6.776  0.1366  0.2226 -0.9950
 8621SOL    HW137322   4.597   1.937   6.755  0.8679  1.2825  0.9109
 8621SOL    HW237323   0.009   1.903   6.810 -0.8365  1.3703 -0.1166
 8622SOL     OW37324   4.053   1.266   3.817 -0.1658 -0.0999  0.1793
 8622SOL    HW137325   4.077   1.243   3.907  0.3963  0.6659  0.2281
 8622SOL    HW237326   4.138   1.262   3.773  0.1362  1.0422  0.6635
 8623SOL     OW37327   0.189   3.129   2.472 -0.4410  0.2489 -0.0960
 8623SOL    HW137328   0.186   3.081   2.555 -2.3822  0.8036  0.1509
 8623SOL    HW237329   0.095   3.140   2.461 -0.4952  0.1398  0.2757
 8624SOL     OW37330   0.829   4.129   6.795 -0.3099  0.7162 -0.2029
 8624SOL    HW137331   0.772   4.148   6.869 -1.3007 -1.0038 -0.5101
 8624SOL    HW237332   0.912   4.157   6.833  0.6743 -1.9287 -0.3751
 8625SOL     OW37333   1.949   2.438   1.276  0.3303 -0.4902 -0.0083
 8625SOL    HW137334   1.923   2.428   1.184 -0.3476  1.0785  0.0081
 8625SOL    HW237335   1.977   2.352   1.307  2.1196  1.0754  2.7328
 8626SOL     OW37336   3.982   0.443   5.801  0.2847 -0.6601 -0.0973
 8626SOL    HW137337   3.930   0.397   5.735 -2.2599  0.3554  1.2123
 8626SOL    HW237338   3.972   0.376   5.868 -0.1128 -1.8182 -1.2969
 8627SOL     OW37339   4.391   4.579   3.281 -0.0536  0.0755 -0.3595
 8627SOL    HW137340   4.335   4.655   3.297 -0.2881 -0.5091  1.5897
 8627SOL    HW237341   4.415   4.612   3.194  1.2077  0.6898  0.2241
 8628SOL     OW37342   1.329   3.187   7.928  0.6113  0.4320 -0.3626
 8628SOL    HW137343   1.375   3.112   7.966  2.8676  1.5719 -0.8175
 8628SOL    HW237344   1.378   3.259   7.966 -0.1052  0.3106  0.8133
 8629SOL     OW37345   3.618   1.884   1.706 -0.3814 -0.0070  0.3578
 8629SOL    HW137346   3.595   1.800   1.667  0.3776  0.1659 -0.4569
 8629SOL    HW237347   3.540   1.940   1.698 -0.3889  0.0603  0.9093
 8630SOL     OW37348   0.383   1.379   3.577  0.3375 -0.0973 -0.8445
 8630SOL    HW137349   0.327   1.411   3.507  0.0006 -0.0987 -0.5750
 8630SOL    HW237350   0.353   1.442   3.642 -0.0643 -0.1906 -0.9418
 8631SOL     OW37351   1.245   1.611   4.315 -0.5809  0.3048  0.6650
 8631SOL    HW137352   1.205   1.529   4.345  1.1105 -1.6126 -2.3103
 8631SOL    HW237353   1.330   1.600   4.358  0.2410  0.3110 -0.9793
 8632SOL     OW37354   3.960   2.754   4.590 -0.1535 -0.9592 -0.4716
 8632SOL    HW137355   3.992   2.837   4.623  1.7950 -1.6717 -0.5689
 8632SOL    HW237356   3.925   2.721   4.672  0.5461 -0.2747  0.1019
 8633SOL     OW37357   0.877   2.192  16.393 -0.0301 -0.2241 -0.3340
 8633SOL    HW137358   0.812   2.262  16.389  1.2918  1.0680  0.8166
 8633SOL    HW237359   0.947   2.249  16.361  0.5686 -1.2714 -0.8851
 8634SOL     OW37360   3.521   1.803  12.032 -0.2403  0.0021 -0.2727
 8634SOL    HW137361   3.489   1.891  12.054 -1.3633 -0.6811  0.8519
 8634SOL    HW237362   3.530   1.800  11.937 -1.4012 -0.2930 -0.3693
 8635SOL     OW37363   1.004   2.053  14.048  0.1255  0.6674 -0.1970
 8635SOL    HW137364   1.080   2.110  14.056  0.2682  0.5162 -0.4517
 8635SOL    HW237365   0.945   2.116  14.006 -2.3987 -0.0310  2.3030
 8636SOL     OW37366   4.330   0.761   5.808 -0.0763 -0.3107  0.1063
 8636SOL    HW137367   4.401   0.753   5.745 -0.3623 -0.3029 -0.2211
 8636SOL    HW237368   4.277   0.829   5.767  1.7316 -0.4949 -2.5054
 8637SOL     OW37369   0.906   3.354   4.335 -0.6156  0.5383  0.2087
 8637SOL    HW137370   1.000   3.373   4.339 -0.3138 -0.9284  0.1683
 8637SOL    HW237371   0.874   3.436   4.298 -1.3807 -0.7781 -2.0436
 8638SOL     OW37372   3.078   2.456   4.274  0.0815 -0.2100 -0.0915
 8638SOL    HW137373   3.158   2.506   4.285  0.0689 -0.1204 -0.3861
 8638SOL    HW237374   3.093   2.381   4.332  1.0760  1.9413  2.3969
 8639SOL     OW37375   0.452   3.881   5.503 -0.4887  0.3485  0.2820
 8639SOL    HW137376   0.400   3.948   5.548 -1.8508  0.5570 -1.6423
 8639SOL    HW237377   0.404   3.867   5.422  0.0280  3.4723 -0.5511
 8640SOL     OW37378   1.411   1.848   2.895  0.1243 -0.6523  0.2873
 8640SOL    HW137379   1.330   1.868   2.847 -1.7110 -0.7866  3.3251
 8640SOL    HW237380   1.377   1.844   2.984  2.1879  0.4451  1.1040
 8641SOL     OW37381   1.730   1.708   4.220 -0.2966 -0.2210 -0.0195
 8641SOL    HW137382   1.774   1.702   4.305 -1.7259 -0.1515  0.7228
 8641SOL    HW237383   1.795   1.685   4.154 -1.0980  1.1744 -1.2875
 8642SOL     OW37384   4.611   2.936   2.399 -0.7584  0.0793  0.1402
 8642SOL    HW137385   4.662   2.904   2.324  1.7376  1.8422  1.0806
 8642SOL    HW237386   4.540   2.874   2.381 -0.2180 -0.6550  0.5547
 8643SOL     OW37387   1.145   1.417   5.024 -0.1963  0.2740 -0.5377
 8643SOL    HW137388   1.108   1.489   5.076  1.0101  0.2445  0.3467
 8643SOL    HW237389   1.222   1.404   5.079 -0.3721 -1.0006 -0.5962
 8644SOL     OW37390   0.203   4.653   4.127  0.3047 -0.0032  0.5953
 8644SOL    HW137391   0.146   4.592   4.080 -1.4689  0.5567  2.0240
 8644SOL    HW237392   0.289   4.615   4.113  0.8569  0.5319  2.6333
 8645SOL     OW37393   2.793   1.127   3.299 -0.3637  0.4153 -0.5858
 8645SOL    HW137394   2.810   1.035   3.281 -0.9851  0.5284 -1.7532
 8645SOL    HW237395   2.756   1.147   3.213 -4.7569 -0.3794  1.0944
 8646SOL     OW37396   4.673   3.958   5.066 -0.4707 -0.1078  0.3345
 8646SOL    HW137397   4.582   3.929   5.059 -0.2359 -0.5479 -0.9428
 8646SOL    HW237398   4.660   4.047   5.099 -2.2553  0.5707 -2.2166
 8647SOL     OW37399   2.747   3.084   9.028  0.1568 -0.6096 -0.1606
 8647SOL    HW137400   2.704   3.049   8.950 -0.7574  0.4499 -0.1265
 8647SOL    HW237401   2.709   3.033   9.100 -0.5606  1.4183  0.8748
 8648SOL     OW37402   0.556   2.926   7.765  0.4249 -0.3436 -0.2588
 8648SOL    HW137403   0.529   2.859   7.703  0.3019 -0.2075 -0.3533
 8648SOL    HW237404   0.523   2.883   7.843  0.0888  1.8863  0.8376
 8649SOL     OW37405   0.112   4.115   2.743 -0.3359  0.4049 -0.1717
 8649SOL    HW137406   0.052   4.085   2.811 -0.6586 -0.3451 -0.7856
 8649SOL    HW237407   0.167   4.037   2.737  0.0587  0.7187 -0.7159
 8650SOL     OW37408   2.173   1.524  16.733 -0.6874 -0.2505  0.1573
 8650SOL    HW137409   2.145   1.542  16.643  1.3908  1.3219 -0.1827
 8650SOL    HW237410   2.123   1.586  16.786 -0.9582  1.6906 -2.3545
 8651SOL     OW37411   4.714   2.964   9.544  0.6817 -0.0301  0.1363
 8651SOL    HW137412   0.027   3.013   9.618  0.5254  0.7590 -0.3127
 8651SOL    HW237413   0.027   2.877   9.562 -0.5844 -0.3107  1.3265
 8652SOL     OW37414   1.004   0.424   1.549  0.0907  0.2009 -1.0075
 8652SOL    HW137415   0.962   0.337   1.549 -0.8885  0.6725 -1.7209
 8652SOL    HW237416   0.933   0.478   1.584 -0.6662 -3.0066  2.4322
 8653SOL     OW37417   3.594   3.917   1.120  0.2820 -0.5007  0.5963
 8653SOL    HW137418   3.672   3.871   1.152  0.0072  0.5520  2.7647
 8653SOL    HW237419   3.584   3.873   1.036 -0.1631 -1.3831  1.1075
 8654SOL     OW37420   3.709   0.065   9.605 -0.0140  0.0759  0.5494
 8654SOL    HW137421   3.663   4.723   9.658  0.6269 -0.6032  0.2749
 8654SOL    HW237422   3.781   0.014   9.568 -1.1117 -1.5361  0.6017
 8655SOL     OW37423   2.781   1.140  12.243  0.2502 -0.3686  0.3599
 8655SOL    HW137424   2.835   1.068  12.212  0.4948  0.2650 -0.7037
 8655SOL    HW237425   2.828   1.172  12.320 -0.0867 -0.6574  0.6853
 8656SOL     OW37426   4.389   1.091   4.017  0.5062 -0.2076  0.2441
 8656SOL    HW137427   4.361   1.048   3.936  0.8796  3.0028 -1.5654
 8656SOL    HW237428   4.478   1.123   4.000  0.0542  1.7002  1.5761
 8657SOL     OW37429   1.746   1.329   4.773  0.5226 -0.0979 -0.1195
 8657SOL    HW137430   1.705   1.252   4.734 -0.6585  0.9156 -0.8709
 8657SOL    HW237431   1.690   1.400   4.743  1.1761  0.3889 -0.1961
 8658SOL     OW37432   0.541   2.314  16.318 -0.0328 -0.0617  0.3385
 8658SOL    HW137433   0.618   2.371  16.317  1.6295 -2.2838  1.9094
 8658SOL    HW237434   0.479   2.360  16.375 -1.0004  1.3989 -1.8625
 8659SOL     OW37435   1.847   3.248   5.013 -0.5074 -0.4779  0.1666
 8659SOL    HW137436   1.889   3.168   5.044  1.1117 -0.0983 -1.0500
 8659SOL    HW237437   1.898   3.312   5.064  0.5717 -0.9512 -0.3313
 8660SOL     OW37438   3.012   0.149   2.662  0.3469  0.0918 -0.0554
 8660SOL    HW137439   3.060   0.100   2.596  1.8190  1.8374 -0.2814
 8660SOL    HW237440   2.998   0.230   2.613 -0.1247  0.1855  0.2287
 8661SOL     OW37441   4.488   3.026  15.951  0.1852 -0.0672  0.4064
 8661SOL    HW137442   4.449   2.951  15.906  3.7957 -1.4937 -0.3236
 8661SOL    HW237443   4.582   3.009  15.957  0.7737  3.5890  1.0959
 8662SOL     OW37444   1.941   2.041   7.020 -0.1826  0.1661 -0.0364
 8662SOL    HW137445   2.005   2.052   7.090 -2.0416  0.1127  1.7037
 8662SOL    HW237446   1.868   2.073   7.074 -0.6403 -0.7186 -0.1350
 8663SOL     OW37447   2.909   4.434   2.883  0.4349  0.2173  0.1857
 8663SOL    HW137448   2.940   4.386   2.806 -2.2942  1.1596 -1.4871
 8663SOL    HW237449   2.822   4.403   2.906  1.1993 -1.9787  0.1292
 8664SOL     OW37450   4.513   1.642   3.846 -0.4540 -0.2431 -0.3389
 8664SOL    HW137451   4.421   1.622   3.829  0.5678 -3.0509 -2.5716
 8664SOL    HW237452   4.506   1.615   3.938 -0.1471  1.4060  0.1762
 8665SOL     OW37453   3.400   0.571   8.347  1.0895 -0.1247  0.7341
 8665SOL    HW137454   3.406   0.632   8.274 -2.2386 -1.2424 -0.4898
 8665SOL    HW237455   3.481   0.597   8.390  0.5813  2.0501  0.3849
 8666SOL     OW37456   4.080   3.570   7.931  0.3733 -0.3105  0.9000
 8666SOL    HW137457   3.998   3.550   7.978 -0.1380 -1.2780 -0.4079
 8666SOL    HW237458   4.143   3.548   8.000  0.6116 -0.5763  0.5945
 8667SOL     OW37459   0.179   4.138   7.796  0.0731  0.0371  0.1799
 8667SOL    HW137460   0.200   4.051   7.830  2.5410  0.7761  0.5832
 8667SOL    HW237461   0.237   4.139   7.720 -0.4303  2.5892 -0.1610
 8668SOL     OW37462   2.144   3.376   6.507 -0.0603  0.2343  0.7764
 8668SOL    HW137463   2.095   3.331   6.575  0.5752  1.0396  1.7608
 8668SOL    HW237464   2.102   3.335   6.431 -0.8169  3.3704 -0.5118
 8669SOL     OW37465   3.271   0.684   3.462  0.3814 -0.0325  0.3743
 8669SOL    HW137466   3.273   0.633   3.542  1.3239 -1.5051 -0.5824
 8669SOL    HW237467   3.353   0.660   3.417  0.3294  0.9758 -0.2502
 8670SOL     OW37468   2.695   0.312   3.749 -0.1199 -0.2410  0.0719
 8670SOL    HW137469   2.776   0.325   3.700  0.1955 -0.3391  0.5695
 8670SOL    HW237470   2.703   0.388   3.806  0.3773 -2.0168  2.4091
 8671SOL     OW37471   2.918   2.262  10.560 -0.3335 -0.5769 -0.3577
 8671SOL    HW137472   2.857   2.283  10.630 -2.1786 -0.5772 -1.9555
 8671SOL    HW237473   2.968   2.344  10.559 -0.2271 -0.6387  0.1270
 8672SOL     OW37474   2.719   4.044   7.701  0.0057 -0.5582 -0.5941
 8672SOL    HW137475   2.641   4.096   7.681  0.7393  1.0051  0.5055
 8672SOL    HW237476   2.708   4.038   7.796  1.5173  1.4176 -0.2890
 8673SOL     OW37477   4.108   3.764   2.456  0.2259 -0.0827 -0.5115
 8673SOL    HW137478   4.099   3.710   2.377 -1.8881 -0.5732  0.0563
 8673SOL    HW237479   4.055   3.705   2.510  1.0386 -1.6209 -1.3715
 8674SOL     OW37480   2.455   2.391   2.654 -0.2416  0.4543 -0.4499
 8674SOL    HW137481   2.370   2.427   2.628 -1.8280 -2.7935  0.2488
 8674SOL    HW237482   2.449   2.315   2.597 -3.7582 -0.4315  1.1219
 8675SOL     OW37483   3.556   2.764   3.182  0.1637 -0.2622  0.6990
 8675SOL    HW137484   3.532   2.857   3.175  4.1204  0.6662 -0.7520
 8675SOL    HW237485   3.483   2.730   3.233 -0.1146  0.8978  1.0815
 8676SOL     OW37486   2.033   1.007   6.321 -0.0473  0.3264  0.2858
 8676SOL    HW137487   1.988   1.028   6.402  0.2261 -3.6588  1.4529
 8676SOL    HW237488   2.116   0.971   6.354  0.0361  0.2063 -0.0520
 8677SOL     OW37489   3.426   4.309   6.705 -0.3110 -0.5128  0.3055
 8677SOL    HW137490   3.499   4.371   6.696 -1.1678  0.6362  1.1930
 8677SOL    HW237491   3.408   4.315   6.799  2.8369  1.0564  0.8384
 8678SOL     OW37492   1.937   1.013   9.504 -0.2876 -0.2584  0.4577
 8678SOL    HW137493   1.960   1.086   9.446 -0.2664 -1.5107 -1.1046
 8678SOL    HW237494   1.972   0.936   9.460  0.3178 -0.8355  1.9309
 8679SOL     OW37495   2.665   1.854   1.161  0.0154  0.1237  0.2568
 8679SOL    HW137496   2.702   1.766   1.162  1.0224  0.5503  0.0304
 8679SOL    HW237497   2.737   1.914   1.179 -0.4619  0.6840  0.2909
 8680SOL     OW37498   1.529   4.286   3.190  0.0220  0.5752  0.2449
 8680SOL    HW137499   1.553   4.194   3.177  0.7970  0.8363 -0.1857
 8680SOL    HW237500   1.612   4.331   3.203 -0.3242  1.6331 -1.2811
 8681SOL     OW37501   0.617   2.641   4.860 -0.1659  0.2982 -0.1028
 8681SOL    HW137502   0.615   2.614   4.768 -1.6423 -0.3867  0.1377
 8681SOL    HW237503   0.711   2.657   4.872 -0.7441  3.9273 -0.4157
 8682SOL     OW37504   0.075   3.461  12.386 -0.3728 -0.2991 -0.2136
 8682SOL    HW137505   0.078   3.369  12.412 -0.5032 -0.2585 -0.0587
 8682SOL    HW237506   0.164   3.484  12.415  0.2200  0.2139 -2.4132
 8683SOL     OW37507   0.344   0.711   3.811  0.4227 -0.4032 -0.2977
 8683SOL    HW137508   0.419   0.668   3.853  0.4253  0.5186  0.6318
 8683SOL    HW237509   0.382   0.792   3.774 -1.2418  0.2134 -0.6482
 8684SOL     OW37510   0.422   0.993   3.065  0.2804 -0.0521 -0.0384
 8684SOL    HW137511   0.447   1.063   3.125 -0.0277  2.0423 -2.3361
 8684SOL    HW237512   0.377   1.047   3.000  0.6396 -2.0867 -1.9691
 8685SOL     OW37513   3.135   2.949  14.760 -0.1520  0.1626  0.3328
 8685SOL    HW137514   3.073   3.004  14.808  2.1125  0.3751  3.0435
 8685SOL    HW237515   3.118   2.988  14.675 -0.2491  0.5047  0.5072
 8686SOL     OW37516   2.751   1.700  14.892  0.3984  0.2551  0.3184
 8686SOL    HW137517   2.788   1.785  14.915  2.3798 -0.4334 -0.3450
 8686SOL    HW237518   2.821   1.639  14.918 -0.8999 -1.0871  0.6616
 8687SOL     OW37519   3.808   1.169  17.611  0.2956  0.4118 -0.0871
 8687SOL    HW137520   3.846   1.105  17.551  1.2559  1.4623 -0.5774
 8687SOL    HW237521   3.798   1.128   0.003  1.0693  1.5173  0.5260
 8688SOL     OW37522   0.070   0.353  16.919  0.1690  0.2879  0.9165
 8688SOL    HW137523   0.072   0.328  17.011  0.6057 -0.0797  0.8056
 8688SOL    HW237524   0.156   0.327  16.886 -0.6182  0.4830 -1.2871
 8689SOL     OW37525   0.964   2.943   6.522 -0.0694 -0.1474 -0.3842
 8689SOL    HW137526   0.943   2.850   6.532 -2.2805  0.4044  0.0683
 8689SOL    HW237527   0.959   2.943   6.426  0.4520  0.5436 -0.4139
 8690SOL     OW37528   0.317   0.202   8.930  0.2866  0.4620 -0.6535
 8690SOL    HW137529   0.243   0.156   8.890 -0.5159 -0.2037  1.5836
 8690SOL    HW237530   0.274   0.288   8.922 -1.0313 -0.0839  0.5606
 8691SOL     OW37531   1.726   1.606   2.263 -0.6666  0.0677 -0.1900
 8691SOL    HW137532   1.669   1.579   2.190  1.5731 -3.1398 -0.7349
 8691SOL    HW237533   1.762   1.679   2.213  0.2489 -1.3210 -1.5780
 8692SOL     OW37534   0.119   0.545   4.655 -0.6018 -0.0823  0.9852
 8692SOL    HW137535   0.125   0.558   4.561  0.3148 -2.0826  0.7543
 8692SOL    HW237536   0.205   0.563   4.694  0.0131 -1.4287  0.2656
 8693SOL     OW37537   2.563   2.037  10.018  0.3232 -0.6329 -0.3352
 8693SOL    HW137538   2.516   2.091  10.082  2.1036  1.3649 -0.7107
 8693SOL    HW237539   2.649   2.066  10.048 -0.0416  2.4430 -2.1747
 8694SOL     OW37540   4.277   0.275   8.365  0.1066 -0.3252  0.1246
 8694SOL    HW137541   4.309   0.364   8.351  0.3196 -0.6424 -1.4885
 8694SOL    HW237542   4.259   0.250   8.274 -0.0074  1.2799 -0.3016
 8695SOL     OW37543   0.531   4.689   6.723  0.1696 -0.1790 -0.0915
 8695SOL    HW137544   0.447   4.713   6.685 -0.2502 -3.4836 -1.3095
 8695SOL    HW237545   0.562   0.046   6.764 -2.0537 -0.2549  1.6878
 8696SOL     OW37546   2.415   4.053  12.407 -0.2500  0.3563 -0.3349
 8696SOL    HW137547   2.477   4.125  12.394 -0.5751  1.2015  2.7207
 8696SOL    HW237548   2.461   4.011  12.480 -0.0291  2.5979  0.8231
 8697SOL     OW37549   2.362   4.143  11.090  0.1111  0.0353 -0.2308
 8697SOL    HW137550   2.295   4.074  11.087 -2.6473  2.5982  1.5482
 8697SOL    HW237551   2.433   4.080  11.103 -0.7501 -1.1562 -1.1934
 8698SOL     OW37552   4.710   0.605   5.444 -0.3980  0.2438 -0.1048
 8698SOL    HW137553   0.027   0.603   5.357 -2.0506  0.2000 -0.8683
 8698SOL    HW237554   4.720   0.512   5.464  1.3248  0.8151  1.6712
 8699SOL     OW37555   0.069   1.066   8.611  0.5492  0.1195  0.8085
 8699SOL    HW137556   0.069   1.016   8.693 -1.3066 -1.7999 -0.3771
 8699SOL    HW237557   0.049   1.150   8.652  1.2603  1.2192 -1.0930
 8700SOL     OW37558   3.556   2.377   8.435 -0.1657  0.3749  0.0836
 8700SOL    HW137559   3.500   2.450   8.410 -0.8984 -0.2342 -0.0827
 8700SOL    HW237560   3.606   2.416   8.506 -0.5834  0.6861  0.2073
 8701SOL     OW37561   1.727   3.727  17.558 -0.0154 -0.2137 -0.1817
 8701SOL    HW137562   1.765   3.640  17.552 -1.7163 -0.9678 -0.0010
 8701SOL    HW237563   1.747   3.758  17.469  2.0678 -0.2855  0.2730
 8702SOL     OW37564   3.520   2.684   6.570  0.0355 -0.0087 -0.0633
 8702SOL    HW137565   3.563   2.754   6.618 -1.6979 -0.6737  2.4886
 8702SOL    HW237566   3.582   2.611   6.568  1.0393  0.8425 -0.3259
 8703SOL     OW37567   1.536   0.689  10.455 -0.1331  0.1036 -0.5918
 8703SOL    HW137568   1.580   0.771  10.478  0.2337 -1.2282  3.5105
 8703SOL    HW237569   1.445   0.712  10.473 -0.1446 -0.8395  0.5201
 8704SOL     OW37570   3.101   4.330   8.174  0.0405  0.6746  0.7372
 8704SOL    HW137571   3.151   4.350   8.252  1.4006 -0.7046  0.2023
 8704SOL    HW237572   3.030   4.273   8.203  0.8196  0.4888  2.2298
 8705SOL     OW37573   2.456   0.659  11.203  0.0124 -0.0143 -0.1905
 8705SOL    HW137574   2.448   0.717  11.279 -2.7148 -1.2615  0.4705
 8705SOL    HW237575   2.519   0.702  11.146  0.2402  0.8901  0.7427
 8706SOL     OW37576   1.081   0.566   3.281 -0.0343 -0.0301 -0.2685
 8706SOL    HW137577   1.119   0.487   3.241 -1.6315 -1.3380  0.8091
 8706SOL    HW237578   1.158   0.622   3.276  0.1612 -0.3270 -0.6565
 8707SOL     OW37579   0.177   3.692   2.166 -0.2035  0.2884  0.1796
 8707SOL    HW137580   0.235   3.639   2.220  1.4669  0.7410 -1.1329
 8707SOL    HW237581   0.206   3.783   2.177  1.7440 -0.7624  3.8070
 8708SOL     OW37582   1.616   0.545  10.214 -0.3414 -0.1171  0.1018
 8708SOL    HW137583   1.603   0.612  10.282 -0.6697  1.2133 -1.2631
 8708SOL    HW237584   1.545   0.560  10.152 -0.4559  0.7110  0.4347
 8709SOL     OW37585   0.089   0.670  16.547 -0.1830 -0.8665 -0.6601
 8709SOL    HW137586   0.132   0.635  16.625  1.2326  1.5875 -0.3386
 8709SOL    HW237587   0.033   0.736  16.587  0.7383 -0.6516  0.2450
 8710SOL     OW37588   0.811   3.136   2.144  0.1974 -0.2918  0.4022
 8710SOL    HW137589   0.789   3.058   2.094  0.5759 -1.0032  1.3502
 8710SOL    HW237590   0.853   3.177   2.068  0.2950 -0.8540  0.1573
 8711SOL     OW37591   4.015   1.530   3.598  0.0784 -0.1223  0.4277
 8711SOL    HW137592   3.997   1.577   3.680 -0.8788 -0.1220  0.2185
 8711SOL    HW237593   3.934   1.538   3.547  0.2441 -1.2707 -0.0178
 8712SOL     OW37594   0.454   2.126   9.692  0.0107 -0.6643  0.3148
 8712SOL    HW137595   0.443   2.089   9.779  0.3292  0.7844  0.9778
 8712SOL    HW237596   0.370   2.170   9.685 -0.7625 -2.3548 -0.9288
 8713SOL     OW37597   3.571   3.264   3.130  0.4938 -0.8844  0.2456
 8713SOL    HW137598   3.658   3.257   3.091  1.1533 -0.1494  1.6011
 8713SOL    HW237599   3.528   3.327   3.072 -0.2518  0.2518  2.0427
 8714SOL     OW37600   1.977   0.932   1.912 -0.1697  0.0236  0.5314
 8714SOL    HW137601   2.064   0.908   1.878 -1.1959 -1.7162 -0.8840
 8714SOL    HW237602   1.991   0.922   2.006 -1.1028 -2.9220  0.3499
 8715SOL     OW37603   3.562   0.415   3.156  0.1244  0.1598 -1.3527
 8715SOL    HW137604   3.577   0.352   3.085 -1.3087 -2.8358  1.0023
 8715SOL    HW237605   3.484   0.459   3.122 -0.0128 -0.3084 -1.6553
 8716SOL     OW37606   3.858   3.809  13.139 -0.2822 -0.4850 -0.0040
 8716SOL    HW137607   3.913   3.736  13.165  0.2900  1.6934  4.9212
 8716SOL    HW237608   3.865   3.867  13.215  0.2457 -2.4554  1.4419
 8717SOL     OW37609   3.666   4.224   4.311  0.7897 -0.0982 -0.5573
 8717SOL    HW137610   3.679   4.132   4.287  1.2413  0.1117 -1.1158
 8717SOL    HW237611   3.570   4.223   4.321  1.2454  2.2867  3.7879
 8718SOL     OW37612   0.352   0.352   6.657  0.6304  0.5936  0.0795
 8718SOL    HW137613   0.385   0.404   6.731  0.2634 -0.3237  0.8960
 8718SOL    HW237614   0.425   0.349   6.596  1.1695 -1.5149  0.8422
 8719SOL     OW37615   1.435   2.140   5.833  0.2589  0.6227 -0.1535
 8719SOL    HW137616   1.450   2.199   5.760 -2.2771  2.2300  0.6330
 8719SOL    HW237617   1.470   2.058   5.798  0.1084  0.0185  1.1025
 8720SOL     OW37618   0.662   1.409  15.043  0.2783  0.5598 -0.2551
 8720SOL    HW137619   0.715   1.365  15.110  0.4154 -1.6018 -1.7676
 8720SOL    HW237620   0.581   1.361  15.062  1.1185 -0.2432  1.3216
 8721SOL     OW37621   2.573   2.012   8.910  0.0122  0.2781  0.1104
 8721SOL    HW137622   2.578   2.025   9.005 -1.2408  1.3531  0.0316
 8721SOL    HW237623   2.665   2.021   8.885  0.3413  0.3698  1.3454
 8722SOL     OW37624   3.729   0.277   5.856  0.3100 -0.2467  0.4166
 8722SOL    HW137625   3.672   0.352   5.873  2.0139  1.7981 -2.8497
 8722SOL    HW237626   3.762   0.246   5.940  1.4287  0.0928  0.0907
 8723SOL     OW37627   0.045   2.314   9.851 -0.4261  0.1674 -0.0977
 8723SOL    HW137628   0.083   2.400   9.867 -0.1484  0.3406 -1.6557
 8723SOL    HW237629   0.056   2.281   9.940 -4.0023  1.3492  0.7907
 8724SOL     OW37630   1.962   4.509  15.501  0.1985 -0.0912  0.6430
 8724SOL    HW137631   1.889   4.473  15.450  0.2967  0.4419  0.1338
 8724SOL    HW237632   2.020   4.434  15.496 -1.0129 -1.0717  1.1872
 8725SOL     OW37633   3.134   4.405   3.057  1.1856 -0.2849  0.2311
 8725SOL    HW137634   3.059   4.418   3.000 -1.0341 -0.9483  2.9833
 8725SOL    HW237635   3.207   4.422   2.998 -0.2116  0.0549 -1.3716
 8726SOL     OW37636   1.120   1.857   8.402 -0.3003 -0.0048  0.6289
 8726SOL    HW137637   1.102   1.925   8.338  3.3415 -0.9927 -1.3937
 8726SOL    HW237638   1.153   1.786   8.348  2.2455  0.4863  1.5519
 8727SOL     OW37639   2.935   1.282  15.367  0.6889  0.2540 -0.1236
 8727SOL    HW137640   2.960   1.211  15.426 -1.2600 -1.4667 -1.3930
 8727SOL    HW237641   3.024   1.316  15.354  0.6422  0.1862 -0.6068
 8728SOL     OW37642   3.579   3.405   2.476 -0.0728 -0.3010 -0.6374
 8728SOL    HW137643   3.516   3.464   2.435  0.1066  0.4905  0.2300
 8728SOL    HW237644   3.591   3.428   2.568 -0.8747 -1.4356 -0.2607
 8729SOL     OW37645   1.934   3.758   5.009  0.1064  0.1695  0.2132
 8729SOL    HW137646   1.986   3.692   5.055  3.0024  0.7520 -2.2913
 8729SOL    HW237647   1.986   3.768   4.930  1.1169 -0.1327  0.8400
 8730SOL     OW37648   0.516   2.090  14.020 -0.2407  0.0477 -0.2286
 8730SOL    HW137649   0.432   2.099  13.976 -0.3674  2.2119  0.4249
 8730SOL    HW237650   0.551   2.178  14.008  0.6248 -0.2465  0.1752
 8731SOL     OW37651   2.552   0.739   5.882  0.8139  0.1763  0.4382
 8731SOL    HW137652   2.525   0.648   5.871  1.8180  0.0385 -0.9381
 8731SOL    HW237653   2.497   0.767   5.955 -0.9657  0.9359 -1.1857
 8732SOL     OW37654   0.033   0.901  14.148  0.2770  0.2085  0.1820
 8732SOL    HW137655   0.119   0.916  14.185  0.4771  3.8571 -1.7985
 8732SOL    HW237656   0.029   0.957  14.071  1.6206 -0.6679 -0.5234
 8733SOL     OW37657   4.368   1.949  12.383  0.6880 -0.4645 -0.3019
 8733SOL    HW137658   4.326   1.868  12.354  1.0746 -1.2339  1.2672
 8733SOL    HW237659   4.385   1.930  12.476  0.8622  0.9187 -0.0426
 8734SOL     OW37660   3.349   3.857   1.234 -0.3899 -0.3137 -0.0485
 8734SOL    HW137661   3.433   3.899   1.220  1.2327 -3.6625 -0.3281
 8734SOL    HW237662   3.304   3.846   1.150  2.2061 -1.3440 -1.2986
 8735SOL     OW37663   1.951   0.491   2.094  0.1722  0.0050  0.0776
 8735SOL    HW137664   1.934   0.473   2.002 -1.6890  1.7133  0.0876
 8735SOL    HW237665   1.889   0.431   2.136 -1.1121  0.3442 -1.3432
 8736SOL     OW37666   0.432   4.326   5.791 -0.1025  0.0491 -0.1136
 8736SOL    HW137667   0.374   4.316   5.715 -1.0839 -0.2033  0.6778
 8736SOL    HW237668   0.370   4.345   5.861  1.9299 -0.2814  1.7658
 8737SOL     OW37669   4.329   1.373   3.302  0.1192 -0.0094 -0.3018
 8737SOL    HW137670   4.311   1.381   3.395  1.3631  3.0715 -0.3341
 8737SOL    HW237671   4.419   1.344   3.313 -0.0648  0.6012  2.8342
 8738SOL     OW37672   4.535   1.445  10.788  0.9217  0.3761  0.6121
 8738SOL    HW137673   4.606   1.477  10.844  1.6428  1.3531 -0.8455
 8738SOL    HW237674   4.486   1.526  10.775 -0.3788 -1.0242 -3.3813
 8739SOL     OW37675   1.878   0.471   9.917 -0.1695 -0.0952 -0.3094
 8739SOL    HW137676   1.925   0.468   9.834  0.3041 -1.2536  0.0019
 8739SOL    HW237677   1.946   0.514   9.968  0.2534 -0.4451 -0.5717
 8740SOL     OW37678   2.897   1.913   7.741  0.0971 -0.4310 -0.0799
 8740SOL    HW137679   2.827   1.890   7.803  1.2320 -2.8362  0.3113
 8740SOL    HW237680   2.851   1.954   7.668  0.1799 -2.4880 -1.2893
 8741SOL     OW37681   0.996   4.289   4.749  0.4273 -0.0495  0.1736
 8741SOL    HW137682   0.907   4.319   4.729  1.9479  3.5798 -1.1780
 8741SOL    HW237683   0.998   4.200   4.716 -0.5349  0.2803 -0.7657
 8742SOL     OW37684   2.592   3.516  13.881 -0.0144 -0.1910  0.5209
 8742SOL    HW137685   2.595   3.512  13.977  2.6207 -1.8917  0.3539
 8742SOL    HW237686   2.609   3.609  13.863 -1.0640 -0.1118 -0.0256
 8743SOL     OW37687   3.544   0.657   6.737  0.6418 -0.2607  0.3550
 8743SOL    HW137688   3.558   0.752   6.742  2.9438 -0.5843 -0.0533
 8743SOL    HW237689   3.459   0.658   6.694  0.4382  2.5558  0.8104
 8744SOL     OW37690   3.042   0.964   2.227  0.0362 -0.2336  0.3371
 8744SOL    HW137691   3.047   1.017   2.306 -0.0094 -0.0753  0.2339
 8744SOL    HW237692   3.116   0.903   2.237  2.1625  2.4383  0.9122
 8745SOL     OW37693   0.866   0.759   1.171 -0.0013 -0.1037 -0.3971
 8745SOL    HW137694   0.912   0.710   1.103 -0.5672 -2.1232  0.7012
 8745SOL    HW237695   0.943   0.775   1.226 -0.5157 -1.8166  0.8232
 8746SOL     OW37696   2.221   1.276   3.935  0.3406  0.7354 -0.1391
 8746SOL    HW137697   2.135   1.316   3.925 -0.4032 -0.1772  2.7712
 8746SOL    HW237698   2.261   1.324   3.862 -0.2437  1.3383 -0.0554
 8747SOL     OW37699   3.329   3.973  10.193 -0.4258  0.4974 -0.3676
 8747SOL    HW137700   3.334   3.994  10.286  1.1545  0.6284 -0.4707
 8747SOL    HW237701   3.406   3.916  10.192 -2.6202 -2.4356 -1.3551
 8748SOL     OW37702   2.392   0.922   8.051  0.1014 -0.2185 -0.4831
 8748SOL    HW137703   2.341   0.984   7.998 -0.6562 -1.0046 -0.6633
 8748SOL    HW237704   2.446   0.979   8.106 -1.2293  0.7031 -0.1422
 8749SOL     OW37705   2.043   2.087   0.830 -0.2668  0.6844  0.3072
 8749SOL    HW137706   2.050   2.009   0.884 -0.4960  1.9807  2.1843
 8749SOL    HW237707   1.979   2.141   0.876  0.1363  1.5000 -0.0820
 8750SOL     OW37708   3.761   1.842   2.518  0.0573  0.4430  0.5563
 8750SOL    HW137709   3.849   1.851   2.554  0.1659  1.1424  0.1134
 8750SOL    HW237710   3.724   1.930   2.507  1.0155  0.7749 -0.0127
 8751SOL     OW37711   0.259   3.748   0.646 -0.1845  0.1739  0.2355
 8751SOL    HW137712   0.256   3.687   0.720  1.3090  0.1530  0.2895
 8751SOL    HW237713   0.214   3.697   0.579  1.9706  1.9432 -2.5367
 8752SOL     OW37714   1.602   1.471  14.467 -0.4960  0.0970 -0.1526
 8752SOL    HW137715   1.697   1.478  14.459 -0.4760 -1.3182 -1.0178
 8752SOL    HW237716   1.588   1.517  14.550  1.3838  0.0133  0.2196
 8753SOL     OW37717   2.134   2.666   8.247 -0.6804 -0.1048 -0.3657
 8753SOL    HW137718   2.220   2.634   8.277  1.0551  2.6675 -2.4453
 8753SOL    HW237719   2.129   2.750   8.293 -0.6956 -1.6008  2.3484
 8754SOL     OW37720   3.136   1.774   7.657 -0.2767  0.2918 -1.3819
 8754SOL    HW137721   3.197   1.816   7.717 -1.4129  0.0411 -0.0435
 8754SOL    HW237722   3.058   1.826   7.676  0.4103  0.9774 -0.5094
 8755SOL     OW37723   0.422   1.523  12.486  0.2189  0.4625 -0.2457
 8755SOL    HW137724   0.508   1.561  12.504 -0.2584  1.2565  0.3814
 8755SOL    HW237725   0.409   1.487  12.573  1.0710  0.0300 -0.2966
 8756SOL     OW37726   1.241   3.068   5.786 -0.6837  0.2522  0.1927
 8756SOL    HW137727   1.151   3.071   5.752 -0.0652  2.7073 -1.2022
 8756SOL    HW237728   1.279   3.147   5.748 -0.3296  0.6447  1.3738
 8757SOL     OW37729   4.361   3.562  14.717 -0.3787 -0.0140  0.2676
 8757SOL    HW137730   4.443   3.538  14.759  0.6506 -0.9254 -2.2120
 8757SOL    HW237731   4.363   3.513  14.634 -0.3674 -0.0955  0.3156
 8758SOL     OW37732   4.381   3.829  14.803  0.6436 -0.0784  0.2663
 8758SOL    HW137733   4.375   3.749  14.752  2.8132  0.4513 -0.8112
 8758SOL    HW237734   4.318   3.886  14.759  1.1022  0.7350  0.6479
 8759SOL     OW37735   3.433   1.285   6.231  0.4147 -0.4355  0.0090
 8759SOL    HW137736   3.450   1.304   6.323  0.3829 -0.2823 -0.0173
 8759SOL    HW237737   3.387   1.363   6.200  0.0944 -0.2223  1.0073
 8760SOL     OW37738   0.717   2.935   0.262 -0.2031 -0.2489  0.4736
 8760SOL    HW137739   0.770   3.013   0.245 -1.1759  0.1394 -0.8619
 8760SOL    HW237740   0.701   2.950   0.355 -1.7158  0.2890  0.1359
 8761SOL     OW37741   3.035   3.184  14.862 -0.0207  0.2229  0.2289
 8761SOL    HW137742   3.034   3.228  14.777  0.8008 -0.7246 -0.2757
 8761SOL    HW237743   3.063   3.267  14.902  0.5442  0.3467 -0.4257
 8762SOL     OW37744   2.790   2.633   0.728  0.2961 -0.5633  0.0434
 8762SOL    HW137745   2.762   2.723   0.709  2.0907 -0.2970 -1.3613
 8762SOL    HW237746   2.705   2.591   0.711  0.1067  0.7177 -2.2663
 8763SOL     OW37747   1.365   0.034   1.106 -0.0323 -0.6890  0.3146
 8763SOL    HW137748   1.394   4.667   1.119 -0.1497 -0.8415 -0.4558
 8763SOL    HW237749   1.391   0.073   1.189 -0.2895  0.8208 -0.3099
 8764SOL     OW37750   2.686   2.509   4.888 -0.6575 -0.3381 -0.3881
 8764SOL    HW137751   2.761   2.465   4.848  0.4077  2.0905 -1.0418
 8764SOL    HW237752   2.711   2.512   4.980 -0.1097  1.5184 -0.6097
 8765SOL     OW37753   0.419   2.712   5.929  0.0238  0.6345 -0.0739
 8765SOL    HW137754   0.489   2.668   5.880  1.1424  2.2853  0.0443
 8765SOL    HW237755   0.451   2.802   5.926  2.6367 -0.2891  0.1288
 8766SOL     OW37756   2.232   3.861   8.643  0.3454  0.0769  0.4061
 8766SOL    HW137757   2.278   3.936   8.605  1.4495 -1.6645 -1.7139
 8766SOL    HW237758   2.282   3.841   8.721 -0.3292 -1.2629  0.4987
 8767SOL     OW37759   1.433   0.425   2.459  0.5733  0.4891  0.3899
 8767SOL    HW137760   1.385   0.484   2.401  0.8209  0.7278  0.4329
 8767SOL    HW237761   1.519   0.460   2.438  0.5186  2.0270  2.7640
 8768SOL     OW37762   2.362   0.841   5.348 -0.3661  0.4312 -0.6023
 8768SOL    HW137763   2.339   0.911   5.409 -0.4000  0.1005 -0.2364
 8768SOL    HW237764   2.381   0.887   5.266  1.7255  0.0289 -0.3415
 8769SOL     OW37765   2.420   2.022   1.504 -0.0538  0.5950  0.1019
 8769SOL    HW137766   2.355   2.092   1.494  0.6762  1.0197 -1.7458
 8769SOL    HW237767   2.438   2.027   1.597 -2.9118  0.0848  0.6886
 8770SOL     OW37768   4.671   4.716   1.802 -0.0777  0.1545  0.2683
 8770SOL    HW137769   4.706   4.683   1.885  0.3721 -1.9969 -0.7867
 8770SOL    HW237770   4.620   4.638   1.781 -0.6422  0.5515  0.1521
 8771SOL     OW37771   2.710   1.585   1.465  0.0942 -0.0896  0.1330
 8771SOL    HW137772   2.782   1.642   1.439  1.4894 -2.3330 -1.0272
 8771SOL    HW237773   2.698   1.538   1.382  0.4263  0.0903 -0.0152
 8772SOL     OW37774   4.184   2.456   2.042 -0.0565  0.3203  0.1028
 8772SOL    HW137775   4.157   2.475   1.952  0.2439 -0.1834 -0.0931
 8772SOL    HW237776   4.271   2.420   2.025  1.0446  2.4548  1.2065
 8773SOL     OW37777   0.665   2.733   3.406 -0.1829  0.4802  0.3800
 8773SOL    HW137778   0.625   2.779   3.333 -1.2969 -1.1039 -0.0134
 8773SOL    HW237779   0.596   2.754   3.470 -0.4962  0.4016  0.0645
 8774SOL     OW37780   2.960   3.435   3.612  0.4307  0.5703 -0.0813
 8774SOL    HW137781   2.961   3.374   3.538  0.3078 -0.9862  1.1919
 8774SOL    HW237782   3.008   3.391   3.682  0.4100  0.5132 -0.1027
 8775SOL     OW37783   4.499   3.001  17.218 -0.1844 -0.1879  0.3201
 8775SOL    HW137784   4.551   2.961  17.288 -1.3385  0.6102  1.6233
 8775SOL    HW237785   4.472   2.930  17.160  0.1588  1.2458 -1.5818
 8776SOL     OW37786   3.307   1.450   3.911 -0.0568 -0.5284 -0.4366
 8776SOL    HW137787   3.327   1.412   3.997 -0.5054  1.5462  0.5663
 8776SOL    HW237788   3.344   1.391   3.845 -2.7372 -1.4131 -1.1518
 8777SOL     OW37789   1.347   1.262   7.032  0.1350  0.3317 -0.1490
 8777SOL    HW137790   1.330   1.340   7.084 -0.8751  0.6373 -0.9262
 8777SOL    HW237791   1.272   1.204   7.047 -0.8012  1.0290 -2.1224
 8778SOL     OW37792   1.349   3.213   3.484  0.4292 -0.1925  0.4973
 8778SOL    HW137793   1.346   3.304   3.455 -0.6046 -1.0053 -1.9153
 8778SOL    HW237794   1.300   3.169   3.415  1.3015  1.0654 -0.9052
 8779SOL     OW37795   0.494   2.625   0.312 -0.0561  0.5505  0.0121
 8779SOL    HW137796   0.582   2.598   0.339  0.1635  3.3211  2.1505
 8779SOL    HW237797   0.456   2.629   0.400 -3.6254 -2.7570 -1.4101
 8780SOL     OW37798   1.141   3.945   8.972  0.0085  0.2405  0.2873
 8780SOL    HW137799   1.061   3.898   8.948  0.5902 -0.2840 -0.6358
 8780SOL    HW237800   1.115   4.038   8.970 -1.2184 -0.0891  0.6511
 8781SOL     OW37801   0.713   2.045   1.722  0.4658 -0.4152 -0.1187
 8781SOL    HW137802   0.733   2.113   1.786 -1.7845  0.3996 -0.2785
 8781SOL    HW237803   0.753   1.968   1.762  4.4117  0.8020 -1.7075
 8782SOL     OW37804   1.979   4.170   8.979 -0.1083 -0.0852 -0.3087
 8782SOL    HW137805   2.019   4.115   9.046  1.7447 -0.8084 -1.9993
 8782SOL    HW237806   1.982   4.118   8.898 -1.6223 -0.7314  0.0504
 8783SOL     OW37807   0.632   4.470   4.977  0.0667 -0.1187  0.0617
 8783SOL    HW137808   0.653   4.481   5.070  2.7318  0.2135 -0.5959
 8783SOL    HW237809   0.688   4.536   4.936 -0.4417  1.6876  2.2434
 8784SOL     OW37810   0.099   0.124   4.318 -0.3372 -0.3095  0.0673
 8784SOL    HW137811   0.127   0.048   4.268  0.5069  1.2527 -1.8270
 8784SOL    HW237812   0.146   0.101   4.398 -1.6848 -0.0992  0.9266
 8785SOL     OW37813   0.962   2.442   5.750 -0.3455  0.0627 -0.1727
 8785SOL    HW137814   1.030   2.481   5.805 -0.5927 -0.0868  0.2332
 8785SOL    HW237815   0.955   2.354   5.786  1.8397  0.6805  1.7674
 8786SOL     OW37816   4.073   0.520   8.145 -0.4925  0.2123 -0.5448
 8786SOL    HW137817   4.030   0.476   8.072  2.4191 -0.2899 -1.9470
 8786SOL    HW237818   4.162   0.531   8.112 -0.3572  1.2272  0.1430
 8787SOL     OW37819   2.146   4.063   5.889 -0.3068  0.0004 -0.6383
 8787SOL    HW137820   2.160   4.050   5.795  0.8477 -1.1586 -0.3076
 8787SOL    HW237821   2.056   4.094   5.880 -1.1862 -1.4721  2.9701
 8788SOL     OW37822   0.538   1.809   6.860  0.0675 -0.0787 -0.2262
 8788SOL    HW137823   0.510   1.898   6.883  1.4456  0.8508 -2.1321
 8788SOL    HW237824   0.480   1.785   6.788 -0.0537 -2.1612  0.5881
 8789SOL     OW37825   3.127   2.448   6.140 -0.2227  0.5003  0.0106
 8789SOL    HW137826   3.144   2.357   6.165 -0.2199  0.3652 -0.4778
 8789SOL    HW237827   3.124   2.500   6.220  0.9539  0.7983 -0.1421
 8790SOL     OW37828   0.807   1.255   2.868  0.5086  0.1301 -0.2378
 8790SOL    HW137829   0.779   1.338   2.907 -0.2257  0.0611 -0.6114
 8790SOL    HW237830   0.724   1.218   2.836  1.3672 -2.9919  1.1723
 8791SOL     OW37831   0.234   0.161   1.943  0.1874 -0.4704  0.2047
 8791SOL    HW137832   0.308   0.204   1.986  0.1549  1.0441 -1.2321
 8791SOL    HW237833   0.187   0.120   2.015  1.2039 -0.8823  0.6347
 8792SOL     OW37834   2.345   4.610   5.417  0.5711 -0.9192  0.2298
 8792SOL    HW137835   2.269   4.552   5.426 -0.7563  0.9478  0.9925
 8792SOL    HW237836   2.402   4.573   5.485  0.5644  0.3153  0.9005
 8793SOL     OW37837   0.662   2.846   9.474 -0.1521  0.3191 -0.2802
 8793SOL    HW137838   0.639   2.755   9.490 -0.8372  0.6973  0.8910
 8793SOL    HW237839   0.616   2.850   9.391 -0.7032 -0.6233 -0.0254
 8794SOL     OW37840   1.247   4.579   8.513 -0.5682 -0.4211  0.6078
 8794SOL    HW137841   1.322   4.624   8.552  0.0865 -0.5724 -0.4793
 8794SOL    HW237842   1.285   4.491   8.505 -0.8641 -0.6601  1.7776
 8795SOL     OW37843   3.656   3.609  15.419  0.0454  0.2737  0.1427
 8795SOL    HW137844   3.672   3.570  15.334  1.3383 -0.0834  0.5571
 8795SOL    HW237845   3.728   3.578  15.473 -0.4259  0.0749  0.6626
 8796SOL     OW37846   4.653   2.744  16.426  0.3963  0.5716  0.3375
 8796SOL    HW137847   4.571   2.719  16.383  1.6318 -1.6085 -0.6897
 8796SOL    HW237848   4.685   2.673  16.481  1.3525  1.2788  0.7088
 8797SOL     OW37849   1.004   1.145  11.152  0.1158 -0.5664 -0.1953
 8797SOL    HW137850   0.969   1.186  11.231 -3.4264 -2.3599 -0.8790
 8797SOL    HW237851   1.063   1.083  11.195  1.6974  0.5351 -0.7702
 8798SOL     OW37852   2.876   0.849   2.526  0.7247  1.4963 -0.5141
 8798SOL    HW137853   2.799   0.895   2.490  1.6712  0.8167 -3.4327
 8798SOL    HW237854   2.940   0.919   2.540  1.4553  0.6440  0.3605
 8799SOL     OW37855   2.249   3.454   2.652 -0.5399 -0.0460  0.0579
 8799SOL    HW137856   2.295   3.451   2.568 -0.8896  1.7538 -0.1887
 8799SOL    HW237857   2.186   3.384   2.636 -1.2986  0.3654  1.2768
 8800SOL     OW37858   2.479   2.351   4.893 -0.0019  0.0196 -0.0109
 8800SOL    HW137859   2.523   2.283   4.841 -0.2827  0.1607 -0.4333
 8800SOL    HW237860   2.530   2.431   4.879  0.8695 -0.2115  1.8923
 8801SOL     OW37861   2.870   2.738   5.702  0.0093 -0.3028 -0.0964
 8801SOL    HW137862   2.938   2.692   5.751 -0.5799  0.0818  1.0865
 8801SOL    HW237863   2.865   2.681   5.625 -2.5793  1.4131 -1.1811
 8802SOL     OW37864   4.117   3.731   4.770  0.2838  0.1021 -0.1156
 8802SOL    HW137865   4.111   3.813   4.721  0.8448 -0.1806 -0.6617
 8802SOL    HW237866   4.029   3.734   4.807  0.6890 -0.0642  0.8626
 8803SOL     OW37867   3.692   3.075  10.856 -0.3066  0.5998 -0.3539
 8803SOL    HW137868   3.745   3.042  10.784  2.6448 -3.3378  3.7053
 8803SOL    HW237869   3.656   2.994  10.890 -1.0990  0.9359 -0.3881
 8804SOL     OW37870   0.079   2.778   7.389  0.0224  0.5592 -0.3540
 8804SOL    HW137871   0.005   2.763   7.330  0.7438 -1.3250 -0.7765
 8804SOL    HW237872   0.105   2.690   7.418  0.6231  0.8492 -0.0097
 8805SOL     OW37873   1.553   2.563   3.038  0.1090  0.1568 -0.1474
 8805SOL    HW137874   1.477   2.618   3.016  0.7414  1.6224  1.3533
 8805SOL    HW237875   1.514   2.475   3.040  1.1843 -0.3474 -1.6572
 8806SOL     OW37876   0.548   2.280   5.674 -0.2312  0.1647 -0.1633
 8806SOL    HW137877   0.483   2.212   5.691  0.4167 -0.5139 -0.4003
 8806SOL    HW237878   0.510   2.355   5.720  0.7327  0.2755  0.4535
 8807SOL     OW37879   1.302   3.918  11.865 -0.5018 -0.1332  0.3917
 8807SOL    HW137880   1.253   3.932  11.784 -1.0201 -2.7818  0.2343
 8807SOL    HW237881   1.380   3.971  11.848  0.2369 -0.8973  1.3967
 8808SOL     OW37882   4.690   3.595   4.248 -0.5688 -0.1197  0.1104
 8808SOL    HW137883   4.633   3.575   4.174 -0.9765 -0.3271  0.4822
 8808SOL    HW237884   4.628   3.598   4.320 -0.1193 -0.9386  0.5292
 8809SOL     OW37885   4.462   3.639   2.992  0.7303  0.9363 -0.4408
 8809SOL    HW137886   4.373   3.636   2.957  1.0254  0.6718 -1.1731
 8809SOL    HW237887   4.507   3.678   2.918 -1.3779  0.8186 -1.7689
 8810SOL     OW37888   3.430   0.071  13.726  0.5319  0.2941 -0.3102
 8810SOL    HW137889   3.497   0.016  13.685  0.7475  0.0397  0.3786
 8810SOL    HW237890   3.495   0.128  13.767 -1.6591  0.6363  2.7007
 8811SOL     OW37891   4.311   0.384   9.360 -0.6015 -0.4157 -0.1898
 8811SOL    HW137892   4.320   0.474   9.390  1.9827 -0.3071 -1.3016
 8811SOL    HW237893   4.344   0.335   9.434 -1.6185 -0.9519 -0.0820
 8812SOL     OW37894   0.921   3.949   2.420  0.6182  0.6488  0.4555
 8812SOL    HW137895   1.013   3.931   2.439  1.1175  3.7019  0.9383
 8812SOL    HW237896   0.903   3.876   2.362 -1.8121  2.2869 -0.8273
 8813SOL     OW37897   1.053   0.586   6.014 -0.0880  0.2551 -0.4290
 8813SOL    HW137898   1.071   0.623   6.100  0.8462 -1.7558  0.2319
 8813SOL    HW237899   0.963   0.618   6.002  0.6108  1.9601 -1.0822
 8814SOL     OW37900   3.105   3.509   8.093  0.0043  0.5290  0.3364
 8814SOL    HW137901   3.092   3.575   8.161 -1.8827  0.6185 -0.1310
 8814SOL    HW237902   3.066   3.557   8.019  1.9679 -1.0427 -1.7322
 8815SOL     OW37903   1.185   0.789   9.204  0.5061 -0.3309 -0.3649
 8815SOL    HW137904   1.233   0.706   9.204 -0.6400 -0.9921  0.6402
 8815SOL    HW237905   1.105   0.762   9.159 -0.0362 -0.1761  0.5030
 8816SOL     OW37906   0.542   0.264   5.599 -0.2515  0.9891  0.3261
 8816SOL    HW137907   0.584   0.215   5.529 -0.1601  1.9358 -0.2696
 8816SOL    HW237908   0.614   0.262   5.662  0.2786  1.3375 -0.2755
 8817SOL     OW37909   3.712   1.286  15.088  0.0321 -0.1477 -0.0663
 8817SOL    HW137910   3.744   1.227  15.156  1.5525 -0.2688 -0.8896
 8817SOL    HW237911   3.676   1.214  15.037  0.0294  0.7618 -1.3401
 8818SOL     OW37912   1.369   0.345  14.911 -0.5641  0.1630  0.5468
 8818SOL    HW137913   1.357   0.253  14.935 -2.2231  0.6826  1.6750
 8818SOL    HW237914   1.379   0.322  14.819 -0.3580 -0.5181  0.7392
 8819SOL     OW37915   3.114   4.456   0.642 -0.2556  0.0892 -0.5779
 8819SOL    HW137916   3.039   4.513   0.657 -0.5213 -0.4109  0.0280
 8819SOL    HW237917   3.111   4.434   0.549  0.5706 -1.1730 -0.3124
 8820SOL     OW37918   4.210   4.629   4.508 -0.4548  0.2168  0.1343
 8820SOL    HW137919   4.248   4.612   4.594  0.3076  0.5960 -0.1288
 8820SOL    HW237920   4.163   4.707   4.538  0.8125  1.1711 -0.3693
 8821SOL     OW37921   0.935   3.885   8.030 -0.0725 -0.5922 -0.2603
 8821SOL    HW137922   0.917   3.793   8.011  1.0710 -0.3772 -2.3397
 8821SOL    HW237923   0.897   3.933   7.957  0.2020 -0.4873 -0.3331
 8822SOL     OW37924   0.508   1.414   4.985  0.5204  0.2054  0.3903
 8822SOL    HW137925   0.502   1.497   5.032 -1.8835 -0.4693  1.3036
 8822SOL    HW237926   0.440   1.363   5.031 -1.6490  2.4489 -0.3083
 8823SOL     OW37927   1.186   1.588  17.535 -0.2062 -0.0100  0.3976
 8823SOL    HW137928   1.204   1.626  17.621 -0.8368 -1.4050  1.1410
 8823SOL    HW237929   1.277   1.569  17.512 -0.9013 -1.7384 -0.9491
 8824SOL     OW37930   2.721   2.634   8.145 -0.0666  0.5587  0.2086
 8824SOL    HW137931   2.725   2.724   8.112  0.2463  0.1805 -0.7786
 8824SOL    HW237932   2.803   2.598   8.112 -0.7931 -1.5330  0.7068
 8825SOL     OW37933   0.904   1.738   8.140 -0.2490  0.3775 -0.6795
 8825SOL    HW137934   0.948   1.823   8.141  0.6164 -0.0887  0.6385
 8825SOL    HW237935   0.812   1.761   8.141 -0.2035  0.5408 -0.3969
 8826SOL     OW37936   1.350   2.001  14.416 -0.6002 -0.4813  0.0810
 8826SOL    HW137937   1.372   1.943  14.343  0.7724  0.2127 -0.0412
 8826SOL    HW237938   1.294   1.945  14.469 -0.4665 -0.2349  0.4793
 8827SOL     OW37939   0.563   2.514   9.515  0.3524  0.2420  0.1584
 8827SOL    HW137940   0.649   2.525   9.554 -0.4020 -1.8416  2.4649
 8827SOL    HW237941   0.572   2.420   9.497 -2.4199 -0.2487  1.2700
 8828SOL     OW37942   1.153   3.087   6.636  0.3114 -0.2929  0.5226
 8828SOL    HW137943   1.086   3.034   6.594 -0.3550  0.2441  0.8934
 8828SOL    HW237944   1.200   3.138   6.569  1.0214 -1.3277  0.2388
 8829SOL     OW37945   3.784   3.710  15.129  0.3548 -0.0148  0.0563
 8829SOL    HW137946   3.835   3.784  15.162  0.7161 -0.3172  0.1752
 8829SOL    HW237947   3.847   3.640  15.143 -0.4621 -0.9224 -0.8654
 8830SOL     OW37948   2.987   4.547   3.494 -0.0336 -0.2483  0.5608
 8830SOL    HW137949   2.941   4.471   3.528  1.2279 -0.3426  2.0556
 8830SOL    HW237950   2.926   4.616   3.521  0.3889  0.4414 -0.2385
 8831SOL     OW37951   4.397   3.465  14.465 -0.1952 -0.1073  0.0048
 8831SOL    HW137952   4.449   3.537  14.430  0.7231 -0.3955  0.7798
 8831SOL    HW237953   4.324   3.455  14.404  0.4001 -0.3436 -0.6708
 8832SOL     OW37954   4.117   2.423  12.388  0.6521  0.3812  0.3642
 8832SOL    HW137955   4.077   2.467  12.313 -0.2992 -1.4144 -0.1681
 8832SOL    HW237956   4.053   2.423  12.460 -0.6157 -0.4959 -0.7718
 8833SOL     OW37957   3.835   1.228   3.676  0.6454  0.1964  0.1281
 8833SOL    HW137958   3.821   1.136   3.694  0.3196  0.1825 -0.1967
 8833SOL    HW237959   3.921   1.242   3.716  1.4430  0.3024 -1.6280
 8834SOL     OW37960   1.852   3.228   3.574 -0.0148 -0.1322 -0.4917
 8834SOL    HW137961   1.757   3.221   3.583  0.0746 -1.3214 -0.4739
 8834SOL    HW237962   1.849   3.304   3.515 -1.3131  0.4516  0.3129
 8835SOL     OW37963   0.805   4.137  10.721  0.6370 -0.1568  0.3308
 8835SOL    HW137964   0.715   4.123  10.690  1.2528 -0.9163 -1.0911
 8835SOL    HW237965   0.857   4.161  10.644  1.0140  0.2832  0.7276
 8836SOL     OW37966   0.065   1.332   9.008 -0.0107 -0.5230  0.5595
 8836SOL    HW137967   0.153   1.313   9.042  0.0211 -0.5906  0.4393
 8836SOL    HW237968   0.024   1.305   9.090 -1.9561 -1.0706 -0.5864
 8837SOL     OW37969   2.082   4.346   6.052 -0.2061 -0.3157 -0.6065
 8837SOL    HW137970   2.114   4.388   6.131  1.1894 -0.7751 -0.9262
 8837SOL    HW237971   2.145   4.274   6.048 -0.2258 -0.4667  1.7606
 8838SOL     OW37972   0.391   3.482   6.541  0.3376 -0.2894  0.8692
 8838SOL    HW137973   0.301   3.512   6.523  0.1908 -1.6210 -0.5545
 8838SOL    HW237974   0.368   3.425   6.615  0.1097 -2.5604 -0.9696
 8839SOL     OW37975   3.531   1.337   5.524 -0.2800  0.3186 -0.2259
 8839SOL    HW137976   3.449   1.286   5.529  0.4012 -0.7765 -0.2351
 8839SOL    HW237977   3.573   1.310   5.605 -1.3217  1.0884  0.5740
 8840SOL     OW37978   2.082   0.897  11.835  0.0158  0.0728  0.1683
 8840SOL    HW137979   2.092   0.990  11.817 -1.4857  0.4095  1.0536
 8840SOL    HW237980   2.019   0.908  11.906 -0.2914 -0.4159 -0.0223
 8841SOL     OW37981   0.567   0.290  12.979 -0.3677  0.0824 -0.2577
 8841SOL    HW137982   0.544   0.218  13.039  1.2465  0.2743  0.6170
 8841SOL    HW237983   0.498   0.288  12.914  1.4067 -1.1200 -2.1167
 8842SOL     OW37984   4.440   2.163   8.777  0.3753 -0.1383 -0.0726
 8842SOL    HW137985   4.488   2.233   8.732  0.5039  0.4893  1.0320
 8842SOL    HW237986   4.492   2.133   8.851 -1.8827  0.5776  1.8133
 8843SOL     OW37987   0.847   0.415   5.882  0.4033 -0.8351  0.9392
 8843SOL    HW137988   0.827   0.426   5.975 -1.6496 -0.5414  0.4754
 8843SOL    HW237989   0.936   0.381   5.886  1.8166  2.7489 -0.0114
 8844SOL     OW37990   1.149   2.056  11.885  0.3860 -0.4160 -0.4061
 8844SOL    HW137991   1.227   2.099  11.921 -0.8372  1.5219 -0.1098
 8844SOL    HW237992   1.189   1.986  11.833  1.1854 -0.2387 -0.0299
 8845SOL     OW37993   1.689   2.677  17.175  0.3463 -0.2395 -0.2915
 8845SOL    HW137994   1.709   2.587  17.201 -1.7399 -0.6007  0.1007
 8845SOL    HW237995   1.639   2.701  17.253  1.6662 -0.8529  0.7195
 8846SOL     OW37996   2.379   0.820  17.349 -0.7951 -0.3832  0.3961
 8846SOL    HW137997   2.387   0.912  17.323  3.7193 -1.6782 -2.8002
 8846SOL    HW237998   2.444   0.821  17.420  1.8596  0.8070 -2.0281
 8847SOL     OW37999   3.389   2.409   6.785 -0.5247  0.7889  0.0056
 8847SOL    HW138000   3.447   2.411   6.709 -1.9214 -0.4977 -1.0921
 8847SOL    HW238001   3.318   2.348   6.763 -0.5908  0.6149  0.7040
 8848SOL     OW38002   4.319   2.227   2.900 -0.3191 -0.1401 -0.3485
 8848SOL    HW138003   4.284   2.249   2.986  1.0252  1.5863 -0.2396
 8848SOL    HW238004   4.303   2.306   2.848  0.8387 -0.5360 -1.3156
 8849SOL     OW38005   2.496   0.330  10.846 -1.1434  0.0906 -0.2171
 8849SOL    HW138006   2.544   0.379  10.780  2.4336 -0.6909  1.7802
 8849SOL    HW238007   2.506   0.237  10.825  1.1231  0.1202  0.7129
 8850SOL     OW38008   1.322   4.693   7.052  0.1493 -0.1199  0.1141
 8850SOL    HW138009   1.234   4.673   7.020  0.7037 -0.8861 -0.9294
 8850SOL    HW238010   1.297   4.684   7.144  0.6025  2.2216  0.4489
 8851SOL     OW38011   1.544   2.737   5.533 -0.3054 -0.5955  0.5727
 8851SOL    HW138012   1.604   2.669   5.503  0.3215  1.1833 -2.1662
 8851SOL    HW238013   1.609   2.807   5.536  0.4459 -1.3548  1.7764
 8852SOL     OW38014   3.287   0.341  13.705  0.3195 -0.1596  0.3347
 8852SOL    HW138015   3.201   0.336  13.745  0.6101  0.0387  0.9839
 8852SOL    HW238016   3.319   0.418  13.752  3.3532 -1.4425  0.3570
 8853SOL     OW38017   0.822   1.406   7.904 -0.2378 -0.4468 -0.5415
 8853SOL    HW138018   0.875   1.486   7.898 -0.0770 -0.4269  1.2027
 8853SOL    HW238019   0.880   1.340   7.944  0.7918  0.6884 -0.1455
 8854SOL     OW38020   3.252   3.569   4.331  0.0197  0.9132  0.3222
 8854SOL    HW138021   3.289   3.580   4.419 -1.0654  1.9418  0.6546
 8854SOL    HW238022   3.157   3.573   4.340 -0.1651 -0.1426 -1.1523
 8855SOL     OW38023   1.579   3.501  10.669  0.5785  0.0030  0.3002
 8855SOL    HW138024   1.530   3.467  10.594 -1.0306 -2.0593  2.2818
 8855SOL    HW238025   1.659   3.451  10.652 -0.8045 -1.7920 -1.0196
 8856SOL     OW38026   3.163   4.692  12.522  0.0085 -0.2371 -0.1215
 8856SOL    HW138027   3.096   4.723  12.460 -0.4544  0.1491  0.5708
 8856SOL    HW238028   3.216   0.048  12.527 -1.3212  0.7214 -1.0643
 8857SOL     OW38029   4.227   1.427   9.110  0.1965  0.7335  0.1780
 8857SOL    HW138030   4.319   1.405   9.098 -0.7504 -2.3039 -1.3966
 8857SOL    HW238031   4.233   1.510   9.062  0.7620  0.3338 -0.4352
 8858SOL     OW38032   1.174   2.119   5.331 -0.6166 -0.4399 -0.1496
 8858SOL    HW138033   1.102   2.164   5.287  2.6849  3.3207 -1.6495
 8858SOL    HW238034   1.141   2.131   5.420 -1.6436 -1.0981 -0.4406
 8859SOL     OW38035   1.116   1.249   3.849 -0.1882 -0.0754  0.2303
 8859SOL    HW138036   1.055   1.221   3.781 -0.4236  0.9331  0.0181
 8859SOL    HW238037   1.192   1.198   3.821 -0.7539 -1.7844  1.7647
 8860SOL     OW38038   1.910   2.804   6.681 -0.5654 -0.1149  0.0058
 8860SOL    HW138039   1.959   2.741   6.735 -0.4666  0.2494  0.3455
 8860SOL    HW238040   1.927   2.886   6.727  1.0863 -0.7031  0.4711
 8861SOL     OW38041   2.848   3.012   5.207 -0.1174 -0.3249 -0.3749
 8861SOL    HW138042   2.885   2.934   5.166  0.4328  0.9314 -2.2375
 8861SOL    HW238043   2.915   3.039   5.270  1.9048 -2.4456 -1.6215
 8862SOL     OW38044   2.907   2.128  10.933 -0.6213  0.3616 -0.5327
 8862SOL    HW138045   2.886   2.076  10.855 -0.0568  0.2683 -0.6203
 8862SOL    HW238046   2.824   2.146  10.979 -0.6297 -0.0230 -0.3893
 8863SOL     OW38047   4.331   0.788  13.306 -0.3219  0.5268  0.8500
 8863SOL    HW138048   4.368   0.832  13.230  0.3715  0.2763  1.0473
 8863SOL    HW238049   4.366   0.700  13.299 -0.3348  0.3326  3.0297
 8864SOL     OW38050   2.839   2.842   4.819 -0.4257 -0.0500 -0.6488
 8864SOL    HW138051   2.916   2.886   4.783 -0.2988 -1.2227 -1.7951
 8864SOL    HW238052   2.785   2.922   4.819 -2.2938 -1.3159  0.0768
 8865SOL     OW38053   3.359   2.510  13.955  0.2726 -0.2528  0.5508
 8865SOL    HW138054   3.329   2.419  13.959 -1.1347  0.2321  0.9547
 8865SOL    HW238055   3.445   2.503  13.997  1.3474 -0.6171 -1.7197
 8866SOL     OW38056   3.432   3.548  13.224 -0.1139 -0.3800 -0.8518
 8866SOL    HW138057   3.510   3.580  13.178 -0.6624  0.4964 -1.1686
 8866SOL    HW238058   3.413   3.480  13.159 -1.6873 -0.4024 -0.3743
 8867SOL     OW38059   0.538   1.075   2.428  0.1960  0.5911  0.6268
 8867SOL    HW138060   0.460   1.121   2.459 -0.4129 -0.5110  0.7060
 8867SOL    HW238061   0.595   1.152   2.418  0.8425  0.3609  2.5956
 8868SOL     OW38062   1.741   0.301   2.970 -0.0896 -0.2902  0.9161
 8868SOL    HW138063   1.771   0.230   2.913 -1.2144  1.7028 -2.0997
 8868SOL    HW238064   1.789   0.378   2.940 -1.5136  0.3488  0.2846
 8869SOL     OW38065   4.312   3.276   1.684  0.3310 -0.2878 -0.0856
 8869SOL    HW138066   4.227   3.259   1.643  1.0375 -0.1889 -1.6013
 8869SOL    HW238067   4.375   3.221   1.638  0.1796 -0.0320 -0.5996
 8870SOL     OW38068   0.803   3.592   4.240  0.3288 -0.7578  0.1768
 8870SOL    HW138069   0.802   3.660   4.172 -2.0595 -3.7505 -2.7564
 8870SOL    HW238070   0.764   3.651   4.305 -0.5569 -1.8232  0.6165
 8871SOL     OW38071   3.530   1.426   2.448 -0.5038 -0.1823  0.5468
 8871SOL    HW138072   3.545   1.521   2.445  0.7041 -0.3800 -0.0032
 8871SOL    HW238073   3.616   1.388   2.467 -0.0056  0.1076 -1.1513
 8872SOL     OW38074   3.996   2.270  11.899  0.1275 -0.1394 -0.2712
 8872SOL    HW138075   3.991   2.281  11.804 -0.1901 -2.2651 -0.5075
 8872SOL    HW238076   4.042   2.185  11.904 -1.2224 -0.7167  2.2788
 8873SOL     OW38077   1.714   2.487  13.239  0.2899 -0.2761  0.2656
 8873SOL    HW138078   1.774   2.472  13.313 -1.3734 -2.1107  1.2486
 8873SOL    HW238079   1.625   2.481  13.273 -0.8811  0.0083 -2.7874
 8874SOL     OW38080   3.775   2.396   4.500  0.4332  0.1629 -0.5259
 8874SOL    HW138081   3.728   2.344   4.435 -0.4130 -1.1224  1.1010
 8874SOL    HW238082   3.827   2.455   4.445  2.7133 -2.9140 -1.6764
 8875SOL     OW38083   0.485   3.348   7.661 -0.4735  0.4542  0.0563
 8875SOL    HW138084   0.446   3.274   7.614  2.1689 -1.3832  0.7521
 8875SOL    HW238085   0.424   3.367   7.732 -1.2927  2.2952 -1.1409
 8876SOL     OW38086   1.718   3.322   7.543 -0.5441 -0.9953  0.3454
 8876SOL    HW138087   1.663   3.244   7.545 -0.4848 -0.9733  2.1850
 8876SOL    HW238088   1.799   3.291   7.583 -0.2238 -2.2179 -1.2368
 8877SOL     OW38089   2.516   2.436   5.371  0.1427  0.3859 -0.3856
 8877SOL    HW138090   2.454   2.420   5.300  0.1756 -0.9905 -0.0961
 8877SOL    HW238091   2.596   2.400   5.334  0.4012 -0.0178  0.5608
 8878SOL     OW38092   4.212   2.345   0.967 -0.1712 -0.4451  0.0929
 8878SOL    HW138093   4.249   2.338   0.879  0.1730  2.6996 -0.0056
 8878SOL    HW238094   4.168   2.261   0.976 -0.0813 -0.7507 -2.2407
 8879SOL     OW38095   2.561   0.056   6.583 -0.3168  0.4215  0.0032
 8879SOL    HW138096   2.628   0.116   6.617 -0.2554  0.0292  0.5679
 8879SOL    HW238097   2.621   0.008   6.526 -1.8182 -1.2808 -0.1294
 8880SOL     OW38098   2.751   4.289   6.655  0.5969  0.2215  0.2967
 8880SOL    HW138099   2.745   4.205   6.610 -2.1235  1.1712 -1.1535
 8880SOL    HW238100   2.802   4.270   6.734 -0.8791 -2.2173  0.6514
 8881SOL     OW38101   2.448   4.016   5.279  0.2269 -0.2895 -0.3296
 8881SOL    HW138102   2.377   3.997   5.218 -2.8466  3.3453  2.0845
 8881SOL    HW238103   2.426   4.102   5.316  0.7641 -0.4486  0.3566
 8882SOL     OW38104   2.367   3.348   5.901 -0.5857 -0.5528 -0.4818
 8882SOL    HW138105   2.309   3.287   5.855  0.4069 -1.7507 -0.1603
 8882SOL    HW238106   2.324   3.432   5.884  1.1608 -0.1775 -3.0444
 8883SOL     OW38107   1.566   1.808   9.485 -0.0556  0.8187 -0.4991
 8883SOL    HW138108   1.492   1.762   9.525 -0.2943  0.2048 -1.6367
 8883SOL    HW238109   1.514   1.868   9.431  0.7444  0.3814 -1.7651
 8884SOL     OW38110   2.187   1.954   3.005 -0.0355 -0.3372  0.2363
 8884SOL    HW138111   2.227   1.967   3.091  2.1383 -0.3803 -0.7519
 8884SOL    HW238112   2.240   1.878   2.982 -2.2799 -2.0882  0.8297
 8885SOL     OW38113   4.488   0.973   8.155  0.4155 -0.1813  0.2822
 8885SOL    HW138114   4.571   0.955   8.199 -0.6297 -0.1827  2.2680
 8885SOL    HW238115   4.433   1.011   8.224 -2.2703  0.9760 -2.4291
 8886SOL     OW38116   2.296   0.674  11.547  0.1699  0.2647  0.2117
 8886SOL    HW138117   2.308   0.649  11.638  0.4357 -1.3802 -0.2719
 8886SOL    HW238118   2.386   0.674  11.515 -0.2845  1.8334 -1.0995
 8887SOL     OW38119   3.549   3.843   7.991 -0.6818  0.6821 -0.3940
 8887SOL    HW138120   3.530   3.758   7.952  0.2934  0.8716 -1.2850
 8887SOL    HW238121   3.536   3.828   8.085 -0.6863  0.5547 -0.4148
 8888SOL     OW38122   2.182   4.697  15.972 -0.0254 -0.0989  0.0828
 8888SOL    HW138123   2.275   4.709  15.993  0.2301  0.7711 -1.5968
 8888SOL    HW238124   2.143   0.058  15.995 -1.2558 -0.7131  0.2612
 8889SOL     OW38125   1.616   3.984   4.190  0.3173 -0.1889  0.0171
 8889SOL    HW138126   1.620   3.893   4.160 -1.6591 -0.7465  1.4350
 8889SOL    HW238127   1.547   3.984   4.256 -0.5356 -1.1737 -0.8832
 8890SOL     OW38128   3.047   3.051  13.097 -0.3660  0.0799 -0.0470
 8890SOL    HW138129   3.056   3.118  13.165  0.0034 -1.8205  1.8032
 8890SOL    HW238130   3.097   2.977  13.134 -0.8934 -0.4858 -0.4660
 8891SOL     OW38131   1.448   2.638   7.700  0.2565  0.0564  0.2947
 8891SOL    HW138132   1.471   2.548   7.723 -0.7550  0.2150  1.9303
 8891SOL    HW238133   1.375   2.653   7.760  0.8349  1.4554  0.6511
 8892SOL     OW38134   1.986   0.762   9.825 -0.2423 -0.4390  0.0252
 8892SOL    HW138135   2.004   0.698   9.894  1.5819 -0.3972 -0.4058
 8892SOL    HW238136   2.073   0.790   9.797 -0.8424  0.0212 -1.3679
 8893SOL     OW38137   3.938   4.233   0.617 -0.5186  0.1357 -0.0546
 8893SOL    HW138138   4.032   4.242   0.637 -0.1061  0.3552 -2.1439
 8893SOL    HW238139   3.930   4.305   0.555 -0.7092 -0.4702 -0.7187
 8894SOL     OW38140   3.627   3.304   6.850 -0.1534 -0.0730  0.2895
 8894SOL    HW138141   3.651   3.374   6.911 -2.8758 -1.4709  3.0021
 8894SOL    HW238142   3.581   3.257   6.920 -1.4200  1.7551  0.6739
 8895SOL     OW38143   3.151   3.306   2.821  0.9948 -0.1918  0.7611
 8895SOL    HW138144   3.094   3.330   2.747 -1.9187  2.0851  3.7930
 8895SOL    HW238145   3.230   3.314   2.766 -0.5022 -2.7487 -1.7912
 8896SOL     OW38146   1.423   4.675   5.688  0.1146 -0.1006  0.6268
 8896SOL    HW138147   1.439   0.016   5.618  2.2319  0.1016  1.3026
 8896SOL    HW238148   1.376   4.612   5.633 -0.6126  0.8996  0.0995
 8897SOL     OW38149   3.557   3.699  14.832  0.4305  0.0924  0.7198
 8897SOL    HW138150   3.607   3.711  14.913  0.9693  1.5202  0.1698
 8897SOL    HW238151   3.553   3.790  14.802  0.3717 -0.5827 -1.2815
 8898SOL     OW38152   2.047   0.922   1.597 -0.5803  0.0213  0.7149
 8898SOL    HW138153   2.125   0.868   1.599  0.8789  2.0436 -2.7008
 8898SOL    HW238154   2.079   1.006   1.630 -1.4157  0.3410  0.7246
 8899SOL     OW38155   3.160   1.861   5.977  0.5640 -0.1873 -0.0277
 8899SOL    HW138156   3.158   1.896   6.066  1.9721  0.7843 -0.3664
 8899SOL    HW238157   3.173   1.945   5.932 -1.7352 -0.2184 -0.7636
 8900SOL     OW38158   1.770   3.770   4.444 -0.5872  0.0284  0.0607
 8900SOL    HW138159   1.755   3.761   4.538  0.6187  0.1164  0.2504
 8900SOL    HW238160   1.767   3.866   4.450 -1.7124 -0.1414  2.5275
 8901SOL     OW38161   1.598   4.160   6.875 -0.3463 -0.0579 -0.5229
 8901SOL    HW138162   1.538   4.124   6.809 -0.6005 -1.6086  0.5763
 8901SOL    HW238163   1.648   4.226   6.826 -1.3565 -0.1566 -1.7094
 8902SOL     OW38164   3.588   0.616  11.725  0.2464  0.1530  0.0001
 8902SOL    HW138165   3.643   0.656  11.658 -1.5941  0.4840 -1.3173
 8902SOL    HW238166   3.501   0.623  11.685 -0.4722  2.1017  1.9239
 8903SOL     OW38167   4.568   2.311   2.999  0.3167  0.4607  0.2809
 8903SOL    HW138168   4.661   2.292   2.998  0.0126 -1.0025 -0.0411
 8903SOL    HW238169   4.549   2.317   2.905 -1.4777  3.3420  0.8062
 8904SOL     OW38170   0.373   1.873   4.183  0.1849 -0.0999  0.0291
 8904SOL    HW138171   0.367   1.947   4.243 -0.4401 -1.0683  1.1436
 8904SOL    HW238172   0.425   1.900   4.107  1.3889  0.3082  0.9921
 8905SOL     OW38173   3.763   2.975   3.237  0.0014  0.3702 -0.0103
 8905SOL    HW138174   3.696   3.036   3.269 -0.5406 -0.8955  1.2510
 8905SOL    HW238175   3.732   2.948   3.151 -0.3862 -0.3678  0.3586
 8906SOL     OW38176   3.085   0.967   4.828  0.2497  0.1802  0.3896
 8906SOL    HW138177   3.073   0.948   4.735 -5.0376  0.3307  1.0739
 8906SOL    HW238178   3.181   0.970   4.833  0.3185  1.1609 -1.4440
 8907SOL     OW38179   2.134   1.027   9.255  0.4490 -0.2976 -0.2648
 8907SOL    HW138180   2.120   0.937   9.286  1.0308 -0.0021  0.8459
 8907SOL    HW238181   2.124   1.087   9.328 -1.9022 -0.4832 -0.4545
 8908SOL     OW38182   1.497   3.716   2.154 -0.1275 -0.5399  0.5844
 8908SOL    HW138183   1.556   3.744   2.084  0.6615  0.7505  1.7717
 8908SOL    HW238184   1.520   3.764   2.234  0.7531 -0.8751  0.5290
 8909SOL     OW38185   1.507   0.880   8.206  0.3781 -0.9529 -0.5748
 8909SOL    HW138186   1.536   0.794   8.235  0.8587 -0.5715  0.1005
 8909SOL    HW238187   1.525   0.935   8.283  2.7495 -1.6767 -0.5924
 8910SOL     OW38188   3.710   2.156   7.738 -0.3895 -0.7156  1.2856
 8910SOL    HW138189   3.798   2.177   7.705 -0.8165 -1.7971 -0.5315
 8910SOL    HW238190   3.669   2.242   7.746 -2.0210 -1.2485 -1.4207
 8911SOL     OW38191   2.159   2.041  13.264  0.0394 -0.3750 -0.1728
 8911SOL    HW138192   2.193   2.061  13.177  1.4589  1.0603  0.7197
 8911SOL    HW238193   2.078   1.992  13.247 -1.5480  2.0983  0.2676
 8912SOL     OW38194   1.929   3.604   0.589  0.3112  0.0965 -0.9437
 8912SOL    HW138195   1.853   3.662   0.578  1.9155  2.4398  0.4663
 8912SOL    HW238196   1.999   3.643   0.536 -0.0956  1.4530 -0.4962
 8913SOL     OW38197   3.823   4.315   0.023 -0.7198  0.3268  0.2583
 8913SOL    HW138198   3.851   4.407   0.018  1.8272 -0.4956 -0.7376
 8913SOL    HW238199   3.837   4.300   0.116 -0.0428 -1.4436 -0.1339
 8914SOL     OW38200   1.441   2.572   3.967  0.5998  0.0723  0.6090
 8914SOL    HW138201   1.411   2.663   3.971  1.3970  0.4130 -0.8738
 8914SOL    HW238202   1.456   2.567   3.872  0.1205 -1.7424  0.6383
 8915SOL     OW38203   1.121   3.338  11.176 -0.1324  0.0264 -0.0163
 8915SOL    HW138204   1.043   3.387  11.200 -0.6025 -0.8822  0.3111
 8915SOL    HW238205   1.089   3.249  11.161  1.5503 -0.2623 -1.9133
 8916SOL     OW38206   0.118   2.396   2.451  0.0762  0.5076  0.1731
 8916SOL    HW138207   0.208   2.374   2.478 -0.0472 -0.3449 -0.0882
 8916SOL    HW238208   0.139   2.466   2.390 -0.0310 -0.6412 -1.1669
 8917SOL     OW38209   4.169   4.196   3.591  0.6572  0.3316 -0.2489
 8917SOL    HW138210   4.118   4.143   3.531 -0.3328  2.4397 -1.2502
 8917SOL    HW238211   4.160   4.157   3.678 -0.5280 -1.4910 -1.1907
 8918SOL     OW38212   2.364   3.760   1.717  0.2437  0.0795 -0.1713
 8918SOL    HW138213   2.450   3.768   1.676  0.7238 -2.1341  0.4297
 8918SOL    HW238214   2.321   3.757   1.631  1.1954  0.9893 -0.6747
 8919SOL     OW38215   3.435   1.882   7.018  0.1800 -0.0500  0.4641
 8919SOL    HW138216   3.498   1.930   6.965 -0.7276 -1.4122 -1.8487
 8919SOL    HW238217   3.470   1.793   7.018 -1.3156 -0.6372  0.8335
 8920SOL     OW38218   1.487   2.681  16.992  0.0870 -0.0653 -0.5844
 8920SOL    HW138219   1.572   2.671  17.036 -1.3664 -0.1564  2.2043
 8920SOL    HW238220   1.431   2.613  17.030  1.9816 -0.6955  1.1017
 8921SOL     OW38221   0.545   0.047   1.516 -0.6298 -0.0627 -0.4566
 8921SOL    HW138222   0.632   0.011   1.506 -0.0254  1.4650 -0.7051
 8921SOL    HW238223   0.496   0.002   1.447  1.5513 -1.7596 -0.9035
 8922SOL     OW38224   0.897   1.531   9.762 -0.1979  0.2385  0.1339
 8922SOL    HW138225   0.886   1.501   9.852  0.3638  2.9095  1.1018
 8922SOL    HW238226   0.846   1.467   9.713  0.4260  0.0764 -0.2930
 8923SOL     OW38227   4.502   3.310  14.950  0.0878 -0.5093 -0.3392
 8923SOL    HW138228   4.568   3.266  15.003  0.1679 -0.5003 -0.4314
 8923SOL    HW238229   4.549   3.381  14.907  0.3688 -0.6472 -0.2636
 8924SOL     OW38230   0.084   1.104  10.391  0.2282  0.5945  0.3898
 8924SOL    HW138231   0.174   1.085  10.363  0.1911  0.8174  0.1150
 8924SOL    HW238232   0.099   1.122  10.484  1.0708 -1.0738  0.5725
 8925SOL     OW38233   2.421   2.174   2.457 -0.2659  0.0374  0.2680
 8925SOL    HW138234   2.473   2.156   2.378 -2.3889  1.1174 -1.3919
 8925SOL    HW238235   2.427   2.086   2.493 -2.2529 -0.8159 -1.4565
 8926SOL     OW38236   3.327   4.650   1.165 -0.2055  0.4098  0.1592
 8926SOL    HW138237   3.257   4.663   1.230  0.4944  0.5189  0.8960
 8926SOL    HW238238   3.392   4.614   1.225  1.0993 -1.6099 -2.4801
 8927SOL     OW38239   3.930   2.186  12.468  0.6701 -0.4792  0.0675
 8927SOL    HW138240   3.992   2.165  12.538  2.5814  2.9843 -0.5828
 8927SOL    HW238241   3.857   2.128  12.488  1.1337 -0.4372  1.9340
 8928SOL     OW38242   0.938   3.527  11.121  0.2168  0.1985 -0.4288
 8928SOL    HW138243   0.935   3.526  11.025 -2.3824 -1.0647 -0.3453
 8928SOL    HW238244   0.994   3.603  11.135  1.3297 -0.7306  0.1014
 8929SOL     OW38245   4.656   2.296   8.282  0.3266  0.2022  0.2289
 8929SOL    HW138246   0.015   2.260   8.251 -0.3398 -1.7099  0.6840
 8929SOL    HW238247   4.671   2.391   8.281 -2.0626  0.5496 -2.3666
 8930SOL     OW38248   0.591   3.699  13.532 -0.1476 -0.4149 -0.1070
 8930SOL    HW138249   0.558   3.726  13.617  0.5220  0.1384 -0.0333
 8930SOL    HW238250   0.651   3.630  13.561 -0.0349 -0.0329  0.5450
 8931SOL     OW38251   2.053   1.864   1.006  0.1101  0.2353  0.1849
 8931SOL    HW138252   1.975   1.863   1.062  0.5049 -0.6357  0.7168
 8931SOL    HW238253   2.110   1.917   1.061 -0.6325  0.5222  0.6821
 8932SOL     OW38254   3.005   1.635  11.990 -0.3436  0.9376  0.6949
 8932SOL    HW138255   2.916   1.649  11.959  1.2094  1.4628 -3.6099
 8932SOL    HW238256   3.032   1.573  11.922  1.0162  1.9154  0.3433
 8933SOL     OW38257   2.267   1.360   3.083 -0.4681 -0.4453 -0.7051
 8933SOL    HW138258   2.234   1.444   3.049  0.5773 -0.2477 -1.2269
 8933SOL    HW238259   2.292   1.327   2.996  2.1647  2.2996 -0.9659
 8934SOL     OW38260   1.984   1.114  10.876 -0.0932  0.9781  0.1849
 8934SOL    HW138261   1.899   1.139  10.840  0.4979  1.6744 -0.7045
 8934SOL    HW238262   2.020   1.180  10.935 -1.2008  0.2285  1.7062
 8935SOL     OW38263   2.013   3.025   0.969 -0.0799 -0.5550  0.0200
 8935SOL    HW138264   2.022   2.930   0.968 -0.3266 -0.5904  0.8626
 8935SOL    HW238265   2.014   3.048   1.062 -1.0829  2.1165 -0.6298
 8936SOL     OW38266   2.801   4.190   8.704 -1.0061  0.1171  0.3747
 8936SOL    HW138267   2.766   4.227   8.623 -2.8923  1.0908  1.6292
 8936SOL    HW238268   2.717   4.197   8.751 -0.8329 -0.0167  0.7061
 8937SOL     OW38269   1.898   3.585  11.098  0.0406 -0.0297  0.0671
 8937SOL    HW138270   1.858   3.653  11.153 -1.3931 -1.5325  0.8935
 8937SOL    HW238271   1.990   3.588  11.123  0.0858 -1.4897  0.0755
 8938SOL     OW38272   1.978   4.314   8.007  0.6225 -0.2776  0.0285
 8938SOL    HW138273   1.922   4.320   8.084 -1.8061  1.6036 -1.8457
 8938SOL    HW238274   1.915   4.271   7.948 -0.5837 -0.5483  1.5100
 8939SOL     OW38275   1.429   2.596   8.781  0.2240  0.1346 -0.5566
 8939SOL    HW138276   1.352   2.550   8.746 -0.8784  0.3471  1.5703
 8939SOL    HW238277   1.377   2.641   8.849  0.1058 -2.6134  1.1808
 8940SOL     OW38278   1.858   2.732   0.985 -0.6203 -0.2968 -0.3551
 8940SOL    HW138279   1.812   2.658   0.946 -0.3796 -0.6548  0.0502
 8940SOL    HW238280   1.859   2.786   0.905 -2.5288  0.2768  0.0259
 8941SOL     OW38281   3.712   4.453   3.494 -0.4991  0.3561  0.5044
 8941SOL    HW138282   3.707   4.512   3.419 -3.0846 -1.3073 -0.6593
 8941SOL    HW238283   3.806   4.458   3.513 -0.3745  0.7268 -0.2026
 8942SOL     OW38284   3.251   4.678   8.626  0.0868 -0.1169  0.1320
 8942SOL    HW138285   3.158   4.694   8.612  0.1988 -0.2734 -0.8075
 8942SOL    HW238286   3.265   0.017   8.697 -0.1435  1.5388 -1.2818
 8943SOL     OW38287   2.953   3.331   2.563 -0.0232  0.0377  0.6672
 8943SOL    HW138288   2.900   3.411   2.564 -2.4769 -1.5981  0.9401
 8943SOL    HW238289   2.973   3.324   2.470 -1.8107  2.0311  0.1305
 8944SOL     OW38290   1.360   0.595   9.347 -0.4821  0.3074  0.2976
 8944SOL    HW138291   1.402   0.654   9.409  0.3761  0.8837 -0.8230
 8944SOL    HW238292   1.362   0.517   9.402  0.9090  2.0251  2.6814
 8945SOL     OW38293   0.492   4.143   4.541 -0.1304 -0.0626  0.3357
 8945SOL    HW138294   0.517   4.099   4.460  0.1259 -1.4202  1.1558
 8945SOL    HW238295   0.427   4.079   4.572 -0.7787 -0.3291 -1.5837
 8946SOL     OW38296   0.732   3.789   1.527 -0.1145 -0.4959  0.0908
 8946SOL    HW138297   0.697   3.731   1.594 -2.3747  0.4375 -0.2849
 8946SOL    HW238298   0.723   3.879   1.558  1.2575 -0.2771 -0.1541
 8947SOL     OW38299   4.273   1.562   0.147  0.4497  0.2853 -0.4199
 8947SOL    HW138300   4.268   1.470   0.174 -2.0543  1.1718  2.1380
 8947SOL    HW238301   4.291   1.541   0.055  0.3627  1.3549 -0.6758
 8948SOL     OW38302   3.554   0.266   2.123  0.6027 -0.0856 -0.7301
 8948SOL    HW138303   3.558   0.177   2.088  0.1142  0.6799 -2.7520
 8948SOL    HW238304   3.647   0.284   2.135 -0.1376  2.6460  0.8535
 8949SOL     OW38305   0.433   3.145   8.770  0.2495  0.1836  0.2606
 8949SOL    HW138306   0.360   3.126   8.712 -0.1062 -1.5561  1.2985
 8949SOL    HW238307   0.428   3.240   8.762  1.2876  0.1899 -0.3946
 8950SOL     OW38308   2.695   2.535   3.749  0.2423 -0.1475 -0.1596
 8950SOL    HW138309   2.648   2.563   3.670  0.1598  0.1307 -0.0109
 8950SOL    HW238310   2.749   2.463   3.717  0.7058 -0.4710  1.3617
 8951SOL     OW38311   0.991   0.158   9.046  0.5818 -0.2327 -0.0492
 8951SOL    HW138312   0.961   0.198   8.964 -0.3707 -0.6421  0.0975
 8951SOL    HW238313   1.079   0.131   9.020  0.7733  0.0361  0.3198
 8952SOL     OW38314   1.479   0.747   3.586  0.2610  0.7092  0.2225
 8952SOL    HW138315   1.490   0.710   3.498  0.0036  1.8584 -0.2951
 8952SOL    HW238316   1.401   0.798   3.565 -0.1295  0.3499  0.8059
 8953SOL     OW38317   0.305   0.825   1.737 -0.7577  0.0930  0.2247
 8953SOL    HW138318   0.369   0.874   1.684  1.4759 -2.6595  0.4036
 8953SOL    HW238319   0.320   0.849   1.828 -0.7150  1.5170 -0.1532
 8954SOL     OW38320   0.406   2.754   9.923 -0.3502 -0.0512 -0.1124
 8954SOL    HW138321   0.494   2.722   9.941  0.3627  1.6894 -0.5048
 8954SOL    HW238322   0.433   2.803   9.845  2.0470 -0.4555  0.4640
 8955SOL     OW38323   3.078   2.738   8.728 -0.3476  0.7318 -0.1256
 8955SOL    HW138324   3.107   2.654   8.762 -0.4224  1.5241  1.8982
 8955SOL    HW238325   3.018   2.761   8.799  1.3474 -0.7937  1.7692
 8956SOL     OW38326   1.942   1.670  11.479  0.1539  0.5998 -0.1877
 8956SOL    HW138327   1.910   1.595  11.429 -0.5519 -0.3601  1.7386
 8956SOL    HW238328   2.035   1.669  11.456  0.1729 -0.6985 -0.0357
 8957SOL     OW38329   1.145   1.124   3.444 -0.4378 -0.4193 -0.1502
 8957SOL    HW138330   1.095   1.085   3.515  1.2758  1.5472  2.1378
 8957SOL    HW238331   1.130   1.062   3.372 -1.3321  1.2343 -1.3644
 8958SOL     OW38332   3.567   2.720  16.959 -0.2142  0.0402  0.0555
 8958SOL    HW138333   3.597   2.678  16.879  0.4968 -2.5814  1.7129
 8958SOL    HW238334   3.531   2.802  16.924 -1.5677 -0.0527  1.2195
 8959SOL     OW38335   3.201   0.703  11.308 -0.1689 -0.2824 -0.4553
 8959SOL    HW138336   3.114   0.733  11.281 -0.4324  1.9701  2.9288
 8959SOL    HW238337   3.213   0.647  11.232 -0.7045  0.9675 -1.4714
 8960SOL     OW38338   3.603   2.673  14.633 -0.4791 -0.2907 -0.4839
 8960SOL    HW138339   3.698   2.686  14.639 -0.4080 -0.7539 -0.5750
 8960SOL    HW238340   3.580   2.639  14.546  2.3186  1.3401 -1.8912
 8961SOL     OW38341   1.375   3.937   5.639  0.6095 -0.1719 -0.1536
 8961SOL    HW138342   1.329   3.927   5.722  0.4141 -0.5761 -0.3137
 8961SOL    HW238343   1.313   3.990   5.589  0.6028  0.7978  0.8674
 8962SOL     OW38344   1.407   0.838  14.143 -0.0297  0.3008 -0.2978
 8962SOL    HW138345   1.486   0.794  14.110 -0.3468 -0.3022 -0.2533
 8962SOL    HW238346   1.435   0.928  14.157 -0.5508  0.7298 -1.9396
 8963SOL     OW38347   3.054   0.946   4.086 -0.4747  0.1597  0.3617
 8963SOL    HW138348   3.093   0.910   4.166  0.2305  1.5753  0.6588
 8963SOL    HW238349   2.970   0.979   4.116 -1.5305 -0.9731 -1.3885
 8964SOL     OW38350   1.932   4.336  15.114 -0.6204  0.0491  0.2597
 8964SOL    HW138351   1.945   4.338  15.209  1.0496  0.6192  0.0321
 8964SOL    HW238352   1.872   4.263  15.104 -0.1335 -0.2767 -0.2990
 8965SOL     OW38353   2.534   1.718   7.097 -0.3055 -0.6498 -0.1752
 8965SOL    HW138354   2.499   1.787   7.152  1.0383 -0.0605 -0.0733
 8965SOL    HW238355   2.615   1.760   7.070 -0.4939 -1.2304 -1.6715
 8966SOL     OW38356   1.509   0.609   8.247 -0.1754 -0.2402  0.2406
 8966SOL    HW138357   1.553   0.590   8.330  1.0977  0.7971 -0.1971
 8966SOL    HW238358   1.419   0.598   8.278 -0.7492  1.9546 -0.6538
 8967SOL     OW38359   0.006   0.218  13.282 -0.3897 -0.7040 -0.4407
 8967SOL    HW138360   4.703   0.245  13.194  0.2098 -0.4242 -0.5322
 8967SOL    HW238361   4.707   0.296  13.333  1.4132 -0.5349  0.0870
 8968SOL     OW38362   2.837   4.075   9.469 -0.0568  0.1039  0.0835
 8968SOL    HW138363   2.824   4.045   9.559  2.8039 -0.5336  0.2863
 8968SOL    HW238364   2.931   4.092   9.472  0.0125  0.0632 -1.7929
 8969SOL     OW38365   3.330   1.345   3.379  0.0271 -0.1406  0.0973
 8969SOL    HW138366   3.252   1.290   3.369  0.0426 -0.4952  1.9404
 8969SOL    HW238367   3.393   1.274   3.392  1.1991  0.7535 -0.6258
 8970SOL     OW38368   2.068   0.791   9.394 -0.0980 -0.3956 -0.3635
 8970SOL    HW138369   2.080   0.760   9.484 -1.3533  1.5735  0.4903
 8970SOL    HW238370   2.028   0.715   9.351  1.9284 -2.0364  0.6682
 8971SOL     OW38371   2.872   2.084   6.084  0.2169  0.8780 -0.2382
 8971SOL    HW138372   2.879   2.006   6.139  3.3652 -0.3411 -2.3569
 8971SOL    HW238373   2.917   2.147   6.141  2.1496 -1.1785  0.5339
 8972SOL     OW38374   0.491   2.573   8.196  0.5441 -0.1796  0.1627
 8972SOL    HW138375   0.408   2.595   8.238  0.3972 -0.1029 -0.1691
 8972SOL    HW238376   0.470   2.495   8.143 -2.8784  1.4899 -0.9365
 8973SOL     OW38377   1.215   0.049   3.934 -0.0715 -0.4578  0.3002
 8973SOL    HW138378   1.235   0.040   3.841 -1.4267  2.9979 -0.3256
 8973SOL    HW238379   1.260   0.132   3.949 -1.0019  0.2336 -0.7547
 8974SOL     OW38380   3.871   3.334   8.582 -0.0704  0.5733 -0.1270
 8974SOL    HW138381   3.802   3.368   8.525  1.8947  0.7027 -2.4275
 8974SOL    HW238382   3.932   3.307   8.513  0.2065 -0.0140  0.3591
 8975SOL     OW38383   3.001   3.106   3.832  0.0301 -0.3394  0.1296
 8975SOL    HW138384   2.936   3.079   3.766 -0.0690  0.0020  0.0832
 8975SOL    HW238385   3.069   3.040   3.822  1.7930  1.5627 -0.5886
 8976SOL     OW38386   2.586   0.521   4.140 -0.3947  0.0362 -0.0821
 8976SOL    HW138387   2.630   0.595   4.100 -0.0148  0.4944  1.1998
 8976SOL    HW238388   2.544   0.549   4.222 -0.6176 -1.4613  0.3243
 8977SOL     OW38389   4.358   3.331  15.360 -0.1000 -0.2926 -0.2813
 8977SOL    HW138390   4.357   3.281  15.442 -1.9727  1.1794  0.6007
 8977SOL    HW238391   4.267   3.317  15.335  0.0699  1.5252 -1.9608
 8978SOL     OW38392   3.713   1.578  13.724  0.1848  0.6675  0.0080
 8978SOL    HW138393   3.667   1.566  13.641 -0.3260  2.3021  0.0681
 8978SOL    HW238394   3.684   1.665  13.751  0.5626  1.0084 -0.6740
 8979SOL     OW38395   1.361   1.871   6.089  0.1160 -0.5614 -0.1282
 8979SOL    HW138396   1.443   1.887   6.042  1.2472  2.2663  2.8727
 8979SOL    HW238397   1.400   1.810   6.152  0.1801 -0.2154  0.1681
 8980SOL     OW38398   0.165   4.587   6.155 -0.5470  0.2383  0.5743
 8980SOL    HW138399   0.178   4.492   6.153  2.1195  0.6823 -2.4348
 8980SOL    HW238400   0.122   4.589   6.240 -1.5028  0.5234  0.0800
 8981SOL     OW38401   3.375   2.081   1.734  0.5325  0.9757 -0.0249
 8981SOL    HW138402   3.323   2.108   1.659  0.3661  0.5249 -0.0737
 8981SOL    HW238403   3.393   2.165   1.776  1.6354  1.0110 -0.5758
 8982SOL     OW38404   4.490   0.466   4.136 -0.4911  0.4611  0.3035
 8982SOL    HW138405   4.517   0.519   4.061  4.3213 -0.6003  1.2981
 8982SOL    HW238406   4.473   0.380   4.099  0.2419  0.0178  1.0106
 8983SOL     OW38407   0.845   1.353   3.212 -1.0804  0.1278  0.1173
 8983SOL    HW138408   0.799   1.419   3.160  0.5852  2.4320  1.5491
 8983SOL    HW238409   0.908   1.315   3.152 -1.4580  1.0380 -0.8576
 8984SOL     OW38410   3.647   1.818  13.899  0.2031 -0.2173  0.1111
 8984SOL    HW138411   3.636   1.757  13.972 -2.8396 -0.2454 -0.3582
 8984SOL    HW238412   3.709   1.882  13.933 -0.8016  1.4510 -1.2210
 8985SOL     OW38413   3.702   2.361   2.254  0.2188 -0.7579 -0.0349
 8985SOL    HW138414   3.625   2.418   2.247  0.5394 -0.2370  0.7975
 8985SOL    HW238415   3.768   2.429   2.242  0.4129 -0.7926  0.8383
 8986SOL     OW38416   4.315   2.104  15.068  0.3409  0.0591 -0.3495
 8986SOL    HW138417   4.232   2.151  15.067 -0.1893 -0.9058 -1.2985
 8986SOL    HW238418   4.378   2.176  15.057 -1.5933  1.7183 -0.6692
 8987SOL     OW38419   1.631   1.575   0.056  1.0370 -0.5008  0.1218
 8987SOL    HW138420   1.585   1.658   0.046  0.6863 -1.0112 -2.4598
 8987SOL    HW238421   1.676   1.597   0.138  0.1268  1.9304 -0.0053
 8988SOL     OW38422   4.550   2.161   0.274 -0.5583  0.4461  0.9489
 8988SOL    HW138423   4.543   2.237   0.332 -1.1055  0.7476  0.4971
 8988SOL    HW238424   4.477   2.102   0.292 -1.0166  0.5425 -0.5688
 8989SOL     OW38425   0.652   2.330   5.397 -0.3707  0.0014 -0.8205
 8989SOL    HW138426   0.589   2.315   5.326 -1.4512 -0.7024  0.2861
 8989SOL    HW238427   0.603   2.301   5.474 -0.4828 -0.3764 -1.0348
 8990SOL     OW38428   1.643   3.360  13.742  0.4969 -0.1546 -0.3009
 8990SOL    HW138429   1.572   3.418  13.769  1.3139  0.2966  0.8615
 8990SOL    HW238430   1.717   3.415  13.719  0.0254  0.4086 -0.4791
 8991SOL     OW38431   1.105   2.647   5.857 -0.0822 -0.6193  0.5906
 8991SOL    HW138432   1.194   2.662   5.826 -0.8353  1.2786 -0.6116
 8991SOL    HW238433   1.096   2.711   5.928  0.6529 -0.3483  0.4326
 8992SOL     OW38434   2.185   0.691   5.031 -0.5394 -0.0238  0.3426
 8992SOL    HW138435   2.269   0.678   5.074 -0.4191 -2.3260 -0.5716
 8992SOL    HW238436   2.150   0.602   5.032 -2.3998  0.7014 -0.6173
 8993SOL     OW38437   3.575   0.943  16.666  0.3029  0.6073  0.0573
 8993SOL    HW138438   3.504   1.003  16.691 -0.1937  0.5646 -1.2678
 8993SOL    HW238439   3.524   0.894  16.602  0.3435  0.5651  0.0574
 8994SOL     OW38440   3.371   3.956   9.221 -0.2014 -0.2811  0.2097
 8994SOL    HW138441   3.332   4.035   9.258  0.2756 -0.2229  0.5931
 8994SOL    HW238442   3.430   3.925   9.290 -0.0622  0.3446  0.3735
 8995SOL     OW38443   1.242   4.643   7.298  0.6469 -0.3962  0.0375
 8995SOL    HW138444   1.203   4.720   7.339 -1.9738 -1.2199 -0.9198
 8995SOL    HW238445   1.331   4.645   7.333  0.5034 -0.5495  0.4122
 8996SOL     OW38446   0.782   0.820   4.635  0.3067 -0.0222  0.3340
 8996SOL    HW138447   0.746   0.741   4.595  2.1603 -0.4199 -0.5239
 8996SOL    HW238448   0.705   0.874   4.614  1.0140  0.7681 -0.2107
 8997SOL     OW38449   0.371   3.708   6.989  0.0498 -0.3065 -0.4796
 8997SOL    HW138450   0.453   3.690   6.944  1.8649 -0.7504  3.0553
 8997SOL    HW238451   0.398   3.785   7.039 -1.7818  0.2543 -0.3380
 8998SOL     OW38452   2.646   4.667   7.679 -0.0655 -0.0533 -0.7128
 8998SOL    HW138453   2.736   4.675   7.712  0.6234  0.2352 -2.6344
 8998SOL    HW238454   2.599   0.023   7.705 -0.8756 -0.2443 -1.6007
 8999SOL     OW38455   1.110   0.589   4.345  0.4541 -0.0494 -0.7028
 8999SOL    HW138456   1.148   0.651   4.407 -0.6067  0.3319 -0.4286
 8999SOL    HW238457   1.191   0.552   4.311  0.2306 -0.8279 -0.3822
 9000SOL     OW38458   0.598   3.786  14.501  0.0894 -0.1474  0.1722
 9000SOL    HW138459   0.641   3.805  14.417  0.5928 -1.5481  0.1234
 9000SOL    HW238460   0.604   3.864  14.557  1.2947 -0.4359  0.4479
 9001SOL     OW38461   0.113   3.712   3.514 -0.1516  0.3593 -0.1470
 9001SOL    HW138462   0.169   3.635   3.530  1.5658  1.8126  0.8123
 9001SOL    HW238463   0.030   3.665   3.518  1.3746 -2.2136  1.9903
 9002SOL     OW38464   1.571   0.328   9.597 -0.2021  0.3993 -0.2825
 9002SOL    HW138465   1.577   0.386   9.673  1.8231 -2.3465  1.6542
 9002SOL    HW238466   1.483   0.350   9.567 -0.0861  0.0574 -0.8699
 9003SOL     OW38467   1.762   0.398  12.986 -0.1852 -0.4300 -0.2137
 9003SOL    HW138468   1.822   0.399  12.912 -0.1833  2.7165 -0.1825
 9003SOL    HW238469   1.812   0.444  13.053  0.4212 -0.6818 -0.4961
 9004SOL     OW38470   0.675   1.769   2.010 -0.2908 -0.0964  0.0335
 9004SOL    HW138471   0.697   1.797   2.099 -1.5936 -0.7651  0.5646
 9004SOL    HW238472   0.741   1.816   1.959  1.1658  1.8994  3.7594
 9005SOL     OW38473   4.162   3.816   5.990 -0.4410  0.3368 -0.1160
 9005SOL    HW138474   4.155   3.892   5.932  1.3866  0.7429  0.1758
 9005SOL    HW238475   4.190   3.878   6.057  0.5421 -3.0371  2.5909
 9006SOL     OW38476   1.007   3.402  11.822  0.5940 -0.1288 -0.7947
 9006SOL    HW138477   1.052   3.480  11.854  0.8468 -0.7630  0.3796
 9006SOL    HW238478   0.935   3.439  11.770 -2.4266 -0.9241  2.8376
 9007SOL     OW38479   0.980   1.563   2.868 -0.1210  0.1973  0.3878
 9007SOL    HW138480   1.069   1.532   2.853  1.0895  3.9966 -0.2469
 9007SOL    HW238481   0.967   1.612   2.786 -1.7580  2.0706  1.7633
 9008SOL     OW38482   1.854   3.248   7.816  0.5255 -0.2687 -0.0205
 9008SOL    HW138483   1.889   3.287   7.896  0.5242  0.5896 -0.4376
 9008SOL    HW238484   1.772   3.298   7.809  1.2761  0.6239 -2.4656
 9009SOL     OW38485   3.808   0.692  11.555  0.2316  0.2364  0.1199
 9009SOL    HW138486   3.797   0.598  11.564 -1.3579  0.7115  3.3585
 9009SOL    HW238487   3.848   0.706  11.469  2.7914  0.8442  1.4227
 9010SOL     OW38488   4.176   1.043  16.066  0.3458  1.1122  0.6050
 9010SOL    HW138489   4.088   1.021  16.033  1.0154 -2.7728  1.4387
 9010SOL    HW238490   4.181   1.053  16.161 -2.3626  0.4429  0.8298
 9011SOL     OW38491   2.506   4.198  12.929  0.7884 -0.7474 -0.2458
 9011SOL    HW138492   2.509   4.293  12.917 -0.2328 -0.5886  0.7590
 9011SOL    HW238493   2.463   4.175  12.847 -1.6379  1.2673  0.4617
 9012SOL     OW38494   0.970   4.103   1.875 -0.3170 -0.5251 -0.2264
 9012SOL    HW138495   1.036   4.103   1.944  0.1995  3.0387 -0.6952
 9012SOL    HW238496   0.945   4.192   1.898 -1.0438 -0.4524 -1.2740
 9013SOL     OW38497   3.524   0.848   7.002  0.4523 -0.2966 -0.2684
 9013SOL    HW138498   3.547   0.758   7.029  0.3567 -0.1485  0.2931
 9013SOL    HW238499   3.611   0.888   7.007  0.4635 -0.4443  0.7204
 9014SOL     OW38500   0.207   2.757   8.031 -0.4408 -0.0628 -0.0524
 9014SOL    HW138501   0.280   2.744   7.971  0.4218 -0.0285  0.9838
 9014SOL    HW238502   0.238   2.838   8.073 -1.3396  0.4055 -0.3017
 9015SOL     OW38503   3.753   3.641   2.822 -0.1632  0.3044 -0.4084
 9015SOL    HW138504   3.756   3.732   2.791  1.0129  0.9124  1.4909
 9015SOL    HW238505   3.753   3.651   2.917  1.6514  0.5199 -0.4416
 9016SOL     OW38506   0.868   4.158  14.970 -0.1998 -0.9651  0.2213
 9016SOL    HW138507   0.778   4.185  14.988  0.3317  0.5354  0.6449
 9016SOL    HW238508   0.911   4.194  15.047 -1.0670  0.3710  0.0837
 9017SOL     OW38509   2.163   2.094   7.904  0.1972 -0.3803 -0.2209
 9017SOL    HW138510   2.097   2.159   7.927  1.7335 -0.0446  3.3283
 9017SOL    HW238511   2.196   2.063   7.988  0.3993  1.8408  0.5271
 9018SOL     OW38512   1.204   1.198  10.293  0.4539  0.4139 -0.3265
 9018SOL    HW138513   1.176   1.109  10.315 -0.2629  0.6718 -0.1969
 9018SOL    HW238514   1.176   1.247  10.371 -2.1584 -1.2468 -0.2119
 9019SOL     OW38515   1.766   4.053   9.907 -0.7959 -0.6100 -0.6934
 9019SOL    HW138516   1.827   3.985   9.877  1.2100  1.4072 -1.2062
 9019SOL    HW238517   1.817   4.134   9.896  0.3946 -1.5289 -1.9473
 9020SOL     OW38518   3.203   2.936  10.415  0.5183  0.1923  0.0863
 9020SOL    HW138519   3.258   2.876  10.466  0.3578 -0.2517 -0.2656
 9020SOL    HW238520   3.268   2.990  10.371  2.5986 -1.1341  1.5489
 9021SOL     OW38521   1.838   4.013   5.447 -0.1335 -0.2548  0.5266
 9021SOL    HW138522   1.864   3.958   5.373 -0.1799 -0.4187  0.6334
 9021SOL    HW238523   1.747   4.029   5.419 -0.4450 -1.1657  1.0188
 9022SOL     OW38524   0.532   1.393   5.578  0.3951  0.3301 -0.2167
 9022SOL    HW138525   0.617   1.371   5.618 -0.9708 -1.7637  1.5657
 9022SOL    HW238526   0.539   1.358   5.489  1.8789 -0.7340  0.3085
 9023SOL     OW38527   1.285   2.419  11.330  0.5004  0.1980  0.4820
 9023SOL    HW138528   1.367   2.469  11.325  0.8411 -0.3537  0.5207
 9023SOL    HW238529   1.264   2.421  11.423  0.0827  1.7614  0.3554
 9024SOL     OW38530   4.110   3.263   4.450 -0.1019 -0.1828 -0.0711
 9024SOL    HW138531   4.101   3.266   4.546 -1.9057 -1.1986 -0.2047
 9024SOL    HW238532   4.120   3.168   4.442 -0.2778 -0.1148 -1.0341
 9025SOL     OW38533   1.279   1.925   9.370 -0.5624  0.3677  0.4027
 9025SOL    HW138534   1.191   1.892   9.391 -0.4247  0.2227  0.7412
 9025SOL    HW238535   1.324   1.867   9.431  0.7773  2.1604  1.0967
 9026SOL     OW38536   0.381   2.783   4.936 -0.0195  0.6608 -0.1160
 9026SOL    HW138537   0.405   2.871   4.905 -0.0050  0.2271 -1.3592
 9026SOL    HW238538   0.468   2.747   4.955 -1.5235 -2.3841  0.9406
 9027SOL     OW38539   1.281   4.588  17.221  0.5603  0.1034 -0.1800
 9027SOL    HW138540   1.218   4.537  17.169 -1.4971  2.0986  0.3404
 9027SOL    HW238541   1.290   4.667  17.167 -1.0997  0.8897  0.6760
 9028SOL     OW38542   2.266   3.898   1.909  0.0271  0.2176 -0.3767
 9028SOL    HW138543   2.289   3.851   1.829 -1.3591 -0.6171 -0.2897
 9028SOL    HW238544   2.333   3.858   1.965  2.3022  2.4997 -1.4630
 9029SOL     OW38545   4.071   1.665  12.417 -0.1473  0.0247 -0.3009
 9029SOL    HW138546   4.147   1.666  12.359 -1.0053 -2.3184 -1.4482
 9029SOL    HW238547   4.063   1.754  12.453  2.4242  1.1448 -2.5329
 9030SOL     OW38548   2.188   0.921  13.083  0.1506  0.0241 -0.0397
 9030SOL    HW138549   2.280   0.920  13.108 -0.6166  3.2852  2.8122
 9030SOL    HW238550   2.144   0.973  13.149  0.0176 -2.2320  1.6562
 9031SOL     OW38551   0.457   2.063   7.117  0.5085 -0.1264  0.3079
 9031SOL    HW138552   0.378   2.037   7.165  0.3347  1.3810  0.8347
 9031SOL    HW238553   0.526   2.017   7.164 -0.2540 -0.0848  1.4762
 9032SOL     OW38554   0.567   3.010   3.929 -0.1241  0.2276 -0.5218
 9032SOL    HW138555   0.506   3.084   3.933  1.1467  1.2825 -0.8280
 9032SOL    HW238556   0.512   2.933   3.915  0.4488 -0.6287  1.9254
 9033SOL     OW38557   0.631   0.430   9.134  0.1159 -0.8658  0.1307
 9033SOL    HW138558   0.541   0.401   9.151 -0.7286  1.3522 -0.5585
 9033SOL    HW238559   0.691   0.357   9.154 -0.6716 -0.9133  2.3385
 9034SOL     OW38560   1.138   0.917   8.730 -0.4150 -0.4746 -0.1913
 9034SOL    HW138561   1.132   0.875   8.644  2.0307 -0.5399 -0.3346
 9034SOL    HW238562   1.225   0.887   8.757  0.7530  0.6118 -2.7078
 9035SOL     OW38563   2.086   3.063   9.467 -0.0252 -1.0064 -0.4857
 9035SOL    HW138564   2.065   3.066   9.560  0.6443  1.2362 -0.4017
 9035SOL    HW238565   2.166   3.010   9.462  0.1915 -0.7066 -0.1605
 9036SOL     OW38566   4.701   4.540   4.584  0.4195  0.0322 -0.1621
 9036SOL    HW138567   0.008   4.596   4.656 -1.8300  3.8538 -2.2049
 9036SOL    HW238568   0.064   4.520   4.547  0.3921 -2.4791  1.1359
 9037SOL     OW38569   1.721   3.316   6.235 -0.5671 -0.0169  0.3946
 9037SOL    HW138570   1.632   3.281   6.237 -0.1887 -1.0585 -1.0890
 9037SOL    HW238571   1.742   3.317   6.142 -1.7038  0.6856  0.1367
 9038SOL     OW38572   1.322   3.408   6.121  0.0171 -0.3004 -0.0399
 9038SOL    HW138573   1.353   3.483   6.171 -4.7241  1.2490  0.5902
 9038SOL    HW238574   1.326   3.443   6.032 -1.6220 -2.5106 -1.0005
 9039SOL     OW38575   1.477   1.565   6.489  0.0860 -0.5843  0.4032
 9039SOL    HW138576   1.438   1.617   6.559  2.0610 -0.2014  1.2213
 9039SOL    HW238577   1.541   1.517   6.542 -0.0712  2.7597  3.5475
 9040SOL     OW38578   4.659   3.571   1.774  0.0724  0.0791 -0.5075
 9040SOL    HW138579   0.025   3.565   1.742 -0.6121 -1.6038 -2.0405
 9040SOL    HW238580   4.664   3.557   1.869  2.1764 -2.7368 -1.0445
 9041SOL     OW38581   1.738   1.094   1.916  0.0238  0.2155  0.0996
 9041SOL    HW138582   1.688   1.073   1.995  1.4643  2.7134  1.6731
 9041SOL    HW238583   1.805   1.026   1.929 -1.9291 -1.3298  2.0016
 9042SOL     OW38584   3.102   0.798  15.667  0.4776  0.8496  0.9131
 9042SOL    HW138585   3.044   0.798  15.590  2.8682  1.8699 -0.8868
 9042SOL    HW238586   3.046   0.746  15.725 -0.7886  0.2596 -0.8174
 9043SOL     OW38587   2.561   2.517   7.459 -0.8476 -0.1813  0.4421
 9043SOL    HW138588   2.475   2.498   7.496 -2.1201  0.7684 -2.0649
 9043SOL    HW238589   2.536   2.503   7.368  1.0771  4.3368 -0.7678
 9044SOL     OW38590   1.004   0.566   6.317 -0.2556  0.1367  0.6945
 9044SOL    HW138591   0.927   0.527   6.277  0.3281  1.3758 -1.6456
 9044SOL    HW238592   1.040   0.492   6.366  0.9432 -1.3311 -2.3994
 9045SOL     OW38593   0.872   0.061   7.015  0.2955  0.2502 -0.0740
 9045SOL    HW138594   0.824   0.020   7.087  0.2652 -0.2640 -0.3922
 9045SOL    HW238595   0.957   0.018   7.017  0.5300  0.7077 -0.2880
 9046SOL     OW38596   0.485   3.106  10.065 -0.2875 -0.5125 -0.2657
 9046SOL    HW138597   0.547   3.159  10.114 -0.1907  1.8665 -2.9418
 9046SOL    HW238598   0.553   3.054  10.022 -0.3237 -2.0802  1.5633
 9047SOL     OW38599   4.651   1.036  10.125 -0.7354 -1.3238 -0.2337
 9047SOL    HW138600   4.594   0.959  10.138 -0.0277 -1.9608 -0.9153
 9047SOL    HW238601   4.680   1.039  10.216 -0.2337 -1.2130 -0.4024
 9048SOL     OW38602   3.541   4.721   7.404  0.6754  0.2192 -0.3130
 9048SOL    HW138603   3.621   0.052   7.404  0.0684  1.1141 -0.5654
 9048SOL    HW238604   3.570   4.636   7.370 -0.2517 -0.5414  0.8248
 9049SOL     OW38605   0.000   0.654  12.015  0.2779 -0.8198 -0.5746
 9049SOL    HW138606   0.009   0.742  12.051 -0.0830 -0.9656 -0.1343
 9049SOL    HW238607   4.630   0.651  11.992 -0.0772 -0.5456  0.8476
 9050SOL     OW38608   1.712   0.550   4.571  0.6100  0.1718 -0.2399
 9050SOL    HW138609   1.769   0.521   4.642  1.1904 -0.4263 -0.9439
 9050SOL    HW238610   1.650   0.610   4.612  0.8211  0.5467 -0.4724
 9051SOL     OW38611   3.628   2.710  13.522 -0.5521 -0.4318  0.1841
 9051SOL    HW138612   3.650   2.638  13.582  0.2775  1.9881  2.7774
 9051SOL    HW238613   3.668   2.669  13.445 -0.0817 -2.1454  1.3346
 9052SOL     OW38614   2.998   0.392   2.571 -0.4816 -0.2907  0.2438
 9052SOL    HW138615   3.093   0.382   2.581 -0.9280 -1.0870  3.8743
 9052SOL    HW238616   2.999   0.468   2.512  1.6010 -0.5077  0.0145
 9053SOL     OW38617   4.273   0.087   6.708 -0.4792  0.6124 -0.6228
 9053SOL    HW138618   4.344   0.085   6.771 -0.1627  0.0034 -1.0010
 9053SOL    HW238619   4.223   0.019   6.752  0.0572 -0.3998 -1.5896
 9054SOL     OW38620   2.907   1.351  10.769  0.0330  0.5245 -0.5823
 9054SOL    HW138621   2.823   1.389  10.743 -0.7042 -0.4739  0.3436
 9054SOL    HW238622   2.889   1.301  10.849 -0.3515 -0.8382 -1.5123
 9055SOL     OW38623   4.323   3.625  16.795 -0.3044  0.3099  0.8232
 9055SOL    HW138624   4.287   3.679  16.865  0.6235  2.7763 -0.5872
 9055SOL    HW238625   4.342   3.542  16.839  0.6067  0.5520  0.8705
 9056SOL     OW38626   2.640   3.782   7.233  0.2989 -0.6576 -0.4696
 9056SOL    HW138627   2.707   3.851   7.237 -1.9634  1.6509 -2.3863
 9056SOL    HW238628   2.576   3.830   7.180  0.8075 -1.0838 -1.4573
 9057SOL     OW38629   1.949   0.628   5.531  0.1332  0.3606 -0.4195
 9057SOL    HW138630   1.992   0.555   5.486  0.9530 -0.7986  2.2035
 9057SOL    HW238631   1.994   0.633   5.615 -0.4817 -0.2037 -0.0552
 9058SOL     OW38632   3.219   1.563   3.631  0.0109 -0.8773 -0.2304
 9058SOL    HW138633   3.294   1.503   3.631  1.1765  0.5923  0.2969
 9058SOL    HW238634   3.150   1.503   3.602 -1.2911  0.3505  0.3754
 9059SOL     OW38635   0.854   3.829   4.779 -0.1908  0.5851 -0.1464
 9059SOL    HW138636   0.770   3.784   4.772  0.2690 -0.3762  0.5776
 9059SOL    HW238637   0.830   3.921   4.789  3.0721  1.3508  0.9221
 9060SOL     OW38638   2.382   3.664   2.145  0.3719 -0.5196  0.9488
 9060SOL    HW138639   2.289   3.653   2.123  0.8470  0.7009 -1.7287
 9060SOL    HW238640   2.423   3.633   2.063  1.7231 -0.4272  1.5866
 9061SOL     OW38641   2.515   0.840   2.789 -0.7792  0.3654 -0.1656
 9061SOL    HW138642   2.596   0.795   2.766 -0.6269  0.1083  0.8678
 9061SOL    HW238643   2.500   0.806   2.877  2.8738  1.5982  0.9657
 9062SOL     OW38644   3.333   4.042   8.251  0.3939 -0.0053  0.5085
 9062SOL    HW138645   3.369   4.115   8.302 -0.4760  1.9736 -1.7250
 9062SOL    HW238646   3.401   4.029   8.185  0.0944  1.9280 -0.1810
 9063SOL     OW38647   3.532   0.652   0.388 -0.5066  0.1888 -0.4757
 9063SOL    HW138648   3.496   0.709   0.320 -1.7073 -0.2857 -0.2255
 9063SOL    HW238649   3.494   0.695   0.464  1.5535  3.0964 -1.0823
 9064SOL     OW38650   0.397   2.093   1.763 -0.7805 -0.1662  0.0383
 9064SOL    HW138651   0.408   2.018   1.821 -0.9968  1.0121  1.6104
 9064SOL    HW238652   0.489   2.118   1.754  0.3146 -3.5130  1.7987
 9065SOL     OW38653   3.785   1.528   2.660  0.3399  0.1063 -0.0444
 9065SOL    HW138654   3.803   1.524   2.566 -2.5235 -3.3304 -0.4383
 9065SOL    HW238655   3.783   1.623   2.668 -1.4954  0.0036  0.7094
 9066SOL     OW38656   2.387   4.293  13.258  0.0946 -0.6510 -0.1907
 9066SOL    HW138657   2.390   4.346  13.178 -1.3348  0.1805  0.2956
 9066SOL    HW238658   2.476   4.280  13.289 -0.5589 -0.9272  1.5843
 9067SOL     OW38659   0.513   4.071  14.093  0.2897 -0.0802 -0.3598
 9067SOL    HW138660   0.533   3.995  14.038  1.9299  0.7468 -0.9289
 9067SOL    HW238661   0.420   4.059  14.110 -0.0143  0.7778 -1.3581
 9068SOL     OW38662   0.839   2.291   9.294  0.7443 -0.6226  0.5837
 9068SOL    HW138663   0.904   2.232   9.332  0.4660 -0.3226  1.5355
 9068SOL    HW238664   0.774   2.290   9.364 -0.2604 -1.3302 -0.3692
 9069SOL     OW38665   3.844   3.057  16.601 -0.0878  0.2669 -0.5187
 9069SOL    HW138666   3.765   3.071  16.652 -0.7505  0.4660 -1.5964
 9069SOL    HW238667   3.819   2.990  16.537 -1.3424  1.2563 -1.0604
 9070SOL     OW38668   1.004   3.744   7.257  0.7799 -0.2383  0.0774
 9070SOL    HW138669   1.054   3.824   7.245 -1.1518  1.2425  1.9058
 9070SOL    HW238670   0.982   3.741   7.350  0.5373 -2.4017 -0.0427
 9071SOL     OW38671   3.641   2.759   3.977  0.2707 -0.1502 -0.4032
 9071SOL    HW138672   3.712   2.771   3.914  0.1315 -1.1160 -0.7409
 9071SOL    HW238673   3.685   2.704   4.042  0.4956  0.6845  0.1608
 9072SOL     OW38674   1.815   2.628   4.864 -0.2714 -0.4757  0.4317
 9072SOL    HW138675   1.827   2.571   4.788 -1.4421  0.4856 -0.4852
 9072SOL    HW238676   1.897   2.628   4.912  0.9055  2.6477 -1.5464
 9073SOL     OW38677   0.659   2.437   8.887 -0.1180  0.9244  0.7253
 9073SOL    HW138678   0.571   2.475   8.882 -0.4506  0.0842  0.0067
 9073SOL    HW238679   0.642   2.352   8.844 -1.1177  1.8732 -0.7863
 9074SOL     OW38680   4.543   0.719   8.433  0.6668  0.2176 -0.4379
 9074SOL    HW138681   4.627   0.674   8.440  0.4443 -0.3061 -1.1496
 9074SOL    HW238682   4.571   0.796   8.385 -1.6152 -0.8969 -3.5641
 9075SOL     OW38683   1.267   0.911   7.790 -0.3639 -0.5366  0.0580
 9075SOL    HW138684   1.357   0.941   7.802  0.0570 -1.7479 -0.0780
 9075SOL    HW238685   1.238   0.880   7.876 -0.3165  1.3824  0.7519
 9076SOL     OW38686   3.591   1.180   5.105 -0.1749 -0.2912 -0.1017
 9076SOL    HW138687   3.530   1.180   5.179 -0.1511  0.1458 -0.0832
 9076SOL    HW238688   3.533   1.168   5.030  0.2790  0.5193 -0.5899
 9077SOL     OW38689   0.046   2.588   3.017  1.1144 -0.2563 -0.4625
 9077SOL    HW138690   0.085   2.583   3.105 -2.3541  0.0991  1.0901
 9077SOL    HW238691   0.106   2.534   2.967  1.5410 -1.2105  1.0628
 9078SOL     OW38692   4.706   0.677  12.355  0.6484 -0.3492 -0.3306
 9078SOL    HW138693   0.047   0.707  12.291  0.7788 -3.3326 -1.5804
 9078SOL    HW238694   0.005   0.733  12.429  1.2362 -0.3753 -0.4876
 9079SOL     OW38695   4.011   2.008  10.352 -0.1650 -0.3982 -0.1812
 9079SOL    HW138696   4.040   2.031  10.264  1.2996 -2.9947 -0.3809
 9079SOL    HW238697   3.945   2.075  10.368  0.1912 -0.6354  2.4161
 9080SOL     OW38698   1.254   2.510   2.817 -0.3276 -1.0441  0.7559
 9080SOL    HW138699   1.343   2.518   2.784  0.0207 -2.9689  1.2314
 9080SOL    HW238700   1.206   2.532   2.737  1.2327 -0.1910  0.0626
 9081SOL     OW38701   1.373   4.347   1.897 -0.5968 -0.9432 -0.2748
 9081SOL    HW138702   1.316   4.403   1.949  0.3830  0.4699 -0.7323
 9081SOL    HW238703   1.339   4.366   1.809 -2.5950 -2.5070  0.1580
 9082SOL     OW38704   3.099   4.653   1.335  0.1858  0.4570 -0.1457
 9082SOL    HW138705   3.052   0.003   1.376  1.6642  1.8529 -0.9523
 9082SOL    HW238706   3.156   4.621   1.405 -0.8564 -0.7968  0.1225
 9083SOL     OW38707   0.307   1.219   6.694 -0.7832 -0.3343 -0.1983
 9083SOL    HW138708   0.252   1.145   6.721 -2.8505  0.4762 -2.1308
 9083SOL    HW238709   0.237   1.285   6.690  1.0369  1.5810 -0.4672
 9084SOL     OW38710   0.247   2.131   3.906  0.2438 -0.2419 -0.0486
 9084SOL    HW138711   0.237   2.098   3.995 -1.5435 -2.0070 -0.8888
 9084SOL    HW238712   0.328   2.087   3.878  0.8732  1.4368 -0.8797
 9085SOL     OW38713   2.833   4.296  11.608  0.6021 -0.6354 -0.3429
 9085SOL    HW138714   2.887   4.363  11.650 -1.1114 -1.0323  2.5605
 9085SOL    HW238715   2.902   4.250  11.562  0.3960 -0.4485 -0.8352
 9086SOL     OW38716   0.050   4.695  13.151 -0.2848 -0.5610  0.5398
 9086SOL    HW138717   4.716   4.644  13.208 -2.4003  0.1721 -0.9081
 9086SOL    HW238718   0.078   0.045  13.205  2.0489 -1.1775  0.2056
 9087SOL     OW38719   1.192   1.638   7.085 -0.3026  0.2598  0.5019
 9087SOL    HW138720   1.099   1.624   7.064  0.5705 -2.4631 -1.6256
 9087SOL    HW238721   1.202   1.587   7.165  2.1284 -2.0659 -1.2851
 9088SOL     OW38722   4.378   3.771   8.731 -0.0164 -0.1037  0.3360
 9088SOL    HW138723   4.291   3.732   8.736 -1.5495  3.1755 -1.2600
 9088SOL    HW238724   4.362   3.854   8.775 -0.0044 -1.6005  3.2174
 9089SOL     OW38725   2.300   1.855   0.670 -0.7583  0.1399 -0.4132
 9089SOL    HW138726   2.226   1.810   0.630 -1.8351  0.4866  1.2261
 9089SOL    HW238727   2.284   1.944   0.638 -1.7746  1.6482  4.3453
 9090SOL     OW38728   0.934   2.470   6.229 -0.7798 -0.2520  0.5310
 9090SOL    HW138729   0.901   2.383   6.250 -1.1581 -0.1060  0.5376
 9090SOL    HW238730   0.964   2.455   6.139 -0.6221 -1.0403  0.7136
 9091SOL     OW38731   2.165   2.934  10.905  0.1349  0.3331 -0.1992
 9091SOL    HW138732   2.108   2.955  10.979  0.9242 -1.1143  0.8291
 9091SOL    HW238733   2.176   2.840  10.924  0.7885  0.2202 -1.1673
 9092SOL     OW38734   4.517   0.569   7.892  0.0104 -0.3138 -0.4934
 9092SOL    HW138735   4.439   0.523   7.922 -1.1897  0.5312 -2.3187
 9092SOL    HW238736   4.566   0.502   7.845  1.4988  1.1715 -1.0717
 9093SOL     OW38737   2.473   2.925   4.719 -0.2221 -0.6723  0.1886
 9093SOL    HW138738   2.395   2.976   4.742  0.5134  0.4480  0.2315
 9093SOL    HW238739   2.544   2.973   4.762 -0.7460 -0.3412  0.6867
 9094SOL     OW38740   0.815   3.808  15.535  0.4265 -0.4050 -0.4035
 9094SOL    HW138741   0.724   3.820  15.561  0.1273  0.2210 -1.7532
 9094SOL    HW238742   0.856   3.850  15.611 -1.4993 -1.4972  1.2483
 9095SOL     OW38743   1.625   4.494  11.434 -0.3629  0.1269  0.0445
 9095SOL    HW138744   1.619   4.489  11.529  0.7342 -1.3008  0.0378
 9095SOL    HW238745   1.719   4.479  11.430 -0.6247 -1.6336  0.1404
 9096SOL     OW38746   0.589   4.590   4.540 -0.0730  0.6575 -0.2460
 9096SOL    HW138747   0.535   4.546   4.605  0.3177  1.2450  0.4661
 9096SOL    HW238748   0.519   4.632   4.490  0.4938  1.3749 -0.4426
 9097SOL     OW38749   1.683   4.328   2.317  0.1156 -0.0994 -0.4999
 9097SOL    HW138750   1.711   4.327   2.408 -3.1310 -3.1535  0.4677
 9097SOL    HW238751   1.590   4.349   2.326  0.9394  3.7758 -1.2913
 9098SOL     OW38752   2.761   2.209   7.983 -0.2304 -0.4699 -0.2293
 9098SOL    HW138753   2.667   2.214   7.966  0.0303 -0.4401 -1.6630
 9098SOL    HW238754   2.808   2.218   7.900 -0.4590  1.9700 -0.1032
 9099SOL     OW38755   1.081   0.448   6.682  0.5377  0.2132 -0.1956
 9099SOL    HW138756   1.094   0.362   6.642  3.0996  0.2488  0.5370
 9099SOL    HW238757   0.986   0.446   6.683  0.5420  1.6341  3.7786
 9100SOL     OW38758   1.114   4.091   9.632 -0.7486  0.6796 -0.0894
 9100SOL    HW138759   1.191   4.056   9.676  0.2624  0.7794 -1.7788
 9100SOL    HW238760   1.035   4.046   9.662  0.2739  0.0790  1.7155
 9101SOL     OW38761   0.175   2.784  10.820 -0.1665  0.2986 -0.0490
 9101SOL    HW138762   0.223   2.828  10.750  0.0816  1.0476  0.5880
 9101SOL    HW238763   0.104   2.743  10.770 -0.6558  0.1045  0.7978
 9102SOL     OW38764   0.814   3.710   3.613 -0.2109  0.1361 -0.2767
 9102SOL    HW138765   0.899   3.725   3.656 -1.1378  1.8388  0.9616
 9102SOL    HW238766   0.829   3.619   3.587 -2.1520 -0.2562  0.0259
 9103SOL     OW38767   4.688   2.867  13.082  0.1421  0.0507 -0.3043
 9103SOL    HW138768   4.723   2.858  13.171  2.6407 -1.0111 -1.3860
 9103SOL    HW238769   0.050   2.859  13.038  0.9397 -0.0402  1.2236
 9104SOL     OW38770   0.284   3.754  14.778 -0.2805  0.1066  0.1648
 9104SOL    HW138771   0.195   3.720  14.779  0.2515 -1.3174 -0.3369
 9104SOL    HW238772   0.312   3.723  14.691 -3.7750 -1.4293 -0.3971
 9105SOL     OW38773   1.546   0.694  14.869 -0.0408 -0.1830 -0.2276
 9105SOL    HW138774   1.452   0.696  14.852  0.0575  2.9356 -0.3228
 9105SOL    HW238775   1.558   0.740  14.951 -1.4556 -0.3052  0.0414
 9106SOL     OW38776   0.356   1.559   5.312 -0.0312 -0.2783 -0.3407
 9106SOL    HW138777   0.387   1.576   5.400 -1.9559  2.0235 -0.0901
 9106SOL    HW238778   0.263   1.556   5.337  0.0910 -1.7556 -0.0848
 9107SOL     OW38779   2.469   2.780   4.976 -0.1915  0.7362 -0.2496
 9107SOL    HW138780   2.382   2.740   4.967  0.8746 -1.5951 -0.1640
 9107SOL    HW238781   2.493   2.801   4.886  1.8489  0.4688  0.2301
 9108SOL     OW38782   3.150   1.443  17.341  0.3563 -0.3488  0.0126
 9108SOL    HW138783   3.093   1.462  17.267 -0.9498 -1.2762  0.7784
 9108SOL    HW238784   3.094   1.470  17.413 -0.3990 -1.8083 -0.0164
 9109SOL     OW38785   3.851   1.640  17.640 -0.9134  0.4347  0.2346
 9109SOL    HW138786   3.782   1.598  17.691 -0.1297 -2.4746 -1.0647
 9109SOL    HW238787   3.873   1.708   0.009  1.2886 -1.7326  1.8170
 9110SOL     OW38788   1.218   0.800   3.812  0.0809  0.0673 -0.1264
 9110SOL    HW138789   1.308   0.771   3.827  1.1718  3.4251 -0.3816
 9110SOL    HW238790   1.188   0.779   3.901 -0.5686 -0.3596 -0.4448
 9111SOL     OW38791   1.467   0.362  12.625  0.5128  0.1972 -0.3965
 9111SOL    HW138792   1.383   0.320  12.639  0.7113  0.0826  0.4873
 9111SOL    HW238793   1.434   0.447  12.595 -0.2941  0.4347  1.1858
 9112SOL     OW38794   3.347   1.638   7.487  0.3995  0.1295 -0.0579
 9112SOL    HW138795   3.340   1.706   7.420 -0.2748 -0.6686 -0.8123
 9112SOL    HW238796   3.263   1.650   7.531  0.5123  0.7531 -0.0108
 9113SOL     OW38797   1.574   0.587   1.710 -0.3547  0.2908  0.2628
 9113SOL    HW138798   1.652   0.641   1.700  0.8873 -1.4300  0.6574
 9113SOL    HW238799   1.620   0.509   1.739 -0.2882 -0.1683 -1.0759
 9114SOL     OW38800   3.836   0.312  17.600 -0.1369  0.3858  0.1646
 9114SOL    HW138801   3.805   0.402  17.595 -1.8325 -0.1518  0.8859
 9114SOL    HW238802   3.870   0.303  17.511  1.3533 -1.2130  0.8944
 9115SOL     OW38803   3.495   3.955  12.831 -0.2689 -0.3236  0.4702
 9115SOL    HW138804   3.509   3.973  12.738 -1.7587 -0.5174  0.2056
 9115SOL    HW238805   3.564   3.889  12.842  0.4478  0.1203 -1.4674
 9116SOL     OW38806   3.871   1.608   7.151  0.4163  0.1172  0.3725
 9116SOL    HW138807   3.875   1.698   7.185  0.3501 -0.4562  1.8654
 9116SOL    HW238808   3.779   1.592   7.129  0.6724 -0.0893 -0.5572
 9117SOL     OW38809   2.711   0.510  10.691  0.0639  0.5151 -0.1006
 9117SOL    HW138810   2.778   0.462  10.738 -1.6345 -1.9062 -0.1601
 9117SOL    HW238811   2.717   0.587  10.748  2.4576  0.3485 -0.1581
 9118SOL     OW38812   3.858   2.491   7.289  0.2971  0.2184  0.1924
 9118SOL    HW138813   3.788   2.544   7.251  0.7441 -0.4663 -1.5784
 9118SOL    HW238814   3.826   2.476   7.378  0.7655 -0.6218  0.2181
 9119SOL     OW38815   4.283   0.945   6.934 -0.2798  0.0892  0.0983
 9119SOL    HW138816   4.345   0.899   6.991  1.1039  0.6983 -0.8922
 9119SOL    HW238817   4.201   0.954   6.981  0.9838  0.5837  2.2062
 9120SOL     OW38818   3.542   3.430  14.732 -0.0215  0.1630 -0.0602
 9120SOL    HW138819   3.546   3.525  14.722  0.9101  0.1843  0.5685
 9120SOL    HW238820   3.453   3.406  14.706 -0.4415  2.2166 -0.4773
 9121SOL     OW38821   4.698   3.502   9.684 -0.3434 -0.2457  0.3018
 9121SOL    HW138822   0.032   3.484   9.758  0.9828  0.2028 -0.6283
 9121SOL    HW238823   0.018   3.563   9.625 -0.8974 -1.0187 -0.9015
 9122SOL     OW38824   1.129   4.265   9.407 -0.3688  0.3877  0.3250
 9122SOL    HW138825   1.177   4.212   9.344 -1.5973 -0.5547  0.1978
 9122SOL    HW238826   1.130   4.206   9.483  0.3785  0.8421  0.6632
 9123SOL     OW38827   3.422   1.982   2.415 -0.2437  0.3239 -0.2405
 9123SOL    HW138828   3.363   2.023   2.351 -0.8573  1.8456  1.2852
 9123SOL    HW238829   3.509   2.011   2.388 -1.4110  2.9919 -1.1802
 9124SOL     OW38830   3.284   3.717  16.147  0.2765 -0.0811  0.7992
 9124SOL    HW138831   3.268   3.811  16.137  0.2303 -0.0800  0.8856
 9124SOL    HW238832   3.378   3.722  16.129 -0.3597 -2.0734 -3.0230
 9125SOL     OW38833   1.797   4.556   6.303  0.0496 -0.2802 -0.3504
 9125SOL    HW138834   1.797   4.609   6.223 -0.3818 -0.6079 -0.5640
 9125SOL    HW238835   1.755   4.474   6.277 -0.5772 -0.2434  0.5263
 9126SOL     OW38836   0.430   2.424   3.728 -0.1848 -0.0007 -0.0913
 9126SOL    HW138837   0.503   2.393   3.675  1.4706 -0.0471  2.2390
 9126SOL    HW238838   0.376   2.488   3.681 -1.3226 -1.0504 -0.2086
 9127SOL     OW38839   4.642   3.722   8.789 -0.2344  0.1505  0.2889
 9127SOL    HW138840   4.615   3.678   8.869 -0.6647  3.0393  1.7333
 9127SOL    HW238841   4.558   3.748   8.753 -0.7404  1.2870  2.3147
 9128SOL     OW38842   4.053   3.309   7.681 -0.2472 -0.7144 -0.1250
 9128SOL    HW138843   4.044   3.404   7.674 -0.3260 -0.6822  0.3839
 9128SOL    HW238844   4.122   3.312   7.748 -1.3140 -0.0770  0.9418
 9129SOL     OW38845   1.175   4.230   6.586  0.0819 -0.3710 -1.0247
 9129SOL    HW138846   1.169   4.322   6.612  0.6050 -0.8994  0.9762
 9129SOL    HW238847   1.188   4.243   6.492  2.1522  0.1972 -0.6584
 9130SOL     OW38848   0.518   1.525  11.494 -0.3200 -0.3995 -0.5977
 9130SOL    HW138849   0.553   1.611  11.470 -1.3123 -0.4299 -2.1768
 9130SOL    HW238850   0.520   1.476  11.412  0.5140 -0.0985 -0.7639
 9131SOL     OW38851   0.220   0.125   6.101 -0.0145  0.3622 -0.2259
 9131SOL    HW138852   0.237   0.146   6.009  1.8834 -1.0239 -0.2127
 9131SOL    HW238853   0.216   0.029   6.098 -0.1920  0.3451  0.6765
 9132SOL     OW38854   0.505   1.104   4.058  0.9910 -0.9885 -0.1984
 9132SOL    HW138855   0.502   1.199   4.048  1.6196 -0.8297  1.0811
 9132SOL    HW238856   0.598   1.099   4.033  1.0681 -2.8374  0.4522
 9133SOL     OW38857   1.968   4.189   1.568 -0.1657 -0.0010 -0.0587
 9133SOL    HW138858   1.885   4.147   1.548 -0.5901  0.0730  1.4777
 9133SOL    HW238859   1.942   4.281   1.565 -0.0326 -0.0036 -1.0942
 9134SOL     OW38860   3.166   2.304   8.077 -0.0126  0.5243 -0.5118
 9134SOL    HW138861   3.081   2.296   8.119 -1.0178 -0.0654 -2.6502
 9134SOL    HW238862   3.226   2.258   8.136 -1.9106 -0.0733  0.9386
 9135SOL     OW38863   3.957   2.965   7.274  0.1349 -0.8450  0.0586
 9135SOL    HW138864   3.878   3.015   7.253  0.4746 -0.6258 -0.6985
 9135SOL    HW238865   4.031   3.018   7.246 -0.0130 -0.1679  0.9746
 9136SOL     OW38866   1.325   0.818   0.574  0.1965 -0.2932 -0.4081
 9136SOL    HW138867   1.408   0.860   0.551  1.5605 -2.2513  0.8746
 9136SOL    HW238868   1.273   0.853   0.502  0.6610  0.0490 -0.5756
 9137SOL     OW38869   0.126   1.871   5.045  0.4619 -0.5061  0.5172
 9137SOL    HW138870   0.220   1.875   5.026  0.8057 -1.1502  2.0775
 9137SOL    HW238871   0.092   1.808   4.982 -1.7473  1.6576 -0.4389
 9138SOL     OW38872   0.887   1.837   6.505 -0.3375 -0.0069 -0.5228
 9138SOL    HW138873   0.877   1.753   6.549 -1.1424 -1.0609 -2.7471
 9138SOL    HW238874   0.935   1.895   6.565 -0.1966 -1.3717  0.6837
 9139SOL     OW38875   2.555   2.487   1.764  0.0780  0.5312  0.7694
 9139SOL    HW138876   2.641   2.513   1.795  0.6260  0.1725 -0.4609
 9139SOL    HW238877   2.576   2.484   1.671 -0.1914 -1.9588  0.7771
 9140SOL     OW38878   2.920   3.701   3.830 -0.7867 -0.2758  0.1668
 9140SOL    HW138879   2.849   3.666   3.776 -0.2144 -0.6045 -0.3710
 9140SOL    HW238880   2.932   3.633   3.897 -0.2103  1.0242  1.3778
 9141SOL     OW38881   0.026   0.313   3.812 -0.9334 -0.7294  0.3847
 9141SOL    HW138882   0.036   0.329   3.906 -0.8245  0.7396  0.1280
 9141SOL    HW238883   0.026   0.218   3.815  3.1153 -0.7433 -0.6980
 9142SOL     OW38884   2.992   0.423  14.739 -0.0295 -0.4880 -0.1340
 9142SOL    HW138885   2.905   0.431  14.778 -0.4949  1.7200 -1.6228
 9142SOL    HW238886   2.974   0.482  14.666  0.8611 -0.7221 -0.5478
 9143SOL     OW38887   1.760   1.303  16.629  0.0479 -0.7865  1.0216
 9143SOL    HW138888   1.855   1.298  16.641 -0.0808  0.4138  2.5231
 9143SOL    HW238889   1.731   1.239  16.694 -0.9340 -0.0784  1.2740
 9144SOL     OW38890   4.080   3.988   8.922  0.1325 -0.0203 -0.1874
 9144SOL    HW138891   4.040   4.075   8.924 -0.6853 -0.4235  1.1514
 9144SOL    HW238892   4.111   3.984   9.013  0.6064  2.6167 -0.2324
 9145SOL     OW38893   4.482   2.503   6.669  0.0301  0.5863 -0.2660
 9145SOL    HW138894   4.429   2.471   6.741 -2.2714  2.8600 -0.9693
 9145SOL    HW238895   4.569   2.524   6.704 -0.2458 -0.1266  0.8196
 9146SOL     OW38896   2.647   2.113   1.700 -0.1695  0.1702 -0.1288
 9146SOL    HW138897   2.569   2.081   1.746 -0.9296 -0.3958 -1.8183
 9146SOL    HW238898   2.667   2.182   1.763 -0.0831 -0.5963  0.6895
 9147SOL     OW38899   0.960   0.682   9.039  0.7906 -0.2360  0.1221
 9147SOL    HW138900   0.929   0.721   8.958  1.4166  3.0973  1.4944
 9147SOL    HW238901   0.884   0.695   9.096 -0.6145 -1.9262 -1.3678
 9148SOL     OW38902   4.450   0.346  13.299 -0.3739 -0.6206  0.5000
 9148SOL    HW138903   4.441   0.424  13.353  4.1990  0.9521 -0.9583
 9148SOL    HW238904   4.405   0.385  13.224  1.1775  1.2109  0.5284
 9149SOL     OW38905   2.823   1.099  14.715 -0.0928  0.2704 -0.7226
 9149SOL    HW138906   2.821   1.176  14.658  1.3356 -0.0010 -1.1328
 9149SOL    HW238907   2.805   1.029  14.653 -0.3112 -1.0336  0.8185
 9150SOL     OW38908   1.829   1.525   1.291  0.1475  0.0529 -0.0196
 9150SOL    HW138909   1.764   1.590   1.315  0.1503 -0.0337  0.2205
 9150SOL    HW238910   1.800   1.501   1.203 -2.1904 -1.5155  1.1858
 9151SOL     OW38911   1.394   1.032   3.464  0.0619  0.0973  0.3908
 9151SOL    HW138912   1.304   1.057   3.443  0.4146  1.5632  0.6215
 9151SOL    HW238913   1.427   1.046   3.375  1.4705 -1.9419  0.5736
 9152SOL     OW38914   0.226   1.336  11.778  0.3583 -0.2545  0.6703
 9152SOL    HW138915   0.298   1.396  11.797  1.5401 -1.3998 -0.2067
 9152SOL    HW238916   0.209   1.350  11.685 -0.1451  1.0116  0.9561
 9153SOL     OW38917   3.186   2.371   9.073 -0.3702 -0.1069  0.3942
 9153SOL    HW138918   3.199   2.450   9.020  0.5594  0.0463  0.8521
 9153SOL    HW238919   3.274   2.340   9.095 -0.6129 -1.1373 -0.1014
 9154SOL     OW38920   3.481   1.637   1.626 -0.3253 -0.2301 -0.4413
 9154SOL    HW138921   3.386   1.632   1.635 -0.4063 -0.3794 -1.3338
 9154SOL    HW238922   3.511   1.606   1.711  2.3796  0.4188 -1.1380
 9155SOL     OW38923   1.708   2.965   4.318  0.0084  0.1013  0.3684
 9155SOL    HW138924   1.658   2.957   4.236  1.1421  0.0043 -0.3121
 9155SOL    HW238925   1.736   2.874   4.324 -0.2063 -0.0923 -1.4594
 9156SOL     OW38926   1.779   3.030   8.840  0.2140  0.2737  0.1459
 9156SOL    HW138927   1.715   2.964   8.814  2.3742 -1.8284  0.1289
 9156SOL    HW238928   1.853   3.036   8.780 -0.1514 -0.4431 -0.3702
 9157SOL     OW38929   2.806   2.581   8.641 -0.2980  0.1735  0.3232
 9157SOL    HW138930   2.789   2.535   8.723 -1.1202 -2.3527 -1.2457
 9157SOL    HW238931   2.731   2.639   8.646  0.8532  1.5479  1.4795
 9158SOL     OW38932   0.234   2.517   1.559 -0.1284  0.1237 -0.1087
 9158SOL    HW138933   0.322   2.548   1.539 -0.6864  2.3816  0.8588
 9158SOL    HW238934   0.181   2.594   1.539 -0.7247  0.0666  1.1854
 9159SOL     OW38935   4.280   3.017   9.106  0.4476  0.0541  0.2646
 9159SOL    HW138936   4.266   3.109   9.128  2.2844  0.2015  0.7889
 9159SOL    HW238937   4.360   2.998   9.154 -0.2198  1.9823  2.1724
 9160SOL     OW38938   1.330   1.009   7.313  0.5096 -0.1342 -0.3083
 9160SOL    HW138939   1.271   1.071   7.270  1.6765  2.6745  2.0851
 9160SOL    HW238940   1.286   0.926   7.297 -1.1168  1.2171 -2.7955
 9161SOL     OW38941   1.700   1.271   6.956 -0.1001 -0.8551 -0.7388
 9161SOL    HW138942   1.757   1.312   6.890 -0.2817 -0.2932 -0.5421
 9161SOL    HW238943   1.614   1.283   6.916  0.6068  2.7748 -1.2141
 9162SOL     OW38944   3.354   3.798  13.001  0.6961 -0.1521 -0.7064
 9162SOL    HW138945   3.367   3.872  12.941  0.4951  0.1422 -0.3824
 9162SOL    HW238946   3.355   3.846  13.083  0.7772 -1.7841  0.2474
 9163SOL     OW38947   2.990   2.946   7.823 -0.1610 -0.1333  0.1564
 9163SOL    HW138948   3.059   2.897   7.868  1.4251  1.1284 -0.8819
 9163SOL    HW238949   2.986   3.019   7.885 -0.0564  0.2756 -0.3208
 9164SOL     OW38950   4.572   4.568   5.512 -0.3930 -0.1910 -0.2089
 9164SOL    HW138951   4.490   4.529   5.483 -0.2397  0.5041 -1.6067
 9164SOL    HW238952   4.552   4.661   5.502  1.6852  0.3262  0.5001
 9165SOL     OW38953   0.842   3.238  15.522 -0.5293 -0.5746 -0.2394
 9165SOL    HW138954   0.847   3.143  15.510 -0.4597 -0.4623 -1.0681
 9165SOL    HW238955   0.863   3.255  15.430  0.1195 -0.3394 -0.0482
 9166SOL     OW38956   0.001   2.940  10.357 -0.3970  0.7855  0.1160
 9166SOL    HW138957   0.085   2.956  10.402 -0.7585  1.6460  0.4816
 9166SOL    HW238958   0.035   2.913  10.272  1.2160  3.0454  0.0337
 9167SOL     OW38959   4.523   0.407   7.090 -0.0351 -0.0941  0.1374
 9167SOL    HW138960   4.583   0.351   7.139  0.1543 -0.3766 -0.4048
 9167SOL    HW238961   4.440   0.394   7.135 -0.5014  1.7214 -0.2256
 9168SOL     OW38962   0.351   3.368   0.532 -1.2113 -0.4765  0.7177
 9168SOL    HW138963   0.377   3.325   0.613  0.8983 -1.5475 -0.5379
 9168SOL    HW238964   0.351   3.297   0.467 -0.8140  1.1247 -1.0521
 9169SOL     OW38965   2.017   2.675   4.065 -0.3840  0.5837  0.3341
 9169SOL    HW138966   1.993   2.590   4.102  2.1674  0.2823  1.3143
 9169SOL    HW238967   1.952   2.686   3.996 -0.9991  0.3389  0.8791
 9170SOL     OW38968   1.431   2.599   2.147 -0.0380 -0.0764 -0.1850
 9170SOL    HW138969   1.362   2.533   2.142  0.5942 -0.7649  0.1927
 9170SOL    HW238970   1.509   2.545   2.137  0.6816  0.8509  0.3568
 9171SOL     OW38971   1.160   4.362   2.357  0.6317  0.1574  0.1997
 9171SOL    HW138972   1.191   4.354   2.447  0.3083  1.0161  0.3932
 9171SOL    HW238973   1.243   4.355   2.311 -0.4913  1.1556 -1.9535
 9172SOL     OW38974   4.112   1.575   7.028 -0.4262  0.1814 -0.6380
 9172SOL    HW138975   4.054   1.608   7.097  0.4566  1.3969 -0.4779
 9172SOL    HW238976   4.142   1.490   7.062  1.3616 -0.7813 -4.6437
 9173SOL     OW38977   2.059   0.924  11.339  0.0865  0.5877 -0.1409
 9173SOL    HW138978   2.050   0.874  11.420  2.9522  0.3509  0.0291
 9173SOL    HW238979   1.969   0.951  11.321  0.3421  0.9268 -0.8993
 9174SOL     OW38980   1.657   4.118   9.568  0.2882  0.0399 -0.0531
 9174SOL    HW138981   1.689   4.205   9.591 -0.9172  0.5125 -0.1328
 9174SOL    HW238982   1.566   4.141   9.547  0.7079  1.5253 -0.2227
 9175SOL     OW38983   1.441   0.839   4.299  0.4353 -0.2414 -0.8385
 9175SOL    HW138984   1.396   0.875   4.222 -0.7716 -0.4470 -0.2313
 9175SOL    HW238985   1.374   0.797   4.353 -0.3548  2.9876  0.6760
 9176SOL     OW38986   3.115   0.365   2.264  0.4993 -0.1928 -0.7092
 9176SOL    HW138987   3.020   0.352   2.260  0.6774 -0.8818 -2.7141
 9176SOL    HW238988   3.127   0.442   2.208 -4.1159  0.5011 -0.7858
 9177SOL     OW38989   4.340   0.366   4.491  1.0417 -0.0216  0.1095
 9177SOL    HW138990   4.424   0.332   4.461  0.7868  0.0608 -0.6868
 9177SOL    HW238991   4.310   0.423   4.421 -0.2424 -0.6006  0.1968
 9178SOL     OW38992   1.793   3.958   3.358 -0.2509  0.4016 -0.4339
 9178SOL    HW138993   1.843   3.953   3.440 -0.9054  0.3565 -0.0398
 9178SOL    HW238994   1.804   3.867   3.330  0.7020  0.0105  1.1830
 9179SOL     OW38995   3.301   3.975   4.344 -0.4304  0.1047  0.2834
 9179SOL    HW138996   3.354   4.055   4.346  1.8851 -1.4671  2.2444
 9179SOL    HW238997   3.229   3.996   4.286 -0.3190 -2.0466 -0.6400
 9180SOL     OW38998   3.381   1.960   2.675  0.1151 -0.2799  0.0815
 9180SOL    HW138999   3.286   1.958   2.665  0.4579 -3.5755 -2.4261
 9180SOL    HW239000   3.410   1.961   2.584  0.5912 -1.3705  0.2215
 9181SOL     OW39001   2.347   1.482  11.083  0.0867 -0.3028 -0.1683
 9181SOL    HW139002   2.324   1.415  11.019 -2.3759  1.1048 -0.7467
 9181SOL    HW239003   2.274   1.466  11.143  0.3151 -0.6167  0.0245
 9182SOL     OW39004   0.321   1.677   4.821  0.9591  0.2177  0.7333
 9182SOL    HW139005   0.249   1.677   4.759 -1.1357  1.1782  3.1760
 9182SOL    HW239006   0.276   1.619   4.883  1.5446  0.5146  1.4497
 9183SOL     OW39007   1.199   2.663   5.082 -0.6466 -0.0586 -0.0121
 9183SOL    HW139008   1.287   2.693   5.108 -0.2627 -2.1810  1.1858
 9183SOL    HW239009   1.200   2.567   5.084  4.1092 -0.0149  1.5042
 9184SOL     OW39010   0.561   4.590   8.287 -0.0586 -0.3200 -0.3676
 9184SOL    HW139011   0.478   4.562   8.248 -0.1290 -0.9416  0.2201
 9184SOL    HW239012   0.596   4.649   8.220  0.4709 -1.8830 -1.4815
 9185SOL     OW39013   1.645   3.085   3.950  0.1977 -0.4536  0.2563
 9185SOL    HW139014   1.710   3.016   3.934 -0.0213 -0.5988 -0.0117
 9185SOL    HW239015   1.686   3.154   3.898 -1.1466 -0.8962 -1.3995
 9186SOL     OW39016   2.215   2.286   6.833  0.3645 -0.5154  0.3737
 9186SOL    HW139017   2.246   2.332   6.911  1.3334 -2.2724  0.9952
 9186SOL    HW239018   2.298   2.300   6.787  0.8271  0.3072  1.4629
 9187SOL     OW39019   0.928   1.850  13.859 -0.1078 -0.5925  0.3238
 9187SOL    HW139020   1.006   1.849  13.804 -0.5943 -0.0078 -0.3777
 9187SOL    HW239021   0.960   1.895  13.937  1.4048 -3.1995  1.2204
 9188SOL     OW39022   2.535   4.328  12.501  0.0694  0.3817 -0.3034
 9188SOL    HW139023   2.469   4.340  12.570 -0.2754 -0.7133 -0.4382
 9188SOL    HW239024   2.602   4.394  12.518 -0.0291  0.4535 -0.1959
 9189SOL     OW39025   4.148   2.068   4.779  0.0782  0.1094 -0.3354
 9189SOL    HW139026   4.102   2.123   4.716 -0.6997 -3.4080 -2.8004
 9189SOL    HW239027   4.210   2.026   4.720  0.1774  0.2145 -0.3064
 9190SOL     OW39028   0.446   1.715   3.586 -0.0555 -0.5691  0.5591
 9190SOL    HW139029   0.528   1.761   3.569 -0.1567  0.2682  2.3680
 9190SOL    HW239030   0.384   1.788   3.590  0.5393 -0.1086  1.2326
 9191SOL     OW39031   0.804   3.063   7.341 -0.2875 -0.3971 -0.5804
 9191SOL    HW139032   0.898   3.048   7.339 -0.0196  1.3919 -1.9674
 9191SOL    HW239033   0.788   3.025   7.427  2.3481 -1.7626 -0.6839
 9192SOL     OW39034   3.537   1.993   6.248 -0.0925 -0.6607  0.3591
 9192SOL    HW139035   3.491   1.928   6.300 -1.9053  0.5514  0.3081
 9192SOL    HW239036   3.626   1.972   6.274  0.6190  1.9378  0.0697
 9193SOL     OW39037   4.511   3.201   9.183  0.3747 -0.5432 -0.1573
 9193SOL    HW139038   4.541   3.279   9.230  4.0204 -2.1387  0.1149
 9193SOL    HW239039   4.526   3.129   9.244  3.3042  2.2188  2.3403
 9194SOL     OW39040   4.407   2.997   0.681 -0.3406 -0.5934  0.5517
 9194SOL    HW139041   4.311   2.994   0.680 -0.3249 -1.3391  0.9045
 9194SOL    HW239042   4.418   2.998   0.776 -0.3914  0.0042  0.5493
 9195SOL     OW39043   3.562   2.615   2.343  0.1511 -0.0302 -0.0987
 9195SOL    HW139044   3.627   2.674   2.305  2.0724 -1.3405  1.1574
 9195SOL    HW239045   3.560   2.640   2.435 -0.0940 -0.6385  0.0601
 9196SOL     OW39046   1.603   2.805   2.281  0.0784 -0.1207 -0.1902
 9196SOL    HW139047   1.541   2.803   2.208 -0.9884  3.6176  0.6242
 9196SOL    HW239048   1.625   2.713   2.296  1.0053  0.2603  0.8112
 9197SOL     OW39049   3.369   2.157   8.221 -0.1621  0.1344  0.2593
 9197SOL    HW139050   3.310   2.093   8.261  1.5175 -1.5448  0.0547
 9197SOL    HW239051   3.395   2.206   8.299  1.9006 -1.1493  0.3962
 9198SOL     OW39052   4.262   1.813   4.043 -0.1457  0.5166  0.1667
 9198SOL    HW139053   4.331   1.870   4.077  0.7177 -1.7696  2.2068
 9198SOL    HW239054   4.229   1.794   4.130  0.9272 -3.2075 -0.2413
 9199SOL     OW39055   1.100   4.145   6.898  0.0602  0.6156  0.2414
 9199SOL    HW139056   1.160   4.218   6.884 -1.0694  1.5864  0.4908
 9199SOL    HW239057   1.146   4.074   6.852  0.3095  1.3550 -0.6489
 9200SOL     OW39058   2.981   4.236   6.792 -0.3759 -0.8557 -0.3559
 9200SOL    HW139059   3.021   4.152   6.815 -0.5687 -0.8089  0.1618
 9200SOL    HW239060   3.015   4.250   6.704 -1.4281  1.2614 -0.4067
 9201SOL     OW39061   1.875   3.799   2.214 -0.1598  0.3144  0.6163
 9201SOL    HW139062   1.813   3.758   2.154  1.7362  0.1303 -1.2213
 9201SOL    HW239063   1.908   3.866   2.154  3.4335  1.9028  4.3853
 9202SOL     OW39064   0.657   0.084  11.029  0.5333  0.0233 -0.4407
 9202SOL    HW139065   0.695   0.088  10.941  0.8380 -1.2255 -0.3790
 9202SOL    HW239066   0.604   0.004  11.028 -0.1259  0.4469  1.4878
 9203SOL     OW39067   4.510   1.332   9.051  0.9913  0.4327  0.0410
 9203SOL    HW139068   4.482   1.241   9.057 -0.6880  0.9325 -0.1228
 9203SOL    HW239069   4.581   1.340   8.987  1.0812 -0.7916 -0.0054
 9204SOL     OW39070   3.752   0.177   7.459  0.0272  1.0270  0.9104
 9204SOL    HW139071   3.736   0.237   7.531 -0.5664  0.6629  1.0891
 9204SOL    HW239072   3.692   0.216   7.395  1.8161  1.3591 -0.5484
 9205SOL     OW39073   1.078   1.089   5.015  0.5533 -0.4776 -0.4046
 9205SOL    HW139074   1.123   1.167   4.985 -0.7825  0.3727 -0.1739
 9205SOL    HW239075   1.015   1.130   5.074  0.2069 -0.4234 -0.8148
 9206SOL     OW39076   4.552   3.908  15.002 -0.7562 -0.2550 -0.2599
 9206SOL    HW139077   4.486   3.880  14.939  0.7645 -1.4414 -1.3324
 9206SOL    HW239078   4.494   3.938  15.072  1.9878 -2.2947  2.9257
 9207SOL     OW39079   4.318   4.499   5.439 -0.1982 -0.0096 -0.3764
 9207SOL    HW139080   4.286   4.589   5.447 -1.3345 -0.4405 -0.0824
 9207SOL    HW239081   4.260   4.464   5.371 -1.7943 -1.7916  1.9179
 9208SOL     OW39082   2.832   0.803  12.492  0.1041  0.2480 -0.1395
 9208SOL    HW139083   2.779   0.740  12.540  0.9579  0.2857  0.8674
 9208SOL    HW239084   2.760   0.849  12.449  0.2547  0.8995  0.3033
 9209SOL     OW39085   0.940   0.621   1.880  0.1701  0.3517  0.1186
 9209SOL    HW139086   0.998   0.641   1.954 -1.6443 -1.6719  2.1081
 9209SOL    HW239087   0.949   0.704   1.834  4.3103 -0.7286 -0.9621
 9210SOL     OW39088   2.346   0.043  11.838 -0.0752  0.0908 -0.3488
 9210SOL    HW139089   2.342   0.018  11.930 -0.2364 -2.1130 -0.9519
 9210SOL    HW239090   2.402   4.697  11.801  1.5289 -0.1184  2.4634
 9211SOL     OW39091   3.280   3.587   5.975  0.1419 -0.4014  0.0051
 9211SOL    HW139092   3.321   3.559   6.057  2.6768 -0.8811 -1.4285
 9211SOL    HW239093   3.315   3.676   5.967  1.9983 -1.1493  0.0197
 9212SOL     OW39094   2.360   0.952   2.606  0.1725  0.1695  0.0406
 9212SOL    HW139095   2.340   0.870   2.560  0.5520 -0.2080  0.5493
 9212SOL    HW239096   2.410   0.913   2.678  1.5691 -1.3309 -1.7747
 9213SOL     OW39097   4.120   0.223   1.825  0.3858  0.2451 -0.2328
 9213SOL    HW139098   4.040   0.203   1.874  1.6590  0.5393  1.9672
 9213SOL    HW239099   4.097   0.274   1.747 -0.0407  0.3597 -0.0269
 9214SOL     OW39100   0.821   2.976  11.299  0.0179  0.0203  0.5110
 9214SOL    HW139101   0.742   2.928  11.325  0.0676  0.1169  0.8407
 9214SOL    HW239102   0.830   3.014  11.386 -0.5578  0.9564  0.1658
 9215SOL     OW39103   1.980   3.654  13.103 -0.1961  0.5730 -0.4124
 9215SOL    HW139104   2.030   3.689  13.029 -1.6556 -0.7059 -2.0092
 9215SOL    HW239105   1.913   3.605  13.055  0.6338  0.1512 -1.1351
 9216SOL     OW39106   0.253   1.839   3.788 -0.1844  0.2427 -0.2226
 9216SOL    HW139107   0.214   1.904   3.730  2.6499  0.4650 -1.9053
 9216SOL    HW239108   0.179   1.819   3.845  0.3158  0.0990  0.3792
 9217SOL     OW39109   1.568   1.474   4.103 -0.0696  0.2318 -0.4480
 9217SOL    HW139110   1.495   1.528   4.134  0.4458 -0.8499  2.6351
 9217SOL    HW239111   1.638   1.537   4.114  1.3691 -1.9026  2.4983
 9218SOL     OW39112   2.214   3.756   9.075  0.2127  0.0501  0.1948
 9218SOL    HW139113   2.180   3.673   9.110 -1.4363  1.2969  1.5573
 9218SOL    HW239114   2.134   3.805   9.093  1.1039  1.7642 -0.5300
 9219SOL     OW39115   1.184   3.882   2.451  0.4219  0.0695 -0.7301
 9219SOL    HW139116   1.202   3.891   2.544  2.1958 -0.3320 -1.0369
 9219SOL    HW239117   1.231   3.957   2.414  2.3251  0.4276  2.4151
 9220SOL     OW39118   0.825   3.549   9.448 -0.4897 -0.4683  0.2092
 9220SOL    HW139119   0.781   3.585   9.525 -2.5933 -0.4460 -0.9953
 9220SOL    HW239120   0.886   3.621   9.432 -0.3652 -0.6390 -0.0840
 9221SOL     OW39121   2.116   4.252   6.513  0.7474 -0.7986 -0.1395
 9221SOL    HW139122   2.066   4.333   6.502  0.6141 -0.5876  2.0674
 9221SOL    HW239123   2.166   4.288   6.586 -0.3662 -1.0762  0.7545
 9222SOL     OW39124   4.483   3.390   9.530 -0.2082 -0.3642  0.2215
 9222SOL    HW139125   4.530   3.459   9.577  0.7442 -1.8870  1.4846
 9222SOL    HW239126   4.560   3.351   9.491  2.0506  0.0167  4.2646
 9223SOL     OW39127   0.035   0.743   4.803 -0.1735 -0.3127 -0.7105
 9223SOL    HW139128   0.055   0.670   4.744 -0.5677 -1.0166  0.0244
 9223SOL    HW239129   0.120   0.787   4.800  0.1684 -0.9787 -0.7854
 9224SOL     OW39130   1.832   1.839   2.176 -0.5479  0.6548  0.2549
 9224SOL    HW139131   1.817   1.918   2.229  1.5163  2.3560 -1.6603
 9224SOL    HW239132   1.926   1.823   2.183 -0.5374  0.1371 -1.1502
 9225SOL     OW39133   0.328   3.582   7.982  0.1702  0.1741  0.1682
 9225SOL    HW139134   0.235   3.557   7.987 -0.0558  1.4750  2.6652
 9225SOL    HW239135   0.359   3.506   7.933 -2.0093 -0.8974  0.4383
 9226SOL     OW39136   0.755   4.474   3.684 -0.4695 -0.5289 -0.1163
 9226SOL    HW139137   0.732   4.450   3.773  0.3313 -2.6095 -0.4558
 9226SOL    HW239138   0.818   4.405   3.660  0.4294 -0.3304  1.7459
 9227SOL     OW39139   0.664   0.518  17.549  0.1450  0.0869  0.5378
 9227SOL    HW139140   0.660   0.441  17.606  0.8256 -0.5550 -0.2784
 9227SOL    HW239141   0.705   0.482  17.470  0.7741 -0.4209  1.1023
 9228SOL     OW39142   2.725   4.557  11.508 -0.1299  0.0438 -0.0182
 9228SOL    HW139143   2.756   4.645  11.486  1.9717 -0.7590 -0.2965
 9228SOL    HW239144   2.789   4.536  11.576  0.7178 -1.5890 -1.3062
 9229SOL     OW39145   4.091   1.013   9.186  0.6357  0.0410  0.2201
 9229SOL    HW139146   4.108   0.992   9.278  1.9255  0.5684  0.1065
 9229SOL    HW239147   4.157   0.954   9.150 -0.6816 -2.2742  1.5800
 9230SOL     OW39148   0.788   1.616   4.822 -0.0584  0.0576  0.0967
 9230SOL    HW139149   0.880   1.643   4.823 -0.4645  1.4554 -0.1387
 9230SOL    HW239150   0.812   1.523   4.812  2.3684  0.5550  1.2766
 9231SOL     OW39151   2.902   4.693   7.813 -0.2367  0.1456  0.0327
 9231SOL    HW139152   2.959   0.039   7.847  0.6858 -0.7696  0.3303
 9231SOL    HW239153   2.919   4.611   7.859 -0.5520  0.4825  0.7429
 9232SOL     OW39154   3.299   1.132   5.547 -0.2919  0.3387  0.1741
 9232SOL    HW139155   3.304   1.146   5.642  0.0784 -3.2721  0.6798
 9232SOL    HW239156   3.214   1.092   5.528 -0.1174 -0.8685  1.9683
 9233SOL     OW39157   3.751   1.569   8.136 -0.6121 -0.0729  0.3045
 9233SOL    HW139158   3.781   1.562   8.045 -0.0987  1.0693  0.3964
 9233SOL    HW239159   3.769   1.661   8.154 -2.0045  0.3042 -0.2079
 9234SOL     OW39160   4.527   0.862   3.201  0.0185 -0.7579 -0.7115
 9234SOL    HW139161   4.478   0.788   3.237  1.0165 -1.4118 -0.6798
 9234SOL    HW239162   4.596   0.870   3.268 -2.1132 -1.2543  1.5508
 9235SOL     OW39163   2.288   0.634   5.514  0.0691  0.2264  0.0952
 9235SOL    HW139164   2.238   0.668   5.588 -0.1034 -1.2627  0.6706
 9235SOL    HW239165   2.308   0.717   5.471  0.0302 -0.4214 -1.1649
 9236SOL     OW39166   1.196   4.147   8.545 -0.2126  0.3208  0.3876
 9236SOL    HW139167   1.178   4.215   8.610  1.4704 -0.5910  1.8074
 9236SOL    HW239168   1.280   4.115   8.580 -0.8977 -1.4288  0.4043
 9237SOL     OW39169   2.205   2.410   6.075  0.1525 -0.1073 -0.2097
 9237SOL    HW139170   2.156   2.489   6.097 -0.1318  0.1010 -1.6010
 9237SOL    HW239171   2.187   2.351   6.149  0.3268  0.4876  0.3011
 9238SOL     OW39172   4.521   4.627   2.422 -0.5798  0.0587  0.5349
 9238SOL    HW139173   4.613   4.607   2.404  0.3393  2.6766  2.3783
 9238SOL    HW239174   4.477   4.543   2.405  1.0314 -1.0066  1.6010
 9239SOL     OW39175   4.256   0.196  12.577  0.0114 -0.3206  0.5027
 9239SOL    HW139176   4.270   0.113  12.622 -0.1492  0.2004  1.5165
 9239SOL    HW239177   4.320   0.247  12.626  0.0762 -0.4663  0.5689
 9240SOL     OW39178   2.180   4.096   3.573  0.4018  0.0292 -0.6451
 9240SOL    HW139179   2.249   4.031   3.558  0.8686 -0.3040  2.8176
 9240SOL    HW239180   2.227   4.160   3.626  1.2705 -0.2461 -1.0772
 9241SOL     OW39181   1.968   2.572   7.340 -0.0669  0.7855 -0.1744
 9241SOL    HW139182   1.880   2.536   7.332  0.6377 -0.6586 -1.4128
 9241SOL    HW239183   1.981   2.553   7.433 -0.6378  0.2128 -0.2129
 9242SOL     OW39184   2.449   0.866   4.087  0.2314 -0.4169 -0.0383
 9242SOL    HW139185   2.403   0.944   4.118  0.9834  0.5474 -1.3269
 9242SOL    HW239186   2.488   0.844   4.172 -1.2618 -0.6784  0.5730
 9243SOL     OW39187   4.272   3.188   2.272  0.3505 -0.0955 -0.0663
 9243SOL    HW139188   4.328   3.219   2.200 -1.7742 -0.0931 -1.7132
 9243SOL    HW239189   4.269   3.096   2.248  0.1762 -0.1706  0.2438
 9244SOL     OW39190   4.218   2.525  14.172  0.5507  0.5480  0.0014
 9244SOL    HW139191   4.260   2.449  14.130  3.6086  1.0528  2.1257
 9244SOL    HW239192   4.155   2.551  14.105 -0.6259  1.1262  1.3495
 9245SOL     OW39193   1.210   3.734   6.782 -0.1065  0.2440 -0.1993
 9245SOL    HW139194   1.238   3.825   6.775  2.9038 -0.7009 -0.2347
 9245SOL    HW239195   1.149   3.723   6.709 -2.1276 -1.8286  1.8005
 9246SOL     OW39196   0.277   1.990   5.739  0.3285 -0.5529 -0.0977
 9246SOL    HW139197   0.289   2.083   5.723 -1.3421 -0.1285  1.1451
 9246SOL    HW239198   0.244   1.960   5.654  2.2011 -0.3880 -0.8891
 9247SOL     OW39199   4.690   4.196   7.603  0.0578  0.5548 -0.3312
 9247SOL    HW139200   4.599   4.169   7.620  1.2257 -1.4717  2.7939
 9247SOL    HW239201   0.014   4.135   7.660 -0.6064  1.8172  1.5838
 9248SOL     OW39202   1.435   4.300  14.695 -0.1494  0.3120  0.2727
 9248SOL    HW139203   1.442   4.206  14.708 -2.1948  0.1458  0.1882
 9248SOL    HW239204   1.368   4.311  14.629 -1.6605  0.5094  1.8393
 9249SOL     OW39205   3.064   0.207   4.915 -0.4088  0.4942 -0.0663
 9249SOL    HW139206   3.059   0.223   4.821  3.4159 -0.6286 -0.4536
 9249SOL    HW239207   2.970   0.217   4.926 -0.4676  0.5290 -0.6085
 9250SOL     OW39208   0.445   0.566  12.874 -0.5187 -0.7099 -0.1374
 9250SOL    HW139209   0.489   0.568  12.789 -1.7848  0.4744 -0.7528
 9250SOL    HW239210   0.446   0.658  12.899  0.2639 -1.1327  1.4160
 9251SOL     OW39211   4.715   1.293   8.261 -0.0917 -0.3866 -0.0835
 9251SOL    HW139212   0.058   1.244   8.212 -0.0827 -1.3922  0.9377
 9251SOL    HW239213   0.047   1.370   8.273 -0.3424 -0.1696 -0.3050
 9252SOL     OW39214   3.781   0.222   6.230 -0.7135  0.0024  0.7179
 9252SOL    HW139215   3.721   0.186   6.165 -1.2480  1.3794  0.4554
 9252SOL    HW239216   3.747   0.311   6.234 -1.0282  0.0263 -2.7746
 9253SOL     OW39217   1.906   1.603  12.152 -0.2011 -0.5630 -0.7289
 9253SOL    HW139218   1.912   1.633  12.061  0.1675  1.1410 -0.1396
 9253SOL    HW239219   1.833   1.658  12.179 -1.0574 -1.2746 -1.6302
 9254SOL     OW39220   2.237   1.697   5.858 -0.7159  0.2715 -0.0659
 9254SOL    HW139221   2.253   1.604   5.840 -0.4520  0.2209  0.4242
 9254SOL    HW239222   2.325   1.720   5.888 -1.0489  1.0721  0.3082
 9255SOL     OW39223   3.829   0.859   3.697 -0.3733  0.8021  0.1781
 9255SOL    HW139224   3.751   0.830   3.649 -0.7003  0.9294  0.6281
 9255SOL    HW239225   3.871   0.775   3.715 -0.2554  0.5819 -1.1440
 9256SOL     OW39226   1.038   3.167   2.555 -0.2202  0.1958 -0.2937
 9256SOL    HW139227   1.060   3.191   2.645 -0.6174  1.2712 -0.4803
 9256SOL    HW239228   1.112   3.192   2.500  0.5740 -1.4684  0.0305
 9257SOL     OW39229   1.126   4.338   5.272 -0.4310  0.3539  0.6841
 9257SOL    HW139230   1.038   4.325   5.308  0.3612 -3.8641  1.1331
 9257SOL    HW239231   1.120   4.307   5.182 -0.1724  1.0620  0.4250
 9258SOL     OW39232   3.767   1.061   0.166 -0.0386  0.2045 -0.3343
 9258SOL    HW139233   3.724   1.131   0.214  0.1788 -0.3355  0.6351
 9258SOL    HW239234   3.819   1.016   0.232 -1.6251 -0.3846  0.4958
 9259SOL     OW39235   1.148   2.753   9.185  0.7845 -0.0739  0.1296
 9259SOL    HW139236   1.097   2.706   9.252  0.0235 -1.5171 -1.4697
 9259SOL    HW239237   1.231   2.706   9.185  0.9913  0.2997 -0.2592
 9260SOL     OW39238   4.009   2.201  16.921 -0.0231  0.0322 -0.3055
 9260SOL    HW139239   3.936   2.161  16.968  0.2208 -0.2264 -0.1416
 9260SOL    HW239240   3.984   2.189  16.830 -0.4427  1.4703 -0.3792
 9261SOL     OW39241   0.020   0.615   2.833 -0.3133  0.5044  0.3519
 9261SOL    HW139242   4.684   0.683   2.866 -0.9651  0.9047 -1.6280
 9261SOL    HW239243   0.055   0.652   2.751  1.1933 -1.0175  0.3089
 9262SOL     OW39244   3.898   1.931   3.007  0.1643  0.2618 -0.5128
 9262SOL    HW139245   3.813   1.959   2.974 -0.5219 -0.3224  0.7713
 9262SOL    HW239246   3.878   1.872   3.080  2.7815  0.4673  0.4040
 9263SOL     OW39247   3.726   0.196  17.212 -0.4758  0.8562  0.2793
 9263SOL    HW139248   3.675   0.277  17.209 -0.1106  1.0672 -0.2209
 9263SOL    HW239249   3.664   0.151  17.154  1.2350 -0.0715 -0.8236
 9264SOL     OW39250   0.845   2.646   2.928 -0.3362  0.5628  0.6139
 9264SOL    HW139251   0.750   2.637   2.921 -0.2743  0.5667 -0.2311
 9264SOL    HW239252   0.853   2.733   2.888  2.5979 -0.7825 -1.7349
 9265SOL     OW39253   2.376   0.647   2.513  0.3726 -0.0157 -0.1283
 9265SOL    HW139254   2.465   0.652   2.478  0.9594  0.4480  1.4026
 9265SOL    HW239255   2.367   0.552   2.516  1.5352 -0.0946  0.9324
 9266SOL     OW39256   4.158   1.443   4.223  0.0718 -0.0804 -0.7236
 9266SOL    HW139257   4.143   1.366   4.168  2.5414 -0.7450 -0.4720
 9266SOL    HW239258   4.133   1.519   4.171 -0.2295 -0.5463 -1.2602
 9267SOL     OW39259   0.203   4.037   7.085 -0.2066 -0.0959 -0.0900
 9267SOL    HW139260   0.151   3.959   7.104 -0.0133  0.2378  1.7809
 9267SOL    HW239261   0.202   4.076   7.172  0.0982 -0.4904  0.0875
 9268SOL     OW39262   4.028   3.490   6.241 -0.1666  0.0672 -0.0571
 9268SOL    HW139263   4.056   3.528   6.157 -1.9770  3.1887  0.7384
 9268SOL    HW239264   3.980   3.412   6.214 -0.8707  0.0657  1.2229
 9269SOL     OW39265   0.682   1.571   4.093  0.7573 -0.0825 -0.2582
 9269SOL    HW139266   0.722   1.597   4.011  0.8985  4.1920  1.1680
 9269SOL    HW239267   0.761   1.571   4.146 -0.3069 -1.7103  1.3311
 9270SOL     OW39268   1.152   1.514  16.904  0.2327 -0.0315  0.3827
 9270SOL    HW139269   1.132   1.522  16.810  0.1607  2.1526  0.5662
 9270SOL    HW239270   1.062   1.504  16.935 -0.2584 -0.1458 -1.0546
 9271SOL     OW39271   0.503   4.690   8.534 -0.7132 -0.2494  0.4882
 9271SOL    HW139272   0.567   0.036   8.517 -1.1279  0.1674  0.5967
 9271SOL    HW239273   0.510   4.628   8.462  0.0459  0.3581  0.0437
 9272SOL     OW39274   4.559   1.643   6.914 -0.0818 -0.4800 -0.8466
 9272SOL    HW139275   4.581   1.717   6.858  1.6273 -0.1319  0.2997
 9272SOL    HW239276   4.502   1.685   6.978  0.8541  0.4207 -0.6119
 9273SOL     OW39277   2.990   4.028   4.670 -0.4406 -0.2848  0.2107
 9273SOL    HW139278   3.017   4.021   4.762 -2.5705 -4.7374  0.4893
 9273SOL    HW239279   2.957   4.118   4.667  0.9399  0.1663 -1.4222
 9274SOL     OW39280   3.707   3.854   8.924 -0.1613  0.5529  0.1575
 9274SOL    HW139281   3.729   3.787   8.989  0.3848  1.2441  0.6819
 9274SOL    HW239282   3.753   3.931   8.958  0.7882 -0.2079  0.5739
 9275SOL     OW39283   3.324   2.484   3.625 -0.3773  0.2416 -0.1013
 9275SOL    HW139284   3.383   2.435   3.567 -1.1786 -1.5170  0.5694
 9275SOL    HW239285   3.241   2.448   3.593 -0.0368 -1.4238  0.9166
 9276SOL     OW39286   1.447   1.167   5.613 -0.2807  0.3899  0.2875
 9276SOL    HW139287   1.461   1.260   5.633  0.5988  0.7964 -2.1719
 9276SOL    HW239288   1.391   1.147   5.687  0.2744  0.3220  0.6915
 9277SOL     OW39289   1.727   2.229   9.461 -0.3238 -0.4776  0.7545
 9277SOL    HW139290   1.782   2.259   9.389 -0.6004  0.8806  1.0915
 9277SOL    HW239291   1.678   2.310   9.474  2.1008  1.6963 -3.6303
 9278SOL     OW39292   1.395   0.899   4.817 -0.4448  0.3112 -0.3359
 9278SOL    HW139293   1.315   0.913   4.766 -1.0483  1.1638  0.8487
 9278SOL    HW239294   1.373   0.850   4.897  0.0527  1.5737  0.5713
 9279SOL     OW39295   3.656   2.629   7.173  0.5345 -0.3427 -1.0027
 9279SOL    HW139296   3.565   2.601   7.176  0.0236  1.3125 -1.0644
 9279SOL    HW239297   3.676   2.620   7.080  2.1386 -0.6345 -0.6292
 9280SOL     OW39298   2.595   1.428  13.335  0.1383  0.4288 -0.4785
 9280SOL    HW139299   2.504   1.453  13.321 -0.2722  0.0292  1.5491
 9280SOL    HW239300   2.584   1.336  13.358 -1.2409  0.3350 -1.5077
 9281SOL     OW39301   3.193   4.344  16.113 -0.0424  0.2078 -0.4139
 9281SOL    HW139302   3.127   4.352  16.045 -2.3105  0.8587  1.8504
 9281SOL    HW239303   3.245   4.273  16.075 -0.6340 -0.4165 -0.0628
 9282SOL     OW39304   2.397   3.689   7.955  0.3709  0.0249  0.0673
 9282SOL    HW139305   2.353   3.719   7.876 -0.9676  0.9888  1.1746
 9282SOL    HW239306   2.355   3.745   8.021  1.4823  1.6066 -0.5591
 9283SOL     OW39307   4.084   2.399   0.524 -0.2106  0.5011 -0.3767
 9283SOL    HW139308   4.011   2.457   0.499 -0.1972 -0.4197 -2.5666
 9283SOL    HW239309   4.092   2.423   0.616  0.4815 -0.2297 -0.2523
 9284SOL     OW39310   4.282   2.956   0.420 -0.1455 -0.1936 -0.1867
 9284SOL    HW139311   4.209   2.986   0.366 -0.8204 -2.0021 -0.2680
 9284SOL    HW239312   4.346   3.023   0.395  0.9360 -0.6385  1.3486
 9285SOL     OW39313   4.267   2.226   8.359  0.3061 -0.6563  0.2241
 9285SOL    HW139314   4.229   2.260   8.440  0.0082  0.0853 -0.2300
 9285SOL    HW239315   4.201   2.163   8.331 -0.0726  0.7430 -2.0445
 9286SOL     OW39316   4.443   3.182   8.442 -0.1278 -0.3078  0.6649
 9286SOL    HW139317   4.353   3.214   8.435 -0.0496 -0.6023 -1.5003
 9286SOL    HW239318   4.453   3.137   8.526  2.6915 -0.9619 -0.0316
 9287SOL     OW39319   2.023   1.022   6.048 -0.2158 -0.1143  0.0991
 9287SOL    HW139320   2.044   1.032   6.141  0.5357 -0.2206 -0.0631
 9287SOL    HW239321   1.962   0.949   6.058 -1.8516  1.2118 -0.1595
 9288SOL     OW39322   1.826   1.292   2.568  0.5441  0.3212  0.0644
 9288SOL    HW139323   1.853   1.375   2.528  0.9774  0.2491  0.2043
 9288SOL    HW239324   1.912   1.249   2.572 -0.4027 -1.5510 -0.0074
 9289SOL     OW39325   1.097   0.384   1.984 -0.5181  0.2535  0.0459
 9289SOL    HW139326   1.104   0.451   2.051  0.7962  0.9756 -0.8159
 9289SOL    HW239327   1.035   0.422   1.922  0.6355 -2.3610 -2.7224
 9290SOL     OW39328   1.133   1.073   3.149 -0.1040  0.3930  0.1291
 9290SOL    HW139329   1.049   1.036   3.175 -1.3789  2.2620 -1.3465
 9290SOL    HW239330   1.131   1.092   3.056  0.2364 -1.6890 -0.2817
 9291SOL     OW39331   0.593   2.681   6.810  0.4449 -0.3803 -0.5694
 9291SOL    HW139332   0.515   2.670   6.865  0.4155  1.6648 -0.2156
 9291SOL    HW239333   0.629   2.765   6.837 -0.1763 -0.4492  0.4691
 9292SOL     OW39334   4.603   3.166  17.007 -0.4664 -0.5328 -0.0317
 9292SOL    HW139335   4.519   3.210  16.990 -0.7532 -1.0439  0.0641
 9292SOL    HW239336   4.574   3.119  17.085 -2.6803  0.5630 -0.1758
 9293SOL     OW39337   2.956   0.383   3.192 -0.5757  0.6861 -0.3859
 9293SOL    HW139338   2.967   0.457   3.251 -0.9535  1.6571 -1.5250
 9293SOL    HW239339   3.047   0.355   3.191 -1.0189 -0.7737 -0.3901
 9294SOL     OW39340   3.264   4.039   3.373 -0.2187 -0.3224  0.1259
 9294SOL    HW139341   3.334   3.979   3.346 -0.7390 -0.8956  0.0686
 9294SOL    HW239342   3.316   4.093   3.434  0.6709 -0.6809 -0.3085
 9295SOL     OW39343   1.788   0.655  11.757  0.5873 -0.3562 -0.0360
 9295SOL    HW139344   1.701   0.628  11.725 -0.0812  1.4710  0.2485
 9295SOL    HW239345   1.844   0.595  11.709  1.7318  2.5288 -2.3108
 9296SOL     OW39346   3.639   4.495   6.636  0.4046  0.0655 -0.1852
 9296SOL    HW139347   3.691   4.571   6.661  0.0288 -0.6799  2.9140
 9296SOL    HW239348   3.700   4.424   6.617 -0.7593 -0.2012 -2.8169
 9297SOL     OW39349   1.396   4.025  10.003 -0.0765 -0.0338 -0.0809
 9297SOL    HW139350   1.466   4.068  10.053  0.7490 -0.4816 -0.8509
 9297SOL    HW239351   1.405   3.931  10.015  0.0499  0.3302  2.5294
 9298SOL     OW39352   2.886   3.305   5.666  0.4565 -0.3505  0.4712
 9298SOL    HW139353   2.878   3.277   5.757  0.8606 -3.5564 -0.4553
 9298SOL    HW239354   2.869   3.226   5.614 -1.0093  0.4706 -0.3062
 9299SOL     OW39355   1.187   0.357   0.974  0.7520  0.3097 -0.4982
 9299SOL    HW139356   1.122   0.423   0.996  1.0553 -0.2811  2.2036
 9299SOL    HW239357   1.249   0.373   1.046 -0.1241 -0.6947  0.4893
 9300SOL     OW39358   0.947   1.870   2.310 -0.0410 -0.4504  0.1460
 9300SOL    HW139359   0.948   1.882   2.215 -0.2219  0.9869  0.3237
 9300SOL    HW239360   0.869   1.815   2.307 -0.0160 -0.3566 -1.8618
 9301SOL     OW39361   1.620   3.692   3.445 -0.1365 -0.1282  0.4756
 9301SOL    HW139362   1.669   3.696   3.362  0.1763  2.4508  0.7925
 9301SOL    HW239363   1.527   3.696   3.421  0.4937  4.3477 -1.1953
 9302SOL     OW39364   1.832   2.180   1.921  0.1799  0.7502  0.3625
 9302SOL    HW139365   1.815   2.086   1.922 -0.2631  0.8266 -0.0313
 9302SOL    HW239366   1.753   2.200   1.870  0.5904 -1.2399 -1.0605
 9303SOL     OW39367   2.062   3.468   5.503 -0.6367  0.2004  0.5685
 9303SOL    HW139368   2.040   3.540   5.562 -0.3730 -1.4220  2.6968
 9303SOL    HW239369   1.974   3.447   5.473 -1.3956  1.2616  2.0765
 9304SOL     OW39370   2.234   4.701  17.671  0.0095  0.7332 -0.1155
 9304SOL    HW139371   2.269   4.616   0.004 -3.0020 -0.4930 -0.0937
 9304SOL    HW239372   2.249   4.703  17.577  1.7622 -1.6736  0.1028
 9305SOL     OW39373   4.560   3.562  10.275 -0.1358  0.2761  0.1856
 9305SOL    HW139374   4.576   3.648  10.237  0.5107 -1.8100 -4.2948
 9305SOL    HW239375   4.630   3.506  10.243 -0.1881  1.1621 -1.5157
 9306SOL     OW39376   3.611   1.459   0.060 -0.1883  0.2266  0.1646
 9306SOL    HW139377   3.620   1.441  17.661  0.1207  0.3660  0.1685
 9306SOL    HW239378   3.619   1.373   0.101  0.9021 -0.0581 -0.6673
 9307SOL     OW39379   2.431   3.202   3.376  0.4649  0.6078  0.0899
 9307SOL    HW139380   2.386   3.260   3.438  0.7987  1.1058 -0.1354
 9307SOL    HW239381   2.388   3.121   3.403 -0.7702  1.0417 -0.5905
 9308SOL     OW39382   3.705   0.931   6.463 -0.2176  0.1142 -0.0715
 9308SOL    HW139383   3.668   0.842   6.462  1.6925 -0.6779 -0.2563
 9308SOL    HW239384   3.797   0.903   6.463  0.1655  1.3832  1.0087
 9309SOL     OW39385   0.631   2.403   3.553 -0.1322  0.4563 -0.6723
 9309SOL    HW139386   0.714   2.357   3.542 -0.0946  0.5232 -0.6722
 9309SOL    HW239387   0.653   2.486   3.596 -0.2282  0.7026 -1.1008
 9310SOL     OW39388   3.038   0.262   6.503  0.2296 -0.2178  0.4853
 9310SOL    HW139389   3.065   0.354   6.509  0.2920 -0.2707  1.0187
 9310SOL    HW239390   3.119   0.212   6.514 -0.5312 -2.0148 -2.1669
 9311SOL     OW39391   1.878   2.589   5.700  0.3553 -0.2719 -0.4887
 9311SOL    HW139392   1.798   2.615   5.746  0.3278  2.1990 -1.9157
 9311SOL    HW239393   1.847   2.599   5.610 -0.5248 -1.4059 -0.3175
 9312SOL     OW39394   0.991   4.088  12.699  0.0319 -0.0641 -0.2477
 9312SOL    HW139395   1.000   4.164  12.757 -0.4635  1.1559 -1.7828
 9312SOL    HW239396   1.057   4.104  12.632  1.2525  0.7226  1.1271
 9313SOL     OW39397   1.430   2.429   4.617  0.2252 -0.5186 -0.0798
 9313SOL    HW139398   1.491   2.436   4.543  1.1926 -0.4464  0.7175
 9313SOL    HW239399   1.473   2.360   4.667  1.3576  2.0811  2.5590
 9314SOL     OW39400   3.221   3.135   8.692 -0.7314 -0.4369  0.0651
 9314SOL    HW139401   3.194   3.184   8.614 -0.6562  1.0988  1.0079
 9314SOL    HW239402   3.230   3.047   8.656 -0.9132 -0.3708 -0.1416
 9315SOL     OW39403   2.928   2.757   6.416  0.3477  0.4388  0.5143
 9315SOL    HW139404   2.889   2.782   6.500 -2.3947 -1.6803 -0.1096
 9315SOL    HW239405   3.001   2.817   6.402  0.0011  0.6323 -0.4458
 9316SOL     OW39406   0.631   4.477   7.818  0.6082 -0.3134  0.2673
 9316SOL    HW139407   0.593   4.516   7.897  0.3715 -0.8213  0.4022
 9316SOL    HW239408   0.628   4.386   7.845 -1.7520 -0.3798 -0.1920
 9317SOL     OW39409   4.329   4.304   5.645  0.0417  0.3280 -0.0640
 9317SOL    HW139410   4.314   4.374   5.581 -0.3798 -0.7150 -1.0940
 9317SOL    HW239411   4.296   4.335   5.729  0.2103  0.1514  0.0676
 9318SOL     OW39412   3.546   1.507  16.204  0.2900 -0.0617  0.3771
 9318SOL    HW139413   3.496   1.586  16.182  2.0696  1.1861  0.7007
 9318SOL    HW239414   3.522   1.450  16.132  3.1092  0.5281 -1.0386
 9319SOL     OW39415   0.329   2.653   2.772 -0.1985  0.3898 -0.0753
 9319SOL    HW139416   0.374   2.710   2.835  0.1975  1.5684 -1.4337
 9319SOL    HW239417   0.244   2.696   2.768  0.5698  2.1112  2.2794
 9320SOL     OW39418   4.523   3.989   9.743  0.3500  0.1443 -0.2585
 9320SOL    HW139419   4.535   4.006   9.837 -2.5850 -1.1082  0.3545
 9320SOL    HW239420   4.589   3.919   9.744  0.4775  0.2830  0.8411
 9321SOL     OW39421   2.135   2.296  15.027 -0.7674  0.1957 -0.4906
 9321SOL    HW139422   2.182   2.257  14.953  2.3417  0.8813  1.1598
 9321SOL    HW239423   2.183   2.378  15.039  1.0688 -1.1099  0.8384
 9322SOL     OW39424   3.370   0.787   4.486 -0.2852  0.0507 -0.1442
 9322SOL    HW139425   3.346   0.694   4.488  2.0309 -0.5037  1.2327
 9322SOL    HW239426   3.454   0.777   4.442 -1.8978 -0.4998 -3.1444
 9323SOL     OW39427   2.605   3.525   7.930  0.0061 -0.3768 -0.3978
 9323SOL    HW139428   2.669   3.574   7.982 -0.5097  0.9201 -0.9929
 9323SOL    HW239429   2.532   3.586   7.943  0.7256  0.7843 -1.8513
 9324SOL     OW39430   2.605   2.997   6.968  0.2065  0.2230  0.1106
 9324SOL    HW139431   2.582   2.931   6.903 -1.3456  2.6454 -1.8059
 9324SOL    HW239432   2.700   2.994   6.958  0.1290 -0.6759 -0.3197
 9325SOL     OW39433   3.186   0.199  15.192  0.0719 -0.1688  0.1536
 9325SOL    HW139434   3.155   0.250  15.118  3.6132  0.8259 -0.6410
 9325SOL    HW239435   3.166   0.109  15.164 -2.6483 -0.5178  3.2066
 9326SOL     OW39436   2.389   2.956  16.342  0.0161 -0.2423  0.2585
 9326SOL    HW139437   2.376   2.938  16.249  1.1599  0.5134 -0.0371
 9326SOL    HW239438   2.462   2.897  16.361  0.5881  0.2731 -0.3439
 9327SOL     OW39439   1.647   1.692   0.794 -0.0237 -1.1578  0.0174
 9327SOL    HW139440   1.701   1.705   0.871 -3.9658  2.3561  2.1550
 9327SOL    HW239441   1.573   1.750   0.812  1.3838  0.9989 -1.1961
 9328SOL     OW39442   3.691   1.926   6.932  0.2952  0.5615  0.1401
 9328SOL    HW139443   3.739   1.969   6.861  1.5927 -1.9802 -0.5131
 9328SOL    HW239444   3.754   1.925   7.005  0.8247 -1.4709 -0.3520
 9329SOL     OW39445   3.306   2.686   7.588  0.9416 -0.2973 -0.2944
 9329SOL    HW139446   3.316   2.611   7.529  0.4636 -0.5432 -0.0657
 9329SOL    HW239447   3.216   2.682   7.620  1.2738 -0.3457  0.6108
 9330SOL     OW39448   1.981   4.402   4.913  0.0897  0.1506 -0.1441
 9330SOL    HW139449   1.953   4.399   5.005  0.9184 -3.6883 -0.0336
 9330SOL    HW239450   1.932   4.325   4.886  0.6399 -0.2580  0.0042
 9331SOL     OW39451   3.423   4.100   8.956  0.0857 -0.0182  0.0345
 9331SOL    HW139452   3.440   4.041   9.030  0.7845  0.7444  0.4837
 9331SOL    HW239453   3.357   4.046   8.913  1.3438 -1.4393 -0.1030
 9332SOL     OW39454   1.237   0.846   0.856  0.4970  0.3000  0.2836
 9332SOL    HW139455   1.263   0.815   0.769 -1.2225 -1.5165  0.3942
 9332SOL    HW239456   1.302   0.913   0.873 -1.0761  1.7972  0.3724
 9333SOL     OW39457   2.976   1.782  11.397 -0.1931  0.6720 -0.2178
 9333SOL    HW139458   2.952   1.863  11.351 -0.9912  0.6472  0.1570
 9333SOL    HW239459   2.913   1.781  11.469 -0.0765  1.3402 -0.0991
 9334SOL     OW39460   4.143   3.459   5.507 -0.2653 -0.5902 -0.3007
 9334SOL    HW139461   4.146   3.434   5.414  1.3378 -1.0109 -0.1321
 9334SOL    HW239462   4.102   3.545   5.498 -1.0462 -0.9772 -0.4982
 9335SOL     OW39463   3.657   2.754  11.228 -0.0607 -0.2003  0.4073
 9335SOL    HW139464   3.648   2.659  11.239  0.0794 -0.3382 -0.6660
 9335SOL    HW239465   3.746   2.770  11.259 -0.2460  0.2621  0.6931
 9336SOL     OW39466   4.136   4.694   8.392 -0.0723 -0.1182  0.4335
 9336SOL    HW139467   4.212   4.701   8.451  0.6306 -0.4589 -0.4380
 9336SOL    HW239468   4.110   0.063   8.385  3.1982  0.7797 -0.1607
 9337SOL     OW39469   0.381   1.009  10.294  0.2004 -0.1259 -0.1534
 9337SOL    HW139470   0.436   0.985  10.368  0.1779 -1.0139 -0.4238
 9337SOL    HW239471   0.443   1.040  10.229  0.8546 -1.4144 -0.1466
 9338SOL     OW39472   3.503   3.106   8.589  0.2206 -0.7915  0.7266
 9338SOL    HW139473   3.559   3.121   8.513  0.1903 -0.5229  0.7561
 9338SOL    HW239474   3.502   3.011   8.589 -1.9866 -0.7660  1.2473
 9339SOL     OW39475   0.536   1.160   7.375  0.4737  0.1428  0.0947
 9339SOL    HW139476   0.485   1.105   7.434 -0.0871 -0.8123 -1.2849
 9339SOL    HW239477   0.611   1.103   7.359  0.0763  0.5126 -3.1349
 9340SOL     OW39478   0.911   0.297  13.576  0.2590  0.0957 -0.0939
 9340SOL    HW139479   0.924   0.279  13.483 -1.3827 -2.5995  0.2080
 9340SOL    HW239480   0.821   0.289  13.608  0.5307 -0.3045  0.5797
 9341SOL     OW39481   1.969   4.207  12.078  0.5940  0.2326 -0.4459
 9341SOL    HW139482   1.938   4.136  12.022  2.5947 -2.4219  1.8568
 9341SOL    HW239483   2.006   4.159  12.152  0.1374  1.5422  0.6504
 9342SOL     OW39484   1.825   4.128   4.008  0.3715 -0.3807  0.5505
 9342SOL    HW139485   1.903   4.155   3.959 -0.9921  1.0903 -0.7753
 9342SOL    HW239486   1.767   4.132   3.932 -0.6452 -0.3704  1.3431
 9343SOL     OW39487   0.053   2.864   3.351 -0.5691  0.1388 -0.5265
 9343SOL    HW139488   0.053   2.883   3.445 -1.8879  1.9704 -0.8887
 9343SOL    HW239489   4.699   2.810   3.335 -0.2716 -0.3445 -0.3330
 9344SOL     OW39490   4.282   4.323   7.959  0.1064  0.1473  0.5018
 9344SOL    HW139491   4.256   4.410   7.988 -1.4370 -0.0311 -0.3900
 9344SOL    HW239492   4.198   4.285   7.935 -0.0888  0.2583  1.0126
 9345SOL     OW39493   0.682   2.572   6.141 -0.6557  0.5788 -0.2889
 9345SOL    HW139494   0.654   2.621   6.219  1.6170 -0.1105  0.9632
 9345SOL    HW239495   0.762   2.536   6.179 -0.9019  2.4545  2.0074
 9346SOL     OW39496   3.400   3.225   4.555 -0.6854  0.1753  0.0740
 9346SOL    HW139497   3.443   3.206   4.472 -1.7402  0.9105 -0.6455
 9346SOL    HW239498   3.466   3.279   4.598 -1.0175  0.7214 -0.0885
 9347SOL     OW39499   2.960   3.560  17.001  0.1185 -0.7804  0.0171
 9347SOL    HW139500   2.932   3.529  16.915  3.1735 -0.3458 -1.1373
 9347SOL    HW239501   2.890   3.618  17.031  0.2723 -0.5612 -0.0557
 9348SOL     OW39502   1.457   0.592   0.424 -0.4230  0.0864  0.4202
 9348SOL    HW139503   1.387   0.648   0.458 -0.0738  1.4857 -1.1511
 9348SOL    HW239504   1.535   0.619   0.474 -0.0408  0.8328 -0.5765
 9349SOL     OW39505   3.134   2.418  14.191  0.2889  0.0892  0.1733
 9349SOL    HW139506   3.127   2.491  14.130  0.6374  2.2813  2.7494
 9349SOL    HW239507   3.040   2.401  14.198  0.0427  1.8373  1.2212
 9350SOL     OW39508   1.839   1.992   3.273  0.1221  0.1689 -0.1091
 9350SOL    HW139509   1.784   1.987   3.195 -0.8622 -0.6567  0.6527
 9350SOL    HW239510   1.787   2.065   3.307 -1.1529 -0.9280  0.2524
 9351SOL     OW39511   1.284   3.642   8.057 -0.1071  0.4040 -0.3982
 9351SOL    HW139512   1.331   3.718   8.022 -0.3374 -0.0657 -1.7300
 9351SOL    HW239513   1.227   3.702   8.106 -2.0772 -0.3617 -1.7411
 9352SOL     OW39514   3.172   1.924   1.160 -0.5403 -0.2324 -0.4271
 9352SOL    HW139515   3.158   1.877   1.078 -0.0157 -0.6295 -0.2882
 9352SOL    HW239516   3.162   2.015   1.133  2.4686  0.1577 -0.2071
 9353SOL     OW39517   4.535   2.709  10.103  0.1903  0.4767  0.0356
 9353SOL    HW139518   4.573   2.785  10.148 -1.0646  0.1111  1.7120
 9353SOL    HW239519   4.591   2.709  10.025 -1.1186 -0.0325 -0.9009
 9354SOL     OW39520   1.494   4.101  11.798 -0.2124 -0.2211 -0.8031
 9354SOL    HW139521   1.480   4.182  11.749  0.8046  0.1933 -0.4020
 9354SOL    HW239522   1.529   4.142  11.877  0.4724  0.6292 -1.5489
 9355SOL     OW39523   1.643   3.405   0.268 -0.2802 -0.6255  0.7012
 9355SOL    HW139524   1.723   3.368   0.305  0.7755  2.2327  1.2428
 9355SOL    HW239525   1.677   3.458   0.196 -1.5450 -1.1785 -0.2974
 9356SOL     OW39526   0.459   4.248  15.932  0.2365 -0.0768  0.2460
 9356SOL    HW139527   0.369   4.280  15.935 -0.0087 -0.6218 -1.1751
 9356SOL    HW239528   0.457   4.214  15.842 -0.6165 -1.2231  0.7009
 9357SOL     OW39529   4.097   0.080   5.099 -0.3146 -0.0444 -0.2772
 9357SOL    HW139530   4.149   0.037   5.032  0.4710 -1.6286  1.3463
 9357SOL    HW239531   4.126   0.041   5.181  0.2752  0.6237 -0.1651
 9358SOL     OW39532   4.556   2.474   6.408 -0.0063 -0.2154 -0.7249
 9358SOL    HW139533   4.489   2.470   6.340  0.6435 -0.6618 -1.3502
 9358SOL    HW239534   4.513   2.484   6.492  1.3171  1.7834 -0.2934
 9359SOL     OW39535   2.414   1.132   8.353  0.2102  0.9346  0.5985
 9359SOL    HW139536   2.372   1.189   8.289  2.1438  0.1567 -1.3483
 9359SOL    HW239537   2.357   1.145   8.429 -3.5469  1.9809 -2.3952
 9360SOL     OW39538   0.335   0.473  13.111  0.2321 -0.3524 -0.2383
 9360SOL    HW139539   0.397   0.495  13.041 -0.3069  2.3098  0.1194
 9360SOL    HW239540   0.266   0.534  13.085 -0.3194 -0.1420  1.7447
 9361SOL     OW39541   0.898   2.876   2.767  0.2887  0.0008  0.1777
 9361SOL    HW139542   0.990   2.866   2.743 -0.1780  1.3231 -2.1391
 9361SOL    HW239543   0.899   2.969   2.791 -2.8087  0.1879 -0.3390
 9362SOL     OW39544   2.274   0.085   8.847  0.7632 -0.1251  0.0862
 9362SOL    HW139545   2.296   0.168   8.805 -1.6307  1.2162  1.4822
 9362SOL    HW239546   2.358   0.039   8.856 -0.0367 -1.6593 -0.3522
 9363SOL     OW39547   1.697   2.592   8.026  0.0224  0.2628 -0.2607
 9363SOL    HW139548   1.746   2.548   7.956  2.3734  0.5161  1.2209
 9363SOL    HW239549   1.757   2.590   8.101  2.2213  1.6956 -1.9798
 9364SOL     OW39550   0.262   3.758   8.529 -0.1378 -0.0051  0.1912
 9364SOL    HW139551   0.327   3.717   8.586  0.4450 -0.1175 -0.5483
 9364SOL    HW239552   0.240   3.833   8.584  3.5269 -0.1363  1.8529
 9365SOL     OW39553   2.605   0.750   6.169 -0.4500  0.3735 -0.4103
 9365SOL    HW139554   2.601   0.739   6.264  0.3807  0.3902 -0.3722
 9365SOL    HW239555   2.623   0.660   6.142 -2.4949 -0.5675  1.3846
 9366SOL     OW39556   0.283   2.936   6.946 -0.0886 -0.5133  0.0847
 9366SOL    HW139557   0.261   2.862   7.003 -1.8796  0.9430  1.2896
 9366SOL    HW239558   0.377   2.948   6.962 -0.4694  2.0481  0.5003
 9367SOL     OW39559   3.116   3.985  12.433 -0.2906 -0.3158  0.2581
 9367SOL    HW139560   3.128   3.915  12.497 -1.3903  0.6058  1.4922
 9367SOL    HW239561   3.027   3.966  12.405 -0.4214  2.1255 -1.0186
 9368SOL     OW39562   4.567   1.256   4.277  0.0176 -0.0626 -0.0489
 9368SOL    HW139563   4.634   1.290   4.217  0.8097 -0.4434  0.6243
 9368SOL    HW239564   4.567   1.327   4.341  0.1064 -2.5505  2.6475
 9369SOL     OW39565   3.896   3.991  12.894  0.1557 -0.3458  0.5421
 9369SOL    HW139566   3.906   3.943  12.977 -2.3260  0.6690  1.4210
 9369SOL    HW239567   3.961   4.061  12.897  1.0739 -1.2040  0.7256
 9370SOL     OW39568   0.367   1.716   6.405 -0.3974 -0.6379 -0.0358
 9370SOL    HW139569   0.459   1.735   6.424 -0.4782  0.7018 -0.9679
 9370SOL    HW239570   0.361   1.771   6.327  0.7584  1.7535  1.5595
 9371SOL     OW39571   1.592   0.905  10.663  0.6648  0.0102 -0.3412
 9371SOL    HW139572   1.535   0.868  10.730 -0.6647 -0.1219 -1.5308
 9371SOL    HW239573   1.675   0.862  10.684 -1.3239 -1.9751  3.2926
 9372SOL     OW39574   1.046   2.097  15.397  0.2203 -0.3938  0.0182
 9372SOL    HW139575   1.094   2.028  15.443  0.4076 -0.1630  0.1712
 9372SOL    HW239576   1.096   2.101  15.316 -0.4004 -0.6754 -0.3774
 9373SOL     OW39577   2.000   3.269   6.759 -0.7919  0.2332 -0.1450
 9373SOL    HW139578   2.048   3.344   6.795 -1.0341  1.2214 -1.9107
 9373SOL    HW239579   1.935   3.326   6.718 -2.3040 -0.5394  1.2107
 9374SOL     OW39580   2.341   2.714   1.547  0.2794 -0.0845 -0.1781
 9374SOL    HW139581   2.287   2.777   1.499  2.4031  0.4952 -1.8228
 9374SOL    HW239582   2.276   2.649   1.573 -0.6901  0.2329 -1.7978
 9375SOL     OW39583   3.398   0.921  15.308 -0.1773 -0.7025 -0.7184
 9375SOL    HW139584   3.493   0.934  15.313 -0.1815 -0.2444 -1.8303
 9375SOL    HW239585   3.374   0.901  15.398 -0.3143 -1.0081 -0.8238
 9376SOL     OW39586   3.326   0.171  12.580  0.3910  0.5211 -0.2509
 9376SOL    HW139587   3.312   0.242  12.518 -1.7884  0.3421  0.0327
 9376SOL    HW239588   3.420   0.162  12.561  0.8811  0.5198  2.1607
 9377SOL     OW39589   4.362   2.913  16.996  0.2830  0.3835  0.2502
 9377SOL    HW139590   4.445   2.879  16.961 -0.0370  0.1751 -0.2984
 9377SOL    HW239591   4.315   2.830  17.006 -3.0067  2.2265 -0.1336
 9378SOL     OW39592   0.138   1.568   6.439  0.8118 -0.6113 -0.8548
 9378SOL    HW139593   0.126   1.620   6.519  2.7157 -1.9435  0.2675
 9378SOL    HW239594   0.217   1.615   6.412  0.5223  1.0283  1.0953
 9379SOL     OW39595   4.142   3.773  11.990 -0.3954 -0.3682  0.1155
 9379SOL    HW139596   4.205   3.801  11.923  0.6383 -0.0728  1.2236
 9379SOL    HW239597   4.079   3.844  12.001 -1.4993 -1.1634 -1.0793
 9380SOL     OW39598   1.980   2.375   5.817  0.7033  0.4744  0.0702
 9380SOL    HW139599   1.959   2.461   5.779 -1.0006 -0.4504 -1.1018
 9380SOL    HW239600   1.934   2.314   5.758  3.3177 -0.0271 -1.4437
 9381SOL     OW39601   4.239   1.085  11.364 -0.7091  0.5634  0.2303
 9381SOL    HW139602   4.234   1.013  11.300 -2.0508 -2.2178  3.4509
 9381SOL    HW239603   4.187   1.048  11.435 -2.4773 -1.4213 -2.0678
 9382SOL     OW39604   0.984   0.212  17.017 -0.0812  0.1790  0.4476
 9382SOL    HW139605   0.923   0.284  17.031  0.7568  1.0316 -0.2479
 9382SOL    HW239606   1.035   0.222  17.097  0.5822 -0.2319  0.0823
 9383SOL     OW39607   0.061   3.933   9.129  0.1710 -0.2133 -0.0234
 9383SOL    HW139608   4.701   3.934   9.081  0.8759 -0.0936 -1.2632
 9383SOL    HW239609   0.034   3.923   9.220  1.4467  3.3862  0.7350
 9384SOL     OW39610   3.141   1.083  12.067 -0.2566 -0.2062  0.2412
 9384SOL    HW139611   3.079   1.021  12.105 -0.8784 -0.2267 -0.8300
 9384SOL    HW239612   3.156   1.136  12.146 -0.6911 -0.1493  0.2882
 9385SOL     OW39613   2.394   4.426   4.712  0.2081  0.2875  0.5135
 9385SOL    HW139614   2.427   4.454   4.627 -1.4199 -0.4800 -0.3732
 9385SOL    HW239615   2.457   4.366   4.752  0.1847 -0.4648 -0.5791
 9386SOL     OW39616   4.496   3.141   4.633 -0.1745 -0.0855 -0.6670
 9386SOL    HW139617   4.571   3.083   4.618  1.3747  1.1090  2.3808
 9386SOL    HW239618   4.429   3.077   4.658  2.6180 -2.8420 -0.2595
 9387SOL     OW39619   0.508   4.669  17.675  0.3816 -0.0080 -0.3886
 9387SOL    HW139620   0.556   4.665   0.063  0.9591  3.6258 -0.5450
 9387SOL    HW239621   0.542   4.589  17.634 -0.0706 -0.8216  0.8208
 9388SOL     OW39622   1.604   3.077  14.120  0.1351  0.3901 -0.2832
 9388SOL    HW139623   1.560   2.995  14.098  0.1880  0.8474 -2.1201
 9388SOL    HW239624   1.609   3.115  14.032  0.2856  0.0325 -0.4298
 9389SOL     OW39625   3.929   3.182   4.088  0.5785 -0.0732 -0.0524
 9389SOL    HW139626   3.988   3.252   4.116 -1.4935  1.0381  1.5803
 9389SOL    HW239627   3.955   3.119   4.155 -0.7342 -0.5350  0.0322
 9390SOL     OW39628   1.824   2.710   8.943  0.4540  0.5977  0.6780
 9390SOL    HW139629   1.755   2.768   8.910  0.5671  0.0879 -0.4591
 9390SOL    HW239630   1.857   2.675   8.860 -1.3766 -1.5705  0.8910
 9391SOL     OW39631   0.438   0.898  12.392  0.9054  0.0138 -0.1566
 9391SOL    HW139632   0.363   0.863  12.344 -0.7419  0.1174  2.3143
 9391SOL    HW239633   0.463   0.964  12.327 -0.0165 -0.1907 -0.7099
 9392SOL     OW39634   0.634   1.933   7.290 -0.5962  0.0338  0.0517
 9392SOL    HW139635   0.626   1.876   7.366 -0.3314  0.8333  0.6851
 9392SOL    HW239636   0.695   1.876   7.244  0.4189  0.7555  0.5142
 9393SOL     OW39637   3.707   1.257  10.951  0.2631 -0.1922 -0.0308
 9393SOL    HW139638   3.711   1.226  11.041  4.2147 -1.1595 -0.5433
 9393SOL    HW239639   3.799   1.283  10.938 -0.1219 -0.5938 -3.4732
 9394SOL     OW39640   0.724   3.986   5.936 -0.0343  0.3615  0.7946
 9394SOL    HW139641   0.680   4.025   6.012  0.7709 -0.8313  1.8807
 9394SOL    HW239642   0.713   4.062   5.880  0.2097  0.2194  0.5526
 9395SOL     OW39643   3.528   3.796   5.489 -0.0522  0.0788 -0.1556
 9395SOL    HW139644   3.541   3.729   5.556  1.0431 -0.6415 -1.0764
 9395SOL    HW239645   3.577   3.872   5.520  1.3674 -0.3987 -1.2426
 9396SOL     OW39646   1.817   1.310   0.221  0.2309  0.3317  0.8127
 9396SOL    HW139647   1.722   1.308   0.208  0.2792 -1.4046  0.7474
 9396SOL    HW239648   1.842   1.360   0.143  1.7646 -1.3087  0.2395
 9397SOL     OW39649   3.136   1.844   3.530  0.1019  0.2739 -0.2733
 9397SOL    HW139650   3.073   1.775   3.510  0.5290 -0.3600  0.5870
 9397SOL    HW239651   3.206   1.783   3.556 -0.6882 -0.7015 -0.4425
 9398SOL     OW39652   1.698   3.064  12.296  0.1143  0.1540 -0.0120
 9398SOL    HW139653   1.646   3.122  12.350  0.6973  1.3286 -0.7152
 9398SOL    HW239654   1.749   3.127  12.245  1.1896  0.0607  0.9511
 9399SOL     OW39655   3.510   1.370   7.724 -0.3032 -0.1255 -0.1426
 9399SOL    HW139656   3.563   1.322   7.661  1.0192  0.7585  0.2867
 9399SOL    HW239657   3.454   1.301   7.759  1.8897 -3.1959 -2.7458
 9400SOL     OW39658   1.906   0.512  12.464 -0.5288  0.2779  0.3998
 9400SOL    HW139659   1.926   0.581  12.401 -1.3515  1.4023  1.3665
 9400SOL    HW239660   1.949   0.554  12.538  0.4961 -2.4056  1.3300
 9401SOL     OW39661   3.021   0.665   7.926 -0.7529  0.4019  0.0815
 9401SOL    HW139662   2.930   0.666   7.896 -0.8035 -0.9349  0.1933
 9401SOL    HW239663   3.022   0.674   8.021  1.6372 -0.9733  0.1681
 9402SOL     OW39664   2.504   2.302   6.224  0.4371  0.7206 -0.1859
 9402SOL    HW139665   2.467   2.321   6.137 -0.4402  1.5183  0.3565
 9402SOL    HW239666   2.593   2.326   6.200  0.3596  0.1317 -1.0774
 9403SOL     OW39667   4.391   2.355   8.163  0.1885 -0.5002  0.0326
 9403SOL    HW139668   4.485   2.344   8.181  0.1902  0.7778  0.8166
 9403SOL    HW239669   4.350   2.308   8.236  2.3975  0.3501  1.8283
 9404SOL     OW39670   3.180   0.209   7.236  0.4526  0.3221  0.3701
 9404SOL    HW139671   3.148   0.124   7.207  1.2773 -0.0722  0.6008
 9404SOL    HW239672   3.222   0.175   7.316  1.0772  1.0146  0.3377
 9405SOL     OW39673   4.329   3.247   4.836  0.1956  0.0224  0.5667
 9405SOL    HW139674   4.420   3.219   4.842  0.5700  1.1246 -0.0691
 9405SOL    HW239675   4.315   3.296   4.755 -1.7721  0.2420  1.0228
 9406SOL     OW39676   3.925   0.784   4.471  0.4566  0.4942 -0.3836
 9406SOL    HW139677   4.016   0.797   4.444  1.0475 -1.7592  0.5101
 9406SOL    HW239678   3.905   0.711   4.413 -0.8729 -0.5319  1.3724
 9407SOL     OW39679   2.195   2.392   7.122 -0.0688  0.9135  0.2297
 9407SOL    HW139680   2.202   2.473   7.173 -0.8989  1.6445 -0.8086
 9407SOL    HW239681   2.120   2.417   7.068 -1.2083 -1.3097  0.7742
 9408SOL     OW39682   1.099   1.583   2.277  0.1614 -0.3485 -0.5443
 9408SOL    HW139683   1.096   1.487   2.276 -0.6113 -0.2758 -3.3947
 9408SOL    HW239684   1.033   1.602   2.211 -1.5716 -0.2025  1.2116
 9409SOL     OW39685   3.023   4.357   5.027  0.0158  0.5989  0.0453
 9409SOL    HW139686   2.989   4.441   4.995 -0.1310  0.3183 -0.5384
 9409SOL    HW239687   3.063   4.384   5.110 -0.4095  1.1910  0.0661
 9410SOL     OW39688   4.144   0.923  10.942  0.6208 -0.1499 -0.1953
 9410SOL    HW139689   4.112   0.987  11.006  3.0016 -0.6469  1.4887
 9410SOL    HW239690   4.127   0.981  10.868 -1.4220  0.8837  1.0661
 9411SOL     OW39691   1.420   0.381   5.850  0.3974  0.0649 -0.2002
 9411SOL    HW139692   1.437   0.440   5.924  0.1041  0.0304 -0.1033
 9411SOL    HW239693   1.502   0.333   5.858 -1.5492 -3.3035 -0.3001
 9412SOL     OW39694   4.279   1.374   7.125 -0.0656 -0.1785  0.6379
 9412SOL    HW139695   4.313   1.395   7.038 -2.2480 -2.2138 -0.7062
 9412SOL    HW239696   4.336   1.300   7.144  0.9316 -0.1428 -2.1998
 9413SOL     OW39697   1.991   1.489   1.597  0.5841 -0.5124 -0.0850
 9413SOL    HW139698   2.073   1.482   1.646  0.0699 -3.4894  0.3604
 9413SOL    HW239699   1.942   1.417   1.638 -0.3055  0.4638  0.5560
 9414SOL     OW39700   4.395   3.896   5.082  0.5814 -0.1123  0.2645
 9414SOL    HW139701   4.428   3.823   5.029 -0.5855  1.5440 -2.8035
 9414SOL    HW239702   4.303   3.904   5.056  1.3742  2.4848 -1.6868
 9415SOL     OW39703   1.081   1.792  10.032 -0.2977  0.3400  0.1513
 9415SOL    HW139704   1.026   1.855   9.986 -0.1042  1.6141  1.6607
 9415SOL    HW239705   1.166   1.836  10.040 -0.0699  0.1262 -1.0873
 9416SOL     OW39706   0.601   0.593   6.315  0.1182  0.3703 -0.3693
 9416SOL    HW139707   0.584   0.634   6.400  0.7267  1.1414 -0.6196
 9416SOL    HW239708   0.563   0.663   6.262 -0.5863  0.3474  0.0988
 9417SOL     OW39709   2.583   1.032   5.463  0.5029 -0.0201 -0.8195
 9417SOL    HW139710   2.588   0.941   5.493 -0.7979  0.0999 -0.2281
 9417SOL    HW239711   2.558   1.073   5.546 -0.3282  0.1634 -1.1540
 9418SOL     OW39712   1.890   0.698  11.184  0.0486 -0.0441  0.1485
 9418SOL    HW139713   1.833   0.711  11.108  0.6617  0.4146 -0.2341
 9418SOL    HW239714   1.970   0.750  11.170  0.0262 -0.2731 -0.8476
 9419SOL     OW39715   0.544   3.766   6.220 -0.4527 -0.7881 -0.2821
 9419SOL    HW139716   0.570   3.749   6.310  0.4648  1.3794 -0.1480
 9419SOL    HW239717   0.495   3.846   6.240 -1.7555 -0.6890 -3.8210
 9420SOL     OW39718   2.432   1.534   7.851 -0.2767 -0.1028 -0.1388
 9420SOL    HW139719   2.521   1.546   7.819 -0.0982 -3.5236 -0.9378
 9420SOL    HW239720   2.385   1.534   7.768 -1.3746  0.8389  0.4699
 9421SOL     OW39721   4.162   0.159   7.072  0.3353 -0.1216 -0.4035
 9421SOL    HW139722   4.186   0.167   6.980 -0.1814  0.0432 -0.5187
 9421SOL    HW239723   4.225   0.221   7.109  1.4208 -1.9140  0.7774
 9422SOL     OW39724   3.868   1.158   6.101  0.1383 -0.2444 -0.4155
 9422SOL    HW139725   3.870   1.240   6.052 -1.0788 -0.1033 -0.2240
 9422SOL    HW239726   3.887   1.201   6.185 -1.1752 -0.8104  0.1688
 9423SOL     OW39727   0.600   1.338  11.691 -0.0931 -0.2316  0.0004
 9423SOL    HW139728   0.554   1.390  11.625  1.8675  1.3617 -0.1106
 9423SOL    HW239729   0.610   1.255  11.644 -0.3944 -1.3825  1.9648
 9424SOL     OW39730   4.336   3.732   9.055  0.5605  0.8000 -1.1321
 9424SOL    HW139731   4.272   3.782   9.104 -0.4949 -0.4223 -1.2902
 9424SOL    HW239732   4.282   3.660   9.024  1.8705 -1.1155  1.0982
 9425SOL     OW39733   0.788   1.288   5.574 -0.3571 -0.0981  0.1835
 9425SOL    HW139734   0.854   1.321   5.512 -1.5675 -2.6750 -2.4947
 9425SOL    HW239735   0.826   1.214   5.621 -1.3636 -1.2605 -0.8377
 9426SOL     OW39736   0.352   3.728   3.350  0.4871 -0.3538  0.2751
 9426SOL    HW139737   0.311   3.760   3.269  0.4245  1.9601  1.2167
 9426SOL    HW239738   0.282   3.727   3.415  0.5902 -0.6814  0.3809
 9427SOL     OW39739   4.177   0.298   1.025 -0.3053  0.1373  0.2856
 9427SOL    HW139740   4.124   0.349   0.964  0.6935 -1.6211 -2.0202
 9427SOL    HW239741   4.143   0.210   1.015 -0.7074  0.5873 -2.3078
 9428SOL     OW39742   2.786   0.213   4.932 -0.4351  0.2270 -0.1365
 9428SOL    HW139743   2.714   0.217   4.869 -1.1256  1.5993  0.7325
 9428SOL    HW239744   2.741   0.278   4.987 -1.7526  0.0385 -0.9757
 9429SOL     OW39745   2.531   2.980   4.042  0.9746  0.1017  0.1535
 9429SOL    HW139746   2.578   2.898   4.025 -2.2532 -1.1748 -2.5529
 9429SOL    HW239747   2.488   2.960   4.125 -3.4072  1.2286 -1.8354
 9430SOL     OW39748   2.399   4.407   9.400  0.5505 -0.9838 -0.3520
 9430SOL    HW139749   2.379   4.319   9.367 -0.5710 -0.7346 -0.3187
 9430SOL    HW239750   2.492   4.416   9.379 -0.0613  0.2279 -2.5267
 9431SOL     OW39751   3.081   3.971   8.195 -0.7338  0.0996 -0.6100
 9431SOL    HW139752   3.066   4.037   8.262 -1.4691 -0.0335 -0.6420
 9431SOL    HW239753   3.176   3.970   8.189 -0.7219 -1.5029 -0.2198
 9432SOL     OW39754   3.616   2.730  13.145 -0.2963 -0.7444  0.4720
 9432SOL    HW139755   3.613   2.819  13.111  0.6274 -0.0348  2.2414
 9432SOL    HW239756   3.537   2.721  13.198 -2.6791  1.5419 -2.7291
 9433SOL     OW39757   3.690   3.438  15.864  0.1438  0.2199  0.0269
 9433SOL    HW139758   3.637   3.459  15.787  1.8936 -0.3847 -1.3483
 9433SOL    HW239759   3.778   3.414  15.835 -0.0860 -1.1565  0.4727
 9434SOL     OW39760   2.962   3.448  11.094  0.2889 -0.4408  0.0548
 9434SOL    HW139761   2.986   3.487  11.178 -0.5673  1.5971 -0.6324
 9434SOL    HW239762   2.867   3.452  11.105  0.1697 -1.4445 -0.6576
 9435SOL     OW39763   0.901   3.615   0.166  0.6282  0.0658 -0.2328
 9435SOL    HW139764   0.983   3.616   0.116 -0.5194  0.0953 -2.1237
 9435SOL    HW239765   0.901   3.705   0.198 -0.9174  0.2324 -0.6758
 9436SOL     OW39766   2.098   2.952   7.115 -0.1713 -0.4523  0.0617
 9436SOL    HW139767   2.160   3.018   7.145  0.0936 -0.2936 -0.8096
 9436SOL    HW239768   2.084   2.894   7.190  0.4501  1.8415  1.9497
 9437SOL     OW39769   2.147   3.428   0.951  0.2347  0.3901  0.7775
 9437SOL    HW139770   2.072   3.378   0.985  0.7398  0.0330  1.3571
 9437SOL    HW239771   2.172   3.362   0.886  1.3752  0.6249  0.9957
 9438SOL     OW39772   2.784   3.936   9.253  0.3569 -0.1131  0.3603
 9438SOL    HW139773   2.809   3.970   9.339 -0.7008 -0.1141  0.6635
 9438SOL    HW239774   2.758   3.845   9.271 -1.1554  0.0308 -1.1026
 9439SOL     OW39775   0.255   0.562   4.129  0.0824  0.2982 -0.0978
 9439SOL    HW139776   0.288   0.545   4.040 -1.4518  0.7269 -0.7510
 9439SOL    HW239777   0.216   0.648   4.113  1.0363  0.7214 -0.1092
 9440SOL     OW39778   0.967   3.481   7.629 -0.0928  0.5678  0.5838
 9440SOL    HW139779   1.003   3.394   7.650 -1.8705 -0.5745 -1.1124
 9440SOL    HW239780   0.889   3.466   7.577 -1.2447  0.8351  2.2195
 9441SOL     OW39781   3.039   2.581   5.836 -0.2172  0.0993 -0.0006
 9441SOL    HW139782   2.981   2.509   5.859 -0.9340  0.6406 -0.1010
 9441SOL    HW239783   3.085   2.539   5.763  0.0233  2.0771 -0.9953
 9442SOL     OW39784   1.199   4.525   6.632  1.0232 -0.6270 -0.7037
 9442SOL    HW139785   1.208   4.604   6.578  1.1041 -0.1809 -0.0303
 9442SOL    HW239786   1.292   4.511   6.650  1.0262  1.6405  0.9951
 9443SOL     OW39787   0.549   2.313   0.437 -0.4914  0.0683 -0.5858
 9443SOL    HW139788   0.602   2.387   0.409 -1.8391  1.1966 -0.1555
 9443SOL    HW239789   0.515   2.347   0.520  3.2212 -1.8390  1.6934
 9444SOL     OW39790   2.202   0.704  11.984  0.5556  0.1144  0.2074
 9444SOL    HW139791   2.244   0.779  12.027 -1.0074  0.7882  0.5645
 9444SOL    HW239792   2.139   0.756  11.935  1.7643 -1.2947 -2.8244
 9445SOL     OW39793   0.397   1.589   3.005  0.1580 -0.5223 -0.0550
 9445SOL    HW139794   0.436   1.676   3.013 -2.3823  0.6722 -0.8640
 9445SOL    HW239795   0.304   1.608   2.997  0.2913  0.3059  0.4257
 9446SOL     OW39796   3.280   2.830   7.163 -0.6025 -0.2627 -0.1542
 9446SOL    HW139797   3.360   2.853   7.211  0.0593 -0.1583 -1.3194
 9446SOL    HW239798   3.316   2.755   7.116 -0.7858  0.2315 -1.0752
 9447SOL     OW39799   2.004   2.485  13.337 -0.2025  0.1861 -0.2278
 9447SOL    HW139800   2.052   2.447  13.264  0.9221  1.6048 -0.2341
 9447SOL    HW239801   1.945   2.417  13.369 -1.3024  1.1934 -0.0609
 9448SOL     OW39802   0.368   1.218  13.977 -0.0943  0.4262 -0.4421
 9448SOL    HW139803   0.285   1.194  13.936 -0.5111  0.1821  0.5497
 9448SOL    HW239804   0.336   1.276  14.046 -0.5927 -0.3310 -0.0397
 9449SOL     OW39805   2.171   4.551   1.327  0.4076 -0.2792 -0.4600
 9449SOL    HW139806   2.154   4.487   1.397 -0.0887  2.8379  2.2871
 9449SOL    HW239807   2.246   4.596   1.367  1.0425 -0.6432 -1.2401
 9450SOL     OW39808   4.701   0.263   8.192  0.9427  0.3568  0.2129
 9450SOL    HW139809   0.011   0.210   8.119 -0.6371 -4.1122  2.7198
 9450SOL    HW239810   4.688   0.197   8.260 -1.9384 -0.5616 -1.1983
 9451SOL     OW39811   0.398   2.897   4.361 -0.1375  0.1981 -0.0545
 9451SOL    HW139812   0.449   2.829   4.405 -2.8252 -0.6364  1.7622
 9451SOL    HW239813   0.458   2.969   4.340  0.9183 -0.4190  0.7939
 9452SOL     OW39814   2.574   2.778  16.426  0.1000  0.1641  0.4216
 9452SOL    HW139815   2.636   2.740  16.364 -0.2068 -1.7278  1.2816
 9452SOL    HW239816   2.643   2.815  16.481  1.0222 -0.4008 -0.3497
 9453SOL     OW39817   0.680   0.567  10.018 -0.3309 -0.3348  0.4106
 9453SOL    HW139818   0.632   0.650  10.012 -1.8568 -1.2767 -0.3554
 9453SOL    HW239819   0.768   0.604  10.016 -0.2915 -0.4320  0.3588
 9454SOL     OW39820   4.416   2.192  12.187 -0.1624  0.4511 -0.3052
 9454SOL    HW139821   4.508   2.214  12.202  0.3445 -1.0001 -1.2850
 9454SOL    HW239822   4.401   2.136  12.262 -2.4456  2.5676  0.8220
 9455SOL     OW39823   0.738   3.594   8.386  0.4720  0.2950 -0.3367
 9455SOL    HW139824   0.723   3.687   8.401  1.4160  0.5699 -1.0628
 9455SOL    HW239825   0.695   3.557   8.464 -0.4118  0.9402 -0.5199
 9456SOL     OW39826   3.662   0.347   7.628  1.0973  0.2383  0.0310
 9456SOL    HW139827   3.599   0.287   7.669  2.7899 -1.4368  0.2247
 9456SOL    HW239828   3.671   0.408   7.702  3.0836  0.5904 -0.5115
 9457SOL     OW39829   2.828   4.610   6.047 -0.0104  0.5420 -0.2434
 9457SOL    HW139830   2.866   4.594   6.134  0.2258 -0.5699 -0.5478
 9457SOL    HW239831   2.904   4.655   6.009  0.7291 -1.0102 -0.6012
 9458SOL     OW39832   1.108   0.198   7.217 -0.5762  0.4538 -0.0016
 9458SOL    HW139833   1.070   0.240   7.293  0.9349  0.6947  0.6282
 9458SOL    HW239834   1.055   0.240   7.149 -1.3270 -2.0935 -1.0111
 9459SOL     OW39835   0.714   0.084   5.888  0.6943  0.1947  0.1811
 9459SOL    HW139836   0.804   0.057   5.870  1.0752  3.4470 -2.8453
 9459SOL    HW239837   0.712   0.080   5.983  1.0236 -0.6362  0.1563
 9460SOL     OW39838   3.013   3.830   9.055  0.2372  0.3082 -0.4698
 9460SOL    HW139839   3.014   3.744   9.096 -0.7444 -0.0559 -1.2126
 9460SOL    HW239840   2.987   3.879   9.133  0.6430  0.0793 -0.1914
 9461SOL     OW39841   1.132   1.752   3.947  0.5233  0.1113 -0.0133
 9461SOL    HW139842   1.138   1.845   3.971 -0.0804  0.7435 -2.3281
 9461SOL    HW239843   1.059   1.754   3.885  1.1951  0.2382 -0.7875
 9462SOL     OW39844   3.437   2.808   6.891  0.2001 -0.6964  0.3540
 9462SOL    HW139845   3.453   2.830   6.799  0.4366 -1.5357  0.1958
 9462SOL    HW239846   3.364   2.870   6.902 -0.0190 -0.7301 -0.8656
 9463SOL     OW39847   2.917   3.403   7.485  0.1531 -0.2081  0.1151
 9463SOL    HW139848   2.913   3.497   7.469 -0.3322 -0.1251  0.7253
 9463SOL    HW239849   2.913   3.398   7.581  1.1570  0.2292  0.1836
 9464SOL     OW39850   0.786   2.146   1.489  0.1712  0.6265  0.1791
 9464SOL    HW139851   0.771   2.110   1.576  3.6585 -1.0027  0.1045
 9464SOL    HW239852   0.880   2.139   1.475  0.4158 -1.3084  2.8054
 9465SOL     OW39853   4.128   0.944   3.071 -0.5947 -0.0656 -0.6509
 9465SOL    HW139854   4.105   0.970   2.982 -2.0327  0.4132 -0.1340
 9465SOL    HW239855   4.213   0.988   3.076 -1.1214  1.1050 -2.0071
 9466SOL     OW39856   0.832   1.892   0.580  0.0658  0.0818  0.7926
 9466SOL    HW139857   0.867   1.933   0.659  1.4155  1.8585 -0.6960
 9466SOL    HW239858   0.911   1.900   0.525  0.1359 -0.4128  0.8239
 9467SOL     OW39859   1.080   0.875   8.060  0.5936  0.2171  0.0791
 9467SOL    HW139860   1.119   0.924   8.131  0.1219  0.0686  0.4387
 9467SOL    HW239861   1.135   0.798   8.045  0.6539  0.5493 -1.4190
 9468SOL     OW39862   0.773   0.400  17.350  0.1507  0.1068 -0.5848
 9468SOL    HW139863   0.848   0.354  17.386  0.9639  1.4156 -0.5859
 9468SOL    HW239864   0.800   0.419  17.260  1.4567  0.6265 -0.0786
 9469SOL     OW39865   3.781   4.655   8.407 -0.2711 -0.3311  0.3708
 9469SOL    HW139866   3.867   4.648   8.448  0.5535  0.1602 -1.2755
 9469SOL    HW239867   3.735   0.003   8.451 -0.7693 -0.7400  0.5164
 9470SOL     OW39868   4.370   1.922   2.659  0.0901  0.0351  0.3070
 9470SOL    HW139869   4.428   1.955   2.727 -0.0691 -2.6693  1.7653
 9470SOL    HW239870   4.289   1.969   2.677  0.3064  0.2233  0.7794
 9471SOL     OW39871   2.741   0.419   8.124 -0.8522 -0.0290 -0.1256
 9471SOL    HW139872   2.702   0.339   8.160 -0.1602 -0.8143 -1.1391
 9471SOL    HW239873   2.776   0.463   8.202  1.0949 -1.9621  0.0654
 9472SOL     OW39874   2.088   0.756   4.454 -0.2831 -0.0079 -0.1748
 9472SOL    HW139875   2.039   0.742   4.535  0.4880  0.6307  0.4071
 9472SOL    HW239876   2.034   0.827   4.420 -1.5268 -1.0630 -0.3855
 9473SOL     OW39877   2.017   3.564   9.177  0.4999 -0.4191  0.4655
 9473SOL    HW139878   2.090   3.503   9.181  0.4052 -0.5065  0.9775
 9473SOL    HW239879   1.960   3.523   9.112  0.5461 -1.7384  1.2626
 9474SOL     OW39880   4.054   1.676   8.416 -0.4282  0.3768  0.2891
 9474SOL    HW139881   3.998   1.724   8.477  0.1691  1.5464 -0.0757
 9474SOL    HW239882   4.099   1.748   8.372 -1.1105 -1.7154 -3.7883
 9475SOL     OW39883   2.559   1.132   2.829  0.4832  0.5298  0.5041
 9475SOL    HW139884   2.607   1.160   2.750 -0.0027  2.7460  0.9874
 9475SOL    HW239885   2.534   1.041   2.813 -2.0365  1.4774 -1.0070
 9476SOL     OW39886   3.983   4.032   3.168 -0.3910 -0.1765  0.0935
 9476SOL    HW139887   4.047   4.073   3.110 -2.1905 -0.3677 -2.0502
 9476SOL    HW239888   4.024   4.039   3.254 -0.7113  2.1602  0.0641
 9477SOL     OW39889   2.901   0.279   5.621  0.0682  0.3792  0.0554
 9477SOL    HW139890   2.932   0.322   5.541 -2.3374  0.1565 -0.9990
 9477SOL    HW239891   2.807   0.278   5.603 -0.0021  0.3549  0.4230
 9478SOL     OW39892   3.943   0.159   3.958 -0.4612 -0.0689 -0.5753
 9478SOL    HW139893   4.014   0.157   4.021  0.0942  1.3954 -1.1408
 9478SOL    HW239894   3.971   0.230   3.900  0.0631 -0.3366 -0.6472
 9479SOL     OW39895   4.182   3.289   9.159 -0.3740 -0.7429  0.1863
 9479SOL    HW139896   4.227   3.357   9.109 -2.7234 -0.7384 -1.9183
 9479SOL    HW239897   4.173   3.317   9.250  3.0201 -0.0824  0.3280
 9480SOL     OW39898   2.115   2.132   5.651  0.2721  0.2471  0.0455
 9480SOL    HW139899   2.208   2.154   5.653  0.4218 -0.7704  3.1318
 9480SOL    HW239900   2.094   2.160   5.562  0.4779 -0.3424 -0.1823
 9481SOL     OW39901   1.650   3.829   6.422  0.5151  0.0067 -0.3080
 9481SOL    HW139902   1.664   3.808   6.329  1.9726  2.0636 -0.5383
 9481SOL    HW239903   1.731   3.877   6.441  0.5757 -0.4176  0.4931
 9482SOL     OW39904   4.227   4.054   5.548 -0.1052 -0.0108 -0.3131
 9482SOL    HW139905   4.286   4.031   5.475  1.2345 -1.2359  1.1545
 9482SOL    HW239906   4.245   4.146   5.565  0.5106  0.2722 -2.4284
 9483SOL     OW39907   2.306   2.573   3.124  0.6401  0.3075 -0.0821
 9483SOL    HW139908   2.343   2.635   3.060 -0.8751  0.4537 -0.8040
 9483SOL    HW239909   2.233   2.625   3.157  0.7758  0.6443 -0.3074
 9484SOL     OW39910   0.437   3.087   3.252  0.6666 -0.6594 -0.2496
 9484SOL    HW139911   0.365   3.088   3.190  1.5317  1.3826 -1.2330
 9484SOL    HW239912   0.398   3.113   3.336  1.2439  0.7325 -0.4091
 9485SOL     OW39913   2.165   2.926   8.308  0.3177 -0.2675 -0.4680
 9485SOL    HW139914   2.177   3.011   8.350  3.0877 -0.7285 -0.3275
 9485SOL    HW239915   2.236   2.935   8.245  1.5435  1.7842  1.1970
 9486SOL     OW39916   0.475   2.320   4.026  0.0564  0.2764  0.3062
 9486SOL    HW139917   0.507   2.323   3.935  0.5870  0.6178  0.5064
 9486SOL    HW239918   0.554   2.320   4.079  0.8313  1.2307 -0.8415
 9487SOL     OW39919   2.452   1.677   6.367 -0.3680  0.4403 -0.2225
 9487SOL    HW139920   2.546   1.673   6.379 -0.4565  3.1734  1.2121
 9487SOL    HW239921   2.440   1.702   6.275  0.2490 -2.3361 -1.0645
 9488SOL     OW39922   4.412   3.270  16.077 -0.4035 -0.0687 -0.2079
 9488SOL    HW139923   4.356   3.248  16.152 -1.5347  0.5436 -0.8826
 9488SOL    HW239924   4.429   3.179  16.053  2.5777  0.1097  1.1983
 9489SOL     OW39925   1.957   0.538  11.562  0.0624 -0.1607  0.6942
 9489SOL    HW139926   2.048   0.519  11.542  0.1698  1.0037  0.0719
 9489SOL    HW239927   1.914   0.507  11.481  1.6718  0.6515 -0.4579
 9490SOL     OW39928   0.217   0.230   5.172  0.1208  0.0271  0.5103
 9490SOL    HW139929   0.287   0.295   5.175  1.4859 -1.4968  1.2769
 9490SOL    HW239930   0.263   0.185   5.101  0.3584  0.7519  0.1981
 9491SOL     OW39931   0.367   1.710  11.261  0.2045  0.8699 -0.7879
 9491SOL    HW139932   0.453   1.682  11.232  0.2373  1.6733 -1.4914
 9491SOL    HW239933   0.352   1.781  11.198 -1.1745  1.3185  0.0309
 9492SOL     OW39934   3.265   1.168   4.078 -0.1749 -0.0827 -0.2179
 9492SOL    HW139935   3.318   1.112   4.134 -0.4538 -1.9003 -1.7692
 9492SOL    HW239936   3.200   1.199   4.140 -0.7149 -2.4591  0.4068
 9493SOL     OW39937   2.548   4.435   6.751 -0.6905  0.8438 -0.2766
 9493SOL    HW139938   2.593   4.466   6.829 -1.1203 -2.3807  1.2222
 9493SOL    HW239939   2.618   4.386   6.708 -0.4427 -0.7936  1.9858
 9494SOL     OW39940   0.888   3.726   0.499  0.1557  0.3198  0.2549
 9494SOL    HW139941   0.955   3.678   0.450  0.3491  3.0708 -2.1517
 9494SOL    HW239942   0.858   3.781   0.427  0.2928 -0.7815 -0.6363
 9495SOL     OW39943   3.220   1.337  12.566 -0.0413  0.1869 -0.0302
 9495SOL    HW139944   3.133   1.368  12.593 -0.3399 -1.5082  0.9216
 9495SOL    HW239945   3.287   1.397  12.599  0.7981 -0.1573 -1.1053
 9496SOL     OW39946   3.236   3.265   3.276 -0.0982 -0.2734 -0.2308
 9496SOL    HW139947   3.168   3.276   3.210 -0.3884  1.4475  0.3598
 9496SOL    HW239948   3.181   3.231   3.347 -0.1201 -1.4397 -0.7944
 9497SOL     OW39949   0.880   2.253  13.921 -0.0467  0.2051  0.5315
 9497SOL    HW139950   0.794   2.269  13.960 -1.3579 -1.1570 -1.8026
 9497SOL    HW239951   0.914   2.342  13.912 -0.4142  0.2404 -0.5348
 9498SOL     OW39952   4.370   2.389   4.370 -0.0342 -0.4215  0.1955
 9498SOL    HW139953   4.389   2.421   4.282  0.9714 -2.0922 -0.2035
 9498SOL    HW239954   4.379   2.469   4.423  0.5127  0.3017 -0.9975
 9499SOL     OW39955   2.060   0.662   7.383  0.2391 -0.4114  0.5281
 9499SOL    HW139956   1.973   0.643   7.418  0.3103 -0.4756  0.6693
 9499SOL    HW239957   2.089   0.578   7.348  0.3025 -1.6191  3.5256
 9500SOL     OW39958   3.702   4.074   3.080 -0.7593 -0.5426  0.4048
 9500SOL    HW139959   3.790   4.075   3.117 -0.3521  0.3653 -0.5853
 9500SOL    HW239960   3.686   3.980   3.077  0.3419 -0.7519  1.0234
 9501SOL     OW39961   2.507   3.849   7.563 -0.2353  0.4226  0.6844
 9501SOL    HW139962   2.508   3.772   7.621  1.1231 -1.8684 -2.4062
 9501SOL    HW239963   2.601   3.866   7.575 -0.3548 -0.1319  2.4938
 9502SOL     OW39964   0.958   2.882  14.059  0.4539 -0.0094 -0.3060
 9502SOL    HW139965   0.997   2.814  14.004  1.2991  1.7262 -1.8524
 9502SOL    HW239966   1.013   2.958  14.038  2.6453 -0.8583  2.3528
 9503SOL     OW39967   1.174   4.223   3.007 -0.1842 -0.1596  0.1551
 9503SOL    HW139968   1.111   4.157   3.036 -0.2151 -0.3283 -0.2873
 9503SOL    HW239969   1.132   4.253   2.926 -1.2511  0.8347  1.0859
 9504SOL     OW39970   1.398   3.718   3.310 -0.8770  0.0116  0.1868
 9504SOL    HW139971   1.393   3.709   3.215 -0.5040  0.5330  0.1196
 9504SOL    HW239972   1.377   3.810   3.329  0.7468  0.2032  1.0487
 9505SOL     OW39973   1.539   3.030   6.781  0.2254  0.0872 -0.2112
 9505SOL    HW139974   1.550   3.122   6.754  0.7859 -0.3796 -1.6011
 9505SOL    HW239975   1.536   2.987   6.696  2.4451 -0.2167 -0.1369
 9506SOL     OW39976   3.232   0.975   3.436 -0.0255  0.6978 -0.5924
 9506SOL    HW139977   3.213   0.883   3.452  1.9211 -0.3077 -4.0010
 9506SOL    HW239978   3.146   1.008   3.460 -0.9517 -2.0019 -0.2545
 9507SOL     OW39979   3.262   2.563   7.317 -0.9362 -0.7387  0.1573
 9507SOL    HW139980   3.172   2.584   7.296 -0.4991  2.0515  1.1821
 9507SOL    HW239981   3.299   2.506   7.248  1.7505  1.0827  0.0710
 9508SOL     OW39982   4.362   1.758  14.825 -0.1265  0.3811 -0.3017
 9508SOL    HW139983   4.325   1.728  14.742 -2.1039  1.2042  0.2966
 9508SOL    HW239984   4.377   1.676  14.873 -2.0286  0.3012  0.1295
 9509SOL     OW39985   1.274   0.694   8.045  0.3169 -0.3247  0.1581
 9509SOL    HW139986   1.357   0.715   8.087 -0.2747 -0.4908  1.3933
 9509SOL    HW239987   1.290   0.625   7.981 -0.0990 -0.3370  0.0679
 9510SOL     OW39988   0.130   1.031   3.060  0.2516 -0.2501 -0.4015
 9510SOL    HW139989   0.167   1.016   2.973 -1.2389  0.1821 -1.1113
 9510SOL    HW239990   0.147   0.951   3.110  0.3491 -0.2690 -0.4674
 9511SOL     OW39991   2.365   4.621   5.835 -0.5217 -0.0656  0.0711
 9511SOL    HW139992   2.426   4.694   5.824  0.4550 -1.0683 -1.2422
 9511SOL    HW239993   2.402   4.582   5.913  0.7116  1.8622  0.4649
 9512SOL     OW39994   1.277   4.588   8.845  0.0377 -0.2938  0.5655
 9512SOL    HW139995   1.187   4.617   8.855 -0.3056 -1.8209  1.9238
 9512SOL    HW239996   1.330   4.668   8.847  0.6205 -0.6961  1.2363
 9513SOL     OW39997   4.370   1.059  13.955 -0.0991 -0.3498  0.3229
 9513SOL    HW139998   4.452   1.048  13.906  0.7728  0.4920  1.5771
 9513SOL    HW239999   4.412   1.095  14.033  3.7659  0.0120 -1.8929
 9514SOL     OW40000   3.093   0.202  10.911 -0.4276 -0.1615  0.0643
 9514SOL    HW140001   3.130   0.220  10.825  0.7857  0.0934  0.6474
 9514SOL    HW240002   3.159   0.226  10.976 -0.6736 -2.2509  1.0680
 9515SOL     OW40003   4.591   2.785   6.051 -0.4353 -0.2032 -0.3812
 9515SOL    HW140004   4.655   2.853   6.071 -1.0629  1.1254 -2.9751
 9515SOL    HW240005   4.589   2.741   6.137  1.1452  0.3780 -0.0484
 9516SOL     OW40006   1.928   1.249   4.504  0.1939 -0.2986  0.4097
 9516SOL    HW140007   1.991   1.318   4.488  0.8852 -0.9680  0.2572
 9516SOL    HW240008   1.971   1.211   4.580 -2.3469 -1.1176  1.4433
 9517SOL     OW40009   0.457   3.968   6.427 -0.3441 -0.2484 -0.0744
 9517SOL    HW140010   0.470   3.874   6.444 -0.6472 -0.6417 -1.9892
 9517SOL    HW240011   0.518   4.002   6.492  0.8374 -1.3769 -0.5936
 9518SOL     OW40012   3.958   3.090   6.951  0.6319  0.0263 -0.2119
 9518SOL    HW140013   4.035   3.126   6.994  0.7082  2.4760 -2.3802
 9518SOL    HW240014   3.972   3.128   6.864  0.4145  0.2663 -0.1419
 9519SOL     OW40015   1.644   0.343  14.740  0.6598 -0.3207  0.2572
 9519SOL    HW140016   1.633   0.387  14.824  0.2262 -0.5451  0.3201
 9519SOL    HW240017   1.552   0.329  14.718  0.5484 -0.4989  0.8591
 9520SOL     OW40018   2.442   0.039   3.157  1.0295 -0.0286 -0.4751
 9520SOL    HW140019   2.387   4.686   3.173  2.1636 -1.1957 -2.0201
 9520SOL    HW240020   2.503   0.010   3.089 -1.1670 -2.0919 -1.5584
 9521SOL     OW40021   0.159   1.302   3.880  0.9535 -0.0025  0.4742
 9521SOL    HW140022   0.168   1.392   3.847 -0.2716 -0.1689 -0.3382
 9521SOL    HW240023   0.112   1.327   3.960 -0.5184 -2.1377  0.2793
 9522SOL     OW40024   3.882   3.115   2.314  0.3731  0.2225 -0.4813
 9522SOL    HW140025   3.933   3.078   2.242 -1.5569 -3.2012 -0.1165
 9522SOL    HW240026   3.947   3.157   2.370  1.1857  1.3858 -2.3135
 9523SOL     OW40027   2.316   3.357   1.542  0.3785  0.3357  0.2332
 9523SOL    HW140028   2.395   3.306   1.561  0.9060  2.6995  4.3812
 9523SOL    HW240029   2.303   3.403   1.624  0.6067  1.5243 -0.3963
 9524SOL     OW40030   1.768   2.590  15.529  0.1751  0.7518 -0.4047
 9524SOL    HW140031   1.736   2.587  15.619 -1.0412  2.0857 -0.7774
 9524SOL    HW240032   1.688   2.566  15.481 -0.2703  2.5158 -0.5562
 9525SOL     OW40033   1.176   3.410   3.024 -0.3672  0.2249  0.3130
 9525SOL    HW140034   1.103   3.373   3.075  0.6007  0.5378  1.9020
 9525SOL    HW240035   1.245   3.348   3.049  2.4370  2.6183 -1.5904
 9526SOL     OW40036   1.853   2.023   0.106  0.3445  0.2444  0.6015
 9526SOL    HW140037   1.837   2.086   0.176  1.5719  1.6477 -0.3792
 9526SOL    HW240038   1.926   2.068   0.065  0.0643 -1.1962 -1.4410
 9527SOL     OW40039   3.996   3.536  15.187 -0.0606  0.2822  0.5915
 9527SOL    HW140040   4.087   3.518  15.215  0.8037  1.8778 -1.2303
 9527SOL    HW240041   3.963   3.446  15.188  0.8783 -0.0752  0.4292
 9528SOL     OW40042   2.881   1.936  15.023 -0.0591  0.3893  0.0055
 9528SOL    HW140043   2.794   1.964  14.996 -0.3105 -2.5525 -2.2668
 9528SOL    HW240044   2.909   2.006  15.081  0.0859 -0.4080  0.8995
 9529SOL     OW40045   1.760   0.319   2.284 -0.3724  0.4272  0.0705
 9529SOL    HW140046   1.688   0.381   2.279  0.1579  1.1896  2.0060
 9529SOL    HW240047   1.706   0.240   2.291  0.1452  0.0408 -0.2922
 9530SOL     OW40048   1.031   0.201  13.944  0.2888 -0.6915 -0.1409
 9530SOL    HW140049   1.118   0.163  13.955 -0.2714 -1.9846 -0.2126
 9530SOL    HW240050   1.036   0.293  13.972 -3.4266 -0.6396  0.2654
 9531SOL     OW40051   1.754   1.387   6.029 -0.0521  0.0118 -0.6728
 9531SOL    HW140052   1.801   1.308   6.002  0.0014 -0.8067  1.7418
 9531SOL    HW240053   1.769   1.401   6.123  0.3983 -0.2500 -0.7075
 9532SOL     OW40054   3.024   2.115  10.351 -0.3105  0.3007 -0.2799
 9532SOL    HW140055   3.100   2.162  10.316  0.7377 -1.3107 -0.1719
 9532SOL    HW240056   2.983   2.174  10.414  3.6399  1.0997  1.5754
 9533SOL     OW40057   0.307   3.285   4.249  0.1634 -0.3228 -0.3075
 9533SOL    HW140058   0.299   3.313   4.157  1.5588  0.2243 -0.2589
 9533SOL    HW240059   0.220   3.307   4.283  0.7315  0.4058  0.6798
 9534SOL     OW40060   3.355   4.331   7.262  0.3498 -0.3497  0.6893
 9534SOL    HW140061   3.298   4.408   7.268  0.7280 -0.0102  0.0156
 9534SOL    HW240062   3.295   4.261   7.287 -0.0074  0.2558  1.5395
 9535SOL     OW40063   1.995   3.257   9.286  0.0899 -0.1803 -0.0563
 9535SOL    HW140064   1.977   3.189   9.221 -0.7425  2.2324 -2.3480
 9535SOL    HW240065   2.026   3.204   9.360 -2.3512 -0.9777  0.4131
 9536SOL     OW40066   3.054   4.455   0.967 -0.5324 -0.8994 -0.1817
 9536SOL    HW140067   2.989   4.386   0.952 -1.0347 -0.2460 -0.9882
 9536SOL    HW240068   3.117   4.430   0.900  2.8169  0.6215  2.4489
 9537SOL     OW40069   0.221   0.608  12.598  0.0650 -0.6324  0.4806
 9537SOL    HW140070   0.136   0.637  12.565  1.4683  0.7315 -1.9067
 9537SOL    HW240071   0.253   0.687  12.641 -0.3878 -0.6865  0.9141
 9538SOL     OW40072   3.380   2.135   3.315  0.1682  0.1341 -0.4731
 9538SOL    HW140073   3.415   2.213   3.360 -0.3558  0.5797 -0.8460
 9538SOL    HW240074   3.377   2.068   3.383 -1.6559 -1.0416 -1.7321
 9539SOL     OW40075   0.273   0.894   2.370  0.0260  0.3914  0.4511
 9539SOL    HW140076   0.356   0.943   2.372  0.7418 -0.7703 -0.7176
 9539SOL    HW240077   0.292   0.825   2.307  0.0369  1.2614 -0.5093
 9540SOL     OW40078   2.968   3.444   8.381 -0.0003 -0.4995  0.0517
 9540SOL    HW140079   3.005   3.527   8.349 -0.3216 -0.7788 -1.0495
 9540SOL    HW240080   2.955   3.476   8.471 -1.6787 -1.0303 -0.0007
 9541SOL     OW40081   1.382   2.602   9.201  0.1882 -0.2235 -0.4646
 9541SOL    HW140082   1.431   2.626   9.280  0.9195 -1.1499 -0.6467
 9541SOL    HW240083   1.402   2.510   9.187  1.1625 -0.0703 -0.0493
 9542SOL     OW40084   2.369   4.345   4.230 -0.0489 -0.0062  0.1798
 9542SOL    HW140085   2.416   4.292   4.296  0.4892  2.3337  1.6657
 9542SOL    HW240086   2.434   4.357   4.161  2.2085 -1.6649  1.9832
 9543SOL     OW40087   4.609   0.235  16.762 -0.2925  0.3642 -0.0210
 9543SOL    HW140088   4.668   0.254  16.835 -0.0830 -1.9656  0.4170
 9543SOL    HW240089   4.654   0.164  16.715  1.3224 -0.0713  2.2062
 9544SOL     OW40090   4.410   3.944  13.836  0.1223 -0.0666 -0.2235
 9544SOL    HW140091   4.446   3.871  13.886  1.3797  1.1242  0.6033
 9544SOL    HW240092   4.452   3.922  13.752  0.5161  0.3931 -0.1451
 9545SOL     OW40093   2.432   4.260  10.240  0.0898  0.7517  0.5359
 9545SOL    HW140094   2.472   4.289  10.158  1.8226 -1.5626  0.5332
 9545SOL    HW240095   2.428   4.343  10.288 -2.1461  2.7190 -3.0431
 9546SOL     OW40096   4.210   4.546   9.298 -0.4674  0.0700  0.2212
 9546SOL    HW140097   4.282   4.609   9.298  0.8940 -1.4843 -0.5255
 9546SOL    HW240098   4.256   4.474   9.341 -2.2724 -0.5280  1.1617
 9547SOL     OW40099   2.216   1.669   5.299  0.3149  0.1685  0.7875
 9547SOL    HW140100   2.252   1.592   5.342 -1.8652 -1.0652  0.3961
 9547SOL    HW240101   2.122   1.651   5.301  0.4306 -0.7356 -2.8981
 9548SOL     OW40102   2.985   0.850  15.423 -0.4261 -0.9113 -0.6261
 9548SOL    HW140103   2.889   0.850  15.432 -0.3061 -1.1288  0.5366
 9548SOL    HW240104   3.000   0.760  15.396  1.7387 -0.9932  0.8865
 9549SOL     OW40105   4.478   3.391   1.374 -0.1602  0.0177 -0.0519
 9549SOL    HW140106   4.433   3.470   1.404 -0.7990  0.0203 -1.0072
 9549SOL    HW240107   4.553   3.382   1.432 -1.0351 -0.2358  1.0321
 9550SOL     OW40108   1.192   3.973   4.177  0.3314  0.3291 -0.0618
 9550SOL    HW140109   1.265   4.013   4.130 -0.9237  0.5220 -1.8711
 9550SOL    HW240110   1.116   4.002   4.125 -1.6985  0.4322  2.9415
 9551SOL     OW40111   3.994   1.273   2.204 -0.0246 -0.4546 -0.3867
 9551SOL    HW140112   3.993   1.364   2.173  0.2170 -0.9178 -1.7939
 9551SOL    HW240113   4.008   1.216   2.128 -0.5907  1.3734 -1.8760
 9552SOL     OW40114   0.158   2.886   4.268  0.3953 -0.3610 -0.3054
 9552SOL    HW140115   0.128   2.839   4.345  0.5098  1.1444  0.6727
 9552SOL    HW240116   0.249   2.862   4.282  0.2394 -1.7906 -1.7768
 9553SOL     OW40117   0.057   3.506   8.017 -0.5104 -0.6604  0.2648
 9553SOL    HW140118   0.003   3.551   8.082  2.1159  2.3163  0.3815
 9553SOL    HW240119   4.719   3.498   7.944 -2.0810 -1.9275  1.7251
 9554SOL     OW40120   1.056   2.147   5.579  0.2725  0.1282 -0.1981
 9554SOL    HW140121   0.970   2.170   5.613  0.6276  0.8405  0.2045
 9554SOL    HW240122   1.077   2.068   5.629 -2.0017 -0.3006  0.0851
 9555SOL     OW40123   3.096   1.259   4.282 -0.1210 -0.6345 -0.2077
 9555SOL    HW140124   3.012   1.258   4.329  0.4333 -0.4255  0.7948
 9555SOL    HW240125   3.148   1.324   4.331 -0.0650 -0.7437 -0.1235
 9556SOL     OW40126   3.640   3.783   3.744 -0.1720 -0.1586  0.0561
 9556SOL    HW140127   3.589   3.731   3.807 -0.8834  1.8306  1.1280
 9556SOL    HW240128   3.590   3.862   3.723  0.9334 -0.0847 -2.2518
 9557SOL     OW40129   4.001   3.895   7.887  0.3915 -0.5525  0.1715
 9557SOL    HW140130   4.007   3.808   7.927  1.3923  0.4123  2.1197
 9557SOL    HW240131   4.031   3.940   7.966  2.2189 -0.7116 -0.4333
 9558SOL     OW40132   1.309   0.307   5.582  0.6237  0.2567  0.1513
 9558SOL    HW140133   1.388   0.285   5.532 -0.0385 -0.6272 -0.5181
 9558SOL    HW240134   1.338   0.365   5.652  0.3580 -1.0342  1.3414
 9559SOL     OW40135   4.715   0.097   7.025 -0.7179  0.7960 -0.6884
 9559SOL    HW140136   0.062   0.051   6.978 -0.5022  1.5969 -1.1477
 9559SOL    HW240137   4.681   0.030   7.084  0.0449  0.1110 -1.0269
 9560SOL     OW40138   2.213   2.346   0.874 -0.3172 -0.4453  0.2358
 9560SOL    HW140139   2.281   2.413   0.873 -0.1542 -0.6142 -0.0774
 9560SOL    HW240140   2.229   2.286   0.947  0.6063  0.8828  1.1288
 9561SOL     OW40141   0.650   4.504  11.540  0.4739 -0.3555 -0.3669
 9561SOL    HW140142   0.720   4.502  11.606  0.0455 -0.9681  0.0679
 9561SOL    HW240143   0.692   4.521  11.456  0.6457  0.1945 -0.1733
 9562SOL     OW40144   1.908   0.200   1.909 -0.2764 -0.1016  0.2303
 9562SOL    HW140145   1.997   0.180   1.882  0.3489 -0.9993  2.9429
 9562SOL    HW240146   1.896   0.175   2.001 -0.7178 -1.0313 -0.0774
 9563SOL     OW40147   0.225   4.018  11.124 -0.2479  0.2191 -0.3000
 9563SOL    HW140148   0.254   4.104  11.154  0.3728  0.1896 -0.7881
 9563SOL    HW240149   0.155   4.033  11.061  0.2175  0.9391 -0.6508
 9564SOL     OW40150   2.687   1.365   6.097 -0.1318 -0.3331  0.0014
 9564SOL    HW140151   2.745   1.378   6.022 -0.4988 -3.4564 -0.8296
 9564SOL    HW240152   2.747   1.382   6.169 -1.1829  1.1296  0.5299
 9565SOL     OW40153   3.591   4.665   5.096 -0.6821  0.2701 -0.5326
 9565SOL    HW140154   3.527   4.622   5.152  1.6250 -3.2649 -0.6274
 9565SOL    HW240155   3.587   0.032   5.128  0.7723  0.1218  0.0708
   4.72312   4.72312  17.69438
