Membrane in water
40155
    1TCq1    O1    1   1.968   3.616  11.498  0.4766  0.2568 -0.5623
    1TCq1    C1    2   2.089   3.591  11.445 -0.0817  0.3204 -0.2991
    1TCq1    O2    3   2.178   3.669  11.430  0.2364  0.3836 -0.5224
    1TCq1    C2    4   2.060   3.492  11.340  0.0187  0.2665 -0.5807
    1TCq1    C3    5   2.125   3.504  11.224 -0.8287 -0.6233 -0.7596
    1TCq1    C4    6   2.100   3.402  11.131 -0.1784  0.4725  0.0665
    1TCq1    C5    7   2.030   3.290  11.168  0.2909  0.5661 -0.2824
    1TCq1    C6    8   1.968   3.285  11.289  0.3776  0.1906  0.3863
    1TCq1    C7    9   1.984   3.386  11.375 -0.0137  0.1283  0.4001
    1TCq1    C8   10   1.916   3.167  11.348 -0.1217  0.3014  0.0596
    1TCq1    O4   11   1.842   3.180  11.441  0.4680  0.4945  0.2883
    1TCq1    C9   12   2.142   3.403  10.994  0.6613  0.4291 -0.0623
    1TCq1    O5   13   2.126   3.298  10.926  0.8539  0.0216  0.0140
    1TCq1    O6   14   2.188   3.516  10.952  0.6547 -0.1618 -0.6033
    1TCq1    H1   15   1.896   3.565  11.456  0.7041 -0.7898  0.3308
    1TCq1    H2   16   2.193   3.586  11.204 -0.3349 -0.8420  0.0265
    1TCq1    H3   17   2.014   3.214  11.092  2.9217  0.5850 -0.8454
    1TCq1    H4   18   1.951   3.375  11.478  0.0508 -2.6108  0.1260
    2MPD2     C   19   1.990   2.670  11.465 -0.0755 -0.1923  0.4811
    2MPD2    C1   20   1.898   2.761  11.523 -0.0509 -0.2147 -0.8250
    2MPD2    C2   21   1.891   2.892  11.475 -0.6779  1.0252  0.4536
    2MPD2    C3   22   1.976   2.926  11.370 -0.3686  0.4884  0.0516
    2MPD2    C4   23   2.077   2.840  11.317 -0.5656  0.1219  0.2546
    2MPD2    C5   24   2.080   2.712  11.366 -0.8759  0.0298  0.3340
    2MPD2     H   25   1.821   2.962  11.520 -0.7919  2.1519 -1.4723
    2MPD2    H1   26   2.149   2.866  11.241 -1.7658 -0.7116 -1.1541
    2MPD2    H2   27   2.009   2.572  11.507 -3.3994 -0.4384  1.4239
    2MPD2    H3   28   2.157   2.643  11.334 -2.1293 -0.8874 -0.7093
    2MPD2     N   29   1.981   3.054  11.302 -0.0466  0.0767 -0.0750
    2MPD2    H5   30   2.046   3.064  11.225  0.1071  0.2231  0.0743
    2MPD2    N1   31   1.807   2.726  11.624  0.3840  0.1671 -0.8905
    2MPD2    H7   32   1.764   2.804  11.673 -0.7956  0.0578 -1.7418
    3TCq1    O1   33   1.401   2.758  10.758  0.5166 -0.3738  0.2109
    3TCq1    C1   34   1.371   2.791  10.885  0.2289 -0.2777 -0.5450
    3TCq1    O2   35   1.327   2.721  10.973 -0.5351 -0.4297 -0.6335
    3TCq1    C2   36   1.373   2.934  10.895  0.2284  0.4286  0.3806
    3TCq1    C3   37   1.447   3.010  10.806 -0.5750  0.4187 -0.4274
    3TCq1    C4   38   1.438   3.149  10.810 -0.3243 -0.5263  0.1944
    3TCq1    C5   39   1.351   3.209  10.897 -0.1180 -0.2244  0.5511
    3TCq1    C6   40   1.273   3.129  10.977 -0.0496  0.3889  0.4694
    3TCq1    C7   41   1.284   2.996  10.974 -0.4248  0.2618 -0.6685
    3TCq1    C8   42   1.164   3.179  11.064 -0.2302 -0.5210 -0.7070
    3TCq1    O4   43   1.107   3.095  11.132  0.1042  0.2094  0.3037
    3TCq1    C9   44   1.508   3.228  10.722 -0.2168  0.0935 -0.3210
    3TCq1    O5   45   1.508   3.354  10.729 -0.5080 -0.3283  0.2733
    3TCq1    O6   46   1.596   3.164  10.660 -0.2399 -0.2795 -0.0308
    3TCq1    H1   47   1.436   2.828  10.699 -1.4443  0.3392 -0.0906
    3TCq1    H2   48   1.523   2.968  10.741 -0.9794 -0.4160 -0.3620
    3TCq1    H3   49   1.356   3.316  10.915 -0.9580 -0.0139 -0.5030
    3TCq1    H4   50   1.220   2.922  11.020  0.9843 -0.4412  0.1676
    4MPD2     C   51   0.744   3.461  11.138 -1.0635  0.0047  0.4054
    4MPD2    C1   52   0.817   3.526  11.042 -0.0097  0.5886 -0.0422
    4MPD2    C2   53   0.939   3.473  11.001 -0.0109  0.0356  0.0575
    4MPD2    C3   54   0.990   3.351  11.060  0.7023 -0.2514  0.0069
    4MPD2    C4   55   0.917   3.305  11.170  1.1660  0.4612 -0.1992
    4MPD2    C5   56   0.796   3.354  11.205  0.5581 -0.5705 -0.2391
    4MPD2     H   57   0.991   3.508  10.912 -1.3968  2.8590  0.3924
    4MPD2    H1   58   0.957   3.226  11.231  1.8849  0.9507 -0.0323
    4MPD2    H2   59   0.655   3.502  11.183 -1.4195 -0.7657  0.4028
    4MPD2    H3   60   0.734   3.306  11.279  1.1213  0.1732  0.7134
    4MPD2     N   61   1.118   3.298  11.020  0.7969  0.3369  0.1211
    4MPD2    H5   62   1.161   3.350  10.945  0.1003  1.7762  0.7121
    4MPD2    N1   63   0.761   3.630  10.967 -0.0570 -0.0908  0.3547
    4MPD2    H7   64   0.819   3.667  10.892 -0.1932  1.3409  0.9571
    5TCq1    O1   65   2.236   0.928   9.911  0.9096  0.3474 -0.0780
    5TCq1    C1   66   2.281   1.005  10.008  0.0796  0.8441  0.1962
    5TCq1    O2   67   2.394   1.045  10.013 -0.3035 -1.0435 -0.1519
    5TCq1    C2   68   2.171   1.054  10.090 -0.9568 -0.1167  0.0871
    5TCq1    C3   69   2.172   1.184  10.136  0.0307 -0.2601 -0.6815
    5TCq1    C4   70   2.085   1.223  10.235 -0.2015  0.9922 -0.7475
    5TCq1    C5   71   1.997   1.137  10.292 -0.1837  0.3038 -0.0204
    5TCq1    C6   72   2.014   1.005  10.262  0.6683 -0.1446  0.2982
    5TCq1    C7   73   2.088   0.962  10.156  0.2871 -0.1948 -0.3485
    5TCq1    C8   74   1.932   0.907  10.338  0.3407 -0.3665 -0.2953
    5TCq1    O4   75   1.848   0.957  10.412 -0.3363 -0.6349  0.5556
    5TCq1    C9   76   2.085   1.354  10.289 -0.3808 -0.2758  0.1780
    5TCq1    O5   77   2.003   1.372  10.383  0.0152 -0.0215 -0.1511
    5TCq1    O6   78   2.140   1.443  10.219  0.1180  0.9938 -0.3047
    5TCq1    H1   79   2.141   0.904   9.923  0.3515  2.6964  0.1680
    5TCq1    H2   80   2.248   1.254  10.104 -1.2241  2.5371  2.5149
    5TCq1    H3   81   1.933   1.171  10.373 -1.6152 -0.6463 -0.7421
    5TCq1    H4   82   2.089   0.860  10.119  0.9672 -1.4583  3.1226
    6MPD2     C   83   1.966   0.550  10.403 -0.3166  0.1788  0.1997
    6MPD2    C1   84   1.899   0.672  10.407 -0.4250  0.4241 -0.2095
    6MPD2    C2   85   1.792   0.692  10.488 -0.0110  0.4664  0.2703
    6MPD2    C3   86   1.734   0.586  10.558  0.9216 -0.7739 -0.7974
    6MPD2    C4   87   1.799   0.464  10.557 -1.1809  0.2431  0.5826
    6MPD2    C5   88   1.918   0.452  10.486  0.6573 -0.1162  0.5673
    6MPD2     H   89   1.734   0.784  10.486 -1.3745 -0.3584  3.3512
    6MPD2    H1   90   1.770   0.375  10.612 -1.6867 -0.4274 -0.7751
    6MPD2    H2   91   2.056   0.526  10.348  0.1458 -0.3837  1.1884
    6MPD2    H3   92   1.964   0.355  10.475  0.4546 -0.1346 -0.1310
    6MPD2     N   93   1.618   0.613  10.631 -0.3109 -0.0538 -0.4136
    6MPD2    H5   94   1.589   0.709  10.644 -0.4410 -0.2912  1.0326
    6MPD2    N1   95   1.966   0.771  10.326 -0.3431  0.2929  0.0263
    6MPD2    H7   96   2.054   0.749  10.279 -1.3438 -0.9070 -1.2563
    7TCq1    O1   97   3.156   0.378  14.045  0.0859  0.3784  0.1210
    7TCq1    C1   98   3.276   0.333  14.023  0.2173  0.3779 -0.2931
    7TCq1    O2   99   3.380   0.372  14.073 -0.5045  0.0769 -0.1735
    7TCq1    C2  100   3.279   0.272  13.893 -0.9342 -0.5173 -0.0728
    7TCq1    C3  101   3.184   0.300  13.798 -0.4261 -0.5200  0.4005
    7TCq1    C4  102   3.212   0.278  13.668  0.2868  0.1145 -0.1017
    7TCq1    C5  103   3.335   0.221  13.633 -0.0178  0.7277 -0.3236
    7TCq1    C6  104   3.431   0.201  13.728  0.2784  0.6677 -0.2392
    7TCq1    C7  105   3.398   0.217  13.855  0.0660 -0.0324 -0.0840
    7TCq1    C8  106   3.553   0.131  13.699  0.1923  0.3159 -0.5196
    7TCq1    O4  107   3.538   0.048  13.612  0.2231  0.1856  0.2943
    7TCq1    C9  108   3.114   0.312  13.570 -0.0781 -0.2172 -0.7671
    7TCq1    O5  109   3.115   0.253  13.462  0.4144  0.2315 -0.1291
    7TCq1    O6  110   3.008   0.371  13.610 -0.0401 -0.7609 -0.3569
    7TCq1    H1  111   3.097   0.321  13.992 -3.7340  1.6512  3.0117
    7TCq1    H2  112   3.097   0.360  13.820 -0.2893  0.0920 -0.7157
    7TCq1    H3  113   3.367   0.202  13.531  1.0618  1.2733 -0.0905
    7TCq1    H4  114   3.475   0.213  13.931  0.5567 -0.1299 -0.5945
    8MPD2     C  115   4.068   0.105  13.772  0.1047 -0.1695 -0.2577
    8MPD2    C1  116   3.995   0.039  13.681 -0.2002  0.4123 -0.1733
    8MPD2    C2  117   3.857   0.057  13.677  0.2059 -0.3364  0.3087
    8MPD2    C3  118   3.799   0.152  13.761 -0.9215  0.3218 -0.2479
    8MPD2    C4  119   3.884   0.218  13.846 -0.3832  0.1313  0.3790
    8MPD2    C5  120   4.016   0.197  13.859 -0.0052 -0.3283 -0.0248
    8MPD2     H  121   3.797   0.008  13.601 -1.4635  2.0323  0.1028
    8MPD2    H1  122   3.853   0.303  13.906  1.3723  1.1663 -0.2019
    8MPD2    H2  123   4.171   0.074  13.783 -0.2358 -1.6256 -1.1027
    8MPD2    H3  124   4.074   0.272  13.912 -0.2530 -0.6241  0.6547
    8MPD2     N  125   3.664   0.187  13.766 -0.1209  0.6158 -0.2232
    8MPD2    H5  126   3.641   0.273  13.816  1.7169  1.0973 -0.2030
    8MPD2    N1  127   4.056   4.669  13.604 -0.1241  0.0337  0.5710
    8MPD2    H7  128   4.156   4.655  13.612 -0.3968 -0.9080  2.2853
    9TCq1    O1  129   1.331   3.520  10.829  0.5691  0.0129  0.4734
    9TCq1    C1  130   1.305   3.644  10.790  0.1459  0.0423 -0.2176
    9TCq1    O2  131   1.208   3.710  10.826 -0.4787 -0.4983  0.1778
    9TCq1    C2  132   1.444   3.690  10.798  0.1386  0.2391 -1.1240
    9TCq1    C3  133   1.531   3.659  10.696  0.9844  0.0926 -0.9195
    9TCq1    C4  134   1.645   3.742  10.676 -0.5522 -0.1181  0.6281
    9TCq1    C5  135   1.681   3.828  10.766 -0.1466 -0.4744  0.4133
    9TCq1    C6  136   1.595   3.860  10.871  0.0255  0.0716 -1.1531
    9TCq1    C7  137   1.477   3.793  10.887  0.3395 -0.7061 -0.2355
    9TCq1    C8  138   1.649   3.932  10.986  0.6286 -0.7130 -0.0237
    9TCq1    O4  139   1.740   4.008  10.968 -0.4390 -0.2782 -0.2359
    9TCq1    C9  140   1.719   3.721  10.558 -0.2730 -0.0828  0.3830
    9TCq1    O5  141   1.680   3.619  10.493  0.4816 -0.6232  0.4855
    9TCq1    O6  142   1.833   3.775  10.542 -0.5115  0.1510  0.5848
    9TCq1    H1  143   1.411   3.476  10.792  1.7727  2.4679  0.1662
    9TCq1    H2  144   1.509   3.583  10.622 -0.1577 -0.7063  0.2372
    9TCq1    H3  145   1.763   3.893  10.735 -1.9465  2.7653  2.4425
    9TCq1    H4  146   1.396   3.825  10.952  0.4611  0.5911 -0.7345
   10MPD2     C  147   1.692   4.048  11.256  0.0276  0.5621  0.3734
   10MPD2    C1  148   1.617   3.937  11.228  0.0767 -0.9593 -0.3800
   10MPD2    C2  149   1.561   3.866  11.342 -0.7652  0.2777 -0.8373
   10MPD2    C3  150   1.582   3.912  11.472 -0.0346  0.4462  0.6185
   10MPD2    C4  151   1.650   4.034  11.492 -0.2463  0.4676  0.0593
   10MPD2    C5  152   1.701   4.100  11.388 -0.6542  0.6588 -0.1687
   10MPD2     H  153   1.499   3.779  11.326 -1.1108  0.2193  0.8364
   10MPD2    H1  154   1.674   4.078  11.588 -0.6250  0.4138  0.1761
   10MPD2    H2  155   1.730   4.119  11.183  4.2379 -2.2197 -0.1481
   10MPD2    H3  156   1.764   4.187  11.405 -0.5609  0.4090  0.7569
   10MPD2     N  157   1.522   3.854  11.582 -0.0857 -0.0888  0.6079
   10MPD2    H5  158   1.518   3.910  11.667 -1.5967  0.4416  0.1820
   10MPD2    N1  159   1.587   3.895  11.097 -0.2926  0.0031  0.6553
   10MPD2    H7  160   1.520   3.821  11.081 -1.0955  0.2424  2.8890
   11TCq1    O1  161   2.857   3.768  14.125  0.0543 -0.3140 -0.9582
   11TCq1    C1  162   2.726   3.744  14.136 -0.1685 -0.4365  0.4821
   11TCq1    O2  163   2.639   3.792  14.065 -0.6889 -0.3149 -0.3367
   11TCq1    C2  164   2.694   3.620  14.206  0.2975 -0.1191  0.4267
   11TCq1    C3  165   2.761   3.581  14.322 -0.2295  0.4041 -0.4716
   11TCq1    C4  166   2.702   3.497  14.405  0.5069 -0.1998  0.0816
   11TCq1    C5  167   2.584   3.432  14.367  0.6012  0.3086 -0.3988
   11TCq1    C6  168   2.516   3.470  14.257 -1.0873  0.1440  0.0398
   11TCq1    C7  169   2.565   3.570  14.179 -0.2638 -0.5715 -1.5143
   11TCq1    C8  170   2.372   3.430  14.266  0.1570 -0.2606  0.9426
   11TCq1    O4  171   2.323   3.441  14.381  0.5741  0.0083 -1.0269
   11TCq1    C9  172   2.764   3.465  14.532  0.5676  0.6827 -0.3174
   11TCq1    O5  173   2.710   3.399  14.624  0.1768 -0.2769  0.2121
   11TCq1    O6  174   2.875   3.520  14.550 -0.0936 -0.6706 -0.1361
   11TCq1    H1  175   2.905   3.695  14.169  0.5084  0.1705 -0.6319
   11TCq1    H2  176   2.845   3.635  14.362  0.1597 -1.5371  1.3372
   11TCq1    H3  177   2.541   3.357  14.433  2.2628  0.3279  0.7048
   11TCq1    H4  178   2.502   3.617  14.104  0.2551  2.2135 -0.2056
   12MPD2     C  179   2.093   3.343  14.197  0.5862  0.2010 -0.0846
   12MPD2    C1  180   2.206   3.309  14.123  0.2624 -0.0348 -0.2907
   12MPD2    C2  181   2.205   3.211  14.027  0.7773 -0.7452  0.4103
   12MPD2    C3  182   2.082   3.151  13.994 -0.2458 -0.4652  0.1790
   12MPD2    C4  183   1.971   3.183  14.069 -0.3035  0.5186  0.4334
   12MPD2    C5  184   1.979   3.278  14.172  0.0301  0.0891 -0.5474
   12MPD2     H  185   2.296   3.201  13.968  1.8742  2.7341  1.4974
   12MPD2    H1  186   1.875   3.134  14.061  1.0068 -1.9498  0.1155
   12MPD2    H2  187   2.099   3.407  14.284 -1.0832  3.2465 -2.2135
   12MPD2    H3  188   1.889   3.307  14.224  1.0172  1.6045  0.2988
   12MPD2     N  189   2.057   3.054  13.894 -0.3523  0.0579 -0.4329
   12MPD2    H5  190   1.961   3.028  13.878  0.2375 -1.5758 -1.2517
   12MPD2    N1  191   2.332   3.362  14.145  0.2818 -0.5557  0.5811
   12MPD2    H7  192   2.396   3.371  14.066  0.6596 -2.0620  0.7281
   13TCq1    O1  193   2.117   3.753  11.035 -0.6414  0.1891  0.3224
   13TCq1    C1  194   1.987   3.792  11.034 -0.7156 -0.3204  0.2487
   13TCq1    O2  195   1.950   3.873  11.116  0.0416  0.8450  0.2497
   13TCq1    C2  196   1.905   3.677  10.991 -0.0868  0.3973  0.1182
   13TCq1    C3  197   1.945   3.623  10.868 -0.2835 -0.1806 -0.5932
   13TCq1    C4  198   1.877   3.512  10.822  0.0154  0.1220 -0.4482
   13TCq1    C5  199   1.768   3.465  10.889  0.4026  0.2440  0.3332
   13TCq1    C6  200   1.719   3.533  11.000  0.1836  0.0528 -0.1616
   13TCq1    C7  201   1.789   3.636  11.053 -0.1969 -0.2182  0.3362
   13TCq1    C8  202   1.619   3.474  11.093  0.5401  0.3147 -0.8167
   13TCq1    O4  203   1.565   3.551  11.171  0.1147 -0.2341  0.2852
   13TCq1    C9  204   1.920   3.449  10.692 -0.1452 -0.4004  0.5359
   13TCq1    O5  205   2.029   3.485  10.650 -0.0986  0.0524  0.5184
   13TCq1    O6  206   1.847   3.363  10.638  0.0955  0.7187 -0.0230
   13TCq1    H1  207   2.132   3.665  10.994 -1.6938  0.8392 -1.4583
   13TCq1    H2  208   2.025   3.670  10.812 -0.4710  1.4337  0.5017
   13TCq1    H3  209   1.714   3.380  10.850 -1.5175  0.8604  1.6553
   13TCq1    H4  210   1.758   3.678  11.147  1.4732  0.7179  0.4786
   14MPD2     C  211   1.581   3.122  11.181  0.1498 -0.7006  0.3854
   14MPD2    C1  212   1.548   3.255  11.182  0.3645 -0.9368  0.7760
   14MPD2    C2  213   1.439   3.298  11.261  0.3788  0.0275  0.7108
   14MPD2    C3  214   1.371   3.210  11.339  0.7179  0.7022 -0.0261
   14MPD2    C4  215   1.408   3.076  11.342 -0.1668 -0.3909 -0.0471
   14MPD2    C5  216   1.514   3.035  11.264  0.1916  0.4012  0.0432
   14MPD2     H  217   1.417   3.404  11.256 -1.7987 -0.4473  0.2456
   14MPD2    H1  218   1.364   2.996  11.399 -0.4705  1.5198  2.4050
   14MPD2    H2  219   1.659   3.079  11.120  0.4572 -0.9580  0.9533
   14MPD2    H3  220   1.538   2.929  11.262  1.2564  0.6856 -2.1354
   14MPD2     N  221   1.258   3.259  11.410 -0.2193 -0.2062  0.1989
   14MPD2    H5  222   1.239   3.359  11.407  1.0447 -0.0190 -1.8014
   14MPD2    N1  223   1.629   3.340  11.094  1.3421 -0.0724 -0.7192
   14MPD2    H7  224   1.702   3.297  11.038  2.6349  1.3444 -0.1465
   15TCq1    O1  225   2.696   2.797   2.217  0.4358  0.1641 -0.2751
   15TCq1    C1  226   2.789   2.727   2.154 -0.1808  0.5159 -0.7622
   15TCq1    O2  227   2.866   2.762   2.063 -0.0550 -0.5669 -0.2329
   15TCq1    C2  228   2.785   2.595   2.209  0.6288  0.0420 -0.3687
   15TCq1    C3  229   2.791   2.584   2.345 -0.1915  0.0184 -0.1906
   15TCq1    C4  230   2.818   2.461   2.396 -0.3461  0.5317 -0.0430
   15TCq1    C5  231   2.857   2.358   2.318 -0.5626 -0.0565 -0.1800
   15TCq1    C6  232   2.852   2.380   2.182  0.3582  0.2289  0.7647
   15TCq1    C7  233   2.806   2.496   2.124 -0.7432  0.4294  0.1590
   15TCq1    C8  234   2.912   2.281   2.100 -0.4444  0.0885 -0.0701
   15TCq1    O4  235   3.005   2.207   2.134 -0.5408  0.0985 -0.1198
   15TCq1    C9  236   2.808   2.437   2.541 -0.5070 -0.4973  0.6750
   15TCq1    O5  237   2.737   2.517   2.609 -0.0535  0.2085  0.2287
   15TCq1    O6  238   2.865   2.340   2.592 -0.2757 -0.0189 -0.0474
   15TCq1    H1  239   2.628   2.735   2.251 -2.1008  2.1212 -1.7292
   15TCq1    H2  240   2.769   2.665   2.414  2.3766  0.3962  0.1838
   15TCq1    H3  241   2.906   2.271   2.360  1.0318  1.8444  1.9053
   15TCq1    H4  242   2.810   2.517   2.018 -0.8567  2.3662  0.5332
   16MPD2     C  243   2.832   2.237   1.736  0.2569 -0.6598  0.0530
   16MPD2    C1  244   2.901   2.208   1.855  0.4873 -0.3470  0.3342
   16MPD2    C2  245   3.001   2.117   1.845 -0.3751 -0.1172 -0.2215
   16MPD2    C3  246   3.040   2.066   1.723 -0.1315  0.5518  0.1316
   16MPD2    C4  247   2.966   2.093   1.609 -0.1205 -0.0790  0.0727
   16MPD2    C5  248   2.860   2.183   1.616 -0.6653 -0.4450  0.2228
   16MPD2     H  249   3.053   2.096   1.937  0.8825  0.4824 -0.7961
   16MPD2    H1  250   2.973   2.044   1.513  0.3321 -0.5392  0.3389
   16MPD2    H2  251   2.748   2.304   1.750  0.0527 -0.9693  0.3111
   16MPD2    H3  252   2.802   2.213   1.530  0.3557 -1.5075 -0.8252
   16MPD2     N  253   3.155   1.985   1.729 -0.1350  0.3905 -0.1389
   16MPD2    H5  254   3.187   1.966   1.823  0.4760 -1.2931 -0.6966
   16MPD2    N1  255   2.856   2.282   1.970  0.1704  0.2030  0.4644
   16MPD2    H7  256   2.774   2.340   1.959 -0.7013 -0.7249  2.1436
   17TCq1    O1  257   2.323   3.429  11.575  0.0869  0.3429 -0.0628
   17TCq1    C1  258   2.287   3.299  11.561  0.0830  0.1978  0.4659
   17TCq1    O2  259   2.209   3.234  11.629  0.0929  0.1250  0.0607
   17TCq1    C2  260   2.364   3.247  11.448 -0.2856  0.1264 -0.4921
   17TCq1    C3  261   2.406   3.330  11.347 -0.6199  0.7014 -0.6266
   17TCq1    C4  262   2.461   3.264  11.239 -0.5702  0.0491 -0.1397
   17TCq1    C5  263   2.480   3.128  11.235 -0.5938  0.1183 -0.1436
   17TCq1    C6  264   2.439   3.054  11.346 -0.3255 -0.2890 -0.4786
   17TCq1    C7  265   2.376   3.114  11.451 -0.6281 -0.4007 -0.3289
   17TCq1    C8  266   2.451   2.908  11.353 -0.1662 -0.1811 -0.5859
   17TCq1    O4  267   2.425   2.848  11.458  0.1889  0.3197 -0.4665
   17TCq1    C9  268   2.480   3.341  11.117  0.2040  0.2013 -0.5211
   17TCq1    O5  269   2.519   3.280  11.014  0.1077  0.1964 -0.1130
   17TCq1    O6  270   2.439   3.460  11.115 -0.5203  0.3428 -0.2596
   17TCq1    H1  271   2.407   3.453  11.529  0.7212  0.4734  1.1646
   17TCq1    H2  272   2.380   3.435  11.337  1.6667  1.2533 -0.7799
   17TCq1    H3  273   2.540   3.086  11.155 -0.1250 -2.0268  1.3024
   17TCq1    H4  274   2.333   3.061  11.535 -0.7000  0.3207  0.0918
   18MPD2     C  275   2.397   2.626  11.275 -0.2190  0.1606 -0.2082
   18MPD2    C1  276   2.419   2.729  11.186 -0.0717 -0.2681 -0.0614
   18MPD2    C2  277   2.408   2.706  11.050 -0.4252 -1.1332 -0.8572
   18MPD2    C3  278   2.389   2.577  11.004  0.5840  0.6611  0.6008
   18MPD2    C4  279   2.375   2.473  11.090  0.3643 -0.2234 -0.6104
   18MPD2    C5  280   2.367   2.498  11.226  0.1960  0.1108 -0.1953
   18MPD2     H  281   2.412   2.791  10.982  0.0672  0.2854  0.9423
   18MPD2    H1  282   2.360   2.374  11.049  1.7264 -0.7549  0.1840
   18MPD2    H2  283   2.379   2.637  11.382  0.4254  0.1687 -0.1004
   18MPD2    H3  284   2.354   2.411  11.289  0.6896  1.1157  1.3001
   18MPD2     N  285   2.384   2.534  10.866  0.0715  0.5661 -0.2174
   18MPD2    H5  286   2.369   2.435  10.850  0.0831  0.5240  0.0307
   18MPD2    N1  287   2.440   2.865  11.226  0.4399  0.5756 -0.3656
   18MPD2    H7  288   2.441   2.938  11.155  1.3304  1.3319  0.4292
   19TMC2    C1  289   3.059   2.476  14.330  0.8114  1.0293  0.1743
   19TMC2    C2  290   3.026   2.434  14.459  0.7530  0.0159  0.4457
   19TMC2    C3  291   2.899   2.382  14.479  0.4438 -0.0757 -0.0633
   19TMC2    C4  292   2.980   2.453  14.220 -0.0428  0.0542  0.2863
   19TMC2    C5  293   2.862   2.386  14.239  0.5658 -0.3977  0.4350
   19TMC2    C6  294   2.825   2.350  14.370  0.2469 -0.2097 -0.0620
   19TMC2     C  295   3.160   2.583  14.313  0.3758  0.4717 -0.0314
   19TMC2     O  296   3.164   2.646  14.210 -0.5550  0.2276  0.1379
   19TMC2     H  297   3.091   2.462  14.541  2.0965  0.2698 -0.7080
   19TMC2    H1  298   3.002   2.489  14.121 -2.1249 -3.8909 -1.6066
   19TMC2    H2  299   2.735   2.291  14.381 -0.4916  0.6035 -1.6958
   19TMC2    C7  300   2.784   2.350  14.126 -1.0770  0.1059 -0.5393
   19TMC2    C8  301   2.882   2.299  14.597 -0.4033  0.2106  0.5326
   19TMC2    O1  302   2.861   2.319  14.037  0.3046  0.4239  1.0165
   19TMC2    O2  303   2.770   2.261  14.642  0.2721  0.0739  0.3171
   19TMC2    O5  304   2.993   2.220  14.606 -0.1433 -0.3199  0.2724
   19TMC2    H5  305   3.080   2.247  14.570  0.3828 -1.0667  0.9821
   20MPD2     C  306   3.402   2.772  14.335  0.1218  0.8604  0.6475
   20MPD2    C1  307   3.350   2.692  14.438 -0.0343 -0.0395  0.4633
   20MPD2    C2  308   3.403   2.709  14.564  0.2147 -0.0255  0.7713
   20MPD2    C3  309   3.509   2.791  14.583  0.3844 -0.0907 -0.2857
   20MPD2    C4  310   3.551   2.880  14.486  0.1057 -0.1464 -0.1530
   20MPD2    C5  311   3.495   2.863  14.369 -0.6340  0.2879  0.7643
   20MPD2     H  312   3.377   2.639  14.643 -1.0050  0.5039  0.8316
   20MPD2    H1  313   3.635   2.947  14.496 -0.7231  1.0901 -1.6204
   20MPD2    H2  314   3.369   2.766  14.232  0.9173 -1.4034  0.5329
   20MPD2    H3  315   3.540   2.924  14.292  2.4960 -1.0416  1.5397
   20MPD2     N  316   3.582   2.797  14.707 -0.0307  0.1476 -0.0087
   20MPD2    H5  317   3.635   2.880  14.733  0.5349 -0.4104  0.6039
   20MPD2    N1  318   3.250   2.590  14.421 -0.7003  0.7086 -0.2371
   20MPD2    H7  319   3.222   2.523  14.492 -1.1785  4.3823  3.0075
   21MPD2     C  320   0.742   3.844  14.363  0.2201  0.4124  0.2260
   21MPD2    C1  321   0.789   3.714  14.369  0.0240  0.6389  0.0189
   21MPD2    C2  322   0.691   3.616  14.397  0.1991 -0.3305  0.4269
   21MPD2    C3  323   0.567   3.649  14.446 -0.5639 -0.3694  0.8903
   21MPD2    C4  324   0.530   3.781  14.457 -0.6889  0.7106 -0.1764
   21MPD2    C5  325   0.615   3.875  14.410 -0.1301 -0.1415  0.0776
   21MPD2     H  326   0.729   3.514  14.405 -1.7771 -1.0039  1.2924
   21MPD2    H1  327   0.433   3.806  14.500 -1.0518  2.5737 -2.1360
   21MPD2    H2  328   0.812   3.921  14.332  1.9141 -1.0691  0.3568
   21MPD2    H3  329   0.581   3.978  14.400  1.8207  0.5910  0.9461
   21MPD2     N  330   0.473   3.553  14.503 -0.2446 -0.1879 -0.0101
   21MPD2    H5  331   0.414   3.587  14.579  1.3801  0.2600  1.0733
   21MPD2    N1  332   0.915   3.672  14.324  0.0050  0.8911 -0.3267
   21MPD2    H7  333   0.925   3.572  14.313 -0.0308  0.6771  1.5300
   22TCq2    C1  334   0.469   3.423  14.469 -0.5932  0.1012  0.3826
   22TCq2    O2  335   0.537   3.362  14.385  0.2773  0.0598 -0.2765
   22TCq2    C2  336   0.387   3.331  14.552  0.9215  0.2543 -0.4512
   22TCq2    C3  337   0.437   3.205  14.584  0.1813 -0.2784 -0.6111
   22TCq2    C4  338   0.425   3.164  14.714 -0.0015  0.8048  0.4344
   22TCq2    C5  339   0.354   3.230  14.809  0.2206 -0.0858  0.5341
   22TCq2    C6  340   0.279   3.331  14.756  0.4277  0.8522  0.0025
   22TCq2    C7  341   0.298   3.390  14.631  0.6649  0.2935  0.3051
   22TCq2    C8  342   0.199   3.401  14.851 -0.6985 -0.7418 -0.3516
   22TCq2    O4  343   0.233   3.394  14.968  0.3559  0.0391  0.4886
   22TCq2    C9  344   0.501   3.048  14.763  0.3293  1.0364 -0.5517
   22TCq2    O5  345   0.566   2.984  14.673 -0.3108 -0.2476  0.1463
   22TCq2    O6  346   0.523   3.034  14.883 -0.7522 -0.4167  0.1541
   22TCq2    H2  347   0.497   3.153  14.510  1.3258  0.8485 -0.4843
   22TCq2    H3  348   0.361   3.204  14.914  2.7644  0.1943  0.4367
   22TCq2    H4  349   0.265   3.489  14.601 -0.7546 -0.7892 -1.6883
   23MPD2     C  350   2.354   0.050  15.123 -0.0690  0.0884 -0.3134
   23MPD2    C1  351   2.305   4.641  15.136 -0.1198 -0.4116  0.2690
   23MPD2    C2  352   2.256   4.569  15.025  0.2504 -0.1978 -0.2729
   23MPD2    C3  353   2.251   4.631  14.907 -0.1623  0.7235  0.0719
   23MPD2    C4  354   2.301   0.034  14.893  0.2485  0.1790 -0.6015
   23MPD2    C5  355   2.340   0.109  15.000  0.3249 -0.3945 -0.6339
   23MPD2     H  356   2.224   4.467  15.046  1.3668 -0.6180 -0.5874
   23MPD2    H1  357   2.316   0.079  14.796 -4.1412 -0.1580 -1.4061
   23MPD2    H2  358   2.384   0.119  15.201  0.6792 -1.4717  0.7736
   23MPD2    H3  359   2.394   0.202  14.985 -2.6007  1.3013 -0.5495
   23MPD2     N  360   2.201   4.574  14.791 -0.7339  0.9990  0.0288
   23MPD2    H5  361   2.213   4.620  14.701 -2.4521  2.2320  0.4336
   23MPD2    N1  362   2.294   4.578  15.255 -0.9914  0.3087  0.3675
   23MPD2    H7  363   2.255   4.485  15.265  0.3577 -0.2257  0.6472
   24TCq2    C1  364   2.125   4.457  14.778 -0.7961 -0.1454 -0.4086
   24TCq2    O2  365   2.107   4.372  14.863 -0.2351  0.0048  0.2307
   24TCq2    C2  366   2.042   4.454  14.665  0.0259 -0.0252 -0.3317
   24TCq2    C3  367   2.041   4.554  14.572  0.3993  0.6838  0.0718
   24TCq2    C4  368   1.933   4.579  14.494 -0.5242 -0.2155 -0.0841
   24TCq2    C5  369   1.836   4.484  14.484 -0.2741  0.7974  0.1475
   24TCq2    C6  370   1.846   4.374  14.565 -0.4794  0.7392  0.0599
   24TCq2    C7  371   1.949   4.357  14.651 -0.2285 -0.6193  0.3943
   24TCq2    C8  372   1.755   4.259  14.568  0.0034 -0.1676 -0.0420
   24TCq2    O4  373   1.797   4.150  14.595  0.7744  0.4622 -0.4560
   24TCq2    C9  374   1.940   4.692  14.396  0.0275  0.2562 -0.0287
   24TCq2    O5  375   1.879   4.680  14.284 -0.3656 -0.1242 -1.0657
   24TCq2    O6  376   2.008   0.071  14.423 -0.6967 -0.0217 -0.0275
   24TCq2    H2  377   2.118   4.629  14.574  0.1692  0.9266 -0.2710
   24TCq2    H3  378   1.768   4.494  14.400 -0.5285 -0.2928  0.2266
   24TCq2    H4  379   1.949   4.278  14.725  1.3395 -0.0442  1.0022
   25TMC2    C1  380   1.193   1.501  11.606  0.4419 -0.1768 -0.0766
   25TMC2    C2  381   1.309   1.507  11.668  0.4864 -0.6103  0.2591
   25TMC2    C3  382   1.342   1.617  11.739  0.1954 -0.0362  0.1601
   25TMC2    C4  383   1.092   1.590  11.645  0.3937  0.1745  0.5758
   25TMC2    C5  384   1.126   1.694  11.727 -0.3165 -0.1077  0.1728
   25TMC2    C6  385   1.261   1.716  11.768  0.3361  0.0615  0.0746
   25TMC2     C  386   1.155   1.377  11.531 -0.1684 -0.2543 -1.1368
   25TMC2     O  387   1.234   1.285  11.551  0.2353  0.1084  1.0092
   25TMC2     H  388   1.382   1.428  11.656  0.7469 -0.2240 -0.6205
   25TMC2    H1  389   0.988   1.572  11.619  0.7727 -0.6315 -0.3585
   25TMC2    H2  390   1.275   1.782  11.854  1.3993 -0.6966  0.4846
   25TMC2    C7  391   1.026   1.739  11.822 -0.6033 -0.0902 -0.3079
   25TMC2    C8  392   1.468   1.592  11.803 -0.4238 -0.0694 -0.3958
   25TMC2    O1  393   1.058   1.770  11.936 -0.1313  0.1276 -0.2887
   25TMC2    O2  394   1.517   1.483  11.821 -0.0251 -0.3227  0.1716
   25TMC2    O5  395   1.534   1.706  11.826 -0.1859 -0.2279 -0.3282
   25TMC2    H5  396   1.483   1.782  11.790  0.0039 -0.0823 -0.2941
   26MPD2     C  397   0.851   1.058  11.283  0.0520  0.6840 -0.1591
   26MPD2    C1  398   0.794   1.179  11.290 -0.8057 -0.0642 -0.1330
   26MPD2    C2  399   0.860   1.285  11.349  0.6642 -0.4919  0.1513
   26MPD2    C3  400   0.992   1.271  11.390 -0.2104 -0.6076 -0.6102
   26MPD2    C4  401   1.053   1.143  11.387 -0.0484  0.3580  0.2400
   26MPD2    C5  402   0.978   1.041  11.333 -0.4377  0.3525  0.1660
   26MPD2     H  403   0.805   1.376  11.370  2.6782  0.6761  0.3687
   26MPD2    H1  404   1.157   1.125  11.410 -0.3484 -0.6199  0.8096
   26MPD2    H2  405   0.807   0.966  11.244 -1.3433  3.1472 -4.3978
   26MPD2    H3  406   1.015   0.939  11.328 -1.3867  0.0507 -0.7149
   26MPD2     N  407   1.043   1.385  11.449  0.9018  0.4401 -0.3026
   26MPD2    H5  408   0.996   1.475  11.450 -1.7973 -0.9567 -0.0608
   26MPD2    N1  409   0.656   1.179  11.257 -0.1861  0.7249 -0.7500
   26MPD2    H7  410   0.615   1.090  11.230  2.6584 -0.4943 -1.0820
   27TMC2    C1  411   4.273   3.696  12.042  0.0196  0.1733 -0.7436
   27TMC2    C2  412   4.249   3.626  11.932  0.0107 -0.2685 -0.7703
   27TMC2    C3  413   4.231   3.688  11.811 -0.7425  0.1821 -0.0187
   27TMC2    C4  414   4.290   3.835  12.031 -0.0860  0.0919 -0.2258
   27TMC2    C5  415   4.287   3.899  11.907 -0.9585  0.8211 -0.4173
   27TMC2    C6  416   4.248   3.824  11.791 -0.2676  0.3470 -0.1081
   27TMC2     C  417   4.329   3.629  12.154  0.0305  0.5755 -0.2751
   27TMC2     O  418   4.395   3.520  12.138 -0.0629  0.2865 -0.8045
   27TMC2     H  419   4.229   3.520  11.939 -0.8081 -0.0189  0.7650
   27TMC2    H1  420   4.309   3.894  12.120  0.1652 -0.2485 -0.0542
   27TMC2    H2  421   4.252   3.869  11.692  0.4714  0.8663  0.1549
   27TMC2    C7  422   4.296   4.049  11.902 -0.5780 -0.2498 -0.3189
   27TMC2    C8  423   4.238   3.593  11.704 -0.1369 -0.5574  0.0663
   27TMC2    O1  424   4.343   4.097  12.004 -0.1326 -0.4325  0.5774
   27TMC2    O2  425   4.323   3.505  11.694  0.4473  0.4902 -0.5452
   27TMC2    O5  426   4.192   3.668  11.600  0.0716 -0.4332  0.4773
   27TMC2    H5  427   4.125   3.732  11.633 -1.0442 -0.9466 -0.7647
   28MPD2     C  428   4.365   3.561  12.664  0.5644 -0.4820 -0.3855
   28MPD2    C1  429   4.270   3.654  12.640 -0.4988 -0.4913  0.6733
   28MPD2    C2  430   4.251   3.688  12.507 -0.2622 -0.3680  0.3258
   28MPD2    C3  431   4.332   3.641  12.406 -0.8980  0.3954  0.2979
   28MPD2    C4  432   4.437   3.558  12.436 -0.0149 -0.3733  0.0700
   28MPD2    C5  433   4.454   3.519  12.566  0.2760  0.5119 -0.5464
   28MPD2     H  434   4.167   3.750  12.479 -0.9959 -1.8851 -0.8262
   28MPD2    H1  435   4.513   3.529  12.364 -0.3699 -0.0420 -0.4385
   28MPD2    H2  436   4.383   3.529  12.766  2.5729  1.7862 -0.0211
   28MPD2    H3  437   4.543   3.464  12.594 -0.8406 -1.1392 -0.2384
   28MPD2     N  438   4.287   3.683  12.274  0.0493  0.0421  0.0479
   28MPD2    H5  439   4.221   3.760  12.274 -0.9086 -0.7674  1.4601
   28MPD2    N1  440   4.194   3.703  12.745  0.2051 -0.4632 -0.0172
   28MPD2    H7  441   4.212   3.676  12.841  1.2299 -1.3369 -0.4558
   29MPD2     C  442   3.807   1.519  14.137  0.6703 -0.8549 -0.4032
   29MPD2    C1  443   3.932   1.459  14.151 -0.5768  0.3431  0.5886
   29MPD2    C2  444   4.034   1.543  14.182  0.2318  0.5834 -0.0353
   29MPD2    C3  445   4.022   1.679  14.188 -0.0088 -0.5069 -0.0587
   29MPD2    C4  446   3.899   1.733  14.157 -0.1606 -0.3866 -0.0067
   29MPD2    C5  447   3.789   1.653  14.131 -0.2517  0.1594 -0.1299
   29MPD2     H  448   4.130   1.496  14.200 -1.6489 -3.3925 -0.3602
   29MPD2    H1  449   3.874   1.838  14.163  0.4066 -0.2007 -0.9671
   29MPD2    H2  450   3.721   1.458  14.114 -1.1574  1.2532  0.8430
   29MPD2    H3  451   3.691   1.697  14.116  0.6222  1.5692 -1.6320
   29MPD2     N  452   4.131   1.764  14.225  0.0935  0.0796 -0.5719
   29MPD2    H5  453   4.112   1.863  14.232 -1.3630 -0.1562 -1.2084
   29MPD2    N1  454   3.958   1.319  14.146 -0.0339 -0.0423  0.3968
   29MPD2    H7  455   4.054   1.290  14.163 -0.1911 -1.7341 -1.5879
   30TCq2    C1  456   4.254   1.721  14.271  0.0133 -0.3700  0.1022
   30TCq2    O2  457   4.303   1.608  14.269  0.1466 -0.6001  0.1371
   30TCq2    C2  458   4.330   1.825  14.329  0.2367 -0.4133  0.6741
   30TCq2    C3  459   4.297   1.858  14.459 -0.8107 -0.1064  0.3377
   30TCq2    C4  460   4.357   1.974  14.505  0.1430  0.8373  0.1345
   30TCq2    C5  461   4.437   2.052  14.427  0.0686 -0.2043 -0.2618
   30TCq2    C6  462   4.452   2.019  14.292 -0.2910  0.7913  0.4999
   30TCq2    C7  463   4.385   1.909  14.243 -0.7347 -0.4936  0.2246
   30TCq2    C8  464   4.537   2.101  14.201 -0.2260 -0.4997  0.2843
   30TCq2    O4  465   4.510   2.099  14.080 -0.0053 -0.0993 -0.2855
   30TCq2    C9  466   4.362   1.996  14.649  0.1087 -0.3813 -0.4484
   30TCq2    O5  467   4.383   2.114  14.697 -0.3740  0.2590  0.4952
   30TCq2    O6  468   4.338   1.897  14.720  0.6104  0.0790 -0.2880
   30TCq2    H2  469   4.224   1.798  14.514  0.0064  0.4265  1.9824
   30TCq2    H3  470   4.494   2.134  14.470 -2.1040  2.0546 -1.7335
   30TCq2    H4  471   4.408   1.861  14.149 -0.1923  1.5079 -0.6675
   31MPD2     C  472   1.984   0.783  14.918  0.3071 -0.7166 -0.1621
   31MPD2    C1  473   1.871   0.811  14.844 -1.0181  0.0341  0.0532
   31MPD2    C2  474   1.748   0.777  14.904 -0.2092  0.4755 -0.2974
   31MPD2    C3  475   1.731   0.726  15.030 -0.1065 -0.7724 -0.1914
   31MPD2    C4  476   1.850   0.698  15.087  0.2264 -0.1935 -0.9730
   31MPD2    C5  477   1.970   0.721  15.043  0.1695 -0.6868  0.4859
   31MPD2     H  478   1.657   0.791  14.846  0.1316 -0.3733 -1.0524
   31MPD2    H1  479   1.859   0.646  15.181  1.0899 -2.3694 -2.2585
   31MPD2    H2  480   2.079   0.820  14.882 -0.7382  1.8065 -0.3016
   31MPD2    H3  481   2.064   0.713  15.096 -0.1220 -2.2131  0.7734
   31MPD2     N  482   1.607   0.698  15.092 -0.4741 -0.6073  0.5021
   31MPD2    H5  483   1.610   0.666  15.188  0.3952 -0.2090  0.6117
   31MPD2    N1  484   1.886   0.845  14.706  0.1536 -0.0593 -0.4478
   31MPD2    H7  485   1.982   0.861  14.674  0.3149 -1.3624 -0.6064
   32TCq2    C1  486   1.485   0.733  15.047 -0.2411  0.5123 -0.8024
   32TCq2    O2  487   1.460   0.795  14.945  0.4005 -0.4268  0.2253
   32TCq2    C2  488   1.380   0.690  15.137 -0.2796  0.4685  0.0613
   32TCq2    C3  489   1.264   0.756  15.116 -0.3416  0.6850  0.3249
   32TCq2    C4  490   1.160   0.722  15.200  0.5226 -0.3115  0.1265
   32TCq2    C5  491   1.167   0.618  15.296 -0.2332  0.5244 -0.4844
   32TCq2    C6  492   1.288   0.556  15.300  0.1004 -0.1751  0.9195
   32TCq2    C7  493   1.395   0.581  15.218  0.0987 -0.1338  0.1975
   32TCq2    C8  494   1.320   0.478  15.424 -0.3618 -0.1707  0.5956
   32TCq2    O4  495   1.431   0.434  15.431  0.3315  0.1364 -0.4704
   32TCq2    C9  496   1.031   0.783  15.177  0.1123  0.0291  0.4705
   32TCq2    O5  497   0.949   0.765  15.272  0.3097  0.4130  0.2180
   32TCq2    O6  498   1.033   0.864  15.078  0.7003 -0.0926  0.0875
   32TCq2    H2  499   1.256   0.843  15.052 -1.1823  0.8754  0.6872
   32TCq2    H3  500   1.082   0.577  15.351 -0.8079 -0.0082 -1.7652
   32TCq2    H4  501   1.488   0.525  15.225  0.2476 -0.0660 -1.2851
   33MPD2     C  502   2.407   2.746   9.960 -0.0552 -0.0062 -0.0535
   33MPD2    C1  503   2.326   2.737  10.071 -0.3383  0.4834 -0.2923
   33MPD2    C2  504   2.206   2.792  10.067 -0.6389 -1.0718  0.2600
   33MPD2    C3  505   2.164   2.867   9.963  0.0779  0.2713  0.0977
   33MPD2    C4  506   2.244   2.879   9.850  0.0026 -0.6075 -0.6879
   33MPD2    C5  507   2.361   2.817   9.849  0.7141  0.4097 -0.5363
   33MPD2     H  508   2.135   2.782  10.148 -0.8400  1.9038  0.4632
   33MPD2    H1  509   2.220   2.941   9.765  1.0704  0.0008 -0.5569
   33MPD2    H2  510   2.506   2.702   9.958  0.8057  1.9099  1.1741
   33MPD2    H3  511   2.422   2.844   9.764  1.6968  0.8717  0.3092
   33MPD2     N  512   2.054   2.961   9.972  0.2757  0.0249  1.2327
   33MPD2    H5  513   2.039   3.021   9.891  2.9407  0.9714  1.4305
   33MPD2    N1  514   2.384   2.674  10.182 -0.1665  0.0531  0.1112
   33MPD2    H7  515   2.468   2.621  10.165  0.3845  0.1436  2.5119
   34TCq2    C1  516   1.965   2.962  10.083 -0.1131 -0.0634 -0.1454
   34TCq2    O2  517   1.940   2.880  10.168  0.2614  0.2034 -0.0620
   34TCq2    C2  518   1.869   3.073  10.067  0.5872  1.1155 -0.6121
   34TCq2    C3  519   1.815   3.109  10.184  0.3797  0.0527  0.7931
   34TCq2    C4  520   1.747   3.225  10.183 -0.4504  0.1510  0.0012
   34TCq2    C5  521   1.740   3.301  10.070  1.3864  0.3500 -0.1507
   34TCq2    C6  522   1.793   3.255   9.952  0.1034 -0.4266  0.1327
   34TCq2    C7  523   1.867   3.142   9.951 -0.0495 -0.2917 -0.2037
   34TCq2    C8  524   1.794   3.337   9.832  0.4329  1.4556  0.1502
   34TCq2    O4  525   1.867   3.290   9.741 -0.0135  0.5832 -0.3122
   34TCq2    C9  526   1.730   3.292  10.306  0.2202  0.1708 -0.5164
   34TCq2    O5  527   1.701   3.229  10.412  0.3474  0.2203  0.1801
   34TCq2    O6  528   1.745   3.417  10.301  0.0483  0.3513 -0.1218
   34TCq2    H2  529   1.826   3.050  10.273  1.2129  1.4314  1.6124
   34TCq2    H3  530   1.686   3.394  10.074 -0.1696 -0.4591 -2.1853
   34TCq2    H4  531   1.891   3.095   9.856  1.1556  0.6710 -0.3781
   35MPD2     C  532   3.779   4.499  12.115  0.5151  0.1074 -0.1633
   35MPD2    C1  533   3.826   4.376  12.144 -0.3452  0.2527 -0.0886
   35MPD2    C2  534   3.826   4.280  12.043  0.5328  0.4691 -0.1965
   35MPD2    C3  535   3.772   4.308  11.917 -0.2672  0.1310 -0.3531
   35MPD2    C4  536   3.735   4.442  11.891  0.0263 -0.1712 -0.0025
   35MPD2    C5  537   3.729   4.534  11.992  0.2516 -0.3031  0.3314
   35MPD2     H  538   3.849   4.176  12.064 -1.1600 -0.1718 -1.5960
   35MPD2    H1  539   3.706   4.477  11.793 -1.7386 -1.0775  0.1865
   35MPD2    H2  540   3.768   4.576  12.191  0.0383 -0.4246  0.3055
   35MPD2    H3  541   3.691   4.633  11.970 -1.1507 -1.2757 -1.6063
   35MPD2     N  542   3.767   4.206  11.815  0.3743  0.4496 -0.2722
   35MPD2    H5  543   3.808   4.117  11.839 -0.0761  0.1411 -0.6587
   35MPD2    N1  544   3.865   4.342  12.275  0.1531  0.4483  0.7748
   35MPD2    H7  545   3.821   4.398  12.347 -1.4785  1.6292 -1.1370
   36TCq2    C1  546   3.691   4.217  11.695  0.3703  0.4322  0.2048
   36TCq2    O2  547   3.597   4.289  11.682 -0.0732 -0.0436  0.5670
   36TCq2    C2  548   3.698   4.113  11.603  0.6440  0.0457 -0.5185
   36TCq2    C3  549   3.798   4.019  11.621  0.6518  0.1996  0.1694
   36TCq2    C4  550   3.773   3.890  11.571  0.3715  0.1081  0.0516
   36TCq2    C5  551   3.668   3.865  11.484 -0.4670  0.1971 -0.7999
   36TCq2    C6  552   3.580   3.964  11.459 -0.2075 -0.1938  1.1922
   36TCq2    C7  553   3.588   4.089  11.518  0.1829 -0.4426  0.6038
   36TCq2    C8  554   3.450   3.925  11.405 -0.5922 -0.5046  0.4261
   36TCq2    O4  555   3.402   3.819  11.449  0.6687  0.0735 -0.4553
   36TCq2    C9  556   3.855   3.775  11.620  0.2687  0.1507 -0.6081
   36TCq2    O5  557   3.803   3.661  11.638 -0.1516 -0.5114 -0.0215
   36TCq2    O6  558   3.973   3.807  11.647  0.4426  0.1642  0.5041
   36TCq2    H2  559   3.883   4.032  11.687  0.9581  1.2394 -0.4178
   36TCq2    H3  560   3.648   3.763  11.453 -0.7654  0.0908 -0.2561
   36TCq2    H4  561   3.512   4.164  11.498 -0.1437 -1.8069 -3.1878
   37TMC2    C1  562   1.227   4.428  11.545  0.4255 -0.8484 -0.3625
   37TMC2    C2  563   1.282   4.405  11.424  0.0130 -0.7039 -0.6899
   37TMC2    C3  564   1.415   4.388  11.412  0.5160  0.3975  0.3685
   37TMC2    C4  565   1.312   4.458  11.648  0.3263  0.0976 -0.1910
   37TMC2    C5  566   1.444   4.445  11.635  0.5774  1.0626 -0.4090
   37TMC2    C6  567   1.499   4.403  11.518 -0.8070  0.1817 -0.4357
   37TMC2     C  568   1.099   4.503  11.541 -0.3281  0.9545 -0.1090
   37TMC2     O  569   1.059   4.519  11.425 -0.1899 -0.4504  0.1430
   37TMC2     H  570   1.216   4.378  11.342 -0.3876 -1.1677 -0.2142
   37TMC2    H1  571   1.273   4.503  11.739 -0.3479 -1.0102  0.0684
   37TMC2    H2  572   1.605   4.377  11.520 -0.9686 -0.3262  1.4867
   37TMC2    C7  573   1.534   4.462  11.745  0.5796 -0.2499 -0.7644
   37TMC2    C8  574   1.460   4.334  11.288 -0.1349  0.3124  0.3120
   37TMC2    O1  575   1.480   4.440  11.856 -0.6423  0.3847 -0.9673
   37TMC2    O2  576   1.375   4.274  11.221  0.1070  0.6388 -0.0622
   37TMC2    O5  577   1.568   4.404  11.245  0.5861 -0.4526  0.0360
   37TMC2    H5  578   1.609   4.453  11.319  0.5905  0.0034 -0.2655
   38MPD2     C  579   0.638   4.628  11.749  0.6151 -0.6384  0.8894
   38MPD2    C1  580   0.725   4.573  11.842  0.1118  0.6104 -0.0901
   38MPD2    C2  581   0.858   4.554  11.818 -0.1617 -0.7431 -0.1533
   38MPD2    C3  582   0.902   4.548  11.686  0.6707  0.1019  0.3517
   38MPD2    C4  583   0.805   4.590  11.589  0.7341  0.5043  0.0900
   38MPD2    C5  584   0.677   4.630  11.620 -0.6799 -0.0783 -0.3411
   38MPD2     H  585   0.922   4.532  11.902  0.4270 -3.1509 -1.2272
   38MPD2    H1  586   0.831   4.595  11.484 -1.7589 -2.0944 -0.6461
   38MPD2    H2  587   0.542   4.670  11.776  0.2075 -0.6809 -0.5404
   38MPD2    H3  588   0.609   4.668  11.544 -0.1078 -1.5454 -1.5821
   38MPD2     N  589   1.036   4.504  11.662  0.0722  0.4532 -0.3141
   38MPD2    H5  590   1.086   4.472  11.745 -1.1145  0.1037  0.2671
   38MPD2    N1  591   0.691   4.540  11.977  0.5680 -0.6388 -0.4496
   38MPD2    H7  592   0.771   4.522  12.037  0.5566 -2.9134 -1.1334
   39MPD2     C  593   3.893   1.107   1.584  0.0205 -0.4683  0.9917
   39MPD2    C1  594   3.866   1.212   1.674 -0.1684  0.1238  0.1133
   39MPD2    C2  595   3.734   1.264   1.672  0.0126 -0.4762  0.1733
   39MPD2    C3  596   3.632   1.202   1.605 -0.5093 -0.4514  0.1430
   39MPD2    C4  597   3.662   1.088   1.528  0.2707 -0.8515 -0.3041
   39MPD2    C5  598   3.795   1.047   1.519  1.0863  0.1834  0.0544
   39MPD2     H  599   3.729   1.362   1.717 -0.5497 -0.6694  0.5405
   39MPD2    H1  600   3.592   1.054   1.453 -1.5251  0.9828  0.5572
   39MPD2    H2  601   3.995   1.069   1.587  0.4079  0.5719  1.2406
   39MPD2    H3  602   3.817   0.961   1.458 -2.3169 -0.6010 -0.0698
   39MPD2     N  603   3.504   1.261   1.581 -0.3586  0.0695  0.2689
   39MPD2    H5  604   3.438   1.230   1.510  0.5429 -2.2893  0.4295
   39MPD2    N1  605   3.973   1.270   1.743 -0.2109 -0.5313  0.1564
   39MPD2    H7  606   4.065   1.235   1.720 -0.6989 -1.5567 -0.2537
   40TCq2    C1  607   3.959   1.366   1.842  0.3208  0.2013  0.8283
   40TCq2    O2  608   3.853   1.398   1.899 -1.0880 -0.1732 -0.5233
   40TCq2    C2  609   4.091   1.414   1.884 -0.3497 -0.0123  0.5648
   40TCq2    C3  610   4.093   1.480   2.001  0.6122 -0.5260 -1.4780
   40TCq2    C4  611   4.180   1.580   2.026  0.3048 -0.2984 -0.0512
   40TCq2    C5  612   4.266   1.616   1.930  0.7770 -0.2049 -0.1193
   40TCq2    C6  613   4.261   1.551   1.804 -0.1535  1.0758  0.3480
   40TCq2    C7  614   4.179   1.448   1.786 -0.0266 -0.3490  0.0731
   40TCq2    C8  615   4.303   1.620   1.689  0.2908 -0.2498  0.2815
   40TCq2    O4  616   4.309   1.565   1.582 -0.0353  0.4071 -0.3407
   40TCq2    C9  617   4.178   1.656   2.148 -0.1685 -0.1600 -0.0897
   40TCq2    O5  618   4.258   1.755   2.148 -0.2327 -0.4260  0.4126
   40TCq2    O6  619   4.135   1.596   2.251 -0.2899  0.3045 -0.0827
   40TCq2    H2  620   4.014   1.456   2.070  0.5414 -0.3199 -1.4862
   40TCq2    H3  621   4.348   1.680   1.958  0.2796  0.7931 -0.9384
   40TCq2    H4  622   4.175   1.402   1.688 -0.9395 -1.9432  0.8539
   41TMC2    C1  623   2.352   3.973  13.783 -0.6467  0.5363 -0.2732
   41TMC2    C2  624   2.477   3.906  13.780 -0.0533 -0.3553  0.3036
   41TMC2    C3  625   2.552   3.930  13.665  0.0062  0.3255  0.1503
   41TMC2    C4  626   2.303   4.042  13.674 -0.1160  0.3412 -0.9421
   41TMC2    C5  627   2.396   4.063  13.568 -0.5132 -0.2433 -0.0063
   41TMC2    C6  628   2.518   4.019  13.570  0.0788 -1.0482 -1.3282
   41TMC2     C  629   2.264   3.967  13.902 -0.2640 -0.8892 -0.0680
   41TMC2     O  630   2.152   4.014  13.904  0.3138  0.8614  0.3875
   41TMC2     H  631   2.515   3.839  13.856 -1.7180  0.2762  1.7045
   41TMC2    H1  632   2.200   4.074  13.671  0.4058  2.2106  1.0175
   41TMC2    H2  633   2.587   4.042  13.490  1.9452  0.1359  0.6327
   41TMC2    C7  634   2.355   4.152  13.459 -1.2023  0.0775 -0.1288
   41TMC2    C8  635   2.675   3.859  13.650 -0.1769 -0.2888 -0.5350
   41TMC2    O1  636   2.253   4.211  13.482 -0.8022 -0.3210  0.0004
   41TMC2    O2  637   2.739   3.805  13.739  0.4985  0.3045 -0.5339
   41TMC2    O5  638   2.691   3.832  13.522  0.0232  0.2275 -0.0976
   41TMC2    H5  639   2.614   3.860  13.469  0.9017  1.1909 -0.8439
   42MPD2     C  640   2.147   3.837  14.146  0.3251  0.8308  0.0466
   42MPD2    C1  641   2.279   3.870  14.129  0.2658 -0.0226 -1.0970
   42MPD2    C2  642   2.374   3.846  14.231 -0.3680  0.1164  0.8191
   42MPD2    C3  643   2.326   3.794  14.354  0.5367  1.3357 -0.1899
   42MPD2    C4  644   2.195   3.755  14.368  0.1024 -0.3335  0.3259
   42MPD2    C5  645   2.110   3.780  14.264 -0.1634 -0.2974  0.3994
   42MPD2     H  646   2.476   3.876  14.212 -0.8480  0.3928 -1.3694
   42MPD2    H1  647   2.161   3.703  14.457 -1.7073 -0.1404 -0.2462
   42MPD2    H2  648   2.071   3.850  14.069  0.7159  2.4249 -0.0661
   42MPD2    H3  649   2.008   3.742  14.268 -1.0645  2.2422  1.8741
   42MPD2     N  650   2.407   3.788  14.475  0.2021 -0.1002  0.0745
   42MPD2    H5  651   2.363   3.744  14.556 -1.2089  1.1266 -0.0138
   42MPD2    N1  652   2.334   3.905  14.003  0.2854  0.1777 -0.2906
   42MPD2    H7  653   2.436   3.909  13.997  0.1688  0.8804 -1.8084
   43MPD2     C  654   3.850   3.368   0.567 -0.0386  0.7818 -0.3472
   43MPD2    C1  655   3.978   3.369   0.619  0.1596 -0.5650 -0.3150
   43MPD2    C2  656   4.027   3.491   0.667 -0.0602  0.4480 -0.8145
   43MPD2    C3  657   3.946   3.605   0.672 -0.1002  0.0898  0.4266
   43MPD2    C4  658   3.817   3.593   0.627 -0.0233 -0.5493  0.0979
   43MPD2    C5  659   3.767   3.476   0.574  1.0358  0.6271 -0.6107
   43MPD2     H  660   4.131   3.494   0.698  0.1369 -0.4257 -1.4154
   43MPD2    H1  661   3.750   3.678   0.618  1.4512  0.4403 -1.3198
   43MPD2    H2  662   3.796   3.277   0.545 -0.8801  0.9749  0.9088
   43MPD2    H3  663   3.665   3.468   0.539  0.6288  0.9287  0.5183
   43MPD2     N  664   3.990   3.733   0.716  0.7596  0.2132 -0.2081
   43MPD2    H5  665   3.924   3.809   0.701 -0.6127 -0.3907  2.7038
   43MPD2    N1  666   4.057   3.258   0.617  0.1122 -0.6313  0.1103
   43MPD2    H7  667   4.155   3.264   0.645  0.1596 -3.2164  0.4639
   44TCq2    C1  668   4.034   4.130   1.043 -0.1719  0.0937 -0.4162
   44TCq2    O2  669   4.043   4.250   1.069  0.4042 -0.3853  0.2813
   44TCq2    C2  670   4.102   4.074   0.929 -0.7821  0.1624  0.3118
   44TCq2    C3  671   4.213   4.138   0.882 -0.2249 -0.7983 -0.4489
   44TCq2    C4  672   4.295   4.071   0.798 -0.4178  0.7288 -0.0958
   44TCq2    C5  673   4.271   3.950   0.747  0.5934 -0.1445  0.3196
   44TCq2    C6  674   4.143   3.898   0.776  0.0852  0.7267  0.6440
   44TCq2    C7  675   4.066   3.956   0.874 -0.3143  0.5369 -0.3271
   44TCq2    C8  676   4.122   3.760   0.747 -0.1404 -0.4760  0.4681
   44TCq2    O4  677   4.223   3.693   0.709  0.7721  0.1560 -0.1108
   44TCq2    C9  678   4.423   4.135   0.771 -0.3908 -1.0119  0.1418
   44TCq2    O5  679   4.499   4.084   0.688  0.2472 -0.4453 -0.0416
   44TCq2    O6  680   4.468   4.235   0.842 -0.0069 -0.3938  0.0078
   44TCq2    H2  681   4.233   4.238   0.918  2.1183 -0.8390 -1.6244
   44TCq2    H3  682   4.342   3.910   0.675  0.9104  1.3456 -0.2038
   44TCq2    H4  683   3.971   3.909   0.898 -0.4157  0.5368 -0.7212
   45TMC2    C1  684   0.526   4.405   9.454  0.0026 -0.0187 -0.5450
   45TMC2    C2  685   0.633   4.377   9.376 -0.6565 -0.3827 -0.5628
   45TMC2    C3  686   0.723   4.477   9.352  0.5312 -0.6074  0.6417
   45TMC2    C4  687   0.506   4.532   9.500 -0.0172  0.2421 -0.6069
   45TMC2    C5  688   0.605   4.631   9.476  0.0154 -0.2155 -0.8756
   45TMC2    C6  689   0.711   4.601   9.402 -0.9384 -0.4049 -0.0319
   45TMC2     C  690   0.423   4.299   9.459 -0.0088 -0.3562  0.2449
   45TMC2     O  691   0.460   4.181   9.445 -0.3865  0.2796  0.5456
   45TMC2     H  692   0.632   4.285   9.319 -3.4156 -1.7484  1.6531
   45TMC2    H1  693   0.413   4.569   9.542 -0.4926 -0.3313 -1.1532
   45TMC2    H2  694   0.777   4.685   9.383 -1.7465  0.1600 -0.3628
   45TMC2    C7  695   0.555   0.044   9.469 -0.3043 -0.6141  0.8597
   45TMC2    C8  696   0.855   4.456   9.293 -0.1524 -0.1600  0.3769
   45TMC2    O1  697   0.568   0.096   9.360  0.4121 -0.2384  0.1158
   45TMC2    O2  698   0.930   4.539   9.245 -0.1290 -0.0841  0.0359
   45TMC2    O5  699   0.873   4.321   9.277  0.6153 -0.6281 -0.1885
   45TMC2    H5  700   0.814   4.273   9.339 -1.1006  0.2617 -1.1249
   46MPD2     C  701   0.158   4.144   9.470  0.1077 -0.1825 -0.8697
   46MPD2    C1  702   0.172   4.283   9.473 -0.5686  0.4925 -1.2620
   46MPD2    C2  703   0.058   4.367   9.485 -0.9344 -0.5017 -0.1020
   46MPD2    C3  704   4.659   4.313   9.490 -0.5590 -0.5537 -0.2278
   46MPD2    C4  705   4.640   4.174   9.492  0.0738 -0.3088  0.5556
   46MPD2    C5  706   0.030   4.096   9.483  0.3728 -0.1475  1.0399
   46MPD2     H  707   0.071   4.473   9.501 -1.7148 -0.4290  0.0678
   46MPD2    H1  708   4.548   4.117   9.498 -0.8552  0.8865 -2.7362
   46MPD2    H2  709   0.238   4.074   9.449  0.5860 -0.0635  0.5607
   46MPD2    H3  710   0.023   3.988   9.475 -1.3193  0.4162 -4.5569
   46MPD2     N  711   4.560   4.406   9.495 -0.2247 -0.0916 -0.3678
   46MPD2    H5  712   4.590   4.502   9.480 -1.7732  0.8198  2.3242
   46MPD2    N1  713   0.294   4.352   9.469 -0.3520 -0.1856 -0.3010
   46MPD2    H7  714   0.286   4.453   9.465  1.3544 -0.1303 -2.0036
   47TMC2    C1  715   2.520   0.777   9.460  0.3082  0.2604 -0.8494
   47TMC2    C2  716   2.469   0.902   9.501  0.3866 -0.3243 -0.0308
   47TMC2    C3  717   2.342   0.940   9.468  0.5418  0.3763  0.2388
   47TMC2    C4  718   2.440   0.693   9.375  0.2363 -0.0185 -0.3501
   47TMC2    C5  719   2.316   0.742   9.336 -0.2487  0.6270  0.4809
   47TMC2    C6  720   2.269   0.859   9.387  0.2600  0.2317  0.7467
   47TMC2     C  721   2.657   0.741   9.501 -0.6523 -0.0139  0.6269
   47TMC2     O  722   2.711   0.827   9.570 -0.6362  0.5715 -0.4370
   47TMC2     H  723   2.525   0.957   9.576  3.3654 -0.4492 -2.1616
   47TMC2    H1  724   2.479   0.597   9.344 -1.3156 -0.9915  0.7156
   47TMC2    H2  725   2.170   0.889   9.358  0.1093 -0.1389  0.8748
   47TMC2    C7  726   2.238   0.652   9.246  0.9857  0.2446  0.0673
   47TMC2    C8  727   2.265   1.029   9.554 -0.1740  0.7539 -0.1088
   47TMC2    O1  728   2.301   0.563   9.193 -0.1747 -0.6275 -0.1701
   47TMC2    O2  729   2.234   1.140   9.526 -0.4401 -0.1929  0.6300
   47TMC2    O5  730   2.183   0.944   9.608 -0.9490 -0.1452 -0.0457
   47TMC2    H5  731   2.223   0.855   9.615 -0.7725 -0.1375 -0.9879
   48MPD2     C  732   2.934   0.633   9.505 -0.1010 -0.3042  0.2481
   48MPD2    C1  733   2.826   0.566   9.466  0.5428  0.4859 -0.2063
   48MPD2    C2  734   2.837   0.433   9.420 -0.1893  0.3240  0.1490
   48MPD2    C3  735   2.959   0.371   9.418  0.1011  0.1111 -0.5810
   48MPD2    C4  736   3.069   0.438   9.458 -0.4086 -0.1622  0.4117
   48MPD2    C5  737   3.052   0.567   9.511  0.0003  0.7288 -0.5107
   48MPD2     H  738   2.749   0.382   9.382  0.5238  1.9481 -3.6502
   48MPD2    H1  739   3.167   0.392   9.458  0.0781  0.8576  0.7133
   48MPD2    H2  740   2.924   0.729   9.554 -0.3397  0.5965 -1.5761
   48MPD2    H3  741   3.149   0.611   9.533 -0.6098  0.9453  1.7762
   48MPD2     N  742   2.962   0.244   9.364  0.2574 -0.2348 -0.1652
   48MPD2    H5  743   2.874   0.203   9.334  0.3317  0.4757 -1.3154
   48MPD2    N1  744   2.700   0.619   9.456 -0.5028 -0.0215 -0.2663
   48MPD2    H7  745   2.633   0.559   9.410  1.6529 -2.6556  0.0021
   49MPD2     C  746   1.726   2.717  11.006 -0.6998  0.2971 -0.3280
   49MPD2    C1  747   1.693   2.585  10.980  0.7808 -0.1358 -0.1245
   49MPD2    C2  748   1.681   2.498  11.081  0.4896 -0.2207 -0.1847
   49MPD2    C3  749   1.703   2.530  11.209 -0.9048 -0.5995 -0.1939
   49MPD2    C4  750   1.733   2.657  11.235  0.1045 -0.0937  0.2181
   49MPD2    C5  751   1.747   2.747  11.130 -0.0153 -0.2249  0.2976
   49MPD2     H  752   1.641   2.398  11.071  0.4155 -0.2449  0.3528
   49MPD2    H1  753   1.757   2.700  11.332 -1.2455 -2.2469  1.4903
   49MPD2    H2  754   1.739   2.798  10.935  0.1974 -1.2056 -1.8845
   49MPD2    H3  755   1.774   2.850  11.153 -0.4166 -0.3268  1.2291
   49MPD2     N  756   1.678   2.446  11.319  0.1271 -0.3697 -0.8539
   49MPD2    H5  757   1.693   2.479  11.414  1.2112 -1.7223 -0.5537
   49MPD2    N1  758   1.662   2.537  10.847  0.1245 -0.2679  0.4163
   49MPD2    H7  759   1.624   2.443  10.844 -0.9351  0.2334 -2.0892
   50TCq2    C1  760   1.673   2.603  10.732 -0.1078 -0.4357  0.3817
   50TCq2    O2  761   1.738   2.702  10.708 -0.9053 -0.6206  0.1587
   50TCq2    C2  762   1.630   2.523  10.627  0.0858 -0.0793  0.2249
   50TCq2    C3  763   1.694   2.536  10.502 -0.0316 -0.3826  0.2249
   50TCq2    C4  764   1.620   2.503  10.391 -0.2215 -0.0341 -1.1939
   50TCq2    C5  765   1.496   2.447  10.398 -0.3252  0.1569  0.0997
   50TCq2    C6  766   1.445   2.424  10.520 -0.5042 -0.2162 -0.2003
   50TCq2    C7  767   1.514   2.456  10.634  0.3849  0.3262  0.0390
   50TCq2    C8  768   1.324   2.347  10.528  0.0107  0.1615 -0.1537
   50TCq2    O4  769   1.252   2.340  10.431 -0.2683  0.5531  0.5927
   50TCq2    C9  770   1.681   2.528  10.260  0.4132 -0.0666  0.2204
   50TCq2    O5  771   1.791   2.579  10.269 -0.4932 -0.5711  0.4602
   50TCq2    O6  772   1.632   2.464  10.165 -0.0342 -0.3083 -0.3199
   50TCq2    H2  773   1.786   2.594  10.498 -0.4879  0.4659  1.9301
   50TCq2    H3  774   1.446   2.428  10.304 -0.5160  0.4016  0.1513
   50TCq2    H4  775   1.454   2.459  10.724  1.9180  0.4542  1.0471
   51MPD2     C  776   1.419   1.683   1.223  0.0381 -0.3882  0.9252
   51MPD2    C1  777   1.299   1.673   1.166  0.5196  1.2566  0.1907
   51MPD2    C2  778   1.236   1.793   1.133  0.6956  0.4786  0.5804
   51MPD2    C3  779   1.292   1.918   1.163  0.5313  0.2758  0.1986
   51MPD2    C4  780   1.417   1.923   1.224 -0.7656 -0.2043 -0.5269
   51MPD2    C5  781   1.484   1.802   1.251 -0.5456  0.4398  0.0342
   51MPD2     H  782   1.144   1.790   1.075  0.4624 -1.1871  1.0388
   51MPD2    H1  783   1.464   2.020   1.236 -2.9505  0.4068  2.9562
   51MPD2    H2  784   1.476   1.596   1.254 -2.1367 -2.3469 -0.5423
   51MPD2    H3  785   1.580   1.800   1.302 -0.8475 -4.0915  0.4388
   51MPD2     N  786   1.230   2.044   1.127 -0.4038 -0.1162 -0.4525
   51MPD2    H5  787   1.288   2.126   1.143  1.9287 -1.8415 -0.0924
   51MPD2    N1  788   1.249   1.548   1.133  0.4846  0.8179 -0.2050
   51MPD2    H7  789   1.303   1.463   1.147 -1.3023 -0.0744  1.2626
   52TCq2    C1  790   1.107   2.053   1.082 -0.2949  0.5030  0.0908
   52TCq2    O2  791   1.022   1.964   1.082 -0.0241  0.2049 -0.9949
   52TCq2    C2  792   1.072   2.188   1.049 -0.5415  0.1202 -0.3256
   52TCq2    C3  793   0.937   2.216   1.044  0.0378 -0.0395 -0.4744
   52TCq2    C4  794   0.908   2.349   1.021 -0.0407  0.0301  0.1110
   52TCq2    C5  795   0.989   2.457   1.001 -0.6979 -0.1974  0.6732
   52TCq2    C6  796   1.121   2.426   1.026 -0.1149 -0.1809 -1.0398
   52TCq2    C7  797   1.168   2.296   1.044  0.3444  0.6177  0.1844
   52TCq2    C8  798   1.214   2.531   1.065  0.1692  0.6226 -0.3355
   52TCq2    O4  799   1.329   2.497   1.104 -0.5303 -0.3168  0.3538
   52TCq2    C9  800   0.767   2.378   0.991  0.0768 -0.3970  0.1192
   52TCq2    O5  801   0.682   2.287   0.987 -0.3291  0.3981  0.0308
   52TCq2    O6  802   0.730   2.496   0.968 -0.3279  0.0193  0.4438
   52TCq2    H2  803   0.859   2.142   1.056  1.3568 -0.7997  3.2916
   52TCq2    H3  804   0.958   2.559   0.982 -1.0874 -0.2102  1.2292
   52TCq2    H4  805   1.273   2.276   1.062  0.5247  0.3877 -1.1137
   53TMC2    C1  806   1.966   4.423  12.343 -0.1037  0.3315 -0.3383
   53TMC2    C2  807   2.039   4.328  12.399 -0.6537  0.3845  0.1921
   53TMC2    C3  808   1.992   4.263  12.509  0.5516 -0.3620 -0.0112
   53TMC2    C4  809   1.855   4.476  12.405 -1.2231  0.1240 -0.4361
   53TMC2    C5  810   1.807   4.407  12.515 -0.7977  0.2836  0.5699
   53TMC2    C6  811   1.871   4.301  12.573  0.0884  0.0940 -0.6866
   53TMC2     C  812   1.999   4.459  12.203  0.0140  0.5195  0.4520
   53TMC2     O  813   2.109   4.426  12.159  0.1811  0.2108 -0.1720
   53TMC2     H  814   2.126   4.292  12.345 -1.3834 -3.1662  1.3744
   53TMC2    H1  815   1.808   4.566  12.369  0.5937  0.3728 -2.2103
   53TMC2    H2  816   1.827   4.230  12.642  3.1403 -0.6329  0.5067
   53TMC2    C7  817   1.682   4.463  12.559  0.0641 -0.1131 -0.3358
   53TMC2    C8  818   2.026   4.128  12.530  0.2111 -0.4025 -0.6953
   53TMC2    O1  819   1.632   4.547  12.484  0.0070 -0.2657  0.1314
   53TMC2    O2  820   1.982   4.075  12.630 -0.5009  0.0051 -0.2384
   53TMC2    O5  821   2.031   4.068  12.410 -0.2062 -0.1821 -0.0824
   53TMC2    H5  822   2.012   4.129  12.335  0.8931 -0.5675 -0.6613
   54MPD2     C  823   2.012   4.535  11.918  0.2230  0.1511  0.2241
   54MPD2    C1  824   1.896   4.525  11.993 -0.4371 -0.1706 -0.4811
   54MPD2    C2  825   1.774   4.520  11.922 -0.4707 -0.5876 -0.2896
   54MPD2    C3  826   1.772   4.517  11.784  0.1429  0.3735 -0.4379
   54MPD2    C4  827   1.883   4.536  11.715 -0.0029 -0.6368 -0.0785
   54MPD2    C5  828   2.000   4.554  11.781 -0.3008 -0.2393 -0.6730
   54MPD2     H  829   1.679   4.500  11.969 -1.1028  1.2245 -0.8002
   54MPD2    H1  830   1.889   4.535  11.606 -1.5780 -1.2219 -0.1514
   54MPD2    H2  831   2.113   4.549  11.955 -0.0381 -3.7617  2.4025
   54MPD2    H3  832   2.084   4.574  11.716 -0.1221  0.5845 -0.1924
   54MPD2     N  833   1.659   4.505  11.702 -0.2545 -0.5157 -0.6051
   54MPD2    H5  834   1.673   4.524  11.603  0.4436 -0.9382 -0.5821
   54MPD2    N1  835   1.892   4.504  12.130 -0.3258  0.6578 -0.4552
   54MPD2    H7  836   1.801   4.496  12.175 -0.1551 -1.5231 -0.5250
   55MPD2     C  837   2.382   2.960  17.477  0.9872  0.2441 -0.0457
   55MPD2    C1  838   2.347   2.871  17.571 -0.2255 -0.7144  0.2262
   55MPD2    C2  839   2.280   2.919  17.678 -0.0381 -0.3166  0.6322
   55MPD2    C3  840   2.234   3.044  17.691  0.3837 -0.4661  0.7120
   55MPD2    C4  841   2.253   3.133  17.585  0.7147  0.6560  1.1782
   55MPD2    C5  842   2.328   3.091  17.476  0.0861  0.1662  0.2350
   55MPD2     H  843   2.260   2.862   0.070 -1.5139 -1.0485 -0.1597
   55MPD2    H1  844   2.226   3.238  17.591 -0.6595  0.1931  3.2243
   55MPD2    H2  845   2.434   2.926  17.388 -0.2736 -1.1694 -0.2342
   55MPD2    H3  846   2.366   3.158  17.400  0.3832 -1.1353 -0.7445
   55MPD2     N  847   2.175   3.077   0.114  0.7244  0.4522 -0.1363
   55MPD2    H5  848   2.166   3.004   0.184  1.0902  0.7491  0.2146
   55MPD2    N1  849   2.383   2.736  17.550  0.0323  0.2614 -0.3107
   55MPD2    H7  850   2.428   2.701  17.466 -0.0968  0.9022 -0.6466
   56TCq2    C1  851   2.356   2.637  17.646  0.0932 -0.5131  0.0097
   56TCq2    O2  852   2.329   2.657   0.067 -0.0817  0.2940  0.4857
   56TCq2    C2  853   2.399   2.510  17.597 -0.0288  0.2796  0.0756
   56TCq2    C3  854   2.380   2.485  17.466  0.2501 -0.5205  0.2067
   56TCq2    C4  855   2.419   2.363  17.426 -0.0001 -0.8305  0.2957
   56TCq2    C5  856   2.464   2.270  17.515 -0.0812  0.2249  0.3932
   56TCq2    C6  857   2.460   2.294  17.646  0.4201  0.5539  0.2508
   56TCq2    C7  858   2.434   2.419  17.690  0.2811 -0.0374  0.1697
   56TCq2    C8  859   2.459   2.183   0.036  0.1857  0.1209 -0.0635
   56TCq2    O4  860   2.526   2.085   0.001 -0.5156  0.4154 -0.0243
   56TCq2    C9  861   2.409   2.343  17.285 -0.0629 -0.0708 -0.2855
   56TCq2    O5  862   2.452   2.231  17.242  0.3573 -0.0862  0.4514
   56TCq2    O6  863   2.408   2.450  17.219  0.3790  0.3000  0.3604
   56TCq2    H2  864   2.348   2.562  17.397  1.7326 -1.7891 -1.9104
   56TCq2    H3  865   2.500   2.180  17.467 -0.3435  0.5394 -0.3877
   56TCq2    H4  866   2.453   2.451   0.094  1.1147 -3.1411  0.9898
   57TMC2    C1  867   1.163   3.584  13.185  0.1487  0.1344  0.6300
   57TMC2    C2  868   1.100   3.556  13.064  0.2116 -0.3271 -0.8017
   57TMC2    C3  869   1.176   3.539  12.952  0.2524 -0.4974 -0.1733
   57TMC2    C4  870   1.298   3.596  13.199 -0.2325  0.2024 -0.2957
   57TMC2    C5  871   1.363   3.569  13.080 -0.1082 -0.5454 -0.0082
   57TMC2    C6  872   1.311   3.538  12.966  0.3661 -0.0342 -0.3629
   57TMC2     C  873   1.074   3.592  13.304 -0.0176 -0.5400  0.2384
   57TMC2     O  874   1.130   3.549  13.406 -0.3839  0.2183  0.1866
   57TMC2     H  875   0.994   3.535  13.064  0.3686 -1.1173 -2.4212
   57TMC2    H1  876   1.351   3.630  13.288 -0.5990 -0.9989  0.3859
   57TMC2    H2  877   1.379   3.536  12.881  1.1276  0.7816  0.2221
   57TMC2    C7  878   1.501   3.598  13.060  0.6090  0.0859 -1.4121
   57TMC2    C8  879   1.128   3.579  12.818 -0.4385 -0.5986  0.4165
   57TMC2    O1  880   1.538   3.706  13.099 -0.1350  0.1548 -0.6395
   57TMC2    O2  881   1.203   3.560  12.721  0.3754 -0.1250  0.1746
   57TMC2    O5  882   1.044   3.687  12.829  0.0802 -0.2803 -0.5578
   57TMC2    H5  883   1.008   3.700  12.919  1.2930  1.4436 -0.3359
   58MPD2     C  884   0.606   3.500  13.501  0.8400  0.8445  0.0254
   58MPD2    C1  885   0.731   3.507  13.571 -0.3981  0.6725  0.6538
   58MPD2    C2  886   0.849   3.525  13.495 -0.2872  0.1215 -0.2648
   58MPD2    C3  887   0.834   3.572  13.362 -0.0710 -0.3360 -0.4674
   58MPD2    C4  888   0.710   3.564  13.302 -0.3622  0.1791  0.6264
   58MPD2    C5  889   0.598   3.531  13.366 -0.0485 -0.2174 -0.5080
   58MPD2     H  890   0.949   3.517  13.536 -1.0061 -3.5657  0.7421
   58MPD2    H1  891   0.699   3.589  13.196  1.7462 -0.0613  0.3613
   58MPD2    H2  892   0.514   3.477  13.554  0.6782  2.1386  0.2995
   58MPD2    H3  893   0.504   3.519  13.314  1.2270 -0.2953 -2.8078
   58MPD2     N  894   0.941   3.619  13.279 -0.3151  0.2186  0.3326
   58MPD2    H5  895   0.923   3.658  13.187  1.0102 -0.6860 -0.3139
   58MPD2    N1  896   0.752   3.483  13.710  1.0537  0.0379  0.2036
   58MPD2    H7  897   0.841   3.507  13.753  0.3665  0.7825  1.2043
   59MPD2     C  898   3.706   3.388  13.410 -0.3039  0.2200  1.0004
   59MPD2    C1  899   3.810   3.390  13.318  0.6260  0.8336 -0.1273
   59MPD2    C2  900   3.890   3.500  13.315 -0.0171  0.7849 -0.0003
   59MPD2    C3  901   3.879   3.607  13.412  0.3546 -0.6201  0.0576
   59MPD2    C4  902   3.783   3.594  13.511 -0.0998  0.1597 -0.0462
   59MPD2    C5  903   3.701   3.488  13.506 -0.6716  0.6465  0.4375
   59MPD2     H  904   3.964   3.502  13.235  0.9990 -3.0003  0.8203
   59MPD2    H1  905   3.790   3.655  13.600 -2.7835 -1.3541  1.1934
   59MPD2    H2  906   3.637   3.304  13.415  0.6836 -0.7298 -1.5529
   59MPD2    H3  907   3.633   3.468  13.587 -1.1544 -0.5661 -0.2678
   59MPD2     N  908   3.968   3.713  13.420 -0.6859  0.3726  0.3991
   59MPD2    H5  909   3.956   3.774  13.501 -1.8665  2.8026 -1.5993
   59MPD2    N1  910   3.828   3.306  13.202  0.9953  0.1965 -0.1695
   59MPD2    H7  911   3.902   3.334  13.138  1.3118 -0.0954  0.0692
   60TCq2    C1  912   3.767   3.184  13.187  0.2548  0.2577 -0.1314
   60TCq2    O2  913   3.688   3.132  13.263  0.5854  0.0510 -0.0856
   60TCq2    C2  914   3.785   3.124  13.050  0.6808 -0.5985 -0.0849
   60TCq2    C3  915   3.706   3.019  13.021 -0.0546  0.2998  0.8200
   60TCq2    C4  916   3.683   2.979  12.896 -0.9505 -0.3039  0.8571
   60TCq2    C5  917   3.757   3.035  12.789  0.0811  0.8439 -0.2857
   60TCq2    C6  918   3.843   3.137  12.823 -0.8802  0.3786 -0.0386
   60TCq2    C7  919   3.862   3.185  12.952  0.1437  0.3280 -0.7651
   60TCq2    C8  920   3.924   3.200  12.712 -0.3711  0.2167  0.5525
   60TCq2    O4  921   3.964   3.121  12.628  0.1081  0.1475 -0.9338
   60TCq2    C9  922   3.616   2.856  12.881  0.7545  0.1737 -0.6786
   60TCq2    O5  923   3.552   2.806  12.976  0.0794  0.7277  0.4377
   60TCq2    O6  924   3.632   2.795  12.772 -0.5429  0.5965  0.1577
   60TCq2    H2  925   3.670   2.954  13.100  0.1326 -0.9796 -0.1405
   60TCq2    H3  926   3.757   2.995  12.688  1.0236  2.0435 -0.7605
   60TCq2    H4  927   3.929   3.268  12.970 -0.4801  0.3718  1.4607
   61MPD2     C  928   3.594   0.161  14.436 -0.1791  0.5612 -0.1815
   61MPD2    C1  929   3.478   0.113  14.504 -0.3660 -0.1704 -0.1327
   61MPD2    C2  930   3.370   0.065  14.438  0.1690 -0.2300 -0.2070
   61MPD2    C3  931   3.364   0.082  14.298 -0.6537 -0.4476 -0.2268
   61MPD2    C4  932   3.474   0.129  14.228 -0.2061  1.0078  1.1184
   61MPD2    C5  933   3.586   0.165  14.302 -0.1631  0.1230  0.3114
   61MPD2     H  934   3.302   0.005  14.497  0.0663 -1.5380 -1.6747
   61MPD2    H1  935   3.473   0.133  14.119  2.3373 -2.5836  0.9848
   61MPD2    H2  936   3.685   0.189  14.487  1.0403 -0.9678 -1.5241
   61MPD2    H3  937   3.668   0.205  14.243 -1.9705  0.8719 -1.7338
   61MPD2     N  938   3.243   0.050  14.225  0.1076  0.1552 -0.1280
   61MPD2    H5  939   3.258   0.019  14.129  3.8046  1.6288 -0.0336
   61MPD2    N1  940   3.463   0.111  14.644 -0.3406  0.2191 -0.2874
   61MPD2    H7  941   3.386   0.052  14.674  1.2219 -1.9657 -0.5628
   62TCq2    C1  942   3.534   0.189  14.734  1.0839  0.5368  0.2991
   62TCq2    O2  943   3.634   0.256  14.711 -0.1225 -0.1713 -0.4115
   62TCq2    C2  944   3.472   0.194  14.866  0.1201 -0.0868 -0.3256
   62TCq2    C3  945   3.391   0.087  14.890  0.1378 -0.3249 -0.3201
   62TCq2    C4  946   3.289   0.103  14.975  0.1597 -0.7353  0.2374
   62TCq2    C5  947   3.251   0.225  15.023  0.0140  0.4214  0.3866
   62TCq2    C6  948   3.321   0.338  14.983  0.4190  0.0551 -1.1561
   62TCq2    C7  949   3.436   0.314  14.906 -0.4089  0.2922 -0.3308
   62TCq2    C8  950   3.255   0.463  14.977 -0.3525 -0.0387  0.0109
   62TCq2    O4  951   3.322   0.556  14.933 -0.3301  0.2999 -0.0015
   62TCq2    C9  952   3.213   4.707  15.010  0.6901 -0.7280  0.4079
   62TCq2    O5  953   3.241   4.602  14.941  0.0116 -0.0393  0.2111
   62TCq2    O6  954   3.107   0.003  15.075 -0.4525  0.2439  0.0450
   62TCq2    H2  955   3.425   4.714  14.857  1.1565  0.0691 -0.4354
   62TCq2    H3  956   3.177   0.230  15.102 -1.2733 -0.2628 -0.7873
   62TCq2    H4  957   3.490   0.399  14.865  0.6219  0.2102  0.8666
   63TMC2    C1  958   3.037   0.092  10.975  0.1616 -0.1213  0.2466
   63TMC2    C2  959   3.162   0.083  11.040  0.2457 -0.2037  0.2000
   63TMC2    C3  960   3.263   0.125  10.959  0.0379  0.1776 -0.2483
   63TMC2    C4  961   3.020   0.132  10.845 -0.0773  0.1873  0.1705
   63TMC2    C5  962   3.130   0.163  10.775 -0.5766 -0.0764 -1.0483
   63TMC2    C6  963   3.253   0.166  10.833  0.5735  0.1137  0.4464
   63TMC2     C  964   2.915   0.058  11.047 -0.1650  0.1015  0.0747
   63TMC2     O  965   2.899   0.081  11.165 -0.4768 -0.0794  0.2102
   63TMC2     H  966   3.164   0.042  11.141  0.7868  0.9360  0.6536
   63TMC2    H1  967   2.921   0.140  10.803 -1.2086  0.0173  2.8443
   63TMC2    H2  968   3.347   0.172  10.779  1.0622 -0.9001  1.1843
   63TMC2    C7  969   3.107   0.199  10.638  0.3479 -0.0902 -0.3624
   63TMC2    C8  970   3.403   0.113  11.003 -0.3638 -0.1085  0.4957
   63TMC2    O1  971   2.999   0.175  10.589 -0.4834 -0.0744  0.4912
   63TMC2    O2  972   3.482   0.211  11.007  0.4599  0.6598 -0.1103
   63TMC2    O5  973   3.417   4.723  11.079  0.2063  0.6762  0.0823
   63TMC2    H5  974   3.358   4.647  11.057  0.9641  0.3993 -0.9887
   64MPD2     C  975   2.427   4.624  11.025 -0.0941 -0.1328  0.4318
   64MPD2    C1  976   2.488   4.586  10.905  0.3858 -0.2895  0.8288
   64MPD2    C2  977   2.617   4.620  10.896  0.3142 -0.7526  0.0090
   64MPD2    C3  978   2.684   4.698  10.990 -0.6613 -0.1285  0.8388
   64MPD2    C4  979   2.621   0.011  11.107 -0.5831  0.3714  0.2769
   64MPD2    C5  980   2.493   4.694  11.121  0.4589 -0.3332 -0.1588
   64MPD2     H  981   2.661   4.597  10.800 -2.2505 -0.6894 -1.1747
   64MPD2    H1  982   2.663   0.061  11.194 -1.7518  1.9416 -0.0575
   64MPD2    H2  983   2.323   4.598  11.045 -0.4522 -0.3936 -1.7199
   64MPD2    H3  984   2.449   4.722  11.216  0.5293  1.7945 -0.7557
   64MPD2     N  985   2.819   4.723  10.958  0.0525  0.1029  1.0125
   64MPD2    H5  986   2.859   4.704  10.866  0.6774  0.0883  1.2874
   64MPD2    N1  987   2.417   4.525  10.793  0.3038 -0.1018 -0.1728
   64MPD2    H7  988   2.470   4.502  10.709  1.0897 -2.0692  0.8797
   65MPD2     C  989   3.832   4.382  16.097 -0.4842 -0.2955 -0.7577
   65MPD2    C1  990   3.906   4.380  15.978 -0.2730 -0.0003  0.6117
   65MPD2    C2  991   3.902   4.267  15.904 -0.4503  0.4894  0.4537
   65MPD2    C3  992   3.852   4.149  15.965 -0.1932 -0.3097 -0.2772
   65MPD2    C4  993   3.801   4.154  16.093  0.5519 -0.0006 -0.0141
   65MPD2    C5  994   3.790   4.269  16.158  0.2668 -0.6150 -0.0609
   65MPD2     H  995   3.958   4.273  15.812  0.5149 -0.2988  0.9863
   65MPD2    H1  996   3.775   4.059  16.137 -1.0899 -0.4728 -2.0281
   65MPD2    H2  997   3.819   4.471  16.158 -3.3085  0.6116 -2.6493
   65MPD2    H3  998   3.733   4.268  16.250 -2.7785 -0.7109 -1.9233
   65MPD2     N  999   3.852   4.019  15.907 -0.2283 -0.4622  0.1922
   65MPD2    H5 1000   3.822   3.931  15.950 -1.1866 -1.0982 -1.7766
   65MPD2    N1 1001   3.966   4.490  15.912 -0.1372  0.0547  0.2534
   65MPD2    H7 1002   3.999   4.483  15.816  1.6338  1.5392  0.7479
   66TCq2    C1 1003   3.982   4.616  15.961 -0.2533 -0.2401  0.1910
   66TCq2    O2 1004   3.939   4.658  16.065  0.4074 -0.2343 -0.5295
   66TCq2    C2 1005   4.025   4.703  15.860  0.2983 -0.0701  1.3407
   66TCq2    C3 1006   4.079   4.652  15.747 -0.5750  0.4438  0.8228
   66TCq2    C4 1007   4.079   0.011  15.640  0.5266  0.5904  0.2793
   66TCq2    C5 1008   4.032   0.143  15.646 -0.0971 -0.2861  0.4567
   66TCq2    C6 1009   3.978   0.186  15.764  0.6330  0.3573 -0.2952
   66TCq2    C7 1010   3.970   0.108  15.875 -0.7428 -0.2366  0.5275
   66TCq2    C8 1011   3.893   0.307  15.754 -0.0355  0.1736  0.0516
   66TCq2    O4 1012   3.873   0.342  15.642 -0.2731  0.0500  0.0777
   66TCq2    C9 1013   4.147   4.688  15.523 -0.6901  0.9587  0.3212
   66TCq2    O5 1014   4.167   0.040  15.427 -0.3396 -0.3358  0.3888
   66TCq2    O6 1015   4.199   4.574  15.541 -0.0584 -0.7617  0.1410
   66TCq2    H2 1016   4.115   4.550  15.738 -0.5322  0.3129  2.5138
   66TCq2    H3 1017   4.028   0.196  15.551  2.0556  0.4646  0.7844
   66TCq2    H4 1018   3.904   0.139  15.956  0.6485  1.9595  0.8421
   67MPD2     C 1019   3.846   3.971  14.438 -0.2841  0.5081 -0.0762
   67MPD2    C1 1020   3.753   3.968  14.545 -0.2675 -0.2852 -0.1946
   67MPD2    C2 1021   3.621   3.962  14.515 -0.3657  0.2040  0.2589
   67MPD2    C3 1022   3.579   3.943  14.384  0.1845 -0.0630  0.3491
   67MPD2    C4 1023   3.673   3.935  14.283  0.1755 -0.4627 -0.4794
   67MPD2    C5 1024   3.808   3.947  14.308  0.2818 -0.9650  0.9493
   67MPD2     H 1025   3.541   3.969  14.588 -1.9656  0.5138 -1.5428
   67MPD2    H1 1026   3.645   3.899  14.185 -1.7753  0.6221 -0.3300
   67MPD2    H2 1027   3.951   3.994  14.455  0.3313 -1.5814 -0.9556
   67MPD2    H3 1028   3.872   3.939  14.221 -0.4982  1.7609  0.1246
   67MPD2     N 1029   3.449   3.915  14.345  0.6741  0.4222 -0.2990
   67MPD2    H5 1030   3.428   3.922  14.246  1.0746  1.7915 -0.2846
   67MPD2    N1 1031   3.801   4.004  14.673 -0.0388 -1.0303  0.5942
   67MPD2    H7 1032   3.740   4.041  14.745  1.1236 -0.2335  1.1752
   68TCq2    C1 1033   3.933   3.985  14.708 -0.3429 -0.1874 -1.0314
   68TCq2    O2 1034   4.017   3.912  14.661  0.5295 -0.0190 -0.8145
   68TCq2    C2 1035   3.949   4.042  14.840 -0.6390  0.6417 -0.8042
   68TCq2    C3 1036   3.874   4.151  14.878 -0.1866 -0.2018  0.4601
   68TCq2    C4 1037   3.908   4.227  14.994 -0.1923  0.1837 -0.3305
   68TCq2    C5 1038   4.025   4.193  15.056  0.1767 -0.0661  0.1630
   68TCq2    C6 1039   4.098   4.095  15.009  0.2827 -0.0467  0.6604
   68TCq2    C7 1040   4.073   4.024  14.895 -0.0720 -0.5187 -0.3772
   68TCq2    C8 1041   4.230   4.061  15.058 -0.1375 -0.5602  0.3654
   68TCq2    O4 1042   4.314   4.029  14.978  0.2514 -0.6398  0.1298
   68TCq2    C9 1043   3.838   4.342  15.032  0.5057 -0.1614 -0.6113
   68TCq2    O5 1044   3.847   4.383  15.152  0.2745 -0.0026  0.1106
   68TCq2    O6 1045   3.756   4.383  14.945 -0.3530 -0.0450 -0.6805
   68TCq2    H2 1046   3.796   4.190  14.814 -0.2455 -3.7061 -1.6283
   68TCq2    H3 1047   4.059   4.248  15.143  1.5716 -0.3854 -0.1760
   68TCq2    H4 1048   4.138   3.942  14.866  0.7497  0.3030 -0.8503
   69TMC2    C1 1049   0.759   0.766  12.724 -0.6326  0.6027  0.9850
   69TMC2    C2 1050   0.644   0.747  12.793  0.3293 -0.7287  0.3916
   69TMC2    C3 1051   0.529   0.730  12.722 -0.0658 -0.1363 -0.1052
   69TMC2    C4 1052   0.770   0.785  12.589 -0.0548  0.1743 -0.4071
   69TMC2    C5 1053   0.652   0.771  12.523 -0.7685 -0.2541  0.0498
   69TMC2    C6 1054   0.536   0.736  12.583  0.1995 -1.7153  0.0991
   69TMC2     C 1055   0.872   0.705  12.792 -0.0902  0.6405 -0.0560
   69TMC2     O 1056   0.853   0.636  12.890  0.8946  0.2350 -0.4850
   69TMC2     H 1057   0.640   0.727  12.899  4.5882 -2.1383  0.2632
   69TMC2    H1 1058   0.862   0.792  12.533  1.0529 -0.7737  1.2809
   69TMC2    H2 1059   0.449   0.714  12.523 -1.8531  0.4093  2.3013
   69TMC2    C7 1060   0.664   0.759  12.377 -0.4359 -0.2318  0.5912
   69TMC2    C8 1061   0.409   0.721  12.794  0.1419  0.5076  0.1035
   69TMC2    O1 1062   0.653   0.642  12.340  0.0522  0.1998  0.0987
   69TMC2    O2 1063   0.377   0.643  12.884  0.6836  0.0819  0.2949
   69TMC2    O5 1064   0.374   0.852  12.798  0.7756 -0.7222 -0.2300
   69TMC2    H5 1065   0.412   0.910  12.729  1.2159 -1.1133 -0.3157
   70MPD2     C 1066   1.218   0.789  12.712  0.1228 -0.0421 -0.2362
   70MPD2    C1 1067   1.116   0.716  12.772  0.7877  0.7609 -0.0020
   70MPD2    C2 1068   1.145   0.630  12.865  0.2134 -0.2781  0.1993
   70MPD2    C3 1069   1.275   0.579  12.878  0.5322  0.3604  0.5977
   70MPD2    C4 1070   1.374   0.646  12.812  0.6524 -0.1570 -0.3045
   70MPD2    C5 1071   1.348   0.746  12.726 -1.0139  0.6809  0.1352
   70MPD2     H 1072   1.064   0.578  12.914 -1.9551  2.9725  0.0415
   70MPD2    H1 1073   1.471   0.598  12.821  0.8923  0.6622  1.3972
   70MPD2    H2 1074   1.195   0.876  12.652 -0.8579 -0.2019 -0.0863
   70MPD2    H3 1075   1.435   0.791  12.680 -0.4118 -0.1756  0.4213
   70MPD2     N 1076   1.308   0.456  12.941 -0.0509 -0.5588 -0.0699
   70MPD2    H5 1077   1.390   0.412  12.900 -0.6056 -1.4561 -0.2222
   70MPD2    N1 1078   0.985   0.754  12.742  0.3072 -0.5630  0.0840
   70MPD2    H7 1079   0.970   0.817  12.664 -1.1542 -0.2572  0.6055
   71TMC2    C1 1080   3.152   0.122   1.480  0.2649 -0.1446  0.5368
   71TMC2    C2 1081   3.139   0.003   1.406  0.4156  0.0234 -0.0781
   71TMC2    C3 1082   3.043   4.638   1.442  0.0521  0.0714 -0.4548
   71TMC2    C4 1083   3.055   0.162   1.568  0.4085 -0.0500  0.4416
   71TMC2    C5 1084   2.963   0.063   1.609  0.7582 -0.1131  0.1606
   71TMC2    C6 1085   2.959   4.662   1.551 -0.2330  0.0300 -0.4683
   71TMC2     C 1086   3.251   0.221   1.435 -0.4338  0.3465  0.1785
   71TMC2     O 1087   3.310   0.216   1.330  0.3958 -0.4094 -0.5267
   71TMC2     H 1088   3.208   4.707   1.326  2.3433  3.1898  0.8144
   71TMC2    H1 1089   3.058   0.263   1.608 -0.6691 -0.2852  1.1035
   71TMC2    H2 1090   2.882   4.596   1.586  1.8388 -2.0912  0.0920
   71TMC2    C7 1091   2.864   0.106   1.702  0.5707 -0.7875  0.4567
   71TMC2    C8 1092   3.060   4.502   1.395  0.0406  0.0856  0.3203
   71TMC2    O1 1093   2.800   0.021   1.758 -0.0803 -0.3331 -0.3669
   71TMC2    O2 1094   3.117   4.494   1.289  0.1266  0.1635 -0.1922
   71TMC2    O5 1095   3.097   4.431   1.505  0.2164 -0.4822  0.5514
   71TMC2    H5 1096   3.054   4.452   1.591  1.4451  0.3668  0.9463
   72MPD2     C 1097   3.547   0.638   1.531  0.0180 -0.5322 -0.1319
   72MPD2    C1 1098   3.495   0.580   1.414 -0.7696  0.1855  0.3804
   72MPD2    C2 1099   3.417   0.469   1.416 -0.6407  0.5469  0.4930
   72MPD2    C3 1100   3.369   0.416   1.533  0.1706 -0.6964 -0.1301
   72MPD2    C4 1101   3.415   0.472   1.646 -0.3264 -0.0041  0.4430
   72MPD2    C5 1102   3.500   0.582   1.644 -0.6569 -1.2104  0.0460
   72MPD2     H 1103   3.371   0.439   1.323 -0.5998  0.3403  0.5383
   72MPD2    H1 1104   3.382   0.430   1.741 -2.0798 -0.9558 -0.5982
   72MPD2    H2 1105   3.592   0.736   1.534  0.3732 -0.7041  0.1698
   72MPD2    H3 1106   3.535   0.629   1.735  0.9086 -1.9903 -0.1446
   72MPD2     N 1107   3.271   0.311   1.540 -0.1576 -0.3027  0.6497
   72MPD2    H5 1108   3.228   0.299   1.631  0.1047  2.2228  1.1081
   72MPD2    N1 1109   3.501   0.656   1.293 -1.1174  0.3902  0.5797
   72MPD2    H7 1110   3.430   0.635   1.223  1.6937 -0.6116 -1.9901
   73TMC2    C1 1111   3.621   2.314  14.385 -0.2401  0.0235 -0.4169
   73TMC2    C2 1112   3.497   2.295  14.439 -0.0917  0.5012  0.1392
   73TMC2    C3 1113   3.491   2.290  14.572 -0.1232  0.0579 -0.4154
   73TMC2    C4 1114   3.730   2.318  14.469  0.4264  0.2315  0.0468
   73TMC2    C5 1115   3.715   2.312  14.606 -0.1825  0.3502 -0.5265
   73TMC2    C6 1116   3.592   2.305  14.666  0.5658  0.5780  0.3568
   73TMC2     C 1117   3.632   2.425  14.288 -0.4987 -0.6913 -0.0643
   73TMC2     O 1118   3.739   2.480  14.296  0.1440  0.0160  0.1038
   73TMC2     H 1119   3.403   2.282  14.386  0.5330 -1.8703 -0.3655
   73TMC2    H1 1120   3.831   2.333  14.431 -0.2560  1.1551 -1.3628
   73TMC2    H2 1121   3.577   2.318  14.772  2.2607  2.3981  0.3727
   73TMC2    C7 1122   3.797   2.421  14.672  0.0924  0.1007 -0.7985
   73TMC2    C8 1123   3.358   2.301  14.627  0.0575  0.1138 -0.0703
   73TMC2    O1 1124   3.834   2.414  14.788  0.3782  0.3169 -0.1686
   73TMC2    O2 1125   3.261   2.257  14.567  0.0362  0.3789  0.1551
   73TMC2    O5 1126   3.354   2.414  14.695  0.1901  0.2547  0.2303
   73TMC2    H5 1127   3.439   2.464  14.703 -0.1242  0.7706  0.3396
   74MPD2     C 1128   3.506   2.740  13.920 -0.3747  0.5152 -0.1839
   74MPD2    C1 1129   3.609   2.745  14.014 -0.0013 -0.3371  0.8084
   74MPD2    C2 1130   3.601   2.654  14.115  0.2231 -0.5205 -0.5748
   74MPD2    C3 1131   3.506   2.554  14.127  0.1929  0.1163  0.3989
   74MPD2    C4 1132   3.415   2.552  14.030 -0.3754 -0.5849 -0.2752
   74MPD2    C5 1133   3.407   2.644  13.928 -0.2148  0.2548 -0.5123
   74MPD2     H 1134   3.678   2.658  14.191 -0.2001  0.7261 -0.2061
   74MPD2    H1 1135   3.341   2.473  14.033  0.5054 -1.3915  0.2369
   74MPD2    H2 1136   3.505   2.808  13.835 -0.9482  1.4701  0.5796
   74MPD2    H3 1137   3.338   2.624  13.847 -0.6865  2.7783 -0.7572
   74MPD2     N 1138   3.525   2.446  14.217 -0.3444  0.0230  0.2265
   74MPD2    H5 1139   3.453   2.376  14.231  0.2382 -1.3384 -3.4742
   74MPD2    N1 1140   3.700   2.845  13.998 -0.0103  0.2167 -0.3900
   74MPD2    H7 1141   3.684   2.920  13.931 -1.3929 -1.4609 -1.9466
   75TCq2    C1 1142   3.335   3.885  14.422  0.0617  0.3758 -0.1030
   75TCq2    O2 1143   3.326   3.872  14.539 -0.1095 -0.6999 -0.1849
   75TCq2    C2 1144   3.218   3.930  14.347 -0.4351  0.8536 -0.2116
   75TCq2    C3 1145   3.140   4.026  14.403  0.3496  0.1428 -0.3751
   75TCq2    C4 1146   3.042   4.079  14.332  0.1706 -0.1003 -1.2608
   75TCq2    C5 1147   3.014   4.051  14.198 -1.1242 -0.7488  0.6841
   75TCq2    C6 1148   3.093   3.950  14.148  0.1079  0.5890  0.0560
   75TCq2    C7 1149   3.195   3.890  14.216 -0.0810 -0.3408  0.4768
   75TCq2    C8 1150   3.084   3.942  14.000  0.1131 -0.0886  0.6858
   75TCq2    O4 1151   3.107   3.830  13.952  0.6356 -0.1229  0.0886
   75TCq2    C9 1152   2.965   4.176  14.397 -0.0687  0.1529  0.6318
   75TCq2    O5 1153   2.876   4.235  14.332  0.2898 -0.3337 -0.8511
   75TCq2    O6 1154   3.001   4.220  14.510  0.6571 -0.4297 -0.2169
   75TCq2    H2 1155   3.162   4.057  14.505  2.1597  2.1085 -1.3589
   75TCq2    H3 1156   2.925   4.088  14.149 -0.8054 -1.3586 -0.3489
   75TCq2    H4 1157   3.253   3.814  14.165 -1.6463 -0.4032 -1.2016
   76MPD2     C 1158   1.617   0.203  12.279 -0.2883  0.3363 -0.2006
   76MPD2    C1 1159   1.627   0.258  12.156  0.0783  0.0118 -0.1795
   76MPD2    C2 1160   1.733   0.232  12.073 -0.7150 -0.1797 -0.1063
   76MPD2    C3 1161   1.835   0.151  12.116  0.2245 -0.1104 -0.2519
   76MPD2    C4 1162   1.827   0.095  12.243 -0.3890 -0.6632  0.0396
   76MPD2    C5 1163   1.722   0.125  12.320 -0.4413  0.1914  0.0411
   76MPD2     H 1164   1.743   0.274  11.974  0.6013  1.0174  0.5370
   76MPD2    H1 1165   1.914   0.050  12.289  0.3809 -1.6892 -2.3927
   76MPD2    H2 1166   1.538   0.222  12.351 -1.0688  3.9716 -1.9877
   76MPD2    H3 1167   1.728   0.092  12.423  1.8365  0.3203 -0.0515
   76MPD2     N 1168   1.956   0.131  12.042  0.8044  0.1733  0.0369
   76MPD2    H5 1169   2.026   0.073  12.086 -1.9590 -0.2624  3.8085
   76MPD2    N1 1170   1.527   0.340  12.102  0.3586  0.1619  0.1099
   76MPD2    H7 1171   1.546   0.379  12.010  4.3083 -1.7901  0.0989
   77TCq2    C1 1172   1.976   0.162  11.909 -0.4285 -0.3473 -0.6112
   77TCq2    O2 1173   1.892   0.214  11.830 -0.1014  0.0374  0.1549
   77TCq2    C2 1174   2.105   0.130  11.855  0.1127 -0.1290 -0.6268
   77TCq2    C3 1175   2.119   0.140  11.717 -0.3609 -0.4547  0.0619
   77TCq2    C4 1176   2.250   0.150  11.665 -0.3885 -0.0943  0.1675
   77TCq2    C5 1177   2.366   0.149  11.748 -0.5968  0.3408  0.2270
   77TCq2    C6 1178   2.341   0.152  11.876 -0.2814  0.2119 -0.0621
   77TCq2    C7 1179   2.217   0.121  11.938  0.0887  0.4651 -0.6816
   77TCq2    C8 1180   2.452   0.203  11.958 -0.4360 -0.1208  0.2540
   77TCq2    O4 1181   2.503   0.310  11.921  0.0492 -0.3402  0.1092
   77TCq2    C9 1182   2.262   0.175  11.521 -0.5995 -0.2944 -0.1632
   77TCq2    O5 1183   2.362   0.246  11.488 -1.1600  0.5890  0.9500
   77TCq2    O6 1184   2.163   0.157  11.451  0.2415 -0.0092 -0.6122
   77TCq2    H2 1185   2.028   0.147  11.658 -0.9176  0.0830  0.9693
   77TCq2    H3 1186   2.468   0.160  11.715 -1.6607  2.1099 -2.4785
   77TCq2    H4 1187   2.218   0.107  12.045  1.4445 -0.0383 -0.7490
   78MPD1     C 1188   3.158   0.691   1.823  0.6946 -0.2864  0.6461
   78MPD1    C1 1189   3.075   0.580   1.814 -0.1801 -0.3623  0.2970
   78MPD1    C2 1190   3.022   0.564   1.690 -0.0356 -0.2994  0.1320
   78MPD1    C3 1191   3.078   0.615   1.575  0.5694  0.0967  0.6028
   78MPD1    C4 1192   3.161   0.719   1.586 -0.5849  0.9767 -0.2600
   78MPD1    C5 1193   3.201   0.757   1.711  0.2773  0.3071 -0.1859
   78MPD1     H 1194   2.950   0.484   1.676 -0.7917  0.7178 -1.8640
   78MPD1    H1 1195   3.206   0.760   1.497  2.9543  0.1271  1.1078
   78MPD1    H2 1196   3.190   0.736   1.916  0.5374 -0.5464  0.8263
   78MPD1    H3 1197   3.268   0.841   1.723  0.7521 -0.0292 -0.4661
   78MPD1     N 1198   3.058   0.559   1.446 -0.4925  0.0580 -0.3319
   78MPD1    H5 1199   3.102   0.611   1.371 -0.1617  0.0995 -0.1096
   78MPD1    N1 1200   3.006   0.533   1.926  0.5242  0.0218  0.1581
   78MPD1    H6 1201   2.984   0.436   1.905 -0.0554  0.2356 -0.2295
   78MPD1    H7 1202   3.071   0.517   2.002  0.6235  1.7842  0.4452
   79TCq2    C1 1203   2.976   0.461   1.402 -0.1830 -0.4274 -0.2282
   79TCq2    O2 1204   2.893   0.394   1.467 -0.0573  0.6508  0.0789
   79TCq2    C2 1205   3.000   0.426   1.260  0.1648  0.2034  0.0625
   79TCq2    C3 1206   2.927   0.325   1.209  0.1639  0.6002 -0.3441
   79TCq2    C4 1207   2.977   0.249   1.106 -0.4604  0.3375 -0.4114
   79TCq2    C5 1208   3.098   0.274   1.055 -0.2299 -0.1155  0.0323
   79TCq2    C6 1209   3.170   0.382   1.103 -0.2330 -0.2067  0.4175
   79TCq2    C7 1210   3.117   0.464   1.199 -0.4280  0.3550 -0.5093
   79TCq2    C8 1211   3.292   0.426   1.039  0.3977 -0.3242 -0.2458
   79TCq2    O4 1212   3.354   0.507   1.102 -0.5667  0.3587  0.6002
   79TCq2    C9 1213   2.899   0.137   1.054 -0.5925  0.4003 -0.0769
   79TCq2    O5 1214   2.965   0.070   0.971  0.2860 -0.1075  0.3078
   79TCq2    O6 1215   2.780   0.126   1.090  0.6888 -0.3749 -0.3895
   79TCq2    H2 1216   2.833   0.298   1.258 -0.5910 -1.4522 -2.9473
   79TCq2    H3 1217   3.149   0.199   0.994 -1.7994 -1.0432 -0.1273
   79TCq2    H4 1218   3.175   0.549   1.230  1.4394 -0.3378 -2.1442
   80MPD2     C 1219   1.280   4.211  12.583 -0.4692  0.2448  0.4445
   80MPD2    C1 1220   1.267   4.258  12.449  0.3660  0.5573  0.4443
   80MPD2    C2 1221   1.147   4.312  12.412  0.7019  0.0868 -0.4869
   80MPD2    C3 1222   1.039   4.305  12.494 -0.4403  0.0143  0.6075
   80MPD2    C4 1223   1.058   4.260  12.628 -0.3449 -0.6661 -0.3103
   80MPD2    C5 1224   1.180   4.221  12.674 -0.1141 -0.4372  0.6221
   80MPD2     H 1225   1.146   4.341  12.308  0.4892 -0.9510 -0.7746
   80MPD2    H1 1226   0.975   4.253  12.697  1.5916  0.6498  2.1558
   80MPD2    H2 1227   1.369   4.158  12.615 -0.3280 -0.3593 -0.9121
   80MPD2    H3 1228   1.186   4.180  12.774  0.9536  0.2037  0.8215
   80MPD2     N 1229   0.907   4.341  12.456 -0.1680  0.7132 -0.1332
   80MPD2    H5 1230   0.838   4.326  12.529  1.2734 -0.8303  0.9057
   80MPD2    N1 1231   1.366   4.255  12.344 -0.0129  0.2251 -0.5132
   80MPD2    H7 1232   1.334   4.290  12.255  1.8139  1.4389 -0.6821
   81TCq2    C1 1233   1.494   4.203  12.354  0.6304 -0.0540 -0.6327
   81TCq2    O2 1234   1.551   4.182  12.464  0.3654 -0.1563 -0.0548
   81TCq2    C2 1235   1.557   4.181  12.228 -0.2083  0.8533 -0.0113
   81TCq2    C3 1236   1.694   4.170  12.226 -0.3149  0.0170  0.8183
   81TCq2    C4 1237   1.747   4.135  12.103 -0.4021 -0.1170  0.1250
   81TCq2    C5 1238   1.679   4.110  11.991  0.0905 -0.2212 -0.0709
   81TCq2    C6 1239   1.542   4.121  11.997  0.7060 -0.6477 -0.2732
   81TCq2    C7 1240   1.480   4.154  12.115  0.9834 -0.0298 -0.2060
   81TCq2    C8 1241   1.463   4.061  11.894 -0.3295 -0.0125 -0.2338
   81TCq2    O4 1242   1.483   4.081  11.773 -0.0147  0.3138 -0.2868
   81TCq2    C9 1243   1.884   4.139  12.085 -0.2583 -0.1732  0.0063
   81TCq2    O5 1244   1.951   4.168  12.187  0.7612  0.2608 -0.0258
   81TCq2    O6 1245   1.939   4.130  11.975 -0.0559  0.7461  0.0632
   81TCq2    H2 1246   1.753   4.191  12.314  0.3814  0.7014  0.1892
   81TCq2    H3 1247   1.731   4.063  11.909 -0.3285  0.2186 -0.5898
   81TCq2    H4 1248   1.372   4.143  12.123  0.8714  1.7360  0.7007
   82MPD2     C 1249   3.296   3.506  10.042 -0.3622  0.0084  0.4930
   82MPD2    C1 1250   3.430   3.527  10.017 -0.2716 -0.4471 -0.4912
   82MPD2    C2 1251   3.514   3.546  10.122 -0.4115 -0.4721  0.0734
   82MPD2    C3 1252   3.461   3.552  10.253 -0.1897  0.1326 -0.0146
   82MPD2    C4 1253   3.333   3.525  10.273  0.5390  0.4050  0.8691
   82MPD2    C5 1254   3.251   3.511  10.169 -0.5697  0.1883  0.3479
   82MPD2     H 1255   3.621   3.546  10.106  0.0155 -1.3634  3.0337
   82MPD2    H1 1256   3.299   3.526  10.376  0.6983  1.5040  0.9137
   82MPD2    H2 1257   3.222   3.503   9.962  3.0488  2.8370 -2.8031
   82MPD2    H3 1258   3.143   3.514  10.182 -0.4010  1.7141  1.3522
   82MPD2     N 1259   3.535   3.587  10.370  0.0831 -0.0442  0.0770
   82MPD2    H5 1260   3.486   3.593  10.459  1.2010  2.0137  0.5485
   82MPD2    N1 1261   3.472   3.524   9.882 -0.3219 -0.1826  0.8564
   82MPD2    H7 1262   3.397   3.512   9.814  0.4616 -1.5675  0.2170
   83TCq2    C1 1263   3.675   3.595  10.381 -1.1415 -0.1512  0.6787
   83TCq2    O2 1264   3.769   3.581  10.303 -0.0530 -0.3395  0.2050
   83TCq2    C2 1265   3.713   3.623  10.518 -0.3269  0.2710  0.1342
   83TCq2    C3 1266   3.662   3.731  10.579  0.2320  0.0510  0.1068
   83TCq2    C4 1267   3.709   3.756  10.704 -0.3715 -0.8258  0.1472
   83TCq2    C5 1268   3.793   3.675  10.775  0.1978 -0.1052 -0.3112
   83TCq2    C6 1269   3.832   3.563  10.712 -0.4615 -0.4232 -0.2795
   83TCq2    C7 1270   3.802   3.537  10.579 -0.2328  0.3870 -0.0687
   83TCq2    C8 1271   3.899   3.457  10.799 -0.4179 -0.0857  0.3886
   83TCq2    O4 1272   3.888   3.475  10.919 -0.4173 -0.2547 -0.5187
   83TCq2    C9 1273   3.668   3.868  10.783  0.3250 -0.2201 -0.1559
   83TCq2    O5 1274   3.698   3.865  10.904 -0.2722  0.0483  0.3107
   83TCq2    O6 1275   3.611   3.959  10.725  0.1859 -0.0151  0.1922
   83TCq2    H2 1276   3.590   3.793  10.527  2.5739  0.9730 -2.0658
   83TCq2    H3 1277   3.828   3.687  10.877 -1.5784 -0.0126  0.3029
   83TCq2    H4 1278   3.831   3.444  10.530  0.9009  1.4454 -1.3882
   84TCq2    C1 1279   1.633   2.315  11.324 -0.2285  1.0148 -0.0892
   84TCq2    O2 1280   1.616   2.240  11.231  0.0494 -0.3672  0.2187
   84TCq2    C2 1281   1.580   2.289  11.453  0.9125 -0.1028 -0.9017
   84TCq2    C3 1282   1.597   2.159  11.498  0.0600  0.9095  0.7773
   84TCq2    C4 1283   1.531   2.122  11.607 -0.0015  0.3915  0.2127
   84TCq2    C5 1284   1.440   2.200  11.672 -0.2365 -0.2039  0.3882
   84TCq2    C6 1285   1.415   2.323  11.614  0.3883 -1.1660 -0.4175
   84TCq2    C7 1286   1.478   2.364  11.500 -0.2912  0.7360 -0.3889
   84TCq2    C8 1287   1.327   2.418  11.678 -0.1140  0.2744 -0.2857
   84TCq2    O4 1288   1.323   2.530  11.627 -0.2766 -0.5409  0.2023
   84TCq2    C9 1289   1.551   1.989  11.655  0.7734 -0.0239  0.9581
   84TCq2    O5 1290   1.652   1.929  11.609 -0.6562 -0.2181 -0.3023
   84TCq2    O6 1291   1.464   1.940  11.730 -0.0787  0.3948 -0.7734
   84TCq2    H2 1292   1.675   2.102  11.448  0.2036  0.1038  1.9344
   84TCq2    H3 1293   1.382   2.162  11.755 -1.4781 -0.7984 -0.7554
   84TCq2    H4 1294   1.460   2.462  11.458  0.0785  2.2737  3.0088
   85MPD2     C 1295   0.841   0.857  15.751 -0.0472 -0.4212  0.3137
   85MPD2    C1 1296   0.914   0.785  15.840  0.3145 -0.2554  0.0482
   85MPD2    C2 1297   1.039   0.832  15.876  0.0351 -0.3555 -0.2842
   85MPD2    C3 1298   1.079   0.950  15.825  0.9117  0.0301  0.2576
   85MPD2    C4 1299   1.006   1.019  15.734  0.6206  0.1834  0.6510
   85MPD2    C5 1300   0.878   0.979  15.706  0.3016 -0.1566 -0.4277
   85MPD2     H 1301   1.105   0.773  15.939  2.4283  1.9364 -0.6703
   85MPD2    H1 1302   1.037   1.117  15.700  1.2047  0.0167  0.7104
   85MPD2    H2 1303   0.745   0.826  15.710  0.9348 -1.7406 -0.9814
   85MPD2    H3 1304   0.812   1.036  15.641  1.5459  0.6758 -0.9576
   85MPD2     N 1305   1.204   1.003  15.863 -0.0547 -1.0526  0.1258
   85MPD2    H5 1306   1.259   0.941  15.921  0.8946 -0.6467 -0.3367
   85MPD2    N1 1307   0.877   0.662  15.900 -0.3079  0.1941  0.0266
   85MPD2    H7 1308   0.933   0.634  15.981 -1.2998  0.4433  0.7940
   86TCq2    C1 1309   1.241   1.133  15.853  0.8198  0.4673  0.4331
   86TCq2    O2 1310   1.173   1.234  15.844  0.3031  0.2039 -0.2901
   86TCq2    C2 1311   1.382   1.152  15.900  0.2409 -0.6084  0.4110
   86TCq2    C3 1312   1.410   1.287  15.915  0.3336  0.8487  0.1678
   86TCq2    C4 1313   1.537   1.324  15.886 -0.2443 -0.0036  0.4680
   86TCq2    C5 1314   1.633   1.236  15.843 -0.8115 -0.0936  0.2709
   86TCq2    C6 1315   1.595   1.104  15.826  0.3410  0.4771  0.1622
   86TCq2    C7 1316   1.473   1.063  15.860  0.4934 -0.3398  0.1341
   86TCq2    C8 1317   1.692   1.004  15.788 -0.2475 -0.2981  0.2040
   86TCq2    O4 1318   1.692   0.905  15.857 -0.0682 -0.1644 -0.1592
   86TCq2    C9 1319   1.547   1.468  15.903  0.9471  0.4898  0.3934
   86TCq2    O5 1320   1.461   1.520  15.985 -0.5757 -0.2611  0.0493
   86TCq2    O6 1321   1.651   1.519  15.851 -0.7049  0.5817  0.5040
   86TCq2    H2 1322   1.331   1.349  15.958  0.1530  2.7433 -2.8751
   86TCq2    H3 1323   1.730   1.272  15.814 -0.6906 -0.2697  0.4557
   86TCq2    H4 1324   1.454   0.958  15.841  1.3672 -0.4149 -0.3071
   87MPD2     C 1325   3.085   4.252   0.898  0.1326 -0.6391  0.0320
   87MPD2    C1 1326   3.011   4.256   0.778 -0.0739 -0.0845  0.1263
   87MPD2    C2 1327   2.915   4.357   0.759  0.3727 -0.5356  0.2989
   87MPD2    C3 1328   2.899   4.455   0.858 -0.5328 -0.1624 -0.3419
   87MPD2    C4 1329   2.989   4.462   0.965  0.7158 -0.1886 -0.0624
   87MPD2    C5 1330   3.072   4.356   0.980  0.1598 -0.7622  0.2899
   87MPD2     H 1331   2.876   4.365   0.659  1.1186 -1.4067 -0.0659
   87MPD2    H1 1332   2.989   4.548   1.031  0.4797  0.2932 -0.6847
   87MPD2    H2 1333   3.155   4.172   0.916  0.0972 -0.6127  0.2869
   87MPD2    H3 1334   3.132   4.354   1.070  0.7611 -2.1163 -0.1422
   87MPD2     N 1335   2.807   4.559   0.844 -1.2231 -0.2430 -0.1064
   87MPD2    H5 1336   2.814   4.635   0.910 -0.6710  0.8646 -1.4365
   87MPD2    N1 1337   3.050   4.162   0.681 -0.2324  0.8839 -0.4913
   87MPD2    H7 1338   3.112   4.092   0.719  1.2183  2.4500  0.0509
   88TCq2    C1 1339   3.010   4.156   0.551 -0.3780 -0.0704  1.0421
   88TCq2    O2 1340   2.961   4.247   0.480  0.3174 -0.6120  0.9657
   88TCq2    C2 1341   3.038   4.030   0.484  0.0336  0.5314  0.7357
   88TCq2    C3 1342   3.053   3.928   0.578 -0.0698  0.1563  0.6432
   88TCq2    C4 1343   3.146   3.823   0.558 -0.1732 -0.7671  0.7228
   88TCq2    C5 1344   3.236   3.831   0.455  0.0034  0.7263  0.1768
   88TCq2    C6 1345   3.213   3.928   0.359 -0.3526 -0.8827  0.0135
   88TCq2    C7 1346   3.118   4.028   0.366  0.0779 -0.2257  0.7676
   88TCq2    C8 1347   3.318   3.939   0.261 -0.3498  0.0836 -0.2968
   88TCq2    O4 1348   3.348   3.835   0.204  0.3586 -0.4386  0.2234
   88TCq2    C9 1349   3.131   3.706   0.643  0.4110  0.8345  0.0087
   88TCq2    O5 1350   3.168   3.593   0.604 -0.2632  0.1860 -0.8606
   88TCq2    O6 1351   3.115   3.739   0.764  0.4927 -0.3008  0.0033
   88TCq2    H2 1352   2.979   3.915   0.656 -0.5962  2.5049  0.5182
   88TCq2    H3 1353   3.299   3.743   0.452 -0.4073  0.4515 -0.4244
   88TCq2    H4 1354   3.105   4.107   0.293  0.4468 -0.7072  0.1867
   89MPD2     C 1355   4.452   1.805   1.505  0.4951 -0.1105  0.8383
   89MPD2    C1 1356   4.402   1.836   1.630 -0.4169 -0.5307 -0.5766
   89MPD2    C2 1357   4.428   1.965   1.676 -0.5079 -0.4548  0.2349
   89MPD2    C3 1358   4.505   2.066   1.610  0.0589  0.1701 -0.0605
   89MPD2    C4 1359   4.563   2.031   1.492 -0.0015 -0.4036 -0.0271
   89MPD2    C5 1360   4.525   1.906   1.442 -0.2068  0.9213 -0.3784
   89MPD2     H 1361   4.384   1.999   1.769 -0.9401  2.0539 -0.8853
   89MPD2    H1 1362   4.630   2.089   1.431 -0.3466  1.1645  1.1012
   89MPD2    H2 1363   4.444   1.706   1.462  1.4176  3.0061 -6.5690
   89MPD2    H3 1364   4.565   1.879   1.345  1.7721  0.9849  0.4141
   89MPD2     N 1365   4.511   2.193   1.675 -0.3670  0.6022  0.1775
   89MPD2    H5 1366   4.465   2.207   1.765  1.9503 -0.6936  1.5832
   89MPD2    N1 1367   4.323   1.744   1.720  0.2989 -0.6907  0.3408
   89MPD2    H7 1368   4.294   1.769   1.814 -0.3388  1.0006 -0.3113
   90TCq2    C1 1369   4.574   2.300   1.612  0.0732  1.1683 -0.0145
   90TCq2    O2 1370   4.635   2.311   1.508 -0.1490 -0.1692 -0.0170
   90TCq2    C2 1371   4.571   2.418   1.698 -0.1322  0.3981  0.5011
   90TCq2    C3 1372   4.594   2.394   1.828 -0.4235 -0.2723  0.5585
   90TCq2    C4 1373   4.605   2.502   1.907  0.1318 -1.8370  0.7892
   90TCq2    C5 1374   4.585   2.627   1.851 -0.7379 -0.0131  0.5868
   90TCq2    C6 1375   4.578   2.640   1.721  0.5657 -0.5339 -0.9753
   90TCq2    C7 1376   4.577   2.533   1.637  0.1499  0.7539  0.6925
   90TCq2    C8 1377   4.523   2.769   1.669 -0.2438 -0.1139  0.0163
   90TCq2    O4 1378   4.454   2.832   1.747 -0.3574  0.3979 -0.2925
   90TCq2    C9 1379   4.635   2.484   2.049  0.0086 -0.3838 -0.1209
   90TCq2    O5 1380   4.642   2.364   2.094  0.1332 -0.4472  0.1265
   90TCq2    O6 1381   4.659   2.591   2.111  0.0589  0.1009 -0.9008
   90TCq2    H2 1382   4.619   2.295   1.864 -0.7162 -1.4922 -2.5579
   90TCq2    H3 1383   4.575   2.715   1.914  3.2480  0.7531  0.1537
   90TCq2    H4 1384   4.550   2.541   1.532 -1.5393  0.8695  1.1502
   91TMC2    C1 1385   1.415   2.360  16.047  0.9726 -0.3094 -1.1320
   91TMC2    C2 1386   1.462   2.461  16.133 -0.2464 -0.1902 -0.3248
   91TMC2    C3 1387   1.363   2.534  16.185 -0.2695 -0.2859 -0.4961
   91TMC2    C4 1388   1.283   2.335  16.022 -0.5701 -0.4726 -0.3824
   91TMC2    C5 1389   1.194   2.408  16.087 -0.2788 -0.6311  0.4601
   91TMC2    C6 1390   1.233   2.507  16.170  0.1807 -0.7855 -0.1561
   91TMC2     C 1391   1.513   2.253  16.034 -0.1462  0.0606  0.7696
   91TMC2     O 1392   1.504   2.180  15.936 -0.2862  0.2557 -0.3652
   91TMC2     H 1393   1.565   2.493  16.127 -0.5853  1.0570  0.6094
   91TMC2    H1 1394   1.253   2.239  15.980 -1.8797 -0.8808  1.4777
   91TMC2    H2 1395   1.153   2.563  16.218  0.5027  0.7677 -1.4314
   91TMC2    C7 1396   1.050   2.402  16.051 -0.5855 -0.5458 -0.0117
   91TMC2    C8 1397   1.398   2.658  16.249 -0.0946 -0.2072 -0.4095
   91TMC2    O1 1398   0.976   2.465  16.129 -0.0904 -0.6378 -0.5158
   91TMC2    O2 1399   1.515   2.682  16.271  0.6068 -0.6261  0.3243
   91TMC2    O5 1400   1.336   2.730  16.158 -0.2091  0.3447  0.1076
   91TMC2    H5 1401   1.240   2.708  16.160 -0.3938  0.9344 -1.6667
   92MPD2     C 1402   1.706   2.032  16.059 -0.0255 -0.2538  0.2535
   92MPD2    C1 1403   1.714   2.153  16.129  0.0946  0.3327  0.0457
   92MPD2    C2 1404   1.807   2.160  16.236  1.1424  0.0711  0.2593
   92MPD2    C3 1405   1.898   2.061  16.267  0.2506 -0.5605 -0.3712
   92MPD2    C4 1406   1.894   1.943  16.185 -0.5627 -0.6139  0.4097
   92MPD2    C5 1407   1.800   1.929  16.088  0.0281  1.1905  0.5952
   92MPD2     H 1408   1.814   2.246  16.302 -0.3539  0.3263  0.0983
   92MPD2    H1 1409   1.969   1.866  16.196 -0.0460 -0.4378 -1.7323
   92MPD2    H2 1410   1.624   2.010  15.991 -0.4563  3.9006 -0.5734
   92MPD2    H3 1411   1.798   1.834  16.036  0.2324 -0.3389  3.3503
   92MPD2     N 1412   2.002   2.085  16.362  0.1772  0.2967 -0.2338
   92MPD2    H5 1413   1.996   2.170  16.417 -1.9316  0.1864 -0.3219
   92MPD2    N1 1414   1.610   2.249  16.132 -0.6793 -0.0975 -0.0389
   92MPD2    H7 1415   1.617   2.322  16.203 -0.2363 -1.9017  1.7587
   93MPD2     C 1416   3.025   1.293  13.403 -0.1185 -0.5391  0.1007
   93MPD2    C1 1417   3.013   1.404  13.329  0.5015 -0.2264 -0.5389
   93MPD2    C2 1418   2.890   1.436  13.272  0.8914 -0.0774 -0.1864
   93MPD2    C3 1419   2.778   1.360  13.295 -0.0900  0.1821 -0.1151
   93MPD2    C4 1420   2.792   1.245  13.374 -0.0119  0.0691  0.2712
   93MPD2    C5 1421   2.914   1.203  13.418 -0.1168  0.1300 -0.1637
   93MPD2     H 1422   2.875   1.519  13.204 -1.8652  0.7921  1.4965
   93MPD2    H1 1423   2.711   1.172  13.375  0.2703 -0.2213  1.4350
   93MPD2    H2 1424   3.113   1.263  13.458 -0.0914  0.6190  0.6940
   93MPD2    H3 1425   2.910   1.104  13.462  1.6591 -0.7109 -1.8669
   93MPD2     N 1426   2.661   1.431  13.262  0.1494  0.2153 -0.0879
   93MPD2    H5 1427   2.664   1.521  13.216  0.5702 -0.3726 -1.2163
   93MPD2    N1 1428   3.107   1.514  13.348  0.2324  0.0806  0.1712
   93MPD2    H7 1429   3.086   1.609  13.320 -0.2453 -0.4577 -1.3388
   94TCq2    C1 1430   3.232   1.512  13.405 -0.5205 -0.0176 -0.1263
   94TCq2    O2 1431   3.305   1.420  13.432 -0.5798 -1.0186 -0.3979
   94TCq2    C2 1432   3.269   1.646  13.441  0.1592 -0.4678  0.3926
   94TCq2    C3 1433   3.179   1.748  13.438  0.5986 -0.5877 -0.6484
   94TCq2    C4 1434   3.189   1.858  13.519  0.8649  0.4425 -0.2015
   94TCq2    C5 1435   3.291   1.879  13.609  0.7457  0.7107 -0.0176
   94TCq2    C6 1436   3.368   1.767  13.623  0.0148 -0.0352 -0.6495
   94TCq2    C7 1437   3.367   1.653  13.536 -0.3603  0.4886 -0.3207
   94TCq2    C8 1438   3.485   1.775  13.708 -0.5522  0.1851  0.0916
   94TCq2    O4 1439   3.573   1.692  13.697  0.1853  0.4058  0.0730
   94TCq2    C9 1440   3.097   1.973  13.504  0.5291  0.4400 -0.2822
   94TCq2    O5 1441   3.115   2.071  13.576 -0.2207  0.2250  0.4182
   94TCq2    O6 1442   3.001   1.952  13.429  0.1650 -0.2818  0.3174
   94TCq2    H2 1443   3.110   1.750  13.354 -0.7655 -0.5632  0.4627
   94TCq2    H3 1444   3.309   1.972  13.663 -1.1798  0.9294  0.2496
   94TCq2    H4 1445   3.433   1.568  13.551 -0.2493  0.0857 -3.1033
   95TMC2    C1 1446   2.947   3.750  16.175  0.0825 -0.1553  0.1786
   95TMC2    C2 1447   2.861   3.657  16.219 -0.1995 -0.7692 -0.1773
   95TMC2    C3 1448   2.802   3.680  16.338 -0.1380 -0.1094  0.2852
   95TMC2    C4 1449   2.963   3.868  16.232 -0.2770  0.3172  0.0085
   95TMC2    C5 1450   2.888   3.890  16.339  0.6122 -0.7709  0.4309
   95TMC2    C6 1451   2.795   3.804  16.394 -0.1674  0.2519 -0.1823
   95TMC2     C 1452   3.040   3.727  16.063 -0.1508  0.8884  0.0805
   95TMC2     O 1453   3.072   3.829  16.005 -0.0574 -0.1326 -0.2767
   95TMC2     H 1454   2.849   3.565  16.161  0.9591 -0.8927 -0.2324
   95TMC2    H1 1455   3.034   3.944  16.203  1.4773 -1.4297 -0.2966
   95TMC2    H2 1456   2.722   3.835  16.469  0.9928  0.5287  0.8313
   95TMC2    C7 1457   2.891   4.026  16.385  0.3870  0.0397 -0.5776
   95TMC2    C8 1458   2.700   3.587  16.373  0.3529  0.3015 -0.2973
   95TMC2    O1 1459   2.879   4.114  16.301 -0.2516  0.3990 -0.2166
   95TMC2    O2 1460   2.611   3.617  16.451 -0.1294 -0.0356  0.7202
   95TMC2    O5 1461   2.749   3.467  16.352 -0.6321  0.9474 -0.3055
   95TMC2    H5 1462   2.835   3.466  16.306 -2.1856  0.7490 -3.2246
   96MPD2     C 1463   3.352   3.437  15.789 -0.2871  0.2175  0.3403
   96MPD2    C1 1464   3.351   3.573  15.802  0.0396 -0.1466 -0.0208
   96MPD2    C2 1465   3.249   3.637  15.878 -0.9336  0.5910  0.5146
   96MPD2    C3 1466   3.169   3.556  15.952  0.1189 -0.4634  0.2494
   96MPD2    C4 1467   3.180   3.413  15.955 -0.1434 -0.2233  0.5093
   96MPD2    C5 1468   3.268   3.354  15.867  0.2269  0.3206  0.0547
   96MPD2     H 1469   3.252   3.746  15.875  1.1708  0.4977 -0.9429
   96MPD2    H1 1470   3.124   3.344  16.018  1.8126 -2.0829  0.1896
   96MPD2    H2 1471   3.418   3.387  15.719  0.4694 -0.0718  1.2721
   96MPD2    H3 1472   3.278   3.247  15.850  1.1588  0.3788  0.1942
   96MPD2     N 1473   3.078   3.598  16.046 -0.9112 -0.3850 -0.5234
   96MPD2    H5 1474   3.031   3.533  16.107  1.1408 -0.5108  0.9188
   96MPD2    N1 1475   3.450   3.641  15.724  0.2479  0.7375  0.0579
   96MPD2    H7 1476   3.525   3.592  15.675  0.9941  2.3769 -0.4733
   97MPD2     C 1477   0.693   1.484   0.848 -0.1706  0.2902 -0.0114
   97MPD2    C1 1478   0.568   1.508   0.794 -0.7463  0.0374 -0.4621
   97MPD2    C2 1479   0.556   1.509   0.656  0.0120 -0.4116  0.6810
   97MPD2    C3 1480   0.669   1.523   0.577  0.8111  0.1188 -0.5403
   97MPD2    C4 1481   0.788   1.527   0.641 -0.1695 -0.1859 -0.3463
   97MPD2    C5 1482   0.811   1.502   0.767 -0.1256 -0.4782  0.0831
   97MPD2     H 1483   0.459   1.494   0.611  0.9091 -0.0525 -1.3595
   97MPD2    H1 1484   0.879   1.541   0.583  0.4324  0.8389  0.8488
   97MPD2    H2 1485   0.699   1.486   0.957  1.4479  0.5581 -0.0990
   97MPD2    H3 1486   0.914   1.509   0.801  0.0697  0.2477 -0.6555
   97MPD2     N 1487   0.666   1.541   0.437  0.1744  0.1615  0.1366
   97MPD2    H5 1488   0.755   1.539   0.389 -0.7157 -1.6658 -1.4617
   97MPD2    N1 1489   0.458   1.518   0.882  0.5685 -0.1252 -0.2413
   97MPD2    H7 1490   0.483   1.505   0.980  1.7477  0.2704 -0.4939
   98TCq2    C1 1491   0.556   1.565   0.361 -0.2109  0.1827  0.0268
   98TCq2    O2 1492   0.435   1.570   0.394  0.4200 -0.6341 -0.4868
   98TCq2    C2 1493   0.577   1.633   0.238  0.6022  0.0704 -0.2408
   98TCq2    C3 1494   0.474   1.636   0.147  0.6816  0.0249 -0.1895
   98TCq2    C4 1495   0.488   1.711   0.036  0.2232 -0.1256 -0.8902
   98TCq2    C5 1496   0.602   1.777   0.015  0.2560  0.6090  0.0641
   98TCq2    C6 1497   0.698   1.777   0.110 -0.1161  0.5626  0.2290
   98TCq2    C7 1498   0.689   1.699   0.224  0.4304  0.5136  0.3873
   98TCq2    C8 1499   0.771   1.899   0.116 -0.0834  0.7297 -0.0429
   98TCq2    O4 1500   0.860   1.899   0.199 -0.2919 -0.6232  0.0952
   98TCq2    C9 1501   0.387   1.696  17.627 -0.4727  0.1217 -0.2223
   98TCq2    O5 1502   0.403   1.769  17.525  0.0237 -0.4425  0.2803
   98TCq2    O6 1503   0.308   1.599  17.641  0.0324  0.7709 -0.3452
   98TCq2    H2 1504   0.381   1.583   0.163  0.1243  1.5890  1.6673
   98TCq2    H3 1505   0.609   1.810  17.611  0.5876 -1.2092 -0.4946
   98TCq2    H4 1506   0.762   1.709   0.304 -1.1210  1.3889  1.6861
   99MPD2     C 1507   3.680   4.112   1.414  0.0419  0.0439  0.0565
   99MPD2    C1 1508   3.660   4.004   1.331 -0.2238 -0.5031  0.3866
   99MPD2    C2 1509   3.739   3.991   1.221  0.1472  0.2947 -0.7122
   99MPD2    C3 1510   3.846   4.075   1.202  0.1707 -0.1065 -0.6841
   99MPD2    C4 1511   3.867   4.187   1.289 -0.4639 -0.3310  0.2503
   99MPD2    C5 1512   3.774   4.209   1.388 -0.2116 -0.1035 -0.3199
   99MPD2     H 1513   3.725   3.904   1.158 -0.6274 -0.8499  1.0539
   99MPD2    H1 1514   3.950   4.256   1.284  0.8274 -1.9870 -1.4667
   99MPD2    H2 1515   3.627   4.114   1.509  2.0732 -3.5896  1.2780
   99MPD2    H3 1516   3.784   4.282   1.467 -1.2830  1.4161 -1.6033
   99MPD2     N 1517   3.941   4.047   1.102 -0.0973  0.4540 -0.0138
   99MPD2    H5 1518   3.935   3.951   1.070 -0.9737  0.0448  1.3735
   99MPD2    N1 1519   3.552   3.913   1.350  0.5262  0.2272  0.3900
   99MPD2    H7 1520   3.538   3.845   1.276 -1.0952 -0.4481  1.2924
  100TCq2    C1 1521   3.470   3.905   1.458 -0.3592  0.4086  1.0602
  100TCq2    O2 1522   3.466   3.979   1.555 -0.2700 -0.2945 -0.4321
  100TCq2    C2 1523   3.359   3.807   1.438  0.5737 -0.2560  0.1609
  100TCq2    C3 1524   3.326   3.760   1.319  0.0721  0.4575  0.4455
  100TCq2    C4 1525   3.222   3.673   1.309 -0.8413  0.4256 -0.3195
  100TCq2    C5 1526   3.152   3.635   1.420 -0.5203 -0.0505 -0.1063
  100TCq2    C6 1527   3.188   3.683   1.546 -0.1467  0.2308 -0.1658
  100TCq2    C7 1528   3.296   3.772   1.556  0.3269  0.5310  0.0208
  100TCq2    C8 1529   3.104   3.672   1.665 -0.6804  0.7003  0.5175
  100TCq2    O4 1530   3.120   3.746   1.763  0.3216  0.0831  0.3719
  100TCq2    C9 1531   3.187   3.640   1.175 -0.0045 -0.4602  0.3449
  100TCq2    O5 1532   3.259   3.669   1.073  0.1124  0.4788 -0.7230
  100TCq2    O6 1533   3.070   3.594   1.166  0.3689 -0.0594 -0.1535
  100TCq2    H2 1534   3.369   3.805   1.231  2.9344 -0.7800  1.1862
  100TCq2    H3 1535   3.082   3.553   1.412 -0.9312  0.1684  1.2152
  100TCq2    H4 1536   3.321   3.814   1.653  0.3818  0.5796 -0.0144
  101MPD2     C 1537   0.016   4.304  12.912  0.3661  0.1872  0.1182
  101MPD2    C1 1538   4.639   4.388  12.958  0.0867 -0.1328 -0.3132
  101MPD2    C2 1539   4.543   4.349  13.051 -0.3642 -0.2865 -0.8127
  101MPD2    C3 1540   4.539   4.210  13.084  0.1710 -0.4678 -0.2721
  101MPD2    C4 1541   4.643   4.132  13.047  0.0479 -0.0134  0.4115
  101MPD2    C5 1542   0.017   4.175  12.960  0.2455 -1.0195 -0.3811
  101MPD2     H 1543   4.458   4.403  13.091  0.0823 -0.5459  0.5114
  101MPD2    H1 1544   4.637   4.026  13.070 -4.5600 -0.0166 -0.7641
  101MPD2    H2 1545   0.091   4.332  12.839  0.6016  1.1703  0.7289
  101MPD2    H3 1546   0.091   4.107  12.920  1.3322  1.7125 -3.0005
  101MPD2     N 1547   4.433   4.169  13.166 -0.2995 -1.2931  0.0353
  101MPD2    H5 1548   4.373   4.232  13.218  2.2870 -0.8214  2.4646
  101MPD2    N1 1549   4.651   4.520  12.912 -0.1844 -0.4767 -0.3580
  101MPD2    H7 1550   4.712   4.540  12.833  1.0154 -0.8183  0.4870
  102TCq2    C1 1551   0.142   0.061  12.584  0.1571  0.2635 -0.1339
  102TCq2    O2 1552   0.231   0.024  12.653 -0.0153  0.1046  0.5800
  102TCq2    C2 1553   0.009   0.062  12.640 -0.4968 -0.1721  0.7392
  102TCq2    C3 1554   4.626   0.131  12.574 -0.4462 -0.5534 -0.0598
  102TCq2    C4 1555   4.508   0.131  12.637 -0.3556  0.3183 -0.2108
  102TCq2    C5 1556   4.483   0.072  12.755 -0.0676 -0.4353 -0.1618
  102TCq2    C6 1557   4.587   4.722  12.812  0.2584 -0.2694  0.1126
  102TCq2    C7 1558   4.716   0.004  12.760  0.3603 -0.0438  0.4230
  102TCq2    C8 1559   4.553   4.619  12.916 -0.7968 -0.4221  0.5484
  102TCq2    O4 1560   4.455   4.637  12.983 -0.6633 -0.4974  0.4515
  102TCq2    C9 1561   4.398   0.206  12.573 -0.1529 -0.2381 -0.1123
  102TCq2    O5 1562   4.289   0.216  12.640  0.1107 -0.1125 -0.4147
  102TCq2    O6 1563   4.406   0.243  12.451  0.0293 -0.4195 -0.4730
  102TCq2    H2 1564   4.636   0.185  12.480 -0.9350 -1.3150 -0.5544
  102TCq2    H3 1565   4.382   0.077  12.795 -0.4121  0.2427 -1.1237
  102TCq2    H4 1566   0.071   4.668  12.803  0.1489 -0.5091  0.1520
  103TMC2    C1 1567   2.761   4.585  12.627 -0.4622  0.3310  0.0924
  103TMC2    C2 1568   2.897   4.608  12.628  0.8637 -0.4790  0.6502
  103TMC2    C3 1569   2.970   4.559  12.733  0.9475 -0.0202  0.3269
  103TMC2    C4 1570   2.702   4.512  12.733  0.0791 -0.4977  0.0679
  103TMC2    C5 1571   2.787   4.465  12.825  0.2096 -0.1763  0.4195
  103TMC2    C6 1572   2.920   4.477  12.822 -0.1303 -0.2319  0.6759
  103TMC2     C 1573   2.678   4.643  12.518  0.7238  0.0570  0.2949
  103TMC2     O 1574   2.565   4.601  12.502  0.2395 -0.7318 -0.5690
  103TMC2     H 1575   2.947   4.660  12.548 -0.4283  0.2594  0.3297
  103TMC2    H1 1576   2.600   4.476  12.720  0.5703 -1.3916 -1.3598
  103TMC2    H2 1577   2.977   4.421  12.896  1.7863 -0.1342 -0.6993
  103TMC2    C7 1578   2.732   4.381  12.930 -0.3982 -0.1248  0.2013
  103TMC2    C8 1579   3.115   4.572  12.722 -0.2060 -0.3271  0.7480
  103TMC2    O1 1580   2.796   4.288  12.986  0.4573 -0.2641  0.1855
  103TMC2    O2 1581   3.160   4.620  12.620 -0.1512  0.1247 -0.4345
  103TMC2    O5 1582   3.178   4.572  12.841  0.0880  0.6885 -0.3103
  103TMC2    H5 1583   3.124   4.583  12.922  0.3078  0.5594 -0.1447
  104MPD2     C 1584   2.757   0.239  12.360 -0.1638 -0.1933 -0.3063
  104MPD2    C1 1585   2.692   0.114  12.367  0.2545 -0.3392  0.0766
  104MPD2    C2 1586   2.582   0.095  12.285  0.3711 -0.0978 -0.3789
  104MPD2    C3 1587   2.549   0.189  12.191 -0.6935 -0.4819 -0.2096
  104MPD2    C4 1588   2.609   0.306  12.188 -0.3368 -0.1897  0.2810
  104MPD2    C5 1589   2.722   0.333  12.263  0.7688 -0.0613  0.0872
  104MPD2     H 1590   2.534   4.722  12.283  0.4415 -0.1653  1.8036
  104MPD2    H1 1591   2.588   0.380  12.112  0.6448 -0.2311 -0.0319
  104MPD2    H2 1592   2.838   0.258  12.430 -1.4242 -0.4608  1.2306
  104MPD2    H3 1593   2.760   0.435  12.264 -1.4225  0.7660 -1.4412
  104MPD2     N 1594   2.462   0.141  12.085  0.2131 -0.0041 -0.1149
  104MPD2    H5 1595   2.425   0.048  12.104 -0.4461  0.0702 -1.0238
  104MPD2    N1 1596   2.740   0.023  12.459  0.0965  0.3772  0.6889
  104MPD2    H7 1597   2.832   0.054  12.489  0.6298 -1.3103  0.8207
  105MPD2     C 1598   4.557   3.960  17.173 -0.0549  0.3509  0.0694
  105MPD2    C1 1599   4.454   4.048  17.187  0.2713 -0.8501 -0.3051
  105MPD2    C2 1600   4.353   4.011  17.277 -0.5700  0.3060  0.0917
  105MPD2    C3 1601   4.346   3.882  17.328 -0.0043  0.1658 -0.1587
  105MPD2    C4 1602   4.455   3.803  17.314 -0.3992  0.2332 -0.3460
  105MPD2    C5 1603   4.558   3.849  17.247 -0.5554 -0.2598 -0.1905
  105MPD2     H 1604   4.259   4.064  17.286 -1.3793 -0.5361 -3.1350
  105MPD2    H1 1605   4.449   3.702  17.354 -1.6756  0.1159 -0.8547
  105MPD2    H2 1606   4.645   3.982  17.113  0.5730 -0.7985  0.5579
  105MPD2    H3 1607   4.637   3.776  17.236 -1.5873 -1.1401 -1.8227
  105MPD2     N 1608   4.231   3.835  17.396  0.1382  0.2457  0.4551
  105MPD2    H5 1609   4.154   3.901  17.399  0.0132  0.1259 -0.1114
  105MPD2    N1 1610   4.437   4.162  17.101 -0.5353 -0.0611  0.0463
  105MPD2    H7 1611   4.352   4.217  17.113  0.1106  0.5742  1.6841
  106TCq2    C1 1612   4.204   3.713  17.446  0.5870  0.4945 -0.4066
  106TCq2    O2 1613   4.264   3.605  17.434 -0.1279  0.3326 -0.1729
  106TCq2    C2 1614   4.068   3.720  17.486 -0.1957  0.3076 -0.5826
  106TCq2    C3 1615   3.984   3.614  17.473  0.5214 -0.9358 -0.7774
  106TCq2    C4 1616   3.847   3.623  17.469 -0.2073 -0.8851 -0.1466
  106TCq2    C5 1617   3.794   3.745  17.493 -0.6056 -0.2083 -0.7614
  106TCq2    C6 1618   3.877   3.856  17.511 -0.4297 -0.2529  0.3326
  106TCq2    C7 1619   4.014   3.842  17.510  0.1251 -0.4960 -0.3132
  106TCq2    C8 1620   3.826   3.976  17.549  0.4080  0.0830 -0.0473
  106TCq2    O4 1621   3.891   4.082  17.545  0.3537  0.3657  0.3160
  106TCq2    C9 1622   3.772   3.501  17.469  0.2788 -0.0535 -0.1947
  106TCq2    O5 1623   3.655   3.514  17.515 -0.2590  0.0357  0.1451
  106TCq2    O6 1624   3.822   3.396  17.422  0.2895 -0.3881 -0.2456
  106TCq2    H2 1625   4.020   3.513  17.462  1.5146 -0.6627  0.0081
  106TCq2    H3 1626   3.686   3.744  17.500 -0.4987 -1.2889  0.6854
  106TCq2    H4 1627   4.076   3.926  17.539 -3.6580  2.2846 -0.2342
  107TMC2    C1 1628   0.559   2.923  11.720  0.4190 -0.1404  0.0335
  107TMC2    C2 1629   0.624   2.967  11.606  0.0134 -0.5298 -0.2178
  107TMC2    C3 1630   0.761   2.955  11.601  0.2324 -0.1459 -0.3265
  107TMC2    C4 1631   0.625   2.871  11.827  0.6884  0.0518  0.7119
  107TMC2    C5 1632   0.761   2.860  11.813  0.5938 -0.2335 -0.2678
  107TMC2    C6 1633   0.830   2.905  11.705 -0.0606 -0.0858 -0.3022
  107TMC2     C 1634   0.424   2.966  11.748  0.8193 -0.5583  0.7634
  107TMC2     O 1635   0.389   2.953  11.866  0.3252 -0.3807  0.8193
  107TMC2     H 1636   0.576   3.003  11.516 -1.6490  0.7801  1.1953
  107TMC2    H1 1637   0.570   2.846  11.917 -0.4647  2.4338  0.6821
  107TMC2    H2 1638   0.937   2.919  11.698 -0.1940  1.3199  0.5651
  107TMC2    C7 1639   0.829   2.772  11.901  0.4399 -0.0535 -0.5568
  107TMC2    C8 1640   0.828   3.019  11.495  0.7321 -0.3128 -0.2795
  107TMC2    O1 1641   0.763   2.727  11.993  0.1212 -0.0689 -0.3155
  107TMC2    O2 1642   0.776   3.112  11.438  0.2435  0.1441 -0.7143
  107TMC2    O5 1643   0.901   2.926  11.437 -0.6628 -0.2877  0.2226
  107TMC2    H5 1644   0.908   2.847  11.495 -1.4143 -0.5248 -0.0074
  108MPD2     C 1645   0.208   3.198  11.555  1.0232 -0.0874 -0.0435
  108MPD2    C1 1646   0.256   3.136  11.671 -0.9933 -0.0178  0.3602
  108MPD2    C2 1647   0.175   3.137  11.777 -0.9530 -0.7586  0.5777
  108MPD2    C3 1648   0.051   3.197  11.780 -0.0463  0.2691 -0.0091
  108MPD2    C4 1649   0.017   3.263  11.668 -0.5830  0.1000 -0.2188
  108MPD2    C5 1650   0.083   3.252  11.549 -0.3261 -0.2836  0.4190
  108MPD2     H 1651   0.218   3.115  11.874 -1.2560 -1.5294  0.5370
  108MPD2    H1 1652   4.659   3.333  11.679 -0.9260 -0.2535 -0.5350
  108MPD2    H2 1653   0.265   3.177  11.464  1.1289  0.6471 -0.1486
  108MPD2    H3 1654   0.049   3.309  11.464 -1.3043 -2.0303 -0.3567
  108MPD2     N 1655   4.695   3.193  11.899  0.0337 -0.5959 -0.5760
  108MPD2    H5 1656   4.618   3.258  11.914  1.6208  0.8275  1.2861
  108MPD2    N1 1657   0.376   3.061  11.658 -1.0322  0.4163 -0.6344
  108MPD2    H7 1658   0.418   3.067  11.566 -1.7832  1.5172 -0.9112
  109MPD2     C 1659   3.915   0.739   1.594  0.2709  0.4820  0.3161
  109MPD2    C1 1660   4.025   0.756   1.506  0.6342  0.4628 -0.2829
  109MPD2    C2 1661   4.151   0.772   1.575 -0.0355  0.1352 -0.6450
  109MPD2    C3 1662   4.160   0.802   1.712 -0.2781  0.2659 -0.1930
  109MPD2    C4 1663   4.048   0.777   1.790  0.2468  0.3171 -0.2564
  109MPD2    C5 1664   3.927   0.744   1.731 -0.6587  0.2107  0.2486
  109MPD2     H 1665   4.242   0.778   1.516  1.1272 -2.7957  0.7971
  109MPD2    H1 1666   4.045   0.779   1.899  1.1975 -0.8234 -0.2111
  109MPD2    H2 1667   3.820   0.703   1.555  0.2318 -0.4568  1.2800
  109MPD2    H3 1668   3.854   0.693   1.792 -2.6459  1.2665 -1.2330
  109MPD2     N 1669   4.288   0.832   1.755 -0.1488 -0.0567 -0.1300
  109MPD2    H5 1670   4.353   0.863   1.684 -1.7299  1.5275 -0.8761
  109MPD2    N1 1671   4.011   0.733   1.368  0.0706  0.2686  0.5707
  109MPD2    H7 1672   3.921   0.696   1.339 -1.0317  2.2466  1.4952
  110TCq2    C1 1673   4.324   0.846   1.888  0.0762  0.1494  0.0555
  110TCq2    O2 1674   4.255   0.851   1.985 -0.6831  0.1829  0.3238
  110TCq2    C2 1675   4.460   0.894   1.891  0.2665 -0.3848  0.1186
  110TCq2    C3 1676   4.517   0.909   2.015  0.1196  0.1936  0.1332
  110TCq2    C4 1677   4.642   0.956   2.030  0.1292 -0.9475  0.7068
  110TCq2    C5 1678   0.001   0.975   1.915  0.2726  0.4435  0.2740
  110TCq2    C6 1679   4.660   0.967   1.793 -0.4725 -0.5317  1.7009
  110TCq2    C7 1680   4.531   0.917   1.778 -0.9251  0.0189  0.0689
  110TCq2    C8 1681   0.001   1.020   1.669  0.2491 -0.1744  0.3068
  110TCq2    O4 1682   4.644   1.072   1.595 -0.2050  0.1107  0.2331
  110TCq2    C9 1683   4.699   0.995   2.158  0.0043 -0.6948  0.1463
  110TCq2    O5 1684   4.650   0.954   2.264 -0.4140  0.5833  0.8470
  110TCq2    O6 1685   0.070   1.077   2.147 -0.2511 -0.1834 -0.1206
  110TCq2    H2 1686   4.466   0.887   2.108  2.2763 -1.0860  1.0329
  110TCq2    H3 1687   0.099   1.021   1.917  1.0565 -1.1616 -1.4755
  110TCq2    H4 1688   4.488   0.913   1.679  0.8456  2.6062 -0.8363
  111TMC2    C1 1689   0.865   0.264  11.434 -0.3353  0.1945  0.3889
  111TMC2    C2 1690   0.950   0.365  11.388 -0.1640  0.1063  0.7227
  111TMC2    C3 1691   1.074   0.371  11.438  0.5317  0.9897 -0.2702
  111TMC2    C4 1692   0.898   0.188  11.542  0.0247 -0.6532  0.1797
  111TMC2    C5 1693   1.031   0.202  11.586  0.2997 -0.0455  0.0176
  111TMC2    C6 1694   1.120   0.291  11.532 -0.0963 -0.1895 -0.3965
  111TMC2     C 1695   0.725   0.287  11.420  0.3017  0.7666 -0.1319
  111TMC2     O 1696   0.688   0.348  11.320 -0.5230 -0.6870  0.0036
  111TMC2     H 1697   0.911   0.429  11.309  0.7270 -0.3603 -0.0865
  111TMC2    H1 1698   0.835   0.107  11.576  0.0513 -1.2763 -1.2538
  111TMC2    H2 1699   1.222   0.308  11.564  0.1094 -2.0038 -0.0885
  111TMC2    C7 1700   1.061   0.143  11.719  0.0368 -0.2947  0.2533
  111TMC2    C8 1701   1.163   0.447  11.356 -0.1042  0.1287 -0.3100
  111TMC2    O1 1702   0.973   0.131  11.801  0.0751 -0.8732 -0.1388
  111TMC2    O2 1703   1.276   0.415  11.325 -0.4445 -0.1365 -0.2041
  111TMC2    O5 1704   1.116   0.568  11.359 -0.1717 -0.3208  0.1606
  111TMC2    H5 1705   1.046   0.580  11.426  0.4383  0.4659  0.6506
  112MPD2     C 1706   0.256   0.149  11.571 -0.1430  0.2851  0.3777
  112MPD2    C1 1707   0.299   0.181  11.442  0.4480  0.6040  0.8304
  112MPD2    C2 1708   0.431   0.222  11.428 -0.3663  0.0914 -0.2830
  112MPD2    C3 1709   0.522   0.224  11.538  0.3267 -0.2854 -0.0409
  112MPD2    C4 1710   0.472   0.198  11.666  0.3303 -0.0089 -0.4789
  112MPD2    C5 1711   0.338   0.166  11.679 -0.1443  0.0523  0.4850
  112MPD2     H 1712   0.479   0.238  11.332  3.7540  0.3882  1.8370
  112MPD2    H1 1713   0.529   0.207  11.757  0.4103 -0.6457 -0.4646
  112MPD2    H2 1714   0.153   0.122  11.591 -0.1190  1.1672  1.6920
  112MPD2    H3 1715   0.307   0.139  11.780  0.7042  0.7719  0.9464
  112MPD2     N 1716   0.657   0.253  11.532 -0.4355  0.2224 -0.5088
  112MPD2    H5 1717   0.710   0.251  11.619 -0.0115 -2.3061 -0.8175
  112MPD2    N1 1718   0.225   0.163  11.324  0.6031 -0.1666  0.1195
  112MPD2    H7 1719   0.270   0.189  11.236 -0.5594 -0.5557 -0.5931
  113MPD2     C 1720   2.913   3.017   1.435 -0.0453  0.6172  0.0287
  113MPD2    C1 1721   2.842   3.042   1.318 -0.1707 -0.2349 -0.2311
  113MPD2    C2 1722   2.787   2.939   1.247 -0.3321  1.0038  0.7349
  113MPD2    C3 1723   2.826   2.812   1.268  0.2251  0.0108 -0.0108
  113MPD2    C4 1724   2.903   2.789   1.379  0.2878  0.3859  0.3240
  113MPD2    C5 1725   2.944   2.887   1.460 -0.1130  0.4416  0.0791
  113MPD2     H 1726   2.712   2.968   1.175 -0.7170 -1.9613 -0.0315
  113MPD2    H1 1727   2.953   2.695   1.403  1.9403  0.7270 -1.7041
  113MPD2    H2 1728   2.955   3.098   1.492  2.7999 -1.7200  1.2861
  113MPD2    H3 1729   3.015   2.872   1.541 -1.0703  0.0711  0.8630
  113MPD2     N 1730   2.796   2.702   1.180  0.9781 -0.4935  0.4720
  113MPD2    H5 1731   2.836   2.611   1.201  0.4894 -0.2800  2.3596
  113MPD2    N1 1732   2.804   3.175   1.288  0.5863  0.3399  0.7795
  113MPD2    H7 1733   2.731   3.183   1.218  0.8714 -1.8281  0.2127
  114TCq2    C1 1734   2.731   2.719   1.063 -0.1788  0.6855 -0.2910
  114TCq2    O2 1735   2.674   2.816   1.013 -0.6389  0.3458 -0.1537
  114TCq2    C2 1736   2.731   2.594   0.977  0.0661 -0.7525 -0.1440
  114TCq2    C3 1737   2.732   2.624   0.841  0.2002 -0.3304  0.0423
  114TCq2    C4 1738   2.746   2.521   0.759 -0.1207  0.6620  0.4446
  114TCq2    C5 1739   2.744   2.391   0.805 -0.4142  0.0256  0.1025
  114TCq2    C6 1740   2.735   2.370   0.941  0.5014 -0.2543  0.0140
  114TCq2    C7 1741   2.728   2.472   1.035  0.2547 -0.5386 -0.0302
  114TCq2    C8 1742   2.712   2.240   0.995  0.7114 -0.2372 -0.2132
  114TCq2    O4 1743   2.779   2.155   0.934 -0.2312 -0.6260 -1.1348
  114TCq2    C9 1744   2.743   2.549   0.617 -0.0786 -0.4222  0.2322
  114TCq2    O5 1745   2.730   2.667   0.580  0.3275  0.4276  0.4395
  114TCq2    O6 1746   2.719   2.449   0.539  0.3023 -0.6485  0.0869
  114TCq2    H2 1747   2.735   2.727   0.809  0.9236  0.3188  2.2332
  114TCq2    H3 1748   2.762   2.312   0.733 -1.0531  1.0506 -1.2043
  114TCq2    H4 1749   2.733   2.457   1.142 -1.0737  1.2623  0.2718
  115TMC2    C1 1750   3.390   1.570  17.602 -0.1288 -0.5474 -0.2712
  115TMC2    C2 1751   3.352   1.556  17.474 -0.0132  0.1859  0.0693
  115TMC2    C3 1752   3.374   1.663  17.386 -0.4677 -0.0237  0.0046
  115TMC2    C4 1753   3.447   1.684  17.649  0.2349  0.0341  0.5151
  115TMC2    C5 1754   3.474   1.783  17.554  0.3822 -0.3724 -0.0073
  115TMC2    C6 1755   3.435   1.779  17.428 -0.0205 -0.1899 -0.5409
  115TMC2     C 1756   3.440   1.447  17.663 -0.0156  0.1267 -0.1794
  115TMC2     O 1757   3.465   1.358  17.582  0.4570 -0.4349  0.3151
  115TMC2     H 1758   3.300   1.472  17.430  1.2781 -1.2855  1.3700
  115TMC2    H1 1759   3.476   1.699   0.054  1.6758 -0.1926  0.1440
  115TMC2    H2 1760   3.438   1.862  17.358 -0.1570  0.0414 -0.2765
  115TMC2    C7 1761   3.539   1.907  17.603 -0.9303  0.6089  0.0060
  115TMC2    C8 1762   3.327   1.653  17.251 -0.5654 -1.0140 -1.0407
  115TMC2    O1 1763   3.520   1.946   0.015 -0.0743 -0.3197  0.2174
  115TMC2    O2 1764   3.224   1.592  17.218  1.0485  0.3439  0.4368
  115TMC2    O5 1765   3.411   1.713  17.173  0.1768  0.3195 -0.3493
  115TMC2    H5 1766   3.499   1.735  17.209  0.7262 -1.6367 -0.5318
  116MPD2     C 1767   3.532   1.154   0.371  0.5885 -0.0926  0.0666
  116MPD2    C1 1768   3.557   1.120   0.240  0.3112 -0.8607 -0.0974
  116MPD2    C2 1769   3.512   1.209   0.149 -0.3967 -0.1711 -0.4805
  116MPD2    C3 1770   3.468   1.338   0.192  0.1447 -0.0735  0.3697
  116MPD2    C4 1771   3.466   1.374   0.320  0.2029 -0.1213  0.2848
  116MPD2    C5 1772   3.498   1.279   0.411  0.2940  0.2700 -0.2543
  116MPD2     H 1773   3.498   1.176   0.047 -0.4288 -3.3286  0.5142
  116MPD2    H1 1774   3.434   1.474   0.346 -2.1814 -0.8731  0.2421
  116MPD2    H2 1775   3.566   1.088   0.450  1.3718  1.0247  0.6728
  116MPD2    H3 1776   3.487   1.301   0.517  1.5790 -1.0642  0.1585
  116MPD2     N 1777   3.428   1.440   0.102 -0.0144  0.1494 -0.3562
  116MPD2    H5 1778   3.398   1.528   0.143  1.5037 -0.5986  2.3267
  116MPD2    N1 1779   3.600   0.996   0.191 -0.1324 -0.1065  0.7694
  116MPD2    H7 1780   3.609   0.973   0.093  0.3808  0.5196  0.6686
  117TMC2    C1 1781   2.441   1.964  13.413  1.1912 -0.0300  0.0109
  117TMC2    C2 1782   2.538   1.902  13.331 -0.3390  0.0438  0.1069
  117TMC2    C3 1783   2.659   1.876  13.388 -0.5377  0.1058 -0.4278
  117TMC2    C4 1784   2.468   2.009  13.542 -0.2512 -0.0148  0.7734
  117TMC2    C5 1785   2.593   1.967  13.594 -0.1314  0.2116  0.1471
  117TMC2    C6 1786   2.687   1.898  13.520  0.2462 -0.1652  0.2276
  117TMC2     C 1787   2.319   2.004  13.349  0.8289  0.2823 -0.6169
  117TMC2     O 1788   2.278   1.939  13.253 -0.3182 -0.4431  0.9617
  117TMC2     H 1789   2.530   1.887  13.224 -0.4985 -1.1267  0.2815
  117TMC2    H1 1790   2.402   2.065  13.607 -1.4393 -0.6212  0.0999
  117TMC2    H2 1791   2.782   1.864  13.560 -0.0205 -1.6326 -0.3801
  117TMC2    C7 1792   2.627   1.995  13.727  0.2797  0.4972 -0.4432
  117TMC2    C8 1793   2.721   1.760  13.335  0.0222 -0.7881  0.3544
  117TMC2    O1 1794   2.744   1.998  13.768  0.0266 -0.1571  0.2163
  117TMC2    O2 1795   2.663   1.701  13.241 -1.1179 -0.3565 -0.0552
  117TMC2    O5 1796   2.854   1.764  13.356 -0.1083 -0.4539 -0.3116
  117TMC2    H5 1797   2.893   1.839  13.406 -0.1702 -0.6736  0.0695
  118MPD2     C 1798   2.366   2.076  13.979  0.6626 -0.5181 -0.0251
  118MPD2    C1 1799   2.489   2.085  13.916 -0.0375 -0.1151  0.0131
  118MPD2    C2 1800   2.589   2.165  13.969 -0.0980  0.3948 -0.5396
  118MPD2    C3 1801   2.561   2.241  14.084  0.2015  0.7779  0.0872
  118MPD2    C4 1802   2.440   2.235  14.143  0.4739  1.0331 -0.0059
  118MPD2    C5 1803   2.346   2.153  14.089  0.5790  0.1892  0.6902
  118MPD2     H 1804   2.688   2.185  13.929 -0.6321  2.4277 -0.8264
  118MPD2    H1 1805   2.414   2.285  14.235  0.3561  1.2934 -0.1781
  118MPD2    H2 1806   2.286   2.012  13.943 -0.8368  0.2387  1.9285
  118MPD2    H3 1807   2.247   2.160  14.133 -0.0545  0.0740 -0.7206
  118MPD2     N 1808   2.655   2.321  14.158  0.2962  0.0733  0.5065
  118MPD2    H5 1809   2.624   2.370  14.241 -0.4561  1.1941 -0.4421
  118MPD2    N1 1810   2.511   2.009  13.797 -0.1194 -0.6368  0.2612
  118MPD2    H7 1811   2.426   1.968  13.758 -1.1123  2.1289 -0.4783
  119MPD2     C 1812   0.902   3.924  13.641 -0.0975 -0.2080  0.3631
  119MPD2    C1 1813   0.783   3.905  13.715  0.1605  0.3546  0.4823
  119MPD2    C2 1814   0.659   3.889  13.657  0.4112 -0.5969 -0.0354
  119MPD2    C3 1815   0.651   3.905  13.523  0.0560 -0.6149 -0.6024
  119MPD2    C4 1816   0.762   3.925  13.446 -0.0321  0.0258  0.6185
  119MPD2    C5 1817   0.890   3.930  13.506  0.8764  0.0300 -0.2052
  119MPD2     H 1818   0.573   3.871  13.720 -0.1729 -1.7524 -1.1472
  119MPD2    H1 1819   0.754   3.943  13.340 -0.1299  1.7986  0.9222
  119MPD2    H2 1820   1.004   3.929  13.678 -0.0256  2.6058 -0.2478
  119MPD2    H3 1821   0.985   3.942  13.456 -0.3108 -1.3789 -2.8165
  119MPD2     N 1822   0.525   3.893  13.458  0.1739  0.1427  0.4563
  119MPD2    H5 1823   0.524   3.873  13.359  1.4623  1.0737  0.2564
  119MPD2    N1 1824   0.794   3.866  13.850  0.4349  0.5031  0.1274
  119MPD2    H7 1825   0.890   3.858  13.883  0.0525 -0.5929  0.9675
  120TCq2    C1 1826   0.403   3.897  13.528 -0.1570 -0.1780 -0.4751
  120TCq2    O2 1827   0.373   3.940  13.637  0.0436  0.1238 -0.2349
  120TCq2    C2 1828   0.286   3.843  13.458 -0.1800  0.3103 -0.6652
  120TCq2    C3 1829   0.279   3.839  13.322 -0.2533 -0.4141 -0.0750
  120TCq2    C4 1830   0.157   3.798  13.273 -0.1800  0.0810 -0.1858
  120TCq2    C5 1831   0.054   3.748  13.351  0.1344 -0.5497  0.1974
  120TCq2    C6 1832   0.071   3.748  13.487 -0.2309 -0.5367  0.4730
  120TCq2    C7 1833   0.188   3.798  13.544  0.6180 -0.5636 -0.5957
  120TCq2    C8 1834   4.691   3.694  13.572  0.2076 -0.2886 -0.1580
  120TCq2    O4 1835   4.577   3.703  13.536 -0.5403 -0.2518 -0.1873
  120TCq2    C9 1836   0.136   3.793  13.135  0.4734 -0.8363  0.8526
  120TCq2    O5 1837   0.033   3.748  13.081  0.4179 -0.0679  0.0179
  120TCq2    O6 1838   0.236   3.814  13.058  0.0268  0.0790  0.2902
  120TCq2    H2 1839   0.358   3.882  13.262 -1.1449  4.0572  1.9976
  120TCq2    H3 1840   4.680   3.721  13.313 -0.4706  1.1708  0.5408
  120TCq2    H4 1841   0.197   3.800  13.652 -2.6888  0.9405 -0.3430
  121TMC2    C1 1842   1.827   0.591  13.603  0.4718 -0.2238 -0.5733
  121TMC2    C2 1843   1.834   0.489  13.507  0.1931 -0.2688 -0.6545
  121TMC2    C3 1844   1.740   0.390  13.514  0.2722 -0.3276  0.0869
  121TMC2    C4 1845   1.723   0.595  13.687 -0.0576  0.3114  0.2598
  121TMC2    C5 1846   1.634   0.494  13.688  0.1082 -0.2995  0.8496
  121TMC2    C6 1847   1.643   0.384  13.610 -0.4355 -0.0339 -0.8157
  121TMC2     C 1848   1.953   0.600  13.669 -0.8704 -0.1654 -0.4840
  121TMC2     O 1849   1.972   0.519  13.760  0.7816 -0.0759 -0.2210
  121TMC2     H 1850   1.914   0.497  13.435 -0.9893  0.2946 -1.9012
  121TMC2    H1 1851   1.715   0.678  13.758  3.0189  0.1142  0.8329
  121TMC2    H2 1852   1.584   0.295  13.626 -1.2254  0.8953  1.5104
  121TMC2    C7 1853   1.512   0.495  13.771 -0.4765  0.7580  0.1133
  121TMC2    C8 1854   1.774   0.260  13.457  0.3374  0.1178 -0.1293
  121TMC2    O1 1855   1.469   0.386  13.806 -0.3301 -0.1848  0.6403
  121TMC2    O2 1856   1.812   0.172  13.530  0.0459 -0.4913  0.0578
  121TMC2    O5 1857   1.796   0.280  13.328 -0.2994  0.6294 -0.4646
  121TMC2    H5 1858   1.754   0.357  13.286 -3.5424 -1.0951 -0.3791
  122MPD2     C 1859   2.258   0.556  13.655 -0.0474 -0.2895 -0.1525
  122MPD2    C1 1860   2.187   0.661  13.598 -0.0187  0.2071 -0.1619
  122MPD2    C2 1861   2.256   0.760  13.533 -0.1045  0.0796 -0.5283
  122MPD2    C3 1862   2.393   0.750  13.517 -0.2417  0.1334  0.3171
  122MPD2    C4 1863   2.466   0.649  13.577  0.1981 -0.0968  0.1861
  122MPD2    C5 1864   2.391   0.549  13.638  0.3633 -0.0276 -0.5452
  122MPD2     H 1865   2.202   0.840  13.483 -2.5325 -2.3089 -1.6810
  122MPD2    H1 1866   2.573   0.634  13.573  0.6153  3.2848 -1.0437
  122MPD2    H2 1867   2.209   0.477  13.711  2.2957 -0.6749  1.3385
  122MPD2    H3 1868   2.440   0.462  13.679 -1.3695 -0.7831 -0.0662
  122MPD2     N 1869   2.461   0.837  13.424 -0.0907  0.6400  0.0719
  122MPD2    H5 1870   2.561   0.819  13.418  0.0812  2.4111 -1.9377
  122MPD2    N1 1871   2.046   0.662  13.587  0.7769 -0.2574  0.1714
  122MPD2    H7 1872   2.008   0.724  13.517  1.3527  0.8834  0.8567
  123MPD2     C 1873   0.535   3.204   9.286  0.1997 -0.0875 -0.2396
  123MPD2    C1 1874   0.578   3.165   9.409 -0.2747 -0.2794 -0.1989
  123MPD2    C2 1875   0.715   3.134   9.419 -0.3073  0.3162 -0.2161
  123MPD2    C3 1876   0.799   3.128   9.309 -0.2271  0.8275  0.5361
  123MPD2    C4 1877   0.740   3.154   9.179 -0.3056  0.1088 -1.1151
  123MPD2    C5 1878   0.620   3.204   9.174  0.4002  0.0436  0.6156
  123MPD2     H 1879   0.748   3.078   9.506  1.7376  1.2513 -0.3903
  123MPD2    H1 1880   0.798   3.155   9.087 -1.6451 -0.5784 -1.9581
  123MPD2    H2 1881   0.434   3.240   9.271 -0.5986 -0.6677  3.6700
  123MPD2    H3 1882   0.579   3.231   9.077 -1.2821  2.3718  1.9739
  123MPD2     N 1883   0.932   3.089   9.330  0.1478  0.1485  0.4462
  123MPD2    H5 1884   0.950   3.063   9.426  0.3081  0.3202  0.4639
  123MPD2    N1 1885   0.489   3.154   9.516  0.0059  0.2497 -0.2679
  123MPD2    H7 1886   0.392   3.162   9.488 -0.0008  0.4670 -0.1799
  124TCq2    C1 1887   1.027   3.079   9.231 -1.1140 -0.1185  0.2225
  124TCq2    O2 1888   1.018   3.110   9.113 -0.5787 -0.2889  0.5701
  124TCq2    C2 1889   1.153   3.040   9.284 -0.4106 -0.8949 -0.3379
  124TCq2    C3 1890   1.268   3.075   9.212 -0.8909  0.3512 -0.3500
  124TCq2    C4 1891   1.394   3.040   9.266  0.4527 -0.6357 -0.1745
  124TCq2    C5 1892   1.406   2.963   9.384 -0.5033  0.1504 -0.3875
  124TCq2    C6 1893   1.284   2.918   9.435 -0.2862 -0.2973 -0.1712
  124TCq2    C7 1894   1.161   2.963   9.398 -0.1380  0.1852 -0.5030
  124TCq2    C8 1895   1.287   2.814   9.544  0.2989 -0.2847  0.1729
  124TCq2    O4 1896   1.194   2.810   9.621 -0.5803  0.3212 -0.1898
  124TCq2    C9 1897   1.512   3.067   9.186 -0.0932 -0.8171 -0.0346
  124TCq2    O5 1898   1.503   3.118   9.072 -0.3982  0.5002  0.5115
  124TCq2    O6 1899   1.615   3.013   9.231  0.3944  0.2864  0.2174
  124TCq2    H2 1900   1.254   3.133   9.121  0.8365  1.7933  0.2954
  124TCq2    H3 1901   1.503   2.952   9.432 -0.9116 -3.2016 -0.3869
  124TCq2    H4 1902   1.074   2.929   9.453  1.3983 -1.3887  0.9591
  125TMC2    C1 1903   1.903   4.576   8.843  0.3382 -0.6925  0.3836
  125TMC2    C2 1904   2.041   4.555   8.832  0.2583 -0.2296 -0.0640
  125TMC2    C3 1905   2.121   4.668   8.852 -0.0765 -0.0452  0.1858
  125TMC2    C4 1906   1.845   4.695   8.862  0.0852  0.0099 -0.3513
  125TMC2    C5 1907   1.925   0.086   8.860 -0.5895 -0.8091 -0.4230
  125TMC2    C6 1908   2.063   0.069   8.853 -0.1270 -0.8479 -0.0890
  125TMC2     C 1909   1.828   4.458   8.884 -0.7840  0.6296 -0.2416
  125TMC2     O 1910   1.902   4.367   8.924  0.6001  0.2538 -0.3206
  125TMC2     H 1911   2.082   4.454   8.831 -1.0501 -0.7478 -2.1075
  125TMC2    H1 1912   1.740   4.707   8.884 -0.2158  1.0985 -2.4249
  125TMC2    H2 1913   2.129   0.154   8.845 -1.4114  0.0975 -0.6814
  125TMC2    C7 1914   1.870   0.212   8.908  0.4996  0.3296 -0.0788
  125TMC2    C8 1915   2.260   4.647   8.824  0.0176 -0.5420  0.5982
  125TMC2    O1 1916   1.747   0.219   8.893 -0.0945  0.0319  0.5919
  125TMC2    O2 1917   2.311   4.546   8.774 -0.6537 -0.1819 -0.4508
  125TMC2    O5 1918   2.332   0.024   8.875  0.8453 -0.0317 -0.1905
  125TMC2    H5 1919   2.269   0.071   8.933  1.2032 -2.0097  1.7870
  126MPD1     C 1920   1.406   4.201   8.995 -0.5854  0.4176 -0.2115
  126MPD1    C1 1921   1.368   4.314   8.924  0.0812 -0.6306  0.0567
  126MPD1    C2 1922   1.464   4.398   8.891 -0.0742  0.2408  0.3651
  126MPD1    C3 1923   1.595   4.376   8.917  0.7062  0.1075  0.2690
  126MPD1    C4 1924   1.633   4.268   8.985 -0.3016  0.2591  0.2632
  126MPD1    C5 1925   1.537   4.179   9.024  0.3802 -0.0431 -0.3298
  126MPD1     H 1926   1.437   4.480   8.825  0.2682  0.9571  1.1219
  126MPD1    H1 1927   1.734   4.250   9.020 -1.0034 -0.9331  1.6642
  126MPD1    H2 1928   1.334   4.129   9.031 -0.8807  0.8791  0.1088
  126MPD1    H3 1929   1.555   4.091   9.085 -0.1389 -1.1943 -1.8469
  126MPD1     N 1930   1.689   4.471   8.880  0.1893 -0.0655  0.4449
  126MPD1    H5 1931   1.654   4.551   8.829  0.0884  0.2828  1.0547
  126MPD1    N1 1932   1.240   4.316   8.870 -0.4828 -0.0575  0.2793
  126MPD1    H6 1933   1.205   4.409   8.850 -1.2316 -0.1994  0.9098
  126MPD1    H7 1934   1.179   4.262   8.932  1.1206 -1.4067  0.6794
  127MPD2     C 1935   2.250   4.365   9.165 -0.2356 -0.0057  0.1148
  127MPD2    C1 1936   2.343   4.271   9.199 -0.0379 -0.1375  0.7968
  127MPD2    C2 1937   2.472   4.318   9.227 -0.1003 -0.1708  0.5201
  127MPD2    C3 1938   2.504   4.453   9.224  0.3970  0.3372  0.3606
  127MPD2    C4 1939   2.410   4.540   9.182 -0.3115  0.3924  0.2941
  127MPD2    C5 1940   2.282   4.497   9.152 -0.0198 -0.3493  0.3778
  127MPD2     H 1941   2.545   4.242   9.254  0.7697  0.5454  0.1644
  127MPD2    H1 1942   2.436   4.646   9.177 -0.0393  0.3747  1.3335
  127MPD2    H2 1943   2.145   4.344   9.152 -0.1932 -0.2418  0.1490
  127MPD2    H3 1944   2.204   4.570   9.136  1.2765  0.6876 -1.1524
  127MPD2     N 1945   2.635   4.485   9.261 -0.1449  0.0477 -0.2588
  127MPD2    H5 1946   2.692   4.409   9.296 -2.1648 -0.8016  1.1108
  127MPD2    N1 1947   2.307   4.132   9.212 -0.1730  0.9174  0.1171
  127MPD2    H7 1948   2.211   4.105   9.191  0.1038 -0.9863  1.3718
  128TCq2    C1 1949   2.383   4.036   9.289 -0.7100  0.6173  0.0467
  128TCq2    O2 1950   2.488   4.056   9.346 -0.2530 -0.1350  0.2500
  128TCq2    C2 1951   2.318   3.909   9.317  0.0221  0.9612  0.0928
  128TCq2    C3 1952   2.400   3.808   9.364 -0.4413 -0.1628 -0.0745
  128TCq2    C4 1953   2.349   3.709   9.440  0.4551  0.1378 -0.2324
  128TCq2    C5 1954   2.214   3.688   9.438 -0.8469 -0.2523  0.5247
  128TCq2    C6 1955   2.139   3.791   9.382 -0.5771  0.2500 -0.0653
  128TCq2    C7 1956   2.188   3.903   9.329  0.3241 -0.5324  0.6012
  128TCq2    C8 1957   1.999   3.798   9.429  0.3658 -0.1387  0.2426
  128TCq2    O4 1958   1.923   3.878   9.383 -0.6394  0.1364 -0.7927
  128TCq2    C9 1959   2.434   3.616   9.517  0.2780  0.5699  0.0678
  128TCq2    O5 1960   2.559   3.639   9.505  0.7399  0.1834  0.6477
  128TCq2    O6 1961   2.379   3.538   9.598  0.6040 -0.5419 -0.4658
  128TCq2    H2 1962   2.504   3.803   9.336 -0.8825  0.7753 -1.9167
  128TCq2    H3 1963   2.175   3.591   9.466 -0.3507 -0.6725 -0.2219
  128TCq2    H4 1964   2.116   3.969   9.281 -1.3670 -1.2248  2.1604
  129MPD2     C 1965   0.318   1.020   0.913 -0.4066 -0.4606 -0.6295
  129MPD2    C1 1966   0.382   1.015   1.032 -0.1849  0.0992 -0.5700
  129MPD2    C2 1967   0.505   1.076   1.036  0.4709 -0.2588 -0.5949
  129MPD2    C3 1968   0.572   1.120   0.933 -0.0394 -0.5948  0.0722
  129MPD2    C4 1969   0.506   1.136   0.814 -0.1825  0.1857  0.0153
  129MPD2    C5 1970   0.372   1.095   0.805 -0.3437  0.0307 -0.6089
  129MPD2     H 1971   0.561   1.058   1.127 -0.5493  1.1265  0.3109
  129MPD2    H1 1972   0.553   1.182   0.728 -0.4443 -2.0811 -1.3245
  129MPD2    H2 1973   0.214   0.991   0.897 -0.9071  1.8210 -1.5759
  129MPD2    H3 1974   0.323   1.103   0.708  0.1990 -1.3992 -0.9994
  129MPD2     N 1975   0.703   1.167   0.932 -0.1610  0.7171 -0.1073
  129MPD2    H5 1976   0.739   1.191   0.841 -0.0238  2.0514  0.3061
  129MPD2    N1 1977   0.337   0.959   1.153  1.0575 -0.3782 -0.4549
  129MPD2    H7 1978   0.401   0.959   1.231  0.6946  0.5126 -0.1583
  130TCq2    C1 1979   0.217   0.890   1.175  0.2706 -0.4598  0.2048
  130TCq2    O2 1980   0.110   0.906   1.114  0.3531  0.2863  0.3194
  130TCq2    C2 1981   0.220   0.819   1.306 -0.6939  0.3842  0.5434
  130TCq2    C3 1982   0.341   0.782   1.361 -0.2771 -0.4972 -0.1577
  130TCq2    C4 1983   0.334   0.711   1.479  0.0578  0.7403 -0.2043
  130TCq2    C5 1984   0.222   0.672   1.542 -0.4346  0.2909 -0.1108
  130TCq2    C6 1985   0.106   0.714   1.485 -0.4233 -0.8372  0.5154
  130TCq2    C7 1986   0.105   0.788   1.364  0.1719 -0.0864  0.1537
  130TCq2    C8 1987   4.698   0.673   1.543 -0.5653 -0.1131  0.7303
  130TCq2    O4 1988   4.596   0.680   1.472  0.1636 -0.7080  0.4048
  130TCq2    C9 1989   0.461   0.670   1.542 -0.3081 -0.3030  0.7808
  130TCq2    O5 1990   0.569   0.695   1.478 -0.1764  0.1520 -0.1863
  130TCq2    O6 1991   0.446   0.591   1.638 -0.3457 -0.7742 -0.0228
  130TCq2    H2 1992   0.437   0.797   1.313  0.0052 -0.1273  0.5231
  130TCq2    H3 1993   0.219   0.588   1.611 -2.3675 -0.2398 -0.8294
  130TCq2    H4 1994   0.006   0.806   1.324  0.0945 -1.5638 -0.3345
  131MPD2     C 1995   4.699   3.790   9.694 -0.4709  0.7624 -0.3797
  131MPD2    C1 1996   0.102   3.796   9.740  0.4724 -0.1505  0.0367
  131MPD2    C2 1997   0.171   3.676   9.760 -0.1056  0.0450 -0.8944
  131MPD2    C3 1998   0.105   3.552   9.753 -0.0701 -0.0943 -0.2065
  131MPD2    C4 1999   4.699   3.551   9.702 -0.2081  0.5457  0.5615
  131MPD2    C5 2000   4.634   3.670   9.673 -0.3227  0.3859  0.1426
  131MPD2     H 2001   0.276   3.658   9.782 -0.2104 -2.9378 -3.0253
  131MPD2    H1 2002   4.650   3.467   9.655 -1.2555  1.0395  0.7773
  131MPD2    H2 2003   4.637   3.875   9.668 -1.9729 -0.3040 -0.2938
  131MPD2    H3 2004   4.541   3.674   9.619  0.6007 -0.1659 -1.4761
  131MPD2     N 2005   0.172   3.429   9.768 -0.1565  0.7374 -0.2891
  131MPD2    H5 2006   0.272   3.429   9.784  0.3645 -1.2147 -3.7305
  131MPD2    N1 2007   0.171   3.922   9.743 -0.0770  0.3828 -0.2301
  131MPD2    H7 2008   0.123   4.010   9.728  2.0531  1.5423 -0.1419
  132TCq2    C1 2009   0.660   4.226   9.765  0.2083 -0.3748  0.0668
  132TCq2    O2 2010   0.719   4.125   9.747 -0.4847  0.2053  0.3382
  132TCq2    C2 2011   0.524   4.215   9.809  0.0778 -0.0108  0.3098
  132TCq2    C3 2012   0.441   4.324   9.797  0.9447 -0.7169 -0.0217
  132TCq2    C4 2013   0.309   4.297   9.785  0.4626 -0.5028  0.4770
  132TCq2    C5 2014   0.258   4.171   9.774 -0.0802 -0.2261 -0.1911
  132TCq2    C6 2015   0.344   4.065   9.782 -0.4199 -0.2729 -0.5142
  132TCq2    C7 2016   0.475   4.091   9.811 -0.0196  0.1783 -0.4419
  132TCq2    C8 2017   0.297   3.930   9.796 -0.3383 -0.7896  0.6202
  132TCq2    O4 2018   0.369   3.854   9.856  0.3041  0.0734  0.0726
  132TCq2    C9 2019   0.224   4.410   9.771 -0.7341  0.0938 -0.3329
  132TCq2    O5 2020   0.277   4.518   9.733 -0.5094  0.1287 -0.0323
  132TCq2    O6 2021   0.122   4.400   9.847  0.1708  0.6882  0.2816
  132TCq2    H2 2022   0.472   4.427   9.786 -1.0760 -0.0453  0.4347
  132TCq2    H3 2023   0.151   4.165   9.759 -0.1779  3.0240 -0.7780
  132TCq2    H4 2024   0.547   4.010   9.813  0.5475  0.6482 -1.5436
  133MPD2     C 2025   0.047   0.473   9.604 -0.2265  0.1309 -0.0576
  133MPD2    C1 2026   4.632   0.487   9.603  0.1310  0.0792  0.0492
  133MPD2    C2 2027   4.555   0.387   9.537 -0.4729  0.1715  0.9956
  133MPD2    C3 2028   4.612   0.271   9.495  0.6194  0.1818 -0.2275
  133MPD2    C4 2029   0.025   0.261   9.506 -0.0093 -0.0030  0.0278
  133MPD2    C5 2030   0.102   0.360   9.551 -0.1837  0.7692  0.1119
  133MPD2     H 2031   4.448   0.400   9.525 -0.2726  1.4423  0.6204
  133MPD2    H1 2032   0.077   0.170   9.479 -0.1949 -0.4523  1.1712
  133MPD2    H2 2033   0.107   0.555   9.643  0.7892 -2.0940  2.9635
  133MPD2    H3 2034   0.207   0.341   9.574 -0.1340 -0.8545 -1.4109
  133MPD2     N 2035   4.538   0.160   9.455 -0.0824 -0.0966  0.0482
  133MPD2    H5 2036   4.595   0.080   9.426 -0.7634 -0.0435 -1.4159
  133MPD2    N1 2037   4.576   0.617   9.642  0.2815  0.0972 -0.2603
  133MPD2    H7 2038   4.651   0.683   9.656  0.3716 -0.6966  3.0330
  134TCq2    C1 2039   4.448   0.655   9.612  0.4124  0.0004  0.1401
  134TCq2    O2 2040   4.349   0.595   9.585 -0.2802 -0.1652 -0.2500
  134TCq2    C2 2041   4.433   0.796   9.638 -0.3291  0.5996 -0.1472
  134TCq2    C3 2042   4.526   0.877   9.596  0.0735  0.4271  0.2646
  134TCq2    C4 2043   4.504   1.016   9.582 -0.3841  0.9560 -0.0064
  134TCq2    C5 2044   4.377   1.073   9.610 -0.5052  0.4173 -0.0919
  134TCq2    C6 2045   4.278   0.980   9.650  1.0619  0.9385  0.0986
  134TCq2    C7 2046   4.306   0.846   9.664  0.5700  0.2602 -0.0083
  134TCq2    C8 2047   4.141   1.017   9.669 -1.0055 -0.4842 -0.4215
  134TCq2    O4 2048   4.055   0.933   9.657  0.3684 -0.2507  0.1484
  134TCq2    C9 2049   4.620   1.089   9.526  0.1842  0.4510  0.2699
  134TCq2    O5 2050   4.711   1.014   9.476  0.0677  0.1198  0.4110
  134TCq2    O6 2051   4.590   1.204   9.497 -0.4149  0.0049  0.0185
  134TCq2    H2 2052   4.620   0.833   9.564 -0.8548 -1.0597 -0.4402
  134TCq2    H3 2053   4.364   1.181   9.603 -0.0068  0.5683  1.2094
  134TCq2    H4 2054   4.232   0.780   9.708  1.4551 -1.7107 -1.4844
  135MPD2     C 2055   1.868   1.076   9.279  0.1810 -0.3727  0.6269
  135MPD2    C1 2056   1.737   1.095   9.249  0.6435  0.0753 -0.3807
  135MPD2    C2 2057   1.692   1.025   9.136  0.1469  0.5930  0.2680
  135MPD2    C3 2058   1.778   0.961   9.051 -0.2187  0.0334  0.1837
  135MPD2    C4 2059   1.918   0.955   9.079  0.2335  0.1509 -0.3029
  135MPD2    C5 2060   1.958   1.016   9.193  0.5238 -0.0854  0.0006
  135MPD2     H 2061   1.588   1.029   9.108 -0.1478 -1.9666  1.0067
  135MPD2    H1 2062   1.993   0.899   9.025 -0.9535 -1.0513 -0.6867
  135MPD2    H2 2063   1.919   1.111   9.367  2.4933 -0.2143 -0.7734
  135MPD2    H3 2064   2.064   1.013   9.213 -0.0332  0.0439  3.0106
  135MPD2     N 2065   1.742   0.884   8.938 -0.0311 -0.4187  0.2221
  135MPD2    H5 2066   1.816   0.835   8.888 -2.1042 -1.8961 -1.4164
  135MPD2    N1 2067   1.640   1.163   9.332  0.3628 -0.1022 -0.2641
  135MPD2    H7 2068   1.551   1.184   9.286  0.3299 -1.1322 -0.6720
  136TCq2    C1 2069   1.675   1.230   9.448  0.0491  0.0404 -0.1744
  136TCq2    O2 2070   1.772   1.212   9.520 -0.4397 -0.4865 -0.3915
  136TCq2    C2 2071   1.566   1.304   9.507 -0.3451  0.2831 -0.2993
  136TCq2    C3 2072   1.450   1.319   9.436 -0.2847  0.3709 -0.4395
  136TCq2    C4 2073   1.335   1.332   9.504 -0.5660 -0.1842  0.2545
  136TCq2    C5 2074   1.339   1.328   9.639 -0.7982  0.5298 -0.2480
  136TCq2    C6 2075   1.458   1.324   9.706  0.0633 -0.3391 -0.1265
  136TCq2    C7 2076   1.571   1.317   9.642 -0.4271 -0.7125 -0.1035
  136TCq2    C8 2077   1.461   1.340   9.854  0.0906 -0.0723 -0.1771
  136TCq2    O4 2078   1.558   1.401   9.898  0.1913  0.6540 -0.5289
  136TCq2    C9 2079   1.204   1.359   9.447  0.3122 -0.5772  0.5407
  136TCq2    O5 2080   1.191   1.333   9.322 -0.3564 -0.4399  0.5696
  136TCq2    O6 2081   1.120   1.416   9.524 -0.1051  0.1969 -0.0451
  136TCq2    H2 2082   1.446   1.340   9.330 -0.5088  0.7237 -0.3601
  136TCq2    H3 2083   1.243   1.340   9.689 -1.1448 -1.1674 -0.5214
  136TCq2    H4 2084   1.654   1.275   9.698  0.3694  0.4211 -0.4360
  137MPD2     C 2085   1.723   4.678   9.634  0.2949  0.0667 -0.1111
  137MPD2    C1 2086   1.823   0.026   9.702 -0.6763 -0.2415 -0.2368
  137MPD2    C2 2087   1.864   4.710   9.833 -0.6679 -0.1297 -0.2169
  137MPD2    C3 2088   1.790   4.606   9.895  0.1869 -0.3481 -0.2584
  137MPD2    C4 2089   1.694   4.537   9.826  0.6114 -0.0062  0.1125
  137MPD2    C5 2090   1.663   4.571   9.696  0.0498  0.2970 -0.7462
  137MPD2     H 2091   1.935   0.037   9.897  1.1335 -2.2177 -0.5327
  137MPD2    H1 2092   1.657   4.446   9.871 -0.0462 -0.1468 -0.7206
  137MPD2    H2 2093   1.685   4.711   9.538  2.7839  0.1706 -1.0639
  137MPD2    H3 2094   1.578   4.518   9.655  0.8451 -0.8037 -0.9797
  137MPD2     N 2095   1.829   4.571  10.025 -0.2641  0.1689 -0.5097
  137MPD2    H5 2096   1.914   4.612  10.061  1.6616 -4.1099 -0.2360
  137MPD2    N1 2097   1.876   0.138   9.638 -0.0334  0.5529  0.0723
  137MPD2    H7 2098   1.827   0.165   9.553 -0.1274 -0.7496 -0.2935
  138TCq2    C1 2099   1.985   0.206   9.678  0.1189 -0.6766  0.0195
  138TCq2    O2 2100   2.074   0.156   9.745 -0.3151 -0.0025 -0.2225
  138TCq2    C2 2101   2.026   0.328   9.598  0.1884  0.2616  0.3262
  138TCq2    C3 2102   2.140   0.394   9.642  0.0230 -0.2929 -0.8283
  138TCq2    C4 2103   2.156   0.525   9.621  0.3233 -0.4064  0.1264
  138TCq2    C5 2104   2.049   0.603   9.580  0.1329 -0.3888  0.6812
  138TCq2    C6 2105   1.939   0.536   9.528 -0.3869  0.3837  0.2751
  138TCq2    C7 2106   1.926   0.398   9.527  0.8372  0.2405 -0.1335
  138TCq2    C8 2107   1.825   0.626   9.501 -0.0312  0.2378  0.8030
  138TCq2    O4 2108   1.856   0.741   9.470 -0.2090  0.0815  0.2153
  138TCq2    C9 2109   2.281   0.591   9.658 -0.0375  0.8538  0.2895
  138TCq2    O5 2110   2.389   0.532   9.681  0.2179  0.3546 -0.0920
  138TCq2    O6 2111   2.282   0.715   9.643 -0.0340  0.2236 -0.2055
  138TCq2    H2 2112   2.222   0.341   9.690  0.2189  0.0192 -0.8159
  138TCq2    H3 2113   2.051   0.710   9.567 -0.8049 -0.0524  3.3294
  138TCq2    H4 2114   1.834   0.353   9.491  2.1174 -0.7606 -2.1581
  139TMC2    C1 2115   2.195   3.141  13.266  0.0544  0.2466  0.0759
  139TMC2    C2 2116   2.321   3.193  13.288  0.1326 -0.4458  0.0062
  139TMC2    C3 2117   2.325   3.319  13.328 -0.2917 -0.2011  0.0912
  139TMC2    C4 2118   2.082   3.213  13.295  0.0428  0.0811 -0.4534
  139TMC2    C5 2119   2.096   3.340  13.343 -0.1948 -0.3372  0.2812
  139TMC2    C6 2120   2.218   3.397  13.363 -0.1452  0.1494  0.0388
  139TMC2     C 2121   2.195   3.006  13.212 -0.3998 -0.6843 -0.1302
  139TMC2     O 2122   2.106   2.970  13.139  0.1287 -0.1695 -0.0579
  139TMC2     H 2123   2.413   3.136  13.278  0.8823  1.3962 -3.6333
  139TMC2    H1 2124   1.985   3.174  13.266  0.1777  0.2246 -1.1123
  139TMC2    H2 2125   2.224   3.494  13.411 -0.3784  0.2949 -0.2255
  139TMC2    C7 2126   1.987   3.429  13.371 -0.5155 -0.0270 -0.4776
  139TMC2    C8 2127   2.454   3.376  13.366 -0.7789  0.0543 -0.1940
  139TMC2    O1 2128   2.009   3.550  13.367  0.0909 -0.0059 -0.0520
  139TMC2    O2 2129   2.532   3.315  13.440  0.7303  0.2814 -0.7743
  139TMC2    O5 2130   2.444   3.506  13.333  0.0448 -0.1751 -0.0863
  139TMC2    H5 2131   2.384   3.531  13.259 -0.0465 -2.1537 -0.6680
  140MPD2     C 2132   2.387   2.726  13.357  0.3100 -0.2728 -0.0697
  140MPD2    C1 2133   2.337   2.797  13.256 -0.3696  0.9031 -0.0159
  140MPD2    C2 2134   2.345   2.746  13.125 -0.1366 -0.2675 -0.1747
  140MPD2    C3 2135   2.416   2.635  13.095  0.1122  1.0155  0.2118
  140MPD2    C4 2136   2.460   2.560  13.207  0.0950  0.1227  0.3280
  140MPD2    C5 2137   2.445   2.606  13.331  0.0091  0.0092 -0.0616
  140MPD2     H 2138   2.301   2.802  13.043 -0.5185  0.6635  0.6672
  140MPD2    H1 2139   2.518   2.469  13.195 -0.9193 -0.2080 -2.1419
  140MPD2    H2 2140   2.374   2.756  13.461  0.3572 -0.2271 -0.0772
  140MPD2    H3 2141   2.481   2.558  13.421  0.5001  4.1100  1.9592
  140MPD2     N 2142   2.440   2.598  12.959  0.0426  0.0630  0.2883
  140MPD2    H5 2143   2.413   2.662  12.886  0.5229 -0.3231 -0.2263
  140MPD2    N1 2144   2.279   2.927  13.290  0.0219  0.3697 -0.0769
  140MPD2    H7 2145   2.309   2.961  13.381  0.6155  1.3621 -0.6333
  141TCq2    C1 2146   2.510   3.882  14.496  0.1566  0.1204  0.0765
  141TCq2    O2 2147   2.559   3.964  14.418 -0.0995  0.6087 -0.1169
  141TCq2    C2 2148   2.552   3.893  14.635  0.5653 -0.1019  0.1507
  141TCq2    C3 2149   2.547   3.790  14.724  0.4028 -0.0748  0.3272
  141TCq2    C4 2150   2.580   3.816  14.854 -0.7752 -0.1426 -0.2978
  141TCq2    C5 2151   2.611   3.936  14.901  0.7580 -0.7843  0.3391
  141TCq2    C6 2152   2.612   4.038  14.811  0.0240 -0.2406 -0.1124
  141TCq2    C7 2153   2.579   4.021  14.679  0.0196 -1.0851  0.5240
  141TCq2    C8 2154   2.606   4.171  14.866  0.8771 -0.3971  0.9164
  141TCq2    O4 2155   2.581   4.177  14.985 -0.0953  0.0447 -0.4699
  141TCq2    C9 2156   2.584   3.707  14.948  0.0420 -0.0307  0.0076
  141TCq2    O5 2157   2.517   3.605  14.906  0.1372  0.4216 -0.5007
  141TCq2    O6 2158   2.660   3.715  15.052  0.4212  0.7973  0.3955
  141TCq2    H2 2159   2.525   3.687  14.698  3.4646 -1.0281  1.5600
  141TCq2    H3 2160   2.636   3.951  15.006 -0.7835  1.4495  0.3899
  141TCq2    H4 2161   2.579   4.101  14.607  0.6586 -0.6135  1.0462
  142MPD2     C 2162   0.830   2.499  10.896  0.1570  1.0156  0.1810
  142MPD2    C1 2163   0.790   2.494  10.766 -1.0113 -0.4147 -0.4953
  142MPD2    C2 2164   0.876   2.544  10.671 -0.3762  0.1026  0.4622
  142MPD2    C3 2165   1.001   2.591  10.705  0.4104  0.1037  0.6898
  142MPD2    C4 2166   1.042   2.590  10.834  0.0795 -0.3424 -0.5998
  142MPD2    C5 2167   0.950   2.553  10.930 -0.1580 -0.1887 -0.1349
  142MPD2     H 2168   0.838   2.566  10.572  0.0722 -1.8803 -0.1473
  142MPD2    H1 2169   1.136   2.633  10.869 -0.5685  0.5075  0.1112
  142MPD2    H2 2170   0.783   2.453  10.982  0.2387  2.3810  0.9621
  142MPD2    H3 2171   0.972   2.544  11.036 -0.9009  2.1471  0.2194
  142MPD2     N 2172   1.093   2.645  10.604 -0.9146  0.1532  0.1581
  142MPD2    H5 2173   1.184   2.684  10.628 -0.8608  0.9764 -1.3898
  142MPD2    N1 2174   0.671   2.417  10.744  0.4150 -0.2957  0.3584
  142MPD2    H7 2175   0.629   2.380  10.828 -1.1552  0.9054  0.0942
  143TCq2    C1 2176   1.079   2.629  10.467  0.0099  0.3919  0.1914
  143TCq2    O2 2177   0.990   2.570  10.413  0.1109  0.0183  0.0378
  143TCq2    C2 2178   1.182   2.689  10.391  0.0131 -0.3488 -0.2333
  143TCq2    C3 2179   1.288   2.755  10.455  0.0400  0.1917 -0.1647
  143TCq2    C4 2180   1.404   2.772  10.378 -0.2389 -0.3088  0.3354
  143TCq2    C5 2181   1.411   2.720  10.251  0.0091  0.1186 -0.6875
  143TCq2    C6 2182   1.306   2.657  10.193 -0.5475 -0.6699  0.3434
  143TCq2    C7 2183   1.189   2.640  10.261 -0.0157 -0.0964 -0.3980
  143TCq2    C8 2184   1.304   2.635  10.044 -0.0777 -0.1909  0.5063
  143TCq2    O4 2185   1.199   2.646   9.988  0.2201 -0.4602  0.2340
  143TCq2    C9 2186   1.526   2.833  10.427 -0.0678 -0.1022  0.0002
  143TCq2    O5 2187   1.520   2.889  10.540  0.4115  0.2278 -0.1518
  143TCq2    O6 2188   1.621   2.842  10.349  0.0407  0.4083  0.0617
  143TCq2    H2 2189   1.283   2.788  10.558  0.6058  0.5976 -0.2662
  143TCq2    H3 2190   1.503   2.733  10.196  0.9243 -0.8997  0.6149
  143TCq2    H4 2191   1.112   2.588  10.205 -0.1501  0.2908 -0.5782
  144MPD2     C 2192   3.097   2.589   0.760 -0.4384  0.3092  0.3514
  144MPD2    C1 2193   3.119   2.451   0.744 -0.1897 -0.0043  0.4421
  144MPD2    C2 2194   3.148   2.371   0.852  0.1847 -0.9074 -0.2335
  144MPD2    C3 2195   3.155   2.426   0.978 -0.8851 -0.0062  0.4769
  144MPD2    C4 2196   3.119   2.557   0.993  0.4023 -0.4797 -0.7022
  144MPD2    C5 2197   3.082   2.630   0.888  0.1460 -0.3354 -0.2905
  144MPD2     H 2198   3.161   2.265   0.837 -0.5647 -1.4164  2.8418
  144MPD2    H1 2199   3.111   2.600   1.092  0.0245 -2.7743  0.2622
  144MPD2    H2 2200   3.078   2.660   0.680 -3.0779  0.7336  1.3254
  144MPD2    H3 2201   3.045   2.730   0.907 -0.5225 -0.1135 -2.7824
  144MPD2     N 2202   3.214   2.363   1.097 -0.6635  0.1622  0.2947
  144MPD2    H5 2203   3.217   2.413   1.185 -1.9371 -0.0627  0.4601
  144MPD2    N1 2204   3.115   2.390   0.617  0.3512 -0.3908 -0.3753
  144MPD2    H7 2205   3.125   2.290   0.611  2.6707 -0.2285  0.7831
  145TCq2    C1 2206   3.273   2.235   1.090  0.6528  0.3715 -0.1969
  145TCq2    O2 2207   3.305   2.175   0.990  0.4711  0.4706  0.2464
  145TCq2    C2 2208   3.346   2.209   1.214 -0.1930 -0.0618 -0.0602
  145TCq2    C3 2209   3.447   2.119   1.215  0.5468  0.2439 -0.2355
  145TCq2    C4 2210   3.509   2.083   1.330 -0.4733 -0.0860  0.1402
  145TCq2    C5 2211   3.481   2.140   1.453 -0.4480 -0.1879 -0.0500
  145TCq2    C6 2212   3.371   2.221   1.460 -0.4349 -0.7176  0.0900
  145TCq2    C7 2213   3.298   2.256   1.341 -0.6717 -0.2752 -0.1118
  145TCq2    C8 2214   3.368   2.301   1.580  0.2889 -0.3790  0.2038
  145TCq2    O4 2215   3.462   2.309   1.655 -0.1828  0.3797 -0.1431
  145TCq2    C9 2216   3.624   1.995   1.333  0.7161 -0.6688  0.2697
  145TCq2    O5 2217   3.635   1.926   1.233  0.1522 -0.1193  0.6014
  145TCq2    O6 2218   3.702   2.007   1.433  0.2014  0.0136  0.1328
  145TCq2    H2 2219   3.489   2.078   1.124  0.9185 -0.8661  0.4400
  145TCq2    H3 2220   3.542   2.126   1.542  1.6208 -0.4208 -1.4993
  145TCq2    H4 2221   3.199   2.297   1.358 -0.0184  1.6299 -0.8291
  146TMC2    C1 2222   4.332   0.724  12.465  0.2187  0.6870  0.6224
  146TMC2    C2 2223   4.215   0.665  12.431  0.3150  0.1926 -0.9903
  146TMC2    C3 2224   4.228   0.555  12.354  0.6779 -1.0623  0.5211
  146TMC2    C4 2225   4.461   0.679  12.431  0.3077 -0.0639  0.1780
  146TMC2    C5 2226   4.459   0.570  12.345 -0.7424 -0.3614 -0.0543
  146TMC2    C6 2227   4.349   0.503  12.314 -0.3120 -1.0525  0.2311
  146TMC2     C 2228   4.325   0.840  12.544 -0.0419  0.1220 -0.0403
  146TMC2     O 2229   4.272   0.937  12.492  0.5359  0.1255 -0.5109
  146TMC2     H 2230   4.117   0.690  12.470  0.4030 -0.9923 -0.0262
  146TMC2    H1 2231   4.551   0.724  12.473  1.3585 -2.4286  0.4655
  146TMC2    H2 2232   4.358   0.421  12.244 -0.6131 -1.7121  0.9758
  146TMC2    C7 2233   4.589   0.513  12.306  0.2410 -0.0307 -0.4621
  146TMC2    C8 2234   4.117   0.457  12.364  0.5436 -0.1072  0.0443
  146TMC2    O1 2235   4.589   0.448  12.202 -0.2866  0.7899 -0.1110
  146TMC2    O2 2236   4.005   0.498  12.386  0.7395  0.7718  0.3228
  146TMC2    O5 2237   4.161   0.327  12.377 -0.1632 -0.0875 -0.5060
  146TMC2    H5 2238   4.257   0.309  12.386 -0.1489 -0.5144 -1.5725
  147MPD2     C 2239   0.359   0.439  12.373 -0.1209  0.0202  0.5734
  147MPD2    C1 2240   0.297   0.416  12.492  0.3840 -0.3237  0.4997
  147MPD2    C2 2241   0.160   0.451  12.497  0.1324  0.4355 -0.1806
  147MPD2    C3 2242   0.089   0.485  12.388 -0.9078  0.6150  0.5270
  147MPD2    C4 2243   0.149   0.491  12.263  0.1580  0.5791  0.1717
  147MPD2    C5 2244   0.285   0.484  12.258  0.4769 -0.1173  0.6138
  147MPD2     H 2245   0.115   0.450  12.596 -0.0103 -1.6785 -0.2696
  147MPD2    H1 2246   0.090   0.525  12.178 -1.0706  0.0618  0.8155
  147MPD2    H2 2247   0.464   0.415  12.357  0.2013  1.1984  0.9342
  147MPD2    H3 2248   0.341   0.503  12.167 -0.2842 -2.0380 -0.2577
  147MPD2     N 2249   4.678   0.528  12.407  0.8298  0.2000 -0.5885
  147MPD2    H5 2250   4.646   0.557  12.499 -0.3216 -0.2477 -0.8441
  147MPD2    N1 2251   0.380   0.378  12.602 -0.1191 -0.6728 -0.1545
  147MPD2    H7 2252   0.476   0.351  12.586  0.5418 -0.2767  3.0633
  148MPD2     C 2253   0.762   3.269  10.789 -0.1519  0.2846  0.0006
  148MPD2    C1 2254   0.750   3.377  10.700  0.0658  0.1685  0.7183
  148MPD2    C2 2255   0.624   3.431  10.664  0.1801  0.2289 -0.0945
  148MPD2    C3 2256   0.510   3.388  10.726  0.6394  0.0267 -0.1483
  148MPD2    C4 2257   0.526   3.285  10.815 -0.3933 -0.1833 -0.6065
  148MPD2    C5 2258   0.649   3.227  10.853 -0.0770  0.7111  0.1618
  148MPD2     H 2259   0.622   3.514  10.595  0.8206  1.4962  1.4000
  148MPD2    H1 2260   0.442   3.251  10.874  0.0538  0.8855  0.6695
  148MPD2    H2 2261   0.855   3.221  10.818 -0.9876 -1.2236  0.2178
  148MPD2    H3 2262   0.664   3.151  10.929 -0.5205 -1.0533 -1.5319
  148MPD2     N 2263   0.381   3.433  10.691  0.0501  0.0856 -0.2005
  148MPD2    H5 2264   0.307   3.382  10.738  1.1702 -1.7492 -0.4190
  148MPD2    N1 2265   0.867   3.441  10.641 -0.2255 -0.2852 -0.1112
  148MPD2    H7 2266   0.848   3.522  10.583  3.2658  0.4436 -0.2173
  149TCq2    C1 2267   0.996   3.396  10.650 -0.7721 -0.5319 -0.8981
  149TCq2    O2 2268   1.052   3.297  10.699 -0.9035 -0.4449 -0.2535
  149TCq2    C2 2269   1.083   3.489  10.580 -0.1776  0.2273  0.3146
  149TCq2    C3 2270   1.032   3.601  10.513  0.0282 -0.0948 -0.9649
  149TCq2    C4 2271   1.099   3.655  10.407  0.7316  0.1751  0.0013
  149TCq2    C5 2272   1.211   3.589  10.358 -0.1353 -0.1430 -0.2082
  149TCq2    C6 2273   1.265   3.490  10.439  0.2900  0.3254  0.9000
  149TCq2    C7 2274   1.209   3.445  10.553 -0.6247  0.3272  0.0059
  149TCq2    C8 2275   1.362   3.394  10.381  0.1735  0.2408 -0.2061
  149TCq2    O4 2276   1.462   3.376  10.446  0.0058  0.0227  0.1691
  149TCq2    C9 2277   1.027   3.747  10.325 -0.4866  0.2553 -0.4298
  149TCq2    O5 2278   0.916   3.789  10.365  0.2855 -0.0957  0.4276
  149TCq2    O6 2279   1.080   3.781  10.214  0.5934 -0.9061 -0.3218
  149TCq2    H2 2280   0.934   3.642  10.532 -0.0057 -0.2308 -0.8537
  149TCq2    H3 2281   1.251   3.620  10.262  1.7261 -0.8102  0.3592
  149TCq2    H4 2282   1.249   3.352  10.592 -0.8337  0.4424  0.4929
  150MPD2     C 2283   1.827   3.408  12.179 -0.3172  0.1165 -0.6890
  150MPD2    C1 2284   1.811   3.538  12.136 -0.6259 -0.7088  0.3653
  150MPD2    C2 2285   1.903   3.632  12.176  0.7780  0.1409 -0.2922
  150MPD2    C3 2286   2.005   3.590  12.255  0.4136 -0.4410 -0.1658
  150MPD2    C4 2287   2.025   3.457  12.289  0.3259 -0.5277 -0.2710
  150MPD2    C5 2288   1.933   3.367  12.254 -0.2627  0.1410 -0.4124
  150MPD2     H 2289   1.895   3.738  12.153 -1.0240 -0.4444 -2.3009
  150MPD2    H1 2290   2.100   3.428  12.361  1.1064  0.4625 -0.6899
  150MPD2    H2 2291   1.756   3.332  12.149  0.6400  0.3192 -3.4940
  150MPD2    H3 2292   1.951   3.268  12.295 -4.3516 -0.7628 -0.8552
  150MPD2     N 2293   2.077   3.695  12.313 -0.2470 -1.1406  1.4739
  150MPD2    H5 2294   2.048   3.789  12.288  0.4698 -0.9234  1.4645
  150MPD2    N1 2295   1.693   3.559  12.065  0.6672 -0.1575  0.0885
  150MPD2    H7 2296   1.649   3.472  12.037 -1.1889  0.4238  1.2116
  151TCq2    C1 2297   2.191   3.684  12.390  0.5644  0.1079  0.2964
  151TCq2    O2 2298   2.245   3.586  12.436  0.8538  0.9225  0.0881
  151TCq2    C2 2299   2.268   3.804  12.410  0.3995  0.2823 -0.4843
  151TCq2    C3 2300   2.275   3.904  12.316  0.5330 -1.2252 -0.7986
  151TCq2    C4 2301   2.379   3.993  12.310  0.2930 -0.1212  0.0292
  151TCq2    C5 2302   2.469   3.993  12.410  0.4142 -0.2026  0.5278
  151TCq2    C6 2303   2.456   3.892  12.510 -0.0219 -0.4383  0.3068
  151TCq2    C7 2304   2.365   3.787  12.507  0.4049 -0.1655  1.0144
  151TCq2    C8 2305   2.580   3.870  12.587 -0.6939  0.3629 -0.7121
  151TCq2    O4 2306   2.661   3.962  12.578 -0.1392 -0.0842  0.4006
  151TCq2    C9 2307   2.384   4.098  12.215 -0.4701 -0.3579  0.0855
  151TCq2    O5 2308   2.463   4.194  12.242  0.0442 -0.1379  0.1815
  151TCq2    O6 2309   2.285   4.109  12.133  0.0486 -0.2876 -0.0720
  151TCq2    H2 2310   2.203   3.895  12.235  0.2310 -0.1828 -0.6491
  151TCq2    H3 2311   2.549   4.066  12.409  0.1081  0.0875 -1.7489
  151TCq2    H4 2312   2.358   3.719  12.591 -0.1815 -2.5689 -0.9926
  152MPD2     C 2313   1.458   3.070  12.687  0.0123 -0.5381 -0.1510
  152MPD2    C1 2314   1.486   3.179  12.618 -0.4714 -0.2785 -0.1570
  152MPD2    C2 2315   1.391   3.237  12.541 -0.2800 -0.1078 -0.6248
  152MPD2    C3 2316   1.261   3.192  12.536 -0.0187 -0.6230 -0.2692
  152MPD2    C4 2317   1.231   3.081  12.608  0.4135 -0.2031  0.3205
  152MPD2    C5 2318   1.329   3.024  12.689 -0.1958 -0.0624  0.2455
  152MPD2     H 2319   1.423   3.317  12.476  0.3732  0.1056 -0.0385
  152MPD2    H1 2320   1.131   3.040  12.611  0.7067 -0.8010  2.3101
  152MPD2    H2 2321   1.538   3.018  12.738  0.0971  0.5312  0.8071
  152MPD2    H3 2322   1.313   2.939  12.754 -1.0537  1.5228  2.1072
  152MPD2     N 2323   1.174   3.261  12.453 -0.0178  0.0916  0.2921
  152MPD2    H5 2324   1.218   3.327  12.389  1.9325 -1.0531  0.4557
  152MPD2    N1 2325   1.618   3.231  12.645 -0.1329  0.1111 -0.3010
  152MPD2    H7 2326   1.684   3.191  12.711 -1.2781 -2.1007 -0.5038
  153TCq2    C1 2327   1.661   3.354  12.606  0.0155  0.3243  0.3644
  153TCq2    O2 2328   1.594   3.444  12.557 -0.4745  0.0875 -0.4102
  153TCq2    C2 2329   1.804   3.365  12.628  0.3165  0.9070 -0.4801
  153TCq2    C3 2330   1.870   3.253  12.610  0.4271 -0.0163  1.1707
  153TCq2    C4 2331   2.006   3.272  12.618 -0.0051  0.5456  0.1382
  153TCq2    C5 2332   2.068   3.387  12.653 -0.0718 -0.5963  0.3523
  153TCq2    C6 2333   1.994   3.497  12.676  0.2502  0.1548 -0.0974
  153TCq2    C7 2334   1.859   3.488  12.650  0.0953 -0.1272  0.0654
  153TCq2    C8 2335   2.047   3.627  12.728  0.0172  0.6686  0.4341
  153TCq2    O4 2336   1.991   3.727  12.691 -0.4338  0.2340 -0.7022
  153TCq2    C9 2337   2.087   3.159  12.585 -0.0542  0.0429  0.4246
  153TCq2    O5 2338   2.029   3.056  12.545 -0.2098 -0.6469 -0.1579
  153TCq2    O6 2339   2.211   3.181  12.574  0.4512 -0.3505 -0.0823
  153TCq2    H2 2340   1.836   3.155  12.575  2.6929 -1.3055  2.6162
  153TCq2    H3 2341   2.175   3.390  12.673 -0.4890 -1.1615  2.7273
  153TCq2    H4 2342   1.793   3.573  12.659  1.2253  1.0264 -2.6405
  154MPD2     C 2343   3.452   3.284   0.212  0.2180  0.1612  0.2912
  154MPD2    C1 2344   3.403   3.285   0.337 -0.0456  0.2272 -0.1378
  154MPD2    C2 2345   3.294   3.365   0.366  0.5383  0.1496 -0.2646
  154MPD2    C3 2346   3.233   3.431   0.264  0.7114 -0.6935  0.2860
  154MPD2    C4 2347   3.275   3.411   0.134 -0.2536 -0.2646 -0.1570
  154MPD2    C5 2348   3.393   3.345   0.112 -0.5903 -0.1686  0.0400
  154MPD2     H 2349   3.254   3.373   0.466  1.9465 -1.5863  0.4385
  154MPD2    H1 2350   3.228   3.449   0.044  2.0331 -0.3160 -1.3904
  154MPD2    H2 2351   3.536   3.220   0.189  0.4220  0.5908 -0.1437
  154MPD2    H3 2352   3.436   3.338   0.012  1.0843 -0.7942  0.8069
  154MPD2     N 2353   3.127   3.516   0.296  0.0811 -0.0709 -0.5791
  154MPD2    H5 2354   3.112   3.518   0.397 -0.9767  1.0195 -0.7541
  154MPD2    N1 2355   3.479   3.215   0.438  0.2993  0.1528 -0.5585
  154MPD2    H7 2356   3.562   3.168   0.403  0.1572 -0.2680 -0.3280
  155TCq2    C1 2357   3.452   3.229   0.570 -0.0738  0.7475  0.4488
  155TCq2    O2 2358   3.389   3.316   0.634 -0.1547 -0.1241  0.0077
  155TCq2    C2 2359   3.547   3.153   0.645 -0.3722  0.6483 -0.3732
  155TCq2    C3 2360   3.590   3.209   0.760  0.0566  0.0522  0.2127
  155TCq2    C4 2361   3.675   3.135   0.838  0.2748 -0.4575 -0.3449
  155TCq2    C5 2362   3.730   3.017   0.799  0.0356 -1.3726 -0.2375
  155TCq2    C6 2363   3.688   2.962   0.679 -0.6256 -0.1837 -0.1785
  155TCq2    C7 2364   3.603   3.035   0.600  0.4997 -0.2082 -0.7329
  155TCq2    C8 2365   3.722   2.825   0.642  0.2970 -0.5568  0.6532
  155TCq2    O4 2366   3.688   2.785   0.534  0.5529  0.2559 -0.2855
  155TCq2    C9 2367   3.731   3.186   0.963 -0.0773 -0.4785  0.3284
  155TCq2    O5 2368   3.833   3.127   1.015 -0.3151  0.3516 -0.7561
  155TCq2    O6 2369   3.676   3.285   1.014  0.0441 -0.3761  0.0729
  155TCq2    H2 2370   3.561   3.306   0.800  3.6899  1.3315 -0.2059
  155TCq2    H3 2371   3.807   2.973   0.860  1.3043  1.9391  0.5522
  155TCq2    H4 2372   3.574   2.997   0.502 -3.8732  0.1967  0.3991
  156MPD2     C 2373   1.901   0.565  12.081  0.2702 -0.3307  0.6757
  156MPD2    C1 2374   1.875   0.685  12.024 -0.5125  0.1378  0.0147
  156MPD2    C2 2375   1.815   0.785  12.100 -0.7166  0.1722 -0.4165
  156MPD2    C3 2376   1.779   0.761  12.236  0.6224  0.3585 -0.5264
  156MPD2    C4 2377   1.799   0.631  12.288  0.6861  0.4480  0.6493
  156MPD2    C5 2378   1.849   0.532  12.208 -0.4656 -0.2888 -0.8598
  156MPD2     H 2379   1.783   0.882  12.063  0.0923 -0.2795 -2.3219
  156MPD2    H1 2380   1.776   0.604  12.390  0.5569 -1.3643  0.1307
  156MPD2    H2 2381   1.950   0.486  12.025  1.0541  0.2792  0.4951
  156MPD2    H3 2382   1.856   0.429  12.242 -0.5939  0.3020  0.9665
  156MPD2     N 2383   1.713   0.864  12.309 -0.3305 -0.5049 -0.0107
  156MPD2    H5 2384   1.690   0.946  12.254 -2.0750  0.5929  2.3619
  156MPD2    N1 2385   1.909   0.703  11.889 -0.4301 -0.8117 -0.4263
  156MPD2    H7 2386   1.964   0.629  11.846  0.1550 -0.1652 -0.7870
  157TCq2    C1 2387   1.876   0.810  11.817  0.3432  0.6748 -0.6191
  157TCq2    O2 2388   1.792   0.894  11.842 -0.7074 -0.1258 -0.5740
  157TCq2    C2 2389   1.958   0.827  11.690  0.3482  0.1856  0.1106
  157TCq2    C3 2390   2.067   0.746  11.670  0.5477  0.2021 -0.3124
  157TCq2    C4 2391   2.115   0.732  11.542 -0.3292  0.1135  0.3846
  157TCq2    C5 2392   2.050   0.783  11.435  0.9123 -0.4777 -0.0063
  157TCq2    C6 2393   1.936   0.860  11.456  0.1557  0.4473  0.0063
  157TCq2    C7 2394   1.896   0.885  11.583  0.2067 -0.1027 -0.3780
  157TCq2    C8 2395   1.888   0.940  11.343 -0.3540 -0.9723  0.1470
  157TCq2    O4 2396   1.962   0.992  11.261  0.2618  0.0422 -0.0441
  157TCq2    C9 2397   2.228   0.642  11.512 -0.2670 -0.2181 -0.1475
  157TCq2    O5 2398   2.250   0.604  11.396 -0.3365  0.5359  0.3989
  157TCq2    O6 2399   2.283   0.588  11.612 -0.2112 -0.9056  0.1398
  157TCq2    H2 2400   2.104   0.679  11.746  0.4292 -0.8048 -1.1355
  157TCq2    H3 2401   2.095   0.761  11.339 -0.7028 -1.8457 -0.4500
  157TCq2    H4 2402   1.802   0.938  11.597  0.0601 -0.4902  0.1121
  158TMC2    C1 2403   2.606   4.486  13.494  0.7583  0.1725  0.1929
  158TMC2    C2 2404   2.690   4.538  13.398 -0.3132  0.2252 -0.0279
  158TMC2    C3 2405   2.634   4.617  13.304 -0.0907  0.0181  0.3557
  158TMC2    C4 2406   2.469   4.495  13.483 -0.7212  0.0494  0.0412
  158TMC2    C5 2407   2.422   4.579  13.384 -1.2700 -0.5422 -0.1668
  158TMC2    C6 2408   2.503   4.648  13.301 -0.6619 -0.6026  0.0998
  158TMC2     C 2409   2.675   4.411  13.594  0.8808  0.2646 -0.4089
  158TMC2     O 2410   2.793   4.393  13.586  0.3078  0.0478 -0.1378
  158TMC2     H 2411   2.797   4.525  13.408 -0.0707 -0.7927 -3.8022
  158TMC2    H1 2412   2.396   4.442  13.543 -1.0130  0.6791  0.2377
  158TMC2    H2 2413   2.466   4.677  13.203 -1.6960 -1.8894  0.1052
  158TMC2    C7 2414   2.279   4.607  13.356 -0.0975  0.2659 -0.3800
  158TMC2    C8 2415   2.725   4.670  13.202 -0.7963  0.5736  0.1918
  158TMC2    O1 2416   2.254   4.695  13.279 -0.2089 -0.2053 -0.1555
  158TMC2    O2 2417   2.795   4.595  13.135 -0.5628  0.4847 -0.5565
  158TMC2    O5 2418   2.688   0.075  13.171  0.0384  0.1597  0.3043
  158TMC2    H5 2419   2.640   0.121  13.243  0.4906  2.3886 -0.8152
  159MPD2     C 2420   2.655   4.147  14.046 -0.5527  1.0131 -0.0594
  159MPD2    C1 2421   2.546   4.238  14.038  1.1489 -0.1357 -0.0886
  159MPD2    C2 2422   2.522   4.303  13.914  0.6543 -0.1482 -0.4611
  159MPD2    C3 2423   2.614   4.299  13.816 -0.4164  0.2056 -0.2669
  159MPD2    C4 2424   2.730   4.222  13.830  0.3892  0.6789  0.0217
  159MPD2    C5 2425   2.731   4.140  13.938 -0.3116  0.1144 -0.2200
  159MPD2     H 2426   2.432   4.360  13.894 -0.8317 -2.8232 -1.3716
  159MPD2    H1 2427   2.803   4.210  13.750  0.2619 -0.5841  0.0943
  159MPD2    H2 2428   2.670   4.082  14.131 -0.6916  3.3068  1.7247
  159MPD2    H3 2429   2.807   4.063  13.944 -1.1832 -0.5662  2.4072
  159MPD2     N 2430   2.582   4.373  13.689  0.0022  0.0765 -0.0543
  159MPD2    H5 2431   2.490   4.408  13.665  0.6764  1.6545 -0.3515
  159MPD2    N1 2432   2.455   4.241  14.147 -0.0465 -0.1776 -0.8856
  159MPD2    H7 2433   2.473   4.187  14.231 -1.7163  0.3129 -0.2093
  160TMC2    C1 2434   2.071   2.368   1.399  0.3354  0.4648 -0.2464
  160TMC2    C2 2435   1.948   2.307   1.396 -0.4930  0.2034  0.0722
  160TMC2    C3 2436   1.941   2.184   1.326 -1.0123 -0.2852 -0.4772
  160TMC2    C4 2437   2.181   2.306   1.351 -0.4385 -0.2959 -0.1422
  160TMC2    C5 2438   2.173   2.188   1.290 -1.1889  0.9495  1.4072
  160TMC2    C6 2439   2.051   2.122   1.275 -0.0716  0.0115 -0.1452
  160TMC2     C 2440   2.083   2.507   1.426  0.2404 -0.1500 -0.0130
  160TMC2     O 2441   2.185   2.543   1.476 -0.2270  0.5960  0.8443
  160TMC2     H 2442   1.860   2.351   1.442 -1.6173 -0.6799 -1.2368
  160TMC2    H1 2443   2.274   2.359   1.370 -2.2707  2.7277  0.5338
  160TMC2    H2 2444   2.047   2.026   1.225  0.9249  0.8733 -1.8573
  160TMC2    C7 2445   2.254   2.163   1.170  0.3345 -0.3152 -0.2304
  160TMC2    C8 2446   1.818   2.110   1.326  0.1647 -0.1287  0.5887
  160TMC2    O1 2447   2.248   2.055   1.109 -0.8749  0.4624  0.0028
  160TMC2    O2 2448   1.825   1.987   1.325  0.1445 -0.2803 -0.4863
  160TMC2    O5 2449   1.713   2.194   1.341  0.2715 -0.5572  0.3188
  160TMC2    H5 2450   1.733   2.289   1.325 -1.3080 -0.3011 -0.1616
  161MPD2     C 2451   2.073   2.795   1.407 -0.1207 -0.2733  0.4747
  161MPD2    C1 2452   1.982   2.714   1.343  0.9258  0.0247  0.4669
  161MPD2    C2 2453   1.883   2.773   1.266  0.1051 -0.2289 -0.3142
  161MPD2    C3 2454   1.874   2.913   1.244 -0.3140  1.0999 -1.1840
  161MPD2    C4 2455   1.957   2.991   1.331 -0.4032 -0.0276 -0.6709
  161MPD2    C5 2456   2.057   2.926   1.403  0.4855 -0.7142  0.5978
  161MPD2     H 2457   1.809   2.703   1.229  0.7681 -0.3176 -1.4592
  161MPD2    H1 2458   1.942   3.098   1.335 -0.1575 -0.0115 -0.2661
  161MPD2    H2 2459   2.153   2.767   1.476 -1.5944  0.1383  2.3575
  161MPD2    H3 2460   2.122   2.988   1.464 -1.2296 -0.8311  2.5261
  161MPD2     N 2461   1.773   2.972   1.168 -0.3849 -0.3270 -0.6813
  161MPD2    H5 2462   1.784   3.072   1.159  2.0461 -0.4997  0.1485
  161MPD2    N1 2463   1.979   2.576   1.362  0.3824  0.5436  0.1125
  161MPD2    H7 2464   1.909   2.526   1.309 -1.8040  3.1952  0.4863
  162TMC2    C1 2465   4.228   4.610   0.753  0.3228  0.8105  0.3269
  162TMC2    C2 2466   4.193   4.488   0.698 -0.1552 -0.4633 -0.1233
  162TMC2    C3 2467   4.065   4.464   0.665 -0.0202  0.3060  0.3904
  162TMC2    C4 2468   4.138   4.712   0.764 -0.4123 -0.3680  0.3889
  162TMC2    C5 2469   4.011   4.679   0.723  0.5790 -0.1661 -0.3225
  162TMC2    C6 2470   3.971   4.559   0.672 -0.0908 -0.7277 -0.4435
  162TMC2     C 2471   4.370   4.630   0.781 -0.0770 -0.0500  0.0647
  162TMC2     O 2472   4.437   4.528   0.762  0.2527 -0.6903  0.1234
  162TMC2     H 2473   4.268   4.413   0.678  0.5821  0.4461 -0.7611
  162TMC2    H1 2474   4.163   0.083   0.808  5.6272 -1.9099  0.2402
  162TMC2    H2 2475   3.868   4.532   0.655 -0.1901  0.7160 -2.1613
  162TMC2    C7 2476   3.891   0.015   0.781 -0.0878 -0.3081 -0.0415
  162TMC2    C8 2477   4.031   4.340   0.603  0.3128  0.1235  0.6173
  162TMC2    O1 2478   3.787   0.006   0.719  1.2119 -0.1461 -0.0280
  162TMC2    O2 2479   4.119   4.286   0.540 -0.6689 -0.0692  0.3231
  162TMC2    O5 2480   3.939   4.274   0.675  0.2771  0.0356 -0.0254
  162TMC2    H5 2481   3.890   4.327   0.741  0.3617 -2.3599  1.9364
  163MPD2     C 2482   0.069   0.193   0.802 -0.4167 -0.0656  0.0382
  163MPD2    C1 2483   0.043   0.068   0.754 -0.0999 -0.6708  0.5957
  163MPD2    C2 2484   4.643   0.015   0.753  0.1531 -0.0044 -0.2763
  163MPD2    C3 2485   4.533   0.085   0.801  0.1248  0.1267 -0.5175
  163MPD2    C4 2486   4.557   0.216   0.842 -0.0961  0.4370 -0.5132
  163MPD2    C5 2487   4.686   0.269   0.843 -0.3108 -0.2385  0.5597
  163MPD2     H 2488   4.633   4.639   0.713  1.5405  0.4862 -1.8853
  163MPD2    H1 2489   4.474   0.282   0.863 -0.9729 -0.6106 -0.7048
  163MPD2    H2 2490   0.164   0.244   0.791 -0.2741 -0.2704  0.3141
  163MPD2    H3 2491   4.702   0.369   0.881 -0.0043  0.1092 -0.4828
  163MPD2     N 2492   4.402   0.034   0.806 -0.0069  0.6411  0.3153
  163MPD2    H5 2493   4.339   0.109   0.833 -1.5492 -1.0633  1.4168
  163MPD2    N1 2494   0.157   4.717   0.701 -0.1033  0.3983 -0.1145
  163MPD2    H7 2495   0.243   0.042   0.680 -0.7671  0.7339 -1.9919
  164TCq2    C1 2496   0.636   3.689  10.984  0.1306  0.0723 -0.1282
  164TCq2    O2 2497   0.552   3.667  11.066 -0.0349 -0.4227  0.2204
  164TCq2    C2 2498   0.612   3.795  10.887  0.0770 -0.3977 -0.5311
  164TCq2    C3 2499   0.696   3.903  10.892  0.6201 -0.2186  0.2250
  164TCq2    C4 2500   0.648   4.015  10.840  0.3353  0.0727 -0.0202
  164TCq2    C5 2501   0.530   4.011  10.783 -0.3914 -0.1477  0.1442
  164TCq2    C6 2502   0.444   3.898  10.776 -0.2154 -0.1475 -0.2978
  164TCq2    C7 2503   0.487   3.787  10.830  0.4084 -0.0759 -0.0352
  164TCq2    C8 2504   0.299   3.916  10.774 -0.5015  0.2053  0.4447
  164TCq2    O4 2505   0.255   4.027  10.750 -0.3030 -1.0142  0.6266
  164TCq2    C9 2506   0.710   4.144  10.865  0.5901  0.1589 -0.0808
  164TCq2    O5 2507   0.827   4.141  10.915 -0.0891 -0.5056  0.2942
  164TCq2    O6 2508   0.636   4.249  10.855  0.0345  0.5934 -0.4350
  164TCq2    H2 2509   0.788   3.900  10.949  0.1771  1.9969  1.0775
  164TCq2    H3 2510   0.483   4.107  10.764 -1.9050 -1.3045 -1.9030
  164TCq2    H4 2511   0.441   3.688  10.824 -0.9146  0.5321 -0.0364
  165MPD2     C 2512   1.140   2.889   1.088 -0.0579  0.0720 -0.4250
  165MPD2    C1 2513   1.218   2.780   1.105 -0.0095  0.2644 -0.0224
  165MPD2    C2 2514   1.322   2.780   1.194  0.3764  0.3525 -0.0580
  165MPD2    C3 2515   1.354   2.897   1.265  1.5899 -0.4551 -0.2265
  165MPD2    C4 2516   1.278   3.011   1.246  0.3414 -0.0694  0.0719
  165MPD2    C5 2517   1.171   3.005   1.160 -0.0814 -0.3982 -0.4825
  165MPD2     H 2518   1.376   2.687   1.212 -0.4547  0.1041  1.1073
  165MPD2    H1 2519   1.286   3.098   1.310  1.7450 -1.5825  1.9553
  165MPD2    H2 2520   1.049   2.898   1.029  0.1624 -1.4157 -0.9955
  165MPD2    H3 2521   1.112   3.096   1.158 -1.2739 -1.1796 -0.6893
  165MPD2     N 2522   1.458   2.902   1.370  0.0929  0.4568 -0.4082
  165MPD2    H5 2523   1.464   2.986   1.426  1.7835 -0.7402  1.2009
  165MPD2    N1 2524   1.171   2.659   1.041  0.0369  0.1685 -0.1907
  165MPD2    H7 2525   1.090   2.685   0.986  1.0037  0.8325 -1.3017
  166TCq2    C1 2526   1.533   2.797   1.417 -0.0203  0.0677  0.2061
  166TCq2    O2 2527   1.534   2.677   1.385 -0.0736 -0.0431  0.3081
  166TCq2    C2 2528   1.623   2.853   1.520 -0.0880  0.1721  0.1123
  166TCq2    C3 2529   1.658   2.987   1.519  0.3194 -0.0958  0.1027
  166TCq2    C4 2530   1.744   3.022   1.615  0.7816  0.1242 -0.2293
  166TCq2    C5 2531   1.792   2.933   1.711 -0.2072 -0.0947  0.6659
  166TCq2    C6 2532   1.750   2.805   1.717 -0.0645 -0.5054  0.2570
  166TCq2    C7 2533   1.670   2.760   1.612 -0.5404  0.4773 -0.4836
  166TCq2    C8 2534   1.833   2.709   1.784 -0.4061  1.1325 -0.0597
  166TCq2    O4 2535   1.950   2.745   1.805 -0.8266  0.6542 -0.0636
  166TCq2    C9 2536   1.782   3.157   1.639  0.4214  0.0248 -0.5988
  166TCq2    O5 2537   1.862   3.184   1.732  0.3504  0.3219 -0.7945
  166TCq2    O6 2538   1.717   3.243   1.571  0.2928 -0.0026  0.4388
  166TCq2    H2 2539   1.626   3.064   1.450 -0.6041 -1.7126 -1.2792
  166TCq2    H3 2540   1.861   2.969   1.786 -0.7620  1.4635  0.4292
  166TCq2    H4 2541   1.646   2.655   1.600  0.6592 -0.2522  3.5448
  167TMC2    C1 2542   4.156   4.635  12.239 -0.3713 -0.4093 -0.8914
  167TMC2    C2 2543   4.097   4.713  12.331 -0.4291 -0.1220 -0.4941
  167TMC2    C3 2544   4.120   4.699  12.463 -0.1606  0.2617  0.2787
  167TMC2    C4 2545   4.258   4.545  12.282 -0.6083 -0.3706 -0.6894
  167TMC2    C5 2546   4.283   4.539  12.417 -0.1501 -0.6830 -0.7203
  167TMC2    C6 2547   4.213   4.613  12.509 -0.0880  0.1900 -0.7763
  167TMC2     C 2548   4.098   4.619  12.108  0.2928  0.2163  0.8911
  167TMC2     O 2549   4.023   4.699  12.053  0.0222 -0.6801 -0.2226
  167TMC2     H 2550   4.005   0.041  12.303 -0.4928 -0.7307 -1.4092
  167TMC2    H1 2551   4.325   4.495  12.213 -0.2696 -1.2526  0.2870
  167TMC2    H2 2552   4.229   4.613  12.616  1.7122  0.2661 -1.0475
  167TMC2    C7 2553   4.385   4.447  12.475 -0.1099  0.5734  0.2455
  167TMC2    C8 2554   4.021   0.032  12.546  0.8096 -0.7075  0.0418
  167TMC2    O1 2555   4.422   4.465  12.591 -0.3495  0.3646  0.4802
  167TMC2    O2 2556   3.901   0.021  12.521  0.4021  0.1431  0.2956
  167TMC2    O5 2557   4.076   0.072  12.657  0.1643  0.2918  0.3846
  167TMC2    H5 2558   4.169   0.104  12.647 -0.5381  1.1700 -3.1873
  168MPD2     C 2559   4.051   4.501  11.830  0.8229  0.0819  0.2495
  168MPD2    C1 2560   4.133   4.448  11.930  0.0692 -0.2260 -0.5882
  168MPD2    C2 2561   4.198   4.330  11.910 -0.2169  0.2387  0.0510
  168MPD2    C3 2562   4.185   4.246  11.805  0.0211  0.0549 -0.5141
  168MPD2    C4 2563   4.095   4.295  11.706 -0.1805 -0.2096  0.6144
  168MPD2    C5 2564   4.042   4.422  11.712 -0.9370 -0.8214 -0.7285
  168MPD2     H 2565   4.269   4.293  11.984 -1.0126  1.1459  1.2775
  168MPD2    H1 2566   4.088   4.235  11.616  2.1105 -0.0181  0.2865
  168MPD2    H2 2567   4.005   4.598  11.822 -1.3740 -0.9794  0.1300
  168MPD2    H3 2568   3.988   4.465  11.628  0.2274  3.2570  0.5965
  168MPD2     N 2569   4.233   4.106  11.797  0.4020 -0.1080 -0.0380
  168MPD2    H5 2570   4.189   4.046  11.727  0.5231  0.3264 -0.4906
  168MPD2    N1 2571   4.146   4.504  12.054  0.4745 -0.5484  0.0152
  168MPD2    H7 2572   4.184   4.438  12.122 -2.1237 -1.6420  0.3901
  169MPD1     C 2573   0.912   3.485   8.920 -0.2187  0.1938 -0.3808
  169MPD1    C1 2574   1.036   3.530   8.889 -0.7792  0.1563 -0.4863
  169MPD1    C2 2575   1.139   3.518   8.980 -0.0680  0.0037  0.0234
  169MPD1    C3 2576   1.111   3.485   9.112 -0.3050 -0.2408  0.0836
  169MPD1    C4 2577   0.980   3.448   9.143 -0.1122 -0.4639 -0.6821
  169MPD1    C5 2578   0.883   3.451   9.049  0.0818 -0.2232 -0.1053
  169MPD1     H 2579   1.239   3.555   8.961  0.2497 -0.9898 -0.2397
  169MPD1    H1 2580   0.956   3.410   9.241  0.4538  3.9090  1.1512
  169MPD1    H2 2581   0.827   3.478   8.852 -0.5044 -0.4489  0.0398
  169MPD1    H3 2582   0.779   3.435   9.073 -0.0309 -1.4165 -1.4000
  169MPD1     N 2583   1.220   3.468   9.198  0.8342  0.1902 -0.3384
  169MPD1    H5 2584   1.311   3.477   9.155  0.8013 -1.5637 -0.7660
  169MPD1    N1 2585   1.059   3.537   8.754  0.2283 -0.6976 -0.1557
  169MPD1    H6 2586   1.143   3.591   8.736  0.1883 -0.7935 -0.6243
  169MPD1    H7 2587   0.978   3.589   8.720 -0.5029  0.7374  3.7226
  170MPD1     C 2588   0.128   1.551  13.402  0.2883 -0.1199 -0.1948
  170MPD1    C1 2589   0.191   1.516  13.526  0.4078  0.1817 -0.2116
  170MPD1    C2 2590   0.286   1.603  13.577  0.5739  0.2742 -0.4533
  170MPD1    C3 2591   0.333   1.714  13.503 -0.2634 -0.0940 -0.6512
  170MPD1    C4 2592   0.283   1.731  13.377  0.2526 -0.5710 -0.0488
  170MPD1    C5 2593   0.182   1.655  13.330 -0.0106 -1.2605 -0.8117
  170MPD1     H 2594   0.317   1.590  13.680 -0.3733 -0.6753 -0.2894
  170MPD1    H1 2595   0.321   1.807  13.310  1.5701 -0.7904  0.4462
  170MPD1    H2 2596   0.055   1.492  13.350  1.3032  0.3881 -2.1925
  170MPD1    H3 2597   0.146   1.681  13.231 -0.3781 -1.8880 -0.8385
  170MPD1     N 2598   0.434   1.796  13.565  0.4596  0.3978  0.1895
  170MPD1    H5 2599   0.473   1.766  13.654  4.0272  1.0477 -1.1518
  170MPD1    N1 2600   0.128   1.417  13.593 -0.3682 -0.3190 -0.0976
  170MPD1    H6 2601   0.193   1.376  13.659 -1.9494 -1.1729  0.9170
  170MPD1    H7 2602   0.089   1.348  13.529 -0.7650  1.3719 -1.6874
  171MPD1     C 2603   4.378   3.360  15.544 -0.6908 -0.5776  0.3609
  171MPD1    C1 2604   4.346   3.266  15.448  0.7285 -0.4323  0.4539
  171MPD1    C2 2605   4.366   3.134  15.463 -0.0296  0.4281 -0.2125
  171MPD1    C3 2606   4.416   3.093  15.582 -0.3602  1.0993 -0.2059
  171MPD1    C4 2607   4.464   3.188  15.674  0.0053  0.3485  0.2470
  171MPD1    C5 2608   4.441   3.322  15.658  0.2357 -0.9673 -0.1515
  171MPD1     H 2609   4.332   3.069  15.383 -0.9750 -2.3168  2.4607
  171MPD1    H1 2610   4.497   3.158  15.773 -0.1095 -0.5345  0.0155
  171MPD1    H2 2611   4.369   3.467  15.529 -1.7502 -0.4617  1.8184
  171MPD1    H3 2612   4.458   3.394  15.737 -0.9886  0.3933 -1.1219
  171MPD1     N 2613   4.417   2.957  15.619 -0.4034  0.2158  0.0665
  171MPD1    H5 2614   4.482   2.934  15.694  0.2824 -1.3562 -1.0070
  171MPD1    N1 2615   4.273   3.314  15.336 -0.2378  0.4879  0.4393
  171MPD1    H6 2616   4.279   3.416  15.329 -1.5660  0.5962  0.8672
  171MPD1    H7 2617   4.310   3.265  15.255  0.1140 -0.5404  1.2298
  172MPD1     C 2618   3.646   2.425   1.359 -0.1335 -0.1939 -0.2241
  172MPD1    C1 2619   3.681   2.359   1.243 -0.8884 -0.1254 -0.3637
  172MPD1    C2 2620   3.634   2.415   1.128 -0.4505  0.3705  0.2035
  172MPD1    C3 2621   3.554   2.525   1.122  0.0036 -0.3760 -0.1877
  172MPD1    C4 2622   3.531   2.591   1.243 -0.1216  0.1952 -0.1676
  172MPD1    C5 2623   3.575   2.538   1.358 -0.3158  0.4229 -0.3479
  172MPD1     H 2624   3.659   2.373   1.031 -1.1001 -0.1956  0.2821
  172MPD1    H1 2625   3.465   2.676   1.243  0.6272  0.7846 -0.5574
  172MPD1    H2 2626   3.673   2.384   1.456 -0.3928  2.0483  0.7767
  172MPD1    H3 2627   3.552   2.582   1.454 -0.1501  0.8694 -0.5130
  172MPD1     N 2628   3.513   2.578   0.999  0.4701 -0.6160 -0.1482
  172MPD1    H5 2629   3.532   2.519   0.919 -2.9905 -0.4572 -1.0644
  172MPD1    N1 2630   3.775   2.260   1.255 -0.5112 -0.4873 -0.1945
  172MPD1    H6 2631   3.759   2.205   1.339 -1.9528 -0.0075 -0.1515
  172MPD1    H7 2632   3.772   2.202   1.171  0.2643  1.9138 -1.9050
  173MPD1     C 2633   0.167   2.053  14.352  0.0846 -0.1943  0.5095
  173MPD1    C1 2634   0.093   2.034  14.466  0.0462 -0.2819 -0.3740
  173MPD1    C2 2635   0.026   1.909  14.475  0.2922 -0.1872  0.0862
  173MPD1    C3 2636   0.008   1.819  14.377 -0.2441 -0.4029  0.3924
  173MPD1    C4 2637   0.078   1.840  14.260  0.0929  0.1809 -0.4181
  173MPD1    C5 2638   0.156   1.956  14.252  0.6178  0.2885 -0.7385
  173MPD1     H 2639   4.701   1.894  14.571 -0.8370  0.1024 -0.4477
  173MPD1    H1 2640   0.084   1.771  14.177 -0.7589  0.6606 -0.8695
  173MPD1    H2 2641   0.229   2.139  14.329 -0.3292 -0.0021  0.1044
  173MPD1    H3 2642   0.224   1.965  14.169  2.5682  2.2365  1.0556
  173MPD1     N 2643   4.654   1.706  14.409 -0.6548  0.6004 -0.0259
  173MPD1    H5 2644   4.608   1.693  14.499  0.3477  1.4676  0.6051
  173MPD1    N1 2645   0.116   2.111  14.583 -0.5951 -0.1216 -0.0539
  173MPD1    H6 2646   0.139   2.210  14.569  0.2734 -0.4028 -0.6388
  173MPD1    H7 2647   0.043   2.113  14.653 -0.9994  0.5971 -0.4977
  174MPD1     C 2648   0.364   0.906  14.238 -0.0442 -0.0143  0.0545
  174MPD1    C1 2649   0.228   0.859  14.230  0.9615 -0.0806 -0.1887
  174MPD1    C2 2650   0.131   0.946  14.272 -0.3822 -0.9890  0.2669
  174MPD1    C3 2651   0.159   1.075  14.318  0.8140  0.3179  0.6535
  174MPD1    C4 2652   0.287   1.114  14.329 -0.7502 -0.2514 -0.2176
  174MPD1    C5 2653   0.388   1.028  14.293 -0.7058 -0.4978  0.1620
  174MPD1     H 2654   0.027   0.921  14.258 -0.0189 -1.6566 -1.1980
  174MPD1    H1 2655   0.310   1.211  14.370 -1.7932  0.0784 -0.4316
  174MPD1    H2 2656   0.450   0.843  14.218  0.8901  1.4081 -0.4247
  174MPD1    H3 2657   0.491   1.061  14.300  0.7028 -4.4368 -2.1260
  174MPD1     N 2658   0.057   1.168  14.358 -0.3689  0.1187 -0.0868
  174MPD1    H5 2659   0.078   1.267  14.363 -2.1109  0.6368 -2.8232
  174MPD1    N1 2660   0.189   0.727  14.184  0.6794 -0.0816 -0.3108
  174MPD1    H6 2661   0.255   0.650  14.189  0.0655 -0.6249 -0.5816
  174MPD1    H7 2662   0.096   0.705  14.220  0.9747 -0.0133  0.5011
  175MPD1     C 2663   3.701   2.267  16.295  0.6125  0.9157  0.1293
  175MPD1    C1 2664   3.763   2.333  16.397 -0.3185  0.9577 -0.2134
  175MPD1    C2 2665   3.689   2.427  16.474  0.0858  0.0527 -0.3823
  175MPD1    C3 2666   3.564   2.469  16.430  0.1782 -0.5348 -0.2409
  175MPD1    C4 2667   3.506   2.400  16.320  0.4563  0.0664 -0.2312
  175MPD1    C5 2668   3.577   2.303  16.259 -0.0181  1.1793  0.0429
  175MPD1     H 2669   3.740   2.468  16.561 -1.1786 -0.2024  0.4744
  175MPD1    H1 2670   3.405   2.415  16.283  0.1461 -0.6581  0.3221
  175MPD1    H2 2671   3.752   2.193  16.235 -1.0113 -0.9776  1.0858
  175MPD1    H3 2672   3.533   2.259  16.170 -0.0487  1.3048 -0.0044
  175MPD1     N 2673   3.484   2.568  16.492 -0.3421 -0.7061  0.8908
  175MPD1    H5 2674   3.398   2.602  16.449 -0.0219 -2.3666 -1.0571
  175MPD1    N1 2675   3.883   2.275  16.450  0.3200  0.1104  0.2195
  175MPD1    H6 2676   3.941   2.244  16.373 -0.8364 -3.6718  0.8874
  175MPD1    H7 2677   3.928   2.348  16.505 -1.1852 -0.5217  2.2803
  176MPD1     C 2678   4.668   0.209  16.212 -0.2094  0.2058 -0.0891
  176MPD1    C1 2679   4.629   0.337  16.245 -0.8379  0.0126  0.0350
  176MPD1    C2 2680   4.654   0.388  16.371  0.1994  0.4984 -0.0811
  176MPD1    C3 2681   4.707   0.302  16.468 -0.0344  0.7712 -0.1713
  176MPD1    C4 2682   0.016   0.171  16.435  0.1841 -0.1444  0.1590
  176MPD1    C5 2683   0.000   0.129  16.303 -0.0892  0.0697 -0.3421
  176MPD1     H 2684   4.623   0.489  16.396 -1.5273  0.2721 -1.2904
  176MPD1    H1 2685   0.062   0.096  16.499 -1.1766  0.9877  2.4621
  176MPD1    H2 2686   4.657   0.172  16.111  1.8181  0.0051 -0.2352
  176MPD1    H3 2687   0.028   0.026  16.283  0.6235 -0.1998  1.9483
  176MPD1     N 2688   4.720   0.347  16.605  0.3216 -0.1780  0.7700
  176MPD1    H5 2689   4.675   0.439  16.610  0.4722 -0.0697  0.1041
  176MPD1    N1 2690   4.565   0.418  16.148 -0.5386  0.6428 -0.7135
  176MPD1    H6 2691   4.473   0.431  16.189  0.4324  1.1426  1.2806
  176MPD1    H7 2692   4.555   0.371  16.058 -1.1888  0.0814 -0.3471
  177MPD1     C 2693   3.338   4.311   9.961 -0.7294  0.2189  0.2550
  177MPD1    C1 2694   3.418   4.352   9.859  0.3843 -0.5100 -0.1399
  177MPD1    C2 2695   3.357   4.388   9.739  0.0301 -0.5434 -0.3568
  177MPD1    C3 2696   3.222   4.388   9.724 -0.3266  0.7694 -0.8148
  177MPD1    C4 2697   3.144   4.348   9.830  0.5274  0.4433 -0.4389
  177MPD1    C5 2698   3.203   4.307   9.942  0.7482 -0.1370  0.0117
  177MPD1     H 2699   3.419   4.405   9.652  0.8876 -1.0879  0.1465
  177MPD1    H1 2700   3.037   4.354   9.842  0.5495 -1.2337  0.4925
  177MPD1    H2 2701   3.382   4.263  10.048 -4.6175 -0.7574  1.6702
  177MPD1    H3 2702   3.132   4.267  10.014 -0.7663 -1.3723 -2.2007
  177MPD1     N 2703   3.160   4.441   9.602  0.0090 -0.0675 -0.2557
  177MPD1    H5 2704   3.225   4.491   9.541  0.4577 -1.5741 -1.0166
  177MPD1    N1 2705   3.551   4.332   9.870  0.2031 -0.2362  0.1603
  177MPD1    H6 2706   3.596   4.394   9.803  0.1762  3.1070  3.2275
  177MPD1    H7 2707   3.587   4.355   9.962 -0.3319  0.4722  0.1925
  178MPD1     C 2708   0.342   0.634   0.325  0.2530  0.0072 -0.3465
  178MPD1    C1 2709   0.378   0.766   0.356  0.5269 -1.1100 -0.0910
  178MPD1    C2 2710   0.440   0.843   0.254 -0.5312  0.1831 -0.0947
  178MPD1    C3 2711   0.446   0.794   0.123 -0.1813  0.3800  0.3871
  178MPD1    C4 2712   0.389   0.670   0.097  0.7261  0.4149  0.2428
  178MPD1    C5 2713   0.347   0.587   0.195  0.0475 -0.7386  0.3751
  178MPD1     H 2714   0.487   0.937   0.282  2.5578 -2.0851  2.3326
  178MPD1    H1 2715   0.380   0.626  17.697 -1.2493  2.2587 -0.4150
  178MPD1    H2 2716   0.314   0.567   0.405  1.0552 -0.8345 -0.7689
  178MPD1    H3 2717   0.316   0.485   0.175  1.3834 -1.1537  0.4111
  178MPD1     N 2718   0.499   0.869   0.016  0.2469  0.2272 -1.2876
  178MPD1    H5 2719   0.486   0.825  17.624 -0.2085  0.4381 -1.3265
  178MPD1    N1 2720   0.362   0.809   0.491  0.0702  0.3152  0.0421
  178MPD1    H6 2721   0.333   0.907   0.492 -1.1662 -0.0381 -0.6963
  178MPD1    H7 2722   0.293   0.755   0.543 -0.6243 -0.9458 -2.1777
  179MPD1     C 2723   0.729   4.080  15.627  0.0478  0.5106 -0.0626
  179MPD1    C1 2724   0.653   4.036  15.522  0.2709  0.5232 -0.3866
  179MPD1    C2 2725   0.550   3.943  15.551  0.7298  0.1859  0.4267
  179MPD1    C3 2726   0.512   3.923  15.682  0.0366 -0.0703 -0.3100
  179MPD1    C4 2727   0.598   3.962  15.784  0.5889  0.1536 -0.3766
  179MPD1    C5 2728   0.709   4.034  15.756  0.0141  0.0265 -0.0173
  179MPD1     H 2729   0.499   3.886  15.474 -0.7660  1.1391  0.7163
  179MPD1    H1 2730   0.574   3.935  15.887 -0.8204  0.4456 -0.6257
  179MPD1    H2 2731   0.812   4.147  15.611  1.8480 -1.5682  0.6074
  179MPD1    H3 2732   0.777   4.063  15.836  1.3179  0.6210 -1.3496
  179MPD1     N 2733   0.400   3.844  15.709  0.3144  0.3961 -0.2097
  179MPD1    H5 2734   0.385   3.804  15.801  0.5730 -2.0227 -1.2257
  179MPD1    N1 2735   0.696   4.068  15.396 -0.1797 -0.1704  0.1958
  179MPD1    H6 2736   0.633   4.052  15.317  0.6237  1.4730 -0.7966
  179MPD1    H7 2737   0.722   4.166  15.388 -2.4127  0.2876 -1.4329
  180MPD1     C 2738   4.559   0.570  15.271  0.3736 -0.4599  0.1245
  180MPD1    C1 2739   4.632   0.640  15.178  0.4070 -0.9332 -0.3395
  180MPD1    C2 2740   4.628   0.594  15.051  0.1147  0.1270  0.4226
  180MPD1    C3 2741   4.562   0.482  15.014 -0.0857 -0.5904 -0.5005
  180MPD1    C4 2742   4.485   0.413  15.104 -0.1651 -0.0537  0.3163
  180MPD1    C5 2743   4.482   0.460  15.229 -0.3875  0.5456 -0.0471
  180MPD1     H 2744   4.686   0.647  14.976 -1.8740  1.4322 -0.1798
  180MPD1    H1 2745   4.430   0.323  15.078 -0.4862  0.0862  0.5142
  180MPD1    H2 2746   4.555   0.599  15.375 -1.1421 -1.0752  0.2381
  180MPD1    H3 2747   4.433   0.407  15.309 -2.4638  0.4657 -1.3697
  180MPD1     N 2748   4.582   0.450  14.879 -0.0364  0.7529  0.5891
  180MPD1    H5 2749   4.654   0.506  14.835  0.7174 -0.6159  0.0707
  180MPD1    N1 2750   4.681   0.764  15.215  0.1883 -0.3013 -0.1832
  180MPD1    H6 2751   4.720   0.768  15.309  0.0724 -2.4172 -0.0244
  180MPD1    H7 2752   0.022   0.803  15.148 -0.4309  0.7884 -0.1454
  181MPD1     C 2753   1.206   1.620  10.392 -0.1853 -0.0600  0.4481
  181MPD1    C1 2754   1.325   1.634  10.466  0.5588  0.2382  0.2487
  181MPD1    C2 2755   1.436   1.671  10.394  0.2657  0.3179  0.0543
  181MPD1    C3 2756   1.433   1.682  10.252  0.3154 -0.8851  0.0843
  181MPD1    C4 2757   1.311   1.673  10.185  0.0201 -0.3751  0.2130
  181MPD1    C5 2758   1.196   1.629  10.258  0.6494  0.1173 -0.1423
  181MPD1     H 2759   1.529   1.673  10.448 -0.7717 -0.6236  1.8748
  181MPD1    H1 2760   1.310   1.681  10.077 -1.0532  1.3061  0.3530
  181MPD1    H2 2761   1.114   1.576  10.432  0.5313 -1.7541  0.2368
  181MPD1    H3 2762   1.109   1.593  10.205  0.4786 -1.3998  1.1584
  181MPD1     N 2763   1.547   1.706  10.174  0.2426  0.0872 -0.1871
  181MPD1    H5 2764   1.537   1.704  10.073  3.3190 -2.1212 -0.4363
  181MPD1    N1 2765   1.327   1.609  10.602 -0.6096 -0.2793 -0.0456
  181MPD1    H6 2766   1.238   1.635  10.642  0.6694  0.6798  2.1496
  181MPD1    H7 2767   1.406   1.653  10.649 -0.8226 -1.6108  1.5331
  182MPD1     C 2768   3.279   1.028   1.469  0.3390 -0.3502  0.2223
  182MPD1    C1 2769   3.213   1.094   1.563 -0.4361 -0.0879  0.5436
  182MPD1    C2 2770   3.093   1.160   1.530  0.7470  0.3486 -1.2113
  182MPD1    C3 2771   3.047   1.165   1.406 -0.2977  0.0599  0.2608
  182MPD1    C4 2772   3.116   1.094   1.310 -0.3497 -0.0973  0.1142
  182MPD1    C5 2773   3.232   1.031   1.345  0.3610 -0.3222  0.4961
  182MPD1     H 2774   3.037   1.218   1.602  1.3729  0.2625 -0.6482
  182MPD1    H1 2775   3.075   1.088   1.210  1.2200 -0.0645 -0.5328
  182MPD1    H2 2776   3.372   0.981   1.498 -0.0440 -2.0137 -1.2927
  182MPD1    H3 2777   3.284   0.975   1.268  0.0538 -0.3263  0.2880
  182MPD1     N 2778   2.936   1.243   1.361 -0.1694 -0.7652  0.2033
  182MPD1    H5 2779   2.925   1.240   1.260  0.9022  0.1060  0.0711
  182MPD1    N1 2780   3.246   1.077   1.698  0.3166 -0.3199 -0.3641
  182MPD1    H6 2781   3.344   1.058   1.714  0.5540  2.5279  1.6398
  182MPD1    H7 2782   3.214   1.155   1.756  0.5122 -2.1215  2.1880
  183MPD1     C 2783   2.273   1.486   8.689 -0.0356  0.0148  0.7557
  183MPD1    C1 2784   2.254   1.567   8.794 -0.2395  0.5415 -0.2015
  183MPD1    C2 2785   2.359   1.557   8.883  0.2590  0.3844  0.1646
  183MPD1    C3 2786   2.462   1.456   8.881 -0.7481  0.1404  0.1946
  183MPD1    C4 2787   2.464   1.369   8.774 -0.2540  0.3072  0.3828
  183MPD1    C5 2788   2.370   1.382   8.679  0.4155  0.7047  0.1618
  183MPD1     H 2789   2.354   1.630   8.963 -1.0015  1.3685 -0.8163
  183MPD1    H1 2790   2.536   1.289   8.774 -1.3073 -0.6332  0.5159
  183MPD1    H2 2791   2.198   1.488   8.612  2.4489 -4.0453 -1.7493
  183MPD1    H3 2792   2.375   1.327   8.586 -1.6227 -0.3688  0.6928
  183MPD1     N 2793   2.545   1.441   8.995  0.5292  0.3567 -0.0264
  183MPD1    H5 2794   2.516   1.500   9.072  0.3142 -1.0312  0.9580
  183MPD1    N1 2795   2.161   1.680   8.796 -0.1487 -0.0277 -0.9348
  183MPD1    H6 2796   2.143   1.711   8.892  1.3143  2.1367 -1.3584
  183MPD1    H7 2797   2.071   1.653   8.755 -1.8768  1.7297  1.7095
  184MPD1     C 2798   2.149   3.866   9.753  0.3969  0.1639 -0.7236
  184MPD1    C1 2799   2.279   3.905   9.739 -0.2140 -0.0994  0.0293
  184MPD1    C2 2800   2.307   4.037   9.703  0.3550 -0.0677 -0.0497
  184MPD1    C3 2801   2.208   4.126   9.674  0.3033  0.5035  0.1670
  184MPD1    C4 2802   2.075   4.080   9.677  0.3501  0.1511  0.0048
  184MPD1    C5 2803   2.048   3.954   9.722 -0.1353 -0.5602  0.0719
  184MPD1     H 2804   2.413   4.056   9.686  0.3475  0.8347  0.9482
  184MPD1    H1 2805   1.993   4.144   9.646  0.1942 -0.0045  0.0927
  184MPD1    H2 2806   2.124   3.764   9.778  0.1301  0.1315 -1.1347
  184MPD1    H3 2807   1.946   3.921   9.729  0.0616 -0.9133  1.3919
  184MPD1     N 2808   2.232   4.261   9.621 -0.0414 -0.5643 -0.1483
  184MPD1    H5 2809   2.151   4.319   9.601 -0.3362 -1.0974 -0.5109
  184MPD1    N1 2810   2.383   3.822   9.782 -0.2449  0.2879 -0.2568
  184MPD1    H6 2811   2.356   3.724   9.772 -2.0340  0.8324 -0.6609
  184MPD1    H7 2812   2.478   3.839   9.748  0.5597 -0.7822  1.3988
  185MPD1     C 2813   1.656   4.723   9.220  0.1622  0.7107  0.5568
  185MPD1    C1 2814   1.753   0.096   9.234  0.5096 -0.0773  0.1151
  185MPD1    C2 2815   1.879   0.063   9.278 -0.3219 -0.2749  0.4787
  185MPD1    C3 2816   1.906   4.653   9.300  0.3133  0.0574 -0.6049
  185MPD1    C4 2817   1.820   4.557   9.263  0.6758  0.3464 -0.0221
  185MPD1    C5 2818   1.689   4.588   9.225  0.0747  0.0544 -0.6704
  185MPD1     H 2819   1.945   0.147   9.293 -0.7335  0.2940 -0.8420
  185MPD1    H1 2820   1.843   4.451   9.267 -2.1163 -0.2588  0.5300
  185MPD1    H2 2821   1.555   0.019   9.186  0.5051  0.3917 -0.6675
  185MPD1    H3 2822   1.624   4.508   9.192 -0.9302  0.2562  0.8315
  185MPD1     N 2823   2.030   4.612   9.362  0.0718 -0.3162  0.3248
  185MPD1    H5 2824   2.034   4.517   9.397  0.4583 -0.2182  0.5568
  185MPD1    N1 2825   1.722   0.233   9.240  0.7936  0.5206 -0.0027
  185MPD1    H6 2826   1.790   0.299   9.202  0.4094  0.0417 -1.5449
  185MPD1    H7 2827   1.632   0.249   9.193  0.4583 -0.2490  0.3797
  186MPD1     C 2828   0.200   4.202  15.477 -0.2974 -0.4096 -0.2412
  186MPD1    C1 2829   0.115   4.265  15.565  0.4469  0.0034  0.0917
  186MPD1    C2 2830   0.175   4.308  15.683 -0.4781 -0.3940  0.8336
  186MPD1    C3 2831   0.315   4.296  15.714 -0.0450 -0.3236  0.0165
  186MPD1    C4 2832   0.397   4.241  15.617  0.7373  0.2642  0.1118
  186MPD1    C5 2833   0.335   4.199  15.497 -0.5562 -0.3604  0.1175
  186MPD1     H 2834   0.107   4.363  15.747 -0.4475  0.2677  0.3015
  186MPD1    H1 2835   0.505   4.251  15.625  0.7717  1.2841 -1.7117
  186MPD1    H2 2836   0.171   4.176  15.376 -2.3868 -0.2860  0.3252
  186MPD1    H3 2837   0.389   4.165  15.408 -0.0176 -0.3643  0.4429
  186MPD1     N 2838   0.370   4.329  15.838  0.2370  0.6178  0.2650
  186MPD1    H5 2839   0.470   4.341  15.851  0.2445 -1.0150  1.6754
  186MPD1    N1 2840   4.715   4.308  15.524  0.0859 -0.3454 -0.5008
  186MPD1    H6 2841   4.669   4.237  15.468 -0.0392 -2.0552  1.7914
  186MPD1    H7 2842   4.654   4.334  15.601  0.0488  1.2878 -1.0617
  187MPD1     C 2843   4.696   1.416   0.335  0.1744 -0.7316 -0.6902
  187MPD1    C1 2844   4.628   1.347   0.234  0.0121 -0.0081 -0.0216
  187MPD1    C2 2845   4.644   1.399   0.109  0.4966  0.0493  0.0261
  187MPD1    C3 2846   0.003   1.503   0.077  0.2093  0.1487 -0.3148
  187MPD1    C4 2847   0.080   1.553   0.177 -0.1812 -0.3996 -0.0203
  187MPD1    C5 2848   0.067   1.509   0.305 -0.1219 -0.1551  0.8733
  187MPD1     H 2849   4.586   1.361   0.026 -0.4754 -0.0654  0.7477
  187MPD1    H1 2850   0.156   1.629   0.165 -0.2748 -0.0463  1.5521
  187MPD1    H2 2851   4.689   1.401   0.442  0.2315  2.8195 -0.2000
  187MPD1    H3 2852   0.123   1.555   0.387 -0.0772  1.0215  0.1829
  187MPD1     N 2853   0.036   1.537  17.646 -0.4816 -0.0605 -0.1295
  187MPD1    H5 2854   0.117   1.597  17.634  1.2247 -3.0349 -3.4739
  187MPD1    N1 2855   4.533   1.251   0.263 -0.3021 -0.4906 -0.2944
  187MPD1    H6 2856   4.518   1.190   0.183  0.4660 -1.3667  0.2371
  187MPD1    H7 2857   4.558   1.197   0.346  0.1159  2.4374  1.4818
  188MPD1     C 2858   4.709   0.918  10.472 -0.2063 -0.0276  0.0081
  188MPD1    C1 2859   0.032   0.794  10.511 -0.4167  0.3648 -0.1801
  188MPD1    C2 2860   0.048   0.696  10.418 -0.4956 -0.1820  0.4092
  188MPD1    C3 2861   0.034   0.724  10.284  0.9186  0.3115  0.7358
  188MPD1    C4 2862   4.715   0.851  10.244 -0.5679 -0.8481 -0.7619
  188MPD1    C5 2863   4.696   0.947  10.339  0.3576 -0.4507 -0.0390
  188MPD1     H 2864   0.084   0.599  10.451 -0.0951 -0.0250  0.4322
  188MPD1    H1 2865   4.690   0.878  10.142 -0.9791  0.4641 -0.3085
  188MPD1    H2 2866   0.001   1.004  10.536  2.5606 -0.2526 -0.4229
  188MPD1    H3 2867   4.666   1.046  10.308  0.5591 -1.2368 -2.7263
  188MPD1     N 2868   0.041   0.616  10.191 -0.2895 -0.3793 -0.9334
  188MPD1    H5 2869   0.074   0.525  10.223  0.0167 -0.7156 -2.2082
  188MPD1    N1 2870   0.066   0.765  10.648  0.3514 -0.0270  0.0283
  188MPD1    H6 2871   4.724   0.804  10.713  0.3061 -1.5349  0.8927
  188MPD1    H7 2872   0.076   0.666  10.670 -0.4049 -0.5194 -1.8756
  189MPD1     C 2873   1.797   1.899   0.523  0.1873  0.4465 -0.3631
  189MPD1    C1 2874   1.675   1.898   0.572 -0.6763  0.7653 -0.1913
  189MPD1    C2 2875   1.586   1.996   0.533  0.5404 -0.2305  0.3179
  189MPD1    C3 2876   1.627   2.097   0.456  0.3796 -0.1551 -0.3778
  189MPD1    C4 2877   1.755   2.105   0.410 -0.3941  0.2518  0.1076
  189MPD1    C5 2878   1.846   2.006   0.455  0.3568  0.2044 -0.5275
  189MPD1     H 2879   1.482   1.978   0.560  0.8714  0.8568  2.2901
  189MPD1    H1 2880   1.786   2.189   0.348  0.0948 -0.4525 -0.5972
  189MPD1    H2 2881   1.866   1.818   0.545  0.4896  0.8132  0.0499
  189MPD1    H3 2882   1.946   2.009   0.413 -0.4560  2.2229 -2.2810
  189MPD1     N 2883   1.531   2.186   0.402  0.6187  0.1502 -0.3368
  189MPD1    H5 2884   1.436   2.152   0.397  0.6587  0.1550 -1.1037
  189MPD1    N1 2885   1.630   1.783   0.645 -0.0359 -0.3240  0.4461
  189MPD1    H6 2886   1.705   1.732   0.691  0.3224 -1.7515 -1.7029
  189MPD1    H7 2887   1.574   1.815   0.723 -0.7834 -5.0198  1.8619
  190MPD1     C 2888   0.757   1.294  15.303 -0.0440 -0.4850  1.0000
  190MPD1    C1 2889   0.848   1.213  15.246 -0.3920 -0.0078  0.1259
  190MPD1    C2 2890   0.836   1.079  15.280 -0.1230 -0.1257 -0.0876
  190MPD1    C3 2891   0.731   1.030  15.358  0.7096  0.4538 -0.5423
  190MPD1    C4 2892   0.640   1.122  15.412  0.2457 -0.7695 -0.5991
  190MPD1    C5 2893   0.656   1.251  15.382  0.3592 -0.1410  0.1934
  190MPD1     H 2894   0.914   1.008  15.254  0.1603  0.7009 -1.5043
  190MPD1    H1 2895   0.566   1.107  15.490  0.4226 -0.8792 -0.4530
  190MPD1    H2 2896   0.760   1.400  15.278 -3.0028 -0.8154 -0.7617
  190MPD1    H3 2897   0.571   1.317  15.401  1.0147  1.1120 -1.2703
  190MPD1     N 2898   0.722   0.894  15.376 -0.2962 -0.0041 -0.5933
  190MPD1    H5 2899   0.788   0.837  15.324  0.2173  0.2395 -0.2131
  190MPD1    N1 2900   0.951   1.256  15.164  0.2222 -1.0864 -0.3552
  190MPD1    H6 2901   1.034   1.197  15.171  1.1556  0.4371  1.1349
  190MPD1    H7 2902   0.977   1.354  15.164 -1.0367 -0.7632 -6.2871
  191MPD1     C 2903   4.405   1.885  13.011  0.4423  1.2565 -0.0435
  191MPD1    C1 2904   4.392   2.024  12.989  0.0905  0.2969  0.3994
  191MPD1    C2 2905   4.366   2.054  12.855 -0.6589  0.6918 -0.2331
  191MPD1    C3 2906   4.365   1.960  12.753  0.4411 -0.3010  0.5423
  191MPD1    C4 2907   4.390   1.832  12.784 -0.3042  0.2073  0.5943
  191MPD1    C5 2908   4.412   1.790  12.914  0.3972  0.1602 -0.0153
  191MPD1     H 2909   4.340   2.153  12.820 -1.4577  0.3923 -0.4726
  191MPD1    H1 2910   4.402   1.756  12.708  0.0715  0.7001  0.1578
  191MPD1    H2 2911   4.432   1.848  13.109  0.1606  3.7858  0.9869
  191MPD1    H3 2912   4.434   1.685  12.925  0.6753  0.5039  2.8576
  191MPD1     N 2913   4.369   2.005  12.618 -0.9263  0.1449 -0.2374
  191MPD1    H5 2914   4.396   2.102  12.602 -0.2889  0.0489  0.2488
  191MPD1    N1 2915   4.375   2.108  13.097 -0.0440  0.6727  0.0049
  191MPD1    H6 2916   4.436   2.074  13.172 -0.9317 -0.7118  0.0882
  191MPD1    H7 2917   4.398   2.205  13.076 -1.5148  1.3079  1.3634
  192MPD1     C 2918   4.183   1.486  11.783 -0.1501 -0.0058  0.3770
  192MPD1    C1 2919   4.229   1.614  11.738 -0.1897  0.6225 -0.4525
  192MPD1    C2 2920   4.249   1.713  11.829 -0.2347 -0.3031  0.3657
  192MPD1    C3 2921   4.207   1.703  11.957  0.5318 -0.2112 -0.0720
  192MPD1    C4 2922   4.144   1.587  11.992  0.5365  0.5297  0.2262
  192MPD1    C5 2923   4.124   1.484  11.908  0.2159  0.0622  0.0178
  192MPD1     H 2924   4.317   1.795  11.807  1.7168 -1.6234  1.4209
  192MPD1    H1 2925   4.091   1.580  12.087  1.4070  1.5471  0.7876
  192MPD1    H2 2926   4.165   1.399  11.720  1.7781 -0.9435  1.1254
  192MPD1    H3 2927   4.075   1.396  11.949  0.5213  1.6084  3.6737
  192MPD1     N 2928   4.234   1.798  12.055  0.3118  0.4879 -0.6120
  192MPD1    H5 2929   4.219   1.772  12.152 -0.2783 -0.3314 -0.9239
  192MPD1    N1 2930   4.282   1.619  11.606  0.5958 -0.1067  1.0931
  192MPD1    H6 2931   4.233   1.553  11.547  1.5174  0.3114 -0.1319
  192MPD1    H7 2932   4.286   1.712  11.564  0.9848  0.6843  2.8807
  193MPD1     C 2933   4.038   2.519  16.319 -0.3411  0.4149 -0.1445
  193MPD1    C1 2934   4.163   2.481  16.282  0.0337  0.4175  0.4197
  193MPD1    C2 2935   4.254   2.462  16.383  0.3204 -0.4913  0.7521
  193MPD1    C3 2936   4.225   2.499  16.518  0.2861 -0.1366 -0.0483
  193MPD1    C4 2937   4.101   2.544  16.542  0.2628 -0.4171  0.4190
  193MPD1    C5 2938   4.010   2.555  16.443 -0.2371  0.4976  0.5168
  193MPD1     H 2939   4.353   2.425  16.359  0.3963 -0.0058  0.3280
  193MPD1    H1 2940   4.061   2.569  16.640 -1.2921  0.1712 -0.3628
  193MPD1    H2 2941   3.963   2.523  16.240  0.8370 -2.3478 -1.4026
  193MPD1    H3 2942   3.912   2.584  16.477 -0.8038  0.8302 -1.4119
  193MPD1     N 2943   4.319   2.494  16.626 -0.3000 -0.2171  0.4195
  193MPD1    H5 2944   4.279   2.535  16.710 -1.1789  0.5676 -0.3792
  193MPD1    N1 2945   4.188   2.434  16.154 -0.0135  0.0307 -0.8434
  193MPD1    H6 2946   4.142   2.503  16.095 -1.5135 -0.3110 -0.0721
  193MPD1    H7 2947   4.286   2.429  16.129  0.0564  2.4750 -1.0316
  194MPD1     C 2948   1.526   4.573  16.509 -0.2634  0.0738 -0.9173
  194MPD1    C1 2949   1.509   4.452  16.456 -0.4444  0.1936  0.2754
  194MPD1    C2 2950   1.552   4.341  16.519 -0.0206 -0.4024  0.1189
  194MPD1    C3 2951   1.603   4.345  16.650 -0.3220  0.3264  0.8323
  194MPD1    C4 2952   1.614   4.472  16.700 -0.1094 -0.2490  0.9092
  194MPD1    C5 2953   1.573   4.585  16.633 -1.1826 -0.1337  0.2247
  194MPD1     H 2954   1.539   4.252  16.459  0.7381 -1.4974  1.5631
  194MPD1    H1 2955   1.656   4.488  16.799  2.0700 -1.3054  0.1664
  194MPD1    H2 2956   1.484   4.663  16.465 -0.1569 -0.6897 -2.5621
  194MPD1    H3 2957   1.578   4.681  16.683 -0.8159 -0.7367  1.3419
  194MPD1     N 2958   1.649   4.237  16.720 -0.5607 -0.5063  0.7307
  194MPD1    H5 2959   1.668   4.248  16.819 -1.4945  1.0360  0.7361
  194MPD1    N1 2960   1.479   4.446  16.316  0.0057 -0.2406  0.3492
  194MPD1    H6 2961   1.446   4.536  16.283  1.4317  0.4203  0.7250
  194MPD1    H7 2962   1.413   4.372  16.293 -0.9980  0.4078  1.1570
  195MPD1     C 2963   0.179   1.282   0.626  0.0806  0.1059 -0.6955
  195MPD1    C1 2964   0.218   1.238   0.499  0.2012  0.2108  0.8491
  195MPD1    C2 2965   0.162   1.133   0.439 -0.2201 -0.0669 -0.3137
  195MPD1    C3 2966   0.046   1.074   0.496  0.1492  0.6320 -0.2535
  195MPD1    C4 2967   0.006   1.122   0.620 -0.5931  0.5489 -0.0556
  195MPD1    C5 2968   0.073   1.218   0.680  0.1880  0.4901 -0.2078
  195MPD1     H 2969   0.196   1.099   0.341  2.0204  0.5830  0.2510
  195MPD1    H1 2970   4.643   1.085   0.672  0.6894 -0.4395  1.4011
  195MPD1    H2 2971   0.236   1.360   0.675 -0.0651  0.3626 -0.9368
  195MPD1    H3 2972   0.024   1.257   0.769 -0.7614  2.2318 -1.5067
  195MPD1     N 2973   4.702   0.960   0.454 -0.7962  0.2262  0.6221
  195MPD1    H5 2974   4.623   0.924   0.507  0.7996 -0.2363  2.6550
  195MPD1    N1 2975   0.332   1.289   0.443 -0.5809  0.0316 -0.1395
  195MPD1    H6 2976   0.325   1.285   0.342  1.5035  0.9174 -0.3106
  195MPD1    H7 2977   0.348   1.389   0.448  1.3175 -0.3976  2.8890
  196MPD1     C 2978   2.951   1.016   0.606  0.8514  0.6635  0.0775
  196MPD1    C1 2979   2.939   0.938   0.719 -0.3371 -0.0088  0.0538
  196MPD1    C2 2980   3.038   0.934   0.814 -0.5760 -0.4777  0.2854
  196MPD1    C3 2981   3.158   1.005   0.784  0.2013  0.9661  0.3355
  196MPD1    C4 2982   3.169   1.080   0.672  0.1596 -0.6450  0.1843
  196MPD1    C5 2983   3.069   1.085   0.579  0.2621 -0.0483 -0.2555
  196MPD1     H 2984   3.029   0.871   0.901  1.8473 -2.2390 -0.7227
  196MPD1    H1 2985   3.265   1.126   0.650  0.2596 -1.5907 -1.4089
  196MPD1    H2 2986   2.867   1.024   0.538 -0.0109 -3.6531  0.6240
  196MPD1    H3 2987   3.071   1.151   0.493 -3.4802  0.0151 -0.3058
  196MPD1     N 2988   3.270   1.002   0.869  0.7271  1.3066  0.2141
  196MPD1    H5 2989   3.345   1.062   0.838 -0.3011  2.3437 -0.2572
  196MPD1    N1 2990   2.818   0.875   0.743 -0.3230 -0.1380 -0.1552
  196MPD1    H6 2991   2.766   0.841   0.662 -1.7102 -2.0331  1.5091
  196MPD1    H7 2992   2.833   0.792   0.800  1.3842  0.3522  0.1007
  197MPD1     C 2993   3.134   2.908  17.664 -0.0632 -0.3214 -0.6334
  197MPD1    C1 2994   3.169   3.037  17.683  0.0872 -0.0239  0.2698
  197MPD1    C2 2995   3.145   3.131  17.582 -0.2633 -0.0847 -0.2692
  197MPD1    C3 2996   3.089   3.087  17.465 -0.2579 -0.0062 -0.7213
  197MPD1    C4 2997   3.075   2.952  17.444 -0.2245 -0.5248 -0.6991
  197MPD1    C5 2998   3.096   2.863  17.546  0.6527  0.3957 -0.5685
  197MPD1     H 2999   3.157   3.236  17.606 -1.7652  0.3469 -1.4175
  197MPD1    H1 3000   3.030   2.921  17.350 -1.0396 -0.2120 -0.4080
  197MPD1    H2 3001   3.135   2.843   0.052  0.6276  0.1414 -0.3030
  197MPD1    H3 3002   3.056   2.763  17.534  2.8597 -0.4244 -1.1201
  197MPD1     N 3003   3.060   3.169  17.350  0.3461  0.2274 -0.3642
  197MPD1    H5 3004   3.040   3.122  17.262  1.4839  0.1668 -0.5987
  197MPD1    N1 3005   3.203   3.077   0.111 -0.1025  0.3255 -0.3757
  197MPD1    H6 3006   3.245   3.010   0.175 -0.4385 -0.7821 -1.3273
  197MPD1    H7 3007   3.260   3.161   0.122 -0.3784  0.1485  2.4751
  198MPD1     C 3008   4.580   1.606  15.417 -0.7825 -0.0511 -0.8757
  198MPD1    C1 3009   4.615   1.708  15.504  0.2991 -0.1554  0.1280
  198MPD1    C2 3010   0.024   1.716  15.540  0.2082 -0.1095  0.2034
  198MPD1    C3 3011   0.114   1.641  15.474  0.5854  0.4769 -0.6310
  198MPD1    C4 3012   0.078   1.548  15.380 -0.4567  0.2040  0.2590
  198MPD1    C5 3013   4.672   1.530  15.351 -0.3034  0.4509 -0.2982
  198MPD1     H 3014   0.050   1.793  15.612 -0.3879  0.3115 -0.0285
  198MPD1    H1 3015   0.146   1.480  15.329  1.7517  0.7604  2.4273
  198MPD1    H2 3016   4.476   1.584  15.394 -1.5939  0.6748  2.0180
  198MPD1    H3 3017   4.638   1.454  15.282  0.6343 -0.0364 -0.2216
  198MPD1     N 3018   0.246   1.662  15.516  0.7118 -0.5717 -0.0402
  198MPD1    H5 3019   0.255   1.733  15.588 -0.7632  1.1982 -1.5715
  198MPD1    N1 3020   4.522   1.770  15.589  0.6838  0.1310  0.3605
  198MPD1    H6 3021   4.430   1.778  15.546  2.5252 -3.6380 -4.3245
  198MPD1    H7 3022   4.546   1.860  15.629  0.3534  1.2465 -1.9083
  199MPD1     C 3023   2.758   2.808   9.463  0.9541 -0.4115 -0.1519
  199MPD1    C1 3024   2.758   2.687   9.533  0.1563 -0.2459  0.6296
  199MPD1    C2 3025   2.628   2.629   9.542  0.0931  0.1451 -0.7948
  199MPD1    C3 3026   2.518   2.688   9.483  0.2375 -0.5278 -0.3073
  199MPD1    C4 3027   2.518   2.807   9.421  0.8511 -0.6922 -0.5190
  199MPD1    C5 3028   2.646   2.863   9.406 -0.7306 -0.2610 -0.0190
  199MPD1     H 3029   2.618   2.548   9.612 -1.1729 -0.1220 -1.2960
  199MPD1    H1 3030   2.431   2.856   9.380  0.1295  0.1407  1.9796
  199MPD1    H2 3031   2.846   2.871   9.462 -0.5739  1.7733  2.0413
  199MPD1    H3 3032   2.654   2.959   9.357  1.5249 -0.8766 -0.8619
  199MPD1     N 3033   2.393   2.638   9.510  0.1854  0.2892 -0.3195
  199MPD1    H5 3034   2.315   2.692   9.474  1.5279  0.1392 -3.4031
  199MPD1    N1 3035   2.874   2.642   9.597  0.6885 -0.1159 -1.0878
  199MPD1    H6 3036   2.883   2.540   9.598 -1.7002 -0.3175  0.5133
  199MPD1    H7 3037   2.961   2.693   9.582  1.8744 -1.7947  0.1563
  200MPD1     C 3038   1.186   2.772  14.919 -0.1526 -0.0607 -0.0566
  200MPD1    C1 3039   1.179   2.738  14.784  0.0983 -0.5548 -0.9448
  200MPD1    C2 3040   1.296   2.735  14.709  0.2950 -0.2113  0.3212
  200MPD1    C3 3041   1.421   2.765  14.771 -0.3383  0.4000  0.2293
  200MPD1    C4 3042   1.427   2.797  14.905  0.3263  0.5228  0.3812
  200MPD1    C5 3043   1.311   2.795  14.979 -0.3309 -0.2330 -0.6724
  200MPD1     H 3044   1.282   2.692  14.610  1.9985 -0.2795  0.1044
  200MPD1    H1 3045   1.516   2.800  14.967  1.0218  0.4183 -0.6147
  200MPD1    H2 3046   1.089   2.780  14.966  0.6410 -0.3748  1.6525
  200MPD1    H3 3047   1.319   2.811  15.086 -0.3434 -1.5283 -0.4704
  200MPD1     N 3048   1.537   2.764  14.696 -0.6117  0.1358 -0.2932
  200MPD1    H5 3049   1.526   2.726  14.602 -0.9036  0.3278 -0.3356
  200MPD1    N1 3050   1.056   2.714  14.723  0.4209 -0.5034 -0.7807
  200MPD1    H6 3051   0.980   2.740  14.785  1.0240 -2.4956  0.7958
  200MPD1    H7 3052   1.055   2.613  14.707 -0.6853 -0.5915 -0.0808
  201MPD1     C 3053   3.029   1.645  12.953  0.1746 -0.7461 -0.5073
  201MPD1    C1 3054   3.031   1.510  12.936 -0.6101  0.3645 -0.0022
  201MPD1    C2 3055   3.152   1.448  12.961 -0.5251  0.1651  0.5153
  201MPD1    C3 3056   3.257   1.514  13.025  0.0277 -0.5113 -0.1482
  201MPD1    C4 3057   3.249   1.650  13.058 -0.0683  0.2452 -0.0583
  201MPD1    C5 3058   3.131   1.715  13.023  0.2332  0.1370  0.0709
  201MPD1     H 3059   3.171   1.347  12.927  1.2572  0.5330  0.4227
  201MPD1    H1 3060   3.329   1.702  13.107 -0.3152 -0.4949  1.1233
  201MPD1    H2 3061   2.940   1.700  12.924 -1.2421 -1.7364  1.9633
  201MPD1    H3 3062   3.119   1.821  13.043  2.5720  0.4378 -0.0694
  201MPD1     N 3063   3.375   1.433  13.042 -0.3475  0.3165  0.0448
  201MPD1    H5 3064   3.365   1.335  13.021 -1.9874  0.3720  0.5779
  201MPD1    N1 3065   2.931   1.444  12.867  0.0174  0.6318  0.0891
  201MPD1    H6 3066   2.925   1.342  12.867 -0.5943  0.6721 -0.2103
  201MPD1    H7 3067   2.841   1.481  12.894 -0.6056 -1.3166  0.6603
  202MPD1     C 3068   3.996   1.963   9.658 -0.7089 -0.5758  1.0946
  202MPD1    C1 3069   3.862   1.952   9.694  0.5546  0.4853 -0.2176
  202MPD1    C2 3070   3.832   1.828   9.745 -0.4215  0.6087 -0.5675
  202MPD1    C3 3071   3.914   1.720   9.744  0.0123 -0.3692 -0.2668
  202MPD1    C4 3072   4.043   1.737   9.703  0.1978  0.0279 -0.6593
  202MPD1    C5 3073   4.079   1.855   9.646 -0.7248  0.4634 -0.7326
  202MPD1     H 3074   3.743   1.818   9.806  0.3176  1.8493  0.7163
  202MPD1    H1 3075   4.120   1.662   9.715 -0.7837 -0.9445 -0.4817
  202MPD1    H2 3076   4.047   2.054   9.628 -1.9789 -0.2489 -0.0577
  202MPD1    H3 3077   4.178   1.879   9.608  0.2298 -0.2309  1.3119
  202MPD1     N 3078   3.876   1.595   9.792  0.3758  0.2530  0.2199
  202MPD1    H5 3079   3.947   1.523   9.795 -1.9687 -2.1468 -2.0885
  202MPD1    N1 3080   3.794   2.065   9.742 -0.2734  0.2394  0.1159
  202MPD1    H6 3081   3.815   2.153   9.696 -2.8784 -1.0398 -3.4770
  202MPD1    H7 3082   3.693   2.057   9.743 -0.2146 -0.5916 -0.6115
  203MPD1     C 3083   2.295   2.257  12.352  0.0028 -0.1546 -0.1916
  203MPD1    C1 3084   2.195   2.201  12.420  0.0030 -0.0544 -0.2027
  203MPD1    C2 3085   2.174   2.064  12.396 -0.3669  0.3693  0.7002
  203MPD1    C3 3086   2.248   1.996  12.301 -0.2621 -0.1817  0.0253
  203MPD1    C4 3087   2.334   2.067  12.221  0.5909 -0.2330  0.0490
  203MPD1    C5 3088   2.362   2.199  12.250 -0.6745  0.6306  0.0837
  203MPD1     H 3089   2.096   2.008  12.446  0.5167 -2.1077 -0.6729
  203MPD1    H1 3090   2.395   2.026  12.141 -1.4961  0.7696 -2.0558
  203MPD1    H2 3091   2.314   2.364  12.360 -1.0624  0.0566 -0.4971
  203MPD1    H3 3092   2.436   2.253  12.192  0.5151 -0.4872  0.5729
  203MPD1     N 3093   2.231   1.855  12.287 -0.2534  0.4039 -0.5339
  203MPD1    H5 3094   2.179   1.802  12.356 -0.5679  0.3843 -0.7903
  203MPD1    N1 3095   2.115   2.276  12.500  0.3548 -0.2516 -0.2695
  203MPD1    H6 3096   2.017   2.268  12.472  0.3876 -0.4906 -0.3136
  203MPD1    H7 3097   2.141   2.374  12.500  2.8553 -0.9040 -0.1467
  204MPD1     C 3098   1.572   3.429  17.687  0.6772  0.0468  0.3984
  204MPD1    C1 3099   1.642   3.444  17.570  0.3439 -0.6696  0.4254
  204MPD1    C2 3100   1.717   3.344  17.527  0.5555 -0.0428 -0.6203
  204MPD1    C3 3101   1.734   3.229  17.601  0.0210  0.2054  0.5025
  204MPD1    C4 3102   1.687   3.223   0.032  0.5050  0.1645  0.5859
  204MPD1    C5 3103   1.599   3.323   0.075  0.1197 -0.0068 -0.5743
  204MPD1     H 3104   1.754   3.343  17.425  1.6735 -2.8829 -0.1848
  204MPD1    H1 3105   1.704   3.132   0.089  1.9800  0.6876  0.9684
  204MPD1    H2 3106   1.498   3.505   0.008  0.6045  0.1992 -0.4588
  204MPD1    H3 3107   1.544   3.312   0.168  1.7014  0.5645  0.4316
  204MPD1     N 3108   1.816   3.130  17.541 -0.0255  0.4188 -0.3214
  204MPD1    H5 3109   1.853   3.147  17.448  2.1275 -1.1140  0.2483
  204MPD1    N1 3110   1.608   3.551  17.489  0.5263 -0.1372  0.4917
  204MPD1    H6 3111   1.671   3.566  17.410  0.8361 -0.0671  0.7517
  204MPD1    H7 3112   1.592   3.635  17.544  2.1550  1.0668 -0.8627
  205MPD1     C 3113   1.798   1.438  16.754 -0.3509 -0.1376 -0.3677
  205MPD1    C1 3114   1.743   1.554  16.812 -0.3224  0.0209  0.1714
  205MPD1    C2 3115   1.810   1.617  16.918  1.2882 -0.1453 -0.2969
  205MPD1    C3 3116   1.924   1.566  16.970  0.4981 -0.7498 -0.4151
  205MPD1    C4 3117   1.973   1.447  16.920 -0.2081 -0.2154  0.0247
  205MPD1    C5 3118   1.907   1.384  16.816  0.6942 -0.4675  0.2074
  205MPD1     H 3119   1.773   1.713  16.954 -1.3295 -1.9610  1.9006
  205MPD1    H1 3120   2.060   1.397  16.960  1.2240  1.7438 -0.6243
  205MPD1    H2 3121   1.751   1.379  16.676 -1.5783  1.4637 -0.8367
  205MPD1    H3 3122   1.942   1.287  16.782 -0.7986  0.2227 -3.3767
  205MPD1     N 3123   1.985   1.618  17.088  0.1996  0.0681 -0.4416
  205MPD1    H5 3124   2.057   1.561  17.130 -0.3727  0.4600  1.0517
  205MPD1    N1 3125   1.637   1.624  16.745 -0.2785  0.3972  0.0681
  205MPD1    H6 3126   1.592   1.699  16.796 -0.3436  0.5560 -0.2215
  205MPD1    H7 3127   1.576   1.549  16.715 -0.5034  1.4623 -2.1656
  206MPD1     C 3128   1.915   0.024  16.829 -0.3300 -0.0720 -0.5186
  206MPD1    C1 3129   1.887   0.153  16.784 -0.4307 -0.7537  0.5586
  206MPD1    C2 3130   1.873   0.166  16.647 -0.7064  0.5615  0.0541
  206MPD1    C3 3131   1.874   0.056  16.559  0.0502  0.3385  0.1915
  206MPD1    C4 3132   1.918   4.662  16.615  0.4272  0.4396  0.0006
  206MPD1    C5 3133   1.928   4.644  16.748 -0.2834 -0.4588 -0.4378
  206MPD1     H 3134   1.855   0.264  16.604  1.5282 -0.0982 -2.3491
  206MPD1    H1 3135   1.925   4.576  16.550 -0.2775 -0.9383  1.7501
  206MPD1    H2 3136   1.930   0.003  16.934 -0.5417  0.0574 -0.4640
  206MPD1    H3 3137   1.957   4.553  16.799 -1.1089 -0.1557  0.5668
  206MPD1     N 3138   1.854   0.064  16.421  0.3863 -0.5018  0.0604
  206MPD1    H5 3139   1.890   4.710  16.368 -0.4572 -1.5702  1.0697
  206MPD1    N1 3140   1.897   0.263  16.874  0.3225  0.3347 -0.2023
  206MPD1    H6 3141   1.863   0.233  16.965  1.5894 -0.6736 -0.0663
  206MPD1    H7 3142   1.833   0.337  16.847  1.0796  0.6737 -1.0751
  207MPD1     C 3143   0.238   2.117   9.872  0.7323 -0.0999  0.0914
  207MPD1    C1 3144   0.147   2.085   9.976 -0.2526  0.2675  0.1425
  207MPD1    C2 3145   0.189   2.103  10.106 -0.0196  0.2242 -0.2734
  207MPD1    C3 3146   0.318   2.152  10.137 -0.5633 -0.1666 -0.5811
  207MPD1    C4 3147   0.393   2.192  10.026 -0.9398  0.2677  0.2895
  207MPD1    C5 3148   0.357   2.181   9.896  0.5595  0.5658 -0.2063
  207MPD1     H 3149   0.124   2.058  10.181 -0.3005 -0.4479 -0.9198
  207MPD1    H1 3150   0.485   2.248  10.042  0.2367 -1.3290 -0.8905
  207MPD1    H2 3151   0.199   2.112   9.771 -0.2819  1.9761  0.3752
  207MPD1    H3 3152   0.426   2.215   9.819  2.0078 -0.3340  0.6922
  207MPD1     N 3153   0.365   2.163  10.271  0.4631 -0.0223  0.4870
  207MPD1    H5 3154   0.455   2.207  10.287  0.4320  0.8515 -1.6011
  207MPD1    N1 3155   0.031   2.016   9.949 -0.3152  0.4107  0.7303
  207MPD1    H6 3156   4.712   2.053   9.864  2.3577  2.0505  0.0754
  207MPD1    H7 3157   4.686   2.013  10.023 -0.5128 -0.8293  0.4934
  208MPD1     C 3158   3.755   1.760   0.475 -0.4380 -0.2759  0.2713
  208MPD1    C1 3159   3.687   1.719   0.590 -0.4931  0.0468  0.3526
  208MPD1    C2 3160   3.553   1.692   0.574 -0.0132 -0.7630 -0.1646
  208MPD1    C3 3161   3.480   1.707   0.455  0.2700  0.2601 -0.1795
  208MPD1    C4 3162   3.551   1.750   0.345 -0.5747 -0.6214  0.3663
  208MPD1    C5 3163   3.684   1.784   0.357 -0.1401 -0.5245 -0.4340
  208MPD1     H 3164   3.498   1.653   0.659  4.2954  2.6954  4.2262
  208MPD1    H1 3165   3.505   1.773   0.250  0.0253 -0.2756  0.1597
  208MPD1    H2 3166   3.862   1.775   0.481 -0.7431  1.1928  1.9763
  208MPD1    H3 3167   3.746   1.801   0.270 -2.6280  2.8398 -1.5486
  208MPD1     N 3168   3.342   1.688   0.456 -0.0120  0.0694  0.1632
  208MPD1    H5 3169   3.294   1.672   0.544 -0.3990  1.2826  0.1682
  208MPD1    N1 3170   3.748   1.725   0.715  1.0063 -0.0997 -0.9419
  208MPD1    H6 3171   3.847   1.704   0.719  0.4368 -2.5602  0.2413
  208MPD1    H7 3172   3.699   1.661   0.777  1.4953  0.0174 -0.4432
  209MPD1     C 3173   0.143   1.316  12.136  0.6482 -0.7488  0.3012
  209MPD1    C1 3174   0.117   1.437  12.195 -0.0381  0.0058  0.3977
  209MPD1    C2 3175   0.137   1.550  12.112  0.3414 -0.4663 -0.0381
  209MPD1    C3 3176   0.154   1.532  11.978  0.1686 -0.2988  0.0547
  209MPD1    C4 3177   0.156   1.412  11.922 -0.5291  0.4669  1.0022
  209MPD1    C5 3178   0.163   1.303  12.000 -1.0350 -0.3029 -0.3367
  209MPD1     H 3179   0.128   1.654  12.142  2.2448  0.4836 -2.7700
  209MPD1    H1 3180   0.167   1.392  11.816 -0.1623  3.1307  0.5395
  209MPD1    H2 3181   0.150   1.230  12.202  2.4883 -1.5361 -0.9264
  209MPD1    H3 3182   0.148   1.201  11.965  0.2221 -0.2397 -1.0298
  209MPD1     N 3183   0.174   1.654  11.912 -0.4429  0.5122 -0.2527
  209MPD1    H5 3184   0.197   1.735  11.969  1.5649  1.9341 -3.0647
  209MPD1    N1 3185   0.098   1.451  12.333 -0.1099 -0.4012 -0.6628
  209MPD1    H6 3186   0.044   1.532  12.360 -0.2189 -1.0410  1.0295
  209MPD1    H7 3187   0.044   1.373  12.369 -0.1088 -0.6629 -1.2128
  210MPD1     C 3188   0.956   2.161  11.811  0.0317 -0.4407 -0.4807
  210MPD1    C1 3189   0.848   2.193  11.893  0.3174 -0.4248  0.5305
  210MPD1    C2 3190   0.724   2.142  11.860  0.2042 -0.0869 -0.0203
  210MPD1    C3 3191   0.709   2.070  11.745 -0.5875 -0.2178  0.0387
  210MPD1    C4 3192   0.810   2.042  11.665  0.9965  0.0003 -0.1453
  210MPD1    C5 3193   0.934   2.090  11.701 -0.2134 -0.0136 -0.4919
  210MPD1     H 3194   0.649   2.156  11.937 -1.5269 -0.0354 -1.7198
  210MPD1    H1 3195   0.794   1.993  11.569 -1.1110  1.3141 -0.4492
  210MPD1    H2 3196   1.060   2.179  11.836  0.1842 -1.6723 -0.2228
  210MPD1    H3 3197   1.019   2.077  11.634 -0.0236  0.7135 -0.3974
  210MPD1     N 3198   0.580   2.023  11.715  0.3388 -0.0623 -0.0351
  210MPD1    H5 3199   0.573   1.965  11.633  0.5492  0.7633 -0.6301
  210MPD1    N1 3200   0.866   2.247  12.017  0.0622 -0.8271 -0.2352
  210MPD1    H6 3201   0.785   2.301  12.047  0.3075  0.3537 -1.6430
  210MPD1    H7 3202   0.952   2.302  12.017  0.7602 -1.9114 -1.7376
  211MPD1     C 3203   2.757   1.787  17.137  0.7259 -0.5552 -0.2955
  211MPD1    C1 3204   2.761   1.929  17.131  0.7074 -0.1897  0.1032
  211MPD1    C2 3205   2.677   1.994  17.044 -0.0422 -0.0741  0.0092
  211MPD1    C3 3206   2.589   1.926  16.959  0.7202 -0.1800 -0.2798
  211MPD1    C4 3207   2.587   1.785  16.972  0.2554 -0.0105  0.0680
  211MPD1    C5 3208   2.678   1.720  17.052  0.1265  0.0332 -0.0653
  211MPD1     H 3209   2.689   2.101  17.039  1.3330 -0.1797  0.8462
  211MPD1    H1 3210   2.510   1.724  16.925 -0.7858  1.0829  0.3686
  211MPD1    H2 3211   2.829   1.731  17.196  0.7382 -0.0068  0.2181
  211MPD1    H3 3212   2.676   1.613  17.071  0.1788  0.1808  0.7671
  211MPD1     N 3213   2.510   2.000  16.863  0.6174 -0.3383  0.4678
  211MPD1    H5 3214   2.499   2.099  16.880 -0.4296 -0.2543 -0.7093
  211MPD1    N1 3215   2.833   2.003  17.224 -0.0726 -0.0205  0.3527
  211MPD1    H6 3216   2.924   1.958  17.222  0.8986  1.8990  1.4133
  211MPD1    H7 3217   2.842   2.102  17.201 -1.6260 -0.6242 -2.9152
  212MPD1     C 3218   1.259   0.589  16.397 -0.1938  0.2560  0.1511
  212MPD1    C1 3219   1.305   0.466  16.348 -0.1155 -0.3932  0.0140
  212MPD1    C2 3220   1.280   0.351  16.423 -0.9490 -0.0006 -0.2510
  212MPD1    C3 3221   1.191   0.357  16.530 -0.0335  0.0594 -0.5615
  212MPD1    C4 3222   1.137   0.477  16.566 -0.6370 -0.1137 -0.4986
  212MPD1    C5 3223   1.181   0.591  16.508  0.2607  0.4292 -0.1366
  212MPD1     H 3224   1.322   0.258  16.386 -3.8936 -1.5672  0.3122
  212MPD1    H1 3225   1.062   0.493  16.643 -0.7176 -0.4529 -0.5068
  212MPD1    H2 3226   1.291   0.681  16.350  1.2618 -0.5755 -0.4855
  212MPD1    H3 3227   1.152   0.686  16.551  0.6329  0.3468  0.3076
  212MPD1     N 3228   1.147   0.244  16.606 -0.1965 -0.2619 -0.4912
  212MPD1    H5 3229   1.079   0.263  16.679  0.0354 -0.1161 -0.3147
  212MPD1    N1 3230   1.410   0.459  16.247  0.4978  0.3463 -0.2627
  212MPD1    H6 3231   1.415   0.374  16.192  0.3906 -0.7160  1.4041
  212MPD1    H7 3232   1.408   0.536  16.180 -1.7302  0.4165 -0.1191
  213MPD1     C 3233   4.418   0.652  15.707  0.1509 -1.0893 -0.5007
  213MPD1    C1 3234   4.553   0.675  15.683 -0.3054  0.8075 -0.7876
  213MPD1    C2 3235   4.577   0.785  15.602  0.6968 -0.1257 -0.2394
  213MPD1    C3 3236   4.481   0.842  15.522  0.0203 -0.3608  0.4713
  213MPD1    C4 3237   4.348   0.813  15.542 -0.7552 -0.2254  0.1501
  213MPD1    C5 3238   4.326   0.711  15.630 -0.8665 -0.7841 -0.3485
  213MPD1     H 3239   4.683   0.807  15.596  1.0203 -0.7580  2.9463
  213MPD1    H1 3240   4.260   0.847  15.489  0.3920  2.3442 -0.1018
  213MPD1    H2 3241   4.384   0.588  15.788 -1.0908  0.4216  0.1820
  213MPD1    H3 3242   4.222   0.684  15.639 -0.8830 -0.6556 -0.1551
  213MPD1     N 3243   4.517   0.928  15.416  0.7881  0.3264 -0.0033
  213MPD1    H5 3244   4.614   0.951  15.396  1.8618 -4.4711 -0.2321
  213MPD1    N1 3245   4.641   0.640  15.784 -0.1954  0.0381  0.3734
  213MPD1    H6 3246   0.018   0.640  15.769 -0.2420 -2.1599  0.0807
  213MPD1    H7 3247   4.623   0.544  15.811  1.6569 -0.4824 -0.2569
  214MPD1     C 3248   4.349   0.639  14.537  0.5869 -0.4041 -0.6095
  214MPD1    C1 3249   4.449   0.737  14.522 -0.1935 -0.6265 -0.5883
  214MPD1    C2 3250   4.445   0.828  14.630 -0.2930 -0.5174  0.8289
  214MPD1    C3 3251   4.366   0.822  14.740  0.3114 -0.0030 -0.1462
  214MPD1    C4 3252   4.284   0.706  14.755 -0.4786 -0.9184 -0.1586
  214MPD1    C5 3253   4.284   0.614  14.654  0.3756 -0.9089  0.7563
  214MPD1     H 3254   4.497   0.923  14.615 -0.0288 -0.6416  0.9575
  214MPD1    H1 3255   4.215   0.695  14.838 -1.5454  2.3125 -0.6209
  214MPD1    H2 3256   4.332   0.567  14.457  0.4753 -0.3552 -0.6299
  214MPD1    H3 3257   4.219   0.528  14.664 -0.3378 -0.8523 -3.2453
  214MPD1     N 3258   4.365   0.912  14.848  0.2604  0.0047 -0.2950
  214MPD1    H5 3259   4.306   0.877  14.923 -1.1868  0.0638 -1.4075
  214MPD1    N1 3260   4.514   0.753  14.396 -0.7907  0.1431  0.0149
  214MPD1    H6 3261   4.548   0.659  14.377 -1.3339 -0.0173 -0.1750
  214MPD1    H7 3262   4.596   0.808  14.419 -0.3682 -0.0988 -0.9175
  215MPD1     C 3263   4.370   1.480  10.609  0.4511  0.0176 -0.0073
  215MPD1    C1 3264   4.465   1.576  10.575 -0.0828  0.0693 -0.4190
  215MPD1    C2 3265   4.496   1.673  10.665 -0.3191 -0.6086 -0.6896
  215MPD1    C3 3266   4.452   1.659  10.803  0.6484  0.3288 -0.9606
  215MPD1    C4 3267   4.364   1.563  10.833  0.5327 -0.2674  0.3954
  215MPD1    C5 3268   4.318   1.483  10.734  0.5098 -0.4495  0.0817
  215MPD1     H 3269   4.569   1.748  10.640 -0.5326 -1.1424 -2.8631
  215MPD1    H1 3270   4.322   1.552  10.933 -0.3469  0.8454  0.1413
  215MPD1    H2 3271   4.342   1.401  10.539  2.3986 -2.0573  1.5535
  215MPD1    H3 3272   4.244   1.404  10.748  0.9066 -0.9119 -0.4111
  215MPD1     N 3273   4.508   1.748  10.898 -0.1448 -0.0163 -0.5888
  215MPD1    H5 3274   4.563   1.827  10.867  1.2535 -1.0132 -0.6587
  215MPD1    N1 3275   4.499   1.591  10.438  0.5315 -0.1000  0.3895
  215MPD1    H6 3276   4.523   1.507  10.385 -1.5198  0.5367 -1.5514
  215MPD1    H7 3277   4.571   1.660  10.418  0.2567 -0.0238 -0.3727
  216MPD1     C 3278   0.565   4.286   1.068  1.0052  0.1254  0.2896
  216MPD1    C1 3279   0.569   4.149   1.037  0.1154  0.7416  0.3706
  216MPD1    C2 3280   0.685   4.076   1.006 -0.3709 -0.1700 -0.4885
  216MPD1    C3 3281   0.798   4.148   0.993 -0.2853  0.3877 -1.0515
  216MPD1    C4 3282   0.803   4.283   1.034  0.8799 -0.1732 -0.9939
  216MPD1    C5 3283   0.691   4.344   1.076  0.6456  0.1356  0.8089
  216MPD1     H 3284   0.692   3.968   0.996  1.0234  0.0045 -1.4032
  216MPD1    H1 3285   0.885   4.353   1.033 -0.8080  1.8128 -0.2631
  216MPD1    H2 3286   0.474   4.339   1.093  1.1274  0.4166  0.1051
  216MPD1    H3 3287   0.696   4.448   1.106 -0.8441  0.4233  0.0642
  216MPD1     N 3288   0.910   4.076   0.955  1.0029 -0.7874  0.4336
  216MPD1    H5 3289   0.887   3.991   0.905  1.4979  0.3645 -1.7312
  216MPD1    N1 3290   0.449   4.080   1.053 -0.1488  0.0044 -0.3037
  216MPD1    H6 3291   0.375   4.140   1.016 -0.0189  2.1001  2.8873
  216MPD1    H7 3292   0.454   3.991   1.003 -0.4528 -0.2149  0.0581
  217MPD1     C 3293   1.169   0.010   8.588 -0.0790  0.1845 -0.0355
  217MPD1    C1 3294   1.282   0.031   8.516 -0.0497  0.0333 -0.0404
  217MPD1    C2 3295   1.357   0.142   8.546  0.3203  0.2008 -0.1211
  217MPD1    C3 3296   1.331   0.230   8.651  0.6703  0.2015 -0.2543
  217MPD1    C4 3297   1.213   0.209   8.720  0.3083 -0.4174  0.0648
  217MPD1    C5 3298   1.135   0.099   8.687 -0.3160  0.0048 -0.1608
  217MPD1     H 3299   1.429   0.174   8.472 -0.6627  0.3064 -1.0283
  217MPD1    H1 3300   1.181   0.282   8.794 -0.3210  3.0186 -3.5817
  217MPD1    H2 3301   1.103   4.653   8.562  1.7608 -1.0226 -0.9381
  217MPD1    H3 3302   1.037   0.095   8.734 -0.5908 -2.2544 -0.9305
  217MPD1     N 3303   1.415   0.347   8.649 -0.9153 -0.1927  0.0250
  217MPD1    H5 3304   1.496   0.333   8.590 -0.7570  1.1541 -0.0841
  217MPD1    N1 3305   1.296   4.691   8.390 -0.1357  0.5325  0.4930
  217MPD1    H6 3306   1.256   4.597   8.382 -0.9082  0.8813  0.2771
  217MPD1    H7 3307   1.394   4.687   8.364 -0.0197  0.3649  0.9492
  218MPD1     C 3308   3.956   2.727  12.945  0.4728 -0.3309  0.4277
  218MPD1    C1 3309   4.009   2.686  12.824 -0.0272 -0.4619  0.5194
  218MPD1    C2 3310   4.015   2.551  12.801 -0.6110 -0.1291  0.1021
  218MPD1    C3 3311   3.968   2.458  12.895  0.5926 -1.0766 -0.0710
  218MPD1    C4 3312   3.913   2.498  13.013  0.0925  0.1727  0.1358
  218MPD1    C5 3313   3.917   2.636  13.042  0.3630  0.0903 -0.3049
  218MPD1     H 3314   4.054   2.521  12.704 -1.5869 -3.0520  0.6089
  218MPD1    H1 3315   3.875   2.428  13.086 -0.9665  1.9531  1.3090
  218MPD1    H2 3316   3.958   2.834  12.962  0.2414 -0.4726  1.3324
  218MPD1    H3 3317   3.894   2.671  13.142 -0.7506 -0.5969 -0.3210
  218MPD1     N 3318   3.959   2.327  12.842 -0.4157  0.4468 -0.3859
  218MPD1    H5 3319   4.002   2.322  12.750 -1.1684 -1.4389 -0.6236
  218MPD1    N1 3320   4.035   2.773  12.719 -0.8040  0.0243 -0.0464
  218MPD1    H6 3321   4.095   2.727  12.651 -0.4470  0.6852 -0.1858
  218MPD1    H7 3322   4.088   2.848  12.762 -1.9114  0.5115  0.4691
  219MPD1     C 3323   3.906   1.928  11.969  0.2986 -0.2918 -0.0942
  219MPD1    C1 3324   3.959   2.031  12.037 -0.0444 -0.1120  0.2209
  219MPD1    C2 3325   3.984   2.032  12.174 -0.4129  0.7167  0.3192
  219MPD1    C3 3326   3.944   1.920  12.246 -0.8052  0.5041 -0.2102
  219MPD1    C4 3327   3.882   1.815  12.181 -0.7989 -0.4817 -0.3244
  219MPD1    C5 3328   3.858   1.821  12.047 -0.0787 -0.2034  0.5543
  219MPD1     H 3329   4.016   2.117  12.234  1.1834 -0.4297  1.0981
  219MPD1    H1 3330   3.857   1.728  12.241 -0.4468  0.5315  1.3037
  219MPD1    H2 3331   3.884   1.923  11.862  0.7961  0.6533 -0.2352
  219MPD1    H3 3332   3.812   1.741  11.990  0.3070  2.1263 -3.0593
  219MPD1     N 3333   3.954   1.916  12.387  0.2222 -0.6616 -0.7362
  219MPD1    H5 3334   3.906   1.845  12.441 -0.6488  0.5925  0.1644
  219MPD1    N1 3335   3.980   2.152  11.966  0.3233 -0.0780 -0.6226
  219MPD1    H6 3336   4.049   2.210  12.013  0.2410 -0.9310  0.5507
  219MPD1    H7 3337   4.011   2.134  11.871  1.7747  0.5003 -0.2597
  220MPD1     C 3338   0.574   2.730   9.724 -0.1394 -0.1131 -0.9371
  220MPD1    C1 3339   0.626   2.684   9.846  0.4130 -0.3548  0.1039
  220MPD1    C2 3340   0.535   2.633   9.933 -1.0630  0.1819  0.5083
  220MPD1    C3 3341   0.398   2.639   9.914 -0.2360  1.0437  0.4456
  220MPD1    C4 3342   0.353   2.695   9.801 -0.4930  0.4746  0.0579
  220MPD1    C5 3343   0.441   2.737   9.709  0.0301 -0.1042 -0.7873
  220MPD1     H 3344   0.573   2.576  10.017 -0.3151  3.4950  2.4334
  220MPD1    H1 3345   0.251   2.706   9.766 -0.3150  0.8871 -0.3160
  220MPD1    H2 3346   0.629   2.763   9.637 -0.0234 -0.5270 -1.0197
  220MPD1    H3 3347   0.397   2.775   9.617 -1.9698 -0.0084  0.2170
  220MPD1     N 3348   0.317   2.570  10.005  0.3989  0.2880  0.4373
  220MPD1    H5 3349   0.364   2.531  10.086 -0.5318 -1.4155  0.1685
  220MPD1    N1 3350   0.768   2.688   9.865  0.0371 -0.0865 -1.2811
  220MPD1    H6 3351   0.793   2.606   9.920 -1.7969  0.4570  0.3674
  220MPD1    H7 3352   0.827   2.690   9.782  1.6510 -1.8579 -0.1567
  221MPD1     C 3353   1.290   1.564  16.760  0.4312  0.3339 -0.2253
  221MPD1    C1 3354   1.349   1.503  16.652 -0.0588  0.0256 -0.0170
  221MPD1    C2 3355   1.430   1.388  16.678 -0.1916 -0.1100  0.5068
  221MPD1    C3 3356   1.454   1.344  16.806  0.0424  0.1552  0.8597
  221MPD1    C4 3357   1.410   1.431  16.909 -0.5766 -0.2191  0.1363
  221MPD1    C5 3358   1.321   1.529  16.889 -0.5367 -0.3668 -0.0054
  221MPD1     H 3359   1.476   1.333  16.596 -1.7621 -0.5785 -0.0526
  221MPD1    H1 3360   1.432   1.398  17.010  3.1895  0.5885 -0.3910
  221MPD1    H2 3361   1.220   1.645  16.745 -0.9021 -0.6767  0.5414
  221MPD1    H3 3362   1.284   1.580  16.977  1.2558 -1.9199  1.6331
  221MPD1     N 3363   1.537   1.235  16.841  0.8508  0.1896 -0.3325
  221MPD1    H5 3364   1.558   1.223  16.939  0.5241  4.3055  0.2259
  221MPD1    N1 3365   1.351   1.559  16.523 -0.6858  0.1230 -0.6615
  221MPD1    H6 3366   1.376   1.484  16.460  0.6581 -0.8882  1.0803
  221MPD1    H7 3367   1.266   1.606  16.494 -0.7267  0.7422  0.4380
  222MPD1     C 3368   1.771   4.381  17.124  0.0903 -0.4542  0.1082
  222MPD1    C1 3369   1.656   4.407  17.060  0.7625  0.5744  0.0002
  222MPD1    C2 3370   1.616   4.536  17.045 -0.0574 -0.1020 -0.1074
  222MPD1    C3 3371   1.684   4.641  17.100 -0.5230 -0.8086 -0.9116
  222MPD1    C4 3372   1.799   4.612  17.169  0.0335 -0.1350 -0.3025
  222MPD1    C5 3373   1.843   4.484  17.178  0.0557 -0.6444 -0.9493
  222MPD1     H 3374   1.522   4.542  16.991 -0.6238 -1.1121  0.7630
  222MPD1    H1 3375   1.868   4.681  17.216  1.6585  0.5954 -3.7126
  222MPD1    H2 3376   1.802   4.278  17.136  3.3502  0.3777 -1.1992
  222MPD1    H3 3377   1.931   4.466  17.238  0.1712  1.2920 -0.5363
  222MPD1     N 3378   1.635   0.050  17.099 -0.4275 -0.2933  0.1381
  222MPD1    H5 3379   1.686   0.117  17.155  0.7526 -0.9807 -0.0928
  222MPD1    N1 3380   1.583   4.305  16.999  0.2415 -0.1667  0.5862
  222MPD1    H6 3381   1.484   4.328  16.997 -0.2678 -2.6138 -1.7952
  222MPD1    H7 3382   1.593   4.220  17.053 -0.6535  0.2967  1.4947
  223MPD1     C 3383   0.862   0.807  16.967  0.2022  0.6245  0.7091
  223MPD1    C1 3384   0.960   0.862  17.048 -0.0710  0.3567  0.3730
  223MPD1    C2 3385   1.072   0.781  17.082 -0.3389 -1.0202 -0.3196
  223MPD1    C3 3386   1.087   0.658  17.017  0.0912  0.3272  0.2115
  223MPD1    C4 3387   1.002   0.616  16.920  0.1269  1.2871 -0.6294
  223MPD1    C5 3388   0.882   0.680  16.913 -0.6837  0.3410 -0.1238
  223MPD1     H 3389   1.152   0.804  17.152 -1.1299 -0.3430  0.3558
  223MPD1    H1 3390   1.007   0.520  16.869  0.1650 -0.2251  2.1806
  223MPD1    H2 3391   0.763   0.849  16.973  0.3030  0.6957  1.9348
  223MPD1    H3 3392   0.801   0.630  16.862 -0.4892  1.7617 -1.8336
  223MPD1     N 3393   1.196   0.580  17.057 -0.3414  0.0391  0.2199
  223MPD1    H5 3394   1.259   0.609  17.131  0.1222  0.9735 -0.5440
  223MPD1    N1 3395   0.932   0.980  17.120  0.4506  0.0898  0.3887
  223MPD1    H6 3396   1.013   1.040  17.131  0.2372  0.6700 -1.1976
  223MPD1    H7 3397   0.857   1.029  17.071  0.3611 -0.3196  0.1133
  224MPD1     C 3398   1.602   0.924   8.483  0.0235 -0.6980 -0.7167
  224MPD1    C1 3399   1.538   1.014   8.572 -0.3120 -0.7340 -0.0805
  224MPD1    C2 3400   1.619   1.093   8.649 -0.2665  0.2369 -0.6433
  224MPD1    C3 3401   1.757   1.087   8.657 -0.0841 -0.2718  0.4860
  224MPD1    C4 3402   1.821   1.002   8.572  0.6103 -0.6933  0.1039
  224MPD1    C5 3403   1.739   0.924   8.490  0.0035 -0.2642 -0.1239
  224MPD1     H 3404   1.568   1.163   8.714  1.8700  0.8309  0.3848
  224MPD1    H1 3405   1.928   0.990   8.561  0.4153 -1.6108 -0.7142
  224MPD1    H2 3406   1.551   0.857   8.415  0.4475 -0.5030 -1.2207
  224MPD1    H3 3407   1.789   0.848   8.431  0.1475 -0.4646  0.2559
  224MPD1     N 3408   1.831   1.164   8.752 -0.2458 -0.4690 -0.0662
  224MPD1    H5 3409   1.932   1.155   8.757 -0.1783  0.1776 -0.2555
  224MPD1    N1 3410   1.401   1.029   8.561 -0.4094 -0.5676 -0.2756
  224MPD1    H6 3411   1.364   1.073   8.646  1.2926  1.3874 -0.5487
  224MPD1    H7 3412   1.353   0.943   8.538 -0.7030 -0.3763 -0.3710
  225MPD1     C 3413   4.534   2.827  12.052 -0.4012  0.4862 -0.3261
  225MPD1    C1 3414   4.467   2.832  11.935  0.4360  0.4729 -0.5988
  225MPD1    C2 3415   4.331   2.859  11.939  0.0804  0.2713  0.0242
  225MPD1    C3 3416   4.263   2.848  12.056  0.5367  0.3545 -0.3737
  225MPD1    C4 3417   4.330   2.809  12.172 -0.3773  0.4390 -0.5522
  225MPD1    C5 3418   4.466   2.806  12.172  0.0801 -0.0700  0.1564
  225MPD1     H 3419   4.277   2.875  11.846 -0.0605  2.0714  0.3978
  225MPD1    H1 3420   4.274   2.816  12.264 -0.7842 -1.3222 -0.6812
  225MPD1    H2 3421   4.642   2.814  12.057 -0.5105 -0.0822  0.6172
  225MPD1    H3 3422   4.527   2.778  12.258 -1.5546  2.4211  2.1317
  225MPD1     N 3423   4.117   2.867  12.067 -0.0289 -0.7380  0.6459
  225MPD1    H5 3424   4.079   2.860  12.161  0.4259 -0.1194  0.8787
  225MPD1    N1 3425   4.539   2.847  11.816  0.6860 -0.3129  0.0072
  225MPD1    H6 3426   4.638   2.827  11.810  0.6005 -0.7742  0.1881
  225MPD1    H7 3427   4.498   2.789  11.743  1.2982 -0.7479  0.0130
  226MPD1     C 3428   3.349   2.972   9.077  0.4071  0.5569  0.5213
  226MPD1    C1 3429   3.385   2.853   9.133  0.0711 -0.5026 -0.5400
  226MPD1    C2 3430   3.281   2.769   9.166  0.3416  0.3380 -0.0715
  226MPD1    C3 3431   3.147   2.812   9.161 -0.7559 -0.3838 -0.2928
  226MPD1    C4 3432   3.119   2.940   9.122 -0.1098 -0.4844 -0.3950
  226MPD1    C5 3433   3.222   3.020   9.080  0.1610  0.2280  0.9026
  226MPD1     H 3434   3.299   2.671   9.208 -2.1257 -0.4047 -0.7322
  226MPD1    H1 3435   3.021   2.986   9.131  0.5868  0.8626  0.3655
  226MPD1    H2 3436   3.421   3.043   9.038 -0.4169  2.2208  2.0404
  226MPD1    H3 3437   3.202   3.121   9.046  1.8773  0.0807 -0.5023
  226MPD1     N 3438   3.050   2.717   9.196 -0.7275 -0.2918 -0.3035
  226MPD1    H5 3439   3.081   2.622   9.218 -2.2063 -0.3434  1.5760
  226MPD1    N1 3440   3.513   2.816   9.144 -0.3736  0.6095 -0.4725
  226MPD1    H6 3441   3.536   2.735   9.201 -1.8228  2.0051  2.1095
  226MPD1    H7 3442   3.567   2.892   9.186 -0.5064 -0.1491  1.0825
  227MPD1     C 3443   2.048   2.275   9.178  0.0861 -0.7909  0.0128
  227MPD1    C1 3444   2.114   2.239   9.296 -0.1750  0.4112  0.4380
  227MPD1    C2 3445   2.249   2.261   9.310  0.8169  0.5686  0.6578
  227MPD1    C3 3446   2.318   2.340   9.216 -0.0511  0.4977 -0.7827
  227MPD1    C4 3447   2.237   2.389   9.111 -0.8929  1.4970 -0.0439
  227MPD1    C5 3448   2.107   2.356   9.087  0.2926  0.2431 -0.1570
  227MPD1     H 3449   2.303   2.219   9.394  1.8585  0.2919 -0.1555
  227MPD1    H1 3450   2.274   2.447   9.027  1.1140  0.0609 -0.1684
  227MPD1    H2 3451   1.949   2.234   9.161 -1.0437  2.0051 -0.1083
  227MPD1    H3 3452   2.055   2.381   8.995  0.0638 -0.2255 -0.1548
  227MPD1     N 3453   2.456   2.359   9.226  0.2847  0.4918 -0.4526
  227MPD1    H5 3454   2.504   2.318   9.305 -1.4799 -3.5125 -1.4315
  227MPD1    N1 3455   2.042   2.145   9.373 -0.3900 -0.1629 -0.4765
  227MPD1    H6 3456   2.088   2.122   9.461  0.5658 -1.0606 -1.2131
  227MPD1    H7 3457   1.946   2.171   9.394 -0.2432  0.5710 -0.7131
  228MPD1     C 3458   1.209   0.367  12.553 -0.1168 -0.1467  0.8193
  228MPD1    C1 3459   1.100   0.432  12.489  0.5217  0.1502  0.0703
  228MPD1    C2 3460   0.981   0.423  12.557  1.4155  0.0726 -0.7682
  228MPD1    C3 3461   0.958   0.336  12.670  0.6532 -0.7970  0.1501
  228MPD1    C4 3462   1.067   0.259  12.709 -0.4114  0.2919 -0.5059
  228MPD1    C5 3463   1.190   0.282  12.653  0.1046  0.7556 -0.1507
  228MPD1     H 3464   0.898   0.480  12.518  0.4882 -0.2961  0.6474
  228MPD1    H1 3465   1.073   0.184  12.787 -2.6639  1.1905  0.5293
  228MPD1    H2 3466   1.306   0.363  12.504 -1.2753 -0.4680 -1.4691
  228MPD1    H3 3467   1.271   0.229  12.701  0.6614  0.5708 -1.2877
  228MPD1     N 3468   0.831   0.331  12.738 -0.7208 -0.1292  0.2224
  228MPD1    H5 3469   0.753   0.383  12.699  0.9410  0.7988 -1.8735
  228MPD1    N1 3470   1.119   0.510  12.372  0.3534  0.2602 -0.0200
  228MPD1    H6 3471   1.196   0.469  12.321 -0.9624 -1.3475 -0.7306
  228MPD1    H7 3472   1.039   0.520  12.310  0.9741 -2.4234 -1.2723
  229MPD1     C 3473   0.170   4.157  14.818  0.2826 -0.2151  0.2286
  229MPD1    C1 3474   0.239   4.086  14.720  0.4031  0.2538  0.3854
  229MPD1    C2 3475   0.298   3.970  14.755 -0.5247 -0.0181 -0.7671
  229MPD1    C3 3476   0.266   3.909  14.879  0.7561  0.1399 -0.2763
  229MPD1    C4 3477   0.195   3.979  14.969  0.6284  0.5676  0.0351
  229MPD1    C5 3478   0.154   4.105  14.936  0.9508 -0.1307 -0.4504
  229MPD1     H 3479   0.364   3.907  14.697 -0.7027  0.8437 -1.8975
  229MPD1    H1 3480   0.179   3.942  15.070 -1.2020  1.6944  0.1646
  229MPD1    H2 3481   0.135   4.256  14.792  0.1646  0.3118  2.3832
  229MPD1    H3 3482   0.115   4.171  15.012  3.0158 -0.2285  0.6858
  229MPD1     N 3483   0.330   3.795  14.929 -0.3932  0.1889 -0.4021
  229MPD1    H5 3484   0.311   3.774  15.026 -0.2344 -0.3826 -0.4943
  229MPD1    N1 3485   0.273   4.145  14.596  0.1986  0.5494  0.2191
  229MPD1    H6 3486   0.208   4.221  14.575 -0.6274 -0.3792 -0.6002
  229MPD1    H7 3487   0.293   4.089  14.514 -3.0409  0.7083 -0.6893
  230MPD1     C 3488   0.990   3.695  15.672  0.1593  0.6931  0.0325
  230MPD1    C1 3489   1.073   3.642  15.572  0.5207  0.0099  0.8526
  230MPD1    C2 3490   1.007   3.611  15.450 -0.5673 -0.3322  0.1738
  230MPD1    C3 3491   0.879   3.653  15.428  0.2831  0.3807 -0.0203
  230MPD1    C4 3492   0.808   3.711  15.524 -0.1382 -0.4802  0.0040
  230MPD1    C5 3493   0.860   3.730  15.649  0.2010  0.3653  0.0477
  230MPD1     H 3494   1.070   3.578  15.368 -0.6535  0.8958 -0.3775
  230MPD1    H1 3495   0.704   3.735  15.501 -0.1033 -1.8926 -1.6635
  230MPD1    H2 3496   1.028   3.701  15.773  0.2997  0.1406  0.0137
  230MPD1    H3 3497   0.805   3.780  15.728  0.7878  0.8157  0.1759
  230MPD1     N 3498   0.818   3.625  15.297  0.2680  0.2702 -0.1920
  230MPD1    H5 3499   0.866   3.562  15.234 -0.1993 -1.8135  1.5295
  230MPD1    N1 3500   1.202   3.586  15.598  0.6925  0.7768  0.1744
  230MPD1    H6 3501   1.255   3.582  15.511  2.4296  1.5314  1.2061
  230MPD1    H7 3502   1.251   3.652  15.658  0.0905 -1.5235  3.1736
  231MPD1     C 3503   3.210   0.417  15.402  0.1906  0.9252 -0.1228
  231MPD1    C1 3504   3.126   0.515  15.361 -0.4597 -0.5674 -0.0771
  231MPD1    C2 3505   3.184   0.627  15.306  0.1370 -0.0118  0.4260
  231MPD1    C3 3506   3.324   0.633  15.292 -0.1494  0.1741  0.0990
  231MPD1    C4 3507   3.405   0.529  15.342 -0.5549  0.0509 -0.4946
  231MPD1    C5 3508   3.350   0.422  15.397  0.0772  0.5264  0.7494
  231MPD1     H 3509   3.129   0.717  15.280  3.6052  2.2832  1.1080
  231MPD1    H1 3510   3.513   0.539  15.332 -0.3922 -0.4302  0.7440
  231MPD1    H2 3511   3.157   0.337  15.453  2.6644  1.0550  2.6596
  231MPD1    H3 3512   3.415   0.341  15.428 -0.7098 -0.6686 -0.7400
  231MPD1     N 3513   3.381   0.742  15.230 -0.1920 -0.6272 -0.8687
  231MPD1    H5 3514   3.326   0.804  15.173 -1.4644  1.0392  2.2096
  231MPD1    N1 3515   2.988   0.513  15.392 -0.1561 -0.3265 -0.5412
  231MPD1    H6 3516   2.956   0.416  15.394 -1.9540  0.2308 -2.8394
  231MPD1    H7 3517   2.930   0.559  15.323  1.2080 -0.9792 -2.1248
  232MPD1     C 3518   0.547   3.201  17.525  0.0316 -0.3041 -0.2951
  232MPD1    C1 3519   0.463   3.179  17.636 -0.6762  0.5014 -0.8608
  232MPD1    C2 3520   0.370   3.276  17.649  1.1225  0.2800 -0.2506
  232MPD1    C3 3521   0.349   3.386  17.563 -0.3459  0.4918 -0.4919
  232MPD1    C4 3522   0.442   3.406  17.464 -0.2740 -0.2552  0.3366
  232MPD1    C5 3523   0.546   3.317  17.445  0.6974 -0.3133 -0.2525
  232MPD1     H 3524   0.299   3.272   0.032  0.0183  0.6512 -1.1967
  232MPD1    H1 3525   0.433   3.488  17.394 -1.5683 -1.9012 -1.4279
  232MPD1    H2 3526   0.634   3.138  17.513 -0.5133 -0.8836 -1.1278
  232MPD1    H3 3527   0.607   3.329  17.356  2.1254  1.0644  0.9159
  232MPD1     N 3528   0.246   3.478  17.591 -0.4739 -0.2138 -0.3070
  232MPD1    H5 3529   0.170   3.444  17.649 -0.0821  1.4015  1.1657
  232MPD1    N1 3530   0.502   3.089   0.036  0.4505  0.1128  0.9632
  232MPD1    H6 3531   0.528   3.001  17.691 -0.2525 -0.2266  1.2333
  232MPD1    H7 3532   0.430   3.064   0.104  0.3516  1.1566  1.2478
  233MPD1     C 3533   1.672   2.025   2.495  0.7221  0.4535 -0.5865
  233MPD1    C1 3534   1.769   1.980   2.580  0.5635 -1.4524 -0.1829
  233MPD1    C2 3535   1.886   1.920   2.533 -0.6809 -0.3601 -0.0631
  233MPD1    C3 3536   1.920   1.921   2.399  0.2145 -0.7036 -0.1983
  233MPD1    C4 3537   1.826   1.978   2.320 -0.2144 -0.0012  0.0946
  233MPD1    C5 3538   1.701   2.011   2.362 -0.3008  0.6640 -0.8002
  233MPD1     H 3539   1.956   1.892   2.611  0.4412  0.7555 -0.6669
  233MPD1    H1 3540   1.839   1.981   2.212 -0.5248 -0.8493  0.0277
  233MPD1    H2 3541   1.582   2.067   2.540  0.9531  0.1949  0.1279
  233MPD1    H3 3542   1.630   2.050   2.290 -1.3897  1.0197  0.4589
  233MPD1     N 3543   2.037   1.876   2.339  0.3901  0.1164  0.1111
  233MPD1    H5 3544   2.040   1.890   2.238 -1.5338 -2.0397 -0.2192
  233MPD1    N1 3545   1.737   1.976   2.716  0.0839 -0.0091  0.4587
  233MPD1    H6 3546   1.805   1.969   2.791  0.8271 -0.1220 -0.2128
  233MPD1    H7 3547   1.664   2.042   2.741 -1.7716 -0.8649 -2.6934
  234MPD1     C 3548   3.313   0.208   9.071 -0.4377  0.0249  0.3487
  234MPD1    C1 3549   3.276   0.327   9.122 -0.8841  0.5294 -0.2973
  234MPD1    C2 3550   3.155   0.374   9.081 -0.3916 -0.0723  0.1416
  234MPD1    C3 3551   3.065   0.299   9.001  0.5821 -0.2538  0.3249
  234MPD1    C4 3552   3.105   0.177   8.955 -0.2824 -0.9443 -0.2054
  234MPD1    C5 3553   3.224   0.133   8.995  0.8049 -0.5271  0.3146
  234MPD1     H 3554   3.136   0.479   9.099  1.1448  0.8562 -3.5715
  234MPD1    H1 3555   3.044   0.110   8.896 -0.9401  0.6430 -1.3485
  234MPD1    H2 3556   3.408   0.163   9.100 -0.8178 -1.5652 -0.8715
  234MPD1    H3 3557   3.252   0.033   8.964 -2.1928 -1.3133  0.0927
  234MPD1     N 3558   2.938   0.364   8.968 -0.5221  0.3438 -0.0887
  234MPD1    H5 3559   2.912   0.451   9.012  2.7727  0.8525  0.8806
  234MPD1    N1 3560   3.363   0.415   9.189  0.0278  0.5025 -0.6437
  234MPD1    H6 3561   3.438   0.372   9.243 -2.6438 -0.4552  2.2712
  234MPD1    H7 3562   3.323   0.498   9.231  2.6005  0.4893  1.8589
  235MPD1     C 3563   0.621   2.727  10.402 -0.1821  0.0080  0.0950
  235MPD1    C1 3564   0.699   2.781  10.297 -0.5653 -0.0313  0.1317
  235MPD1    C2 3565   0.643   2.857  10.196  0.1696 -0.6681  0.3344
  235MPD1    C3 3566   0.509   2.881  10.198 -0.9330 -0.2487 -0.1686
  235MPD1    C4 3567   0.429   2.814  10.287 -0.5651 -0.3315  0.1515
  235MPD1    C5 3568   0.492   2.752  10.395 -0.5669 -0.2565 -0.3894
  235MPD1     H 3569   0.704   2.904  10.119 -3.6650  1.4428 -1.4150
  235MPD1    H1 3570   0.321   2.818  10.279 -0.7261  1.0620  2.7263
  235MPD1    H2 3571   0.652   2.687  10.498 -0.6710 -0.1759  0.1768
  235MPD1    H3 3572   0.421   2.705  10.462  1.1607 -1.2038  0.7860
  235MPD1     N 3573   0.462   2.966  10.099  0.0579  0.6245 -0.0622
  235MPD1    H5 3574   0.532   3.014  10.044  0.5029  1.4029  1.1631
  235MPD1    N1 3575   0.836   2.789  10.323 -0.3526 -0.7185 -0.2897
  235MPD1    H6 3576   0.897   2.809  10.243  1.7982 -1.9785  1.0147
  235MPD1    H7 3577   0.870   2.698  10.356  2.1849  0.4465  0.3503
  236MPD1     C 3578   4.378   4.202  10.384 -0.6627  0.1467  0.6032
  236MPD1    C1 3579   4.513   4.212  10.389  0.2584  0.3065  0.0453
  236MPD1    C2 3580   4.589   4.093  10.397 -0.2475 -0.0291  0.4471
  236MPD1    C3 3581   4.532   3.970  10.420 -0.6645 -0.8021 -0.4049
  236MPD1    C4 3582   4.394   3.965  10.428  0.6686 -0.2455  0.2208
  236MPD1    C5 3583   4.322   4.079  10.411  0.0677  0.3307 -0.4008
  236MPD1     H 3584   4.697   4.106  10.393  0.0346 -1.8794  1.9311
  236MPD1    H1 3585   4.344   3.869  10.434 -1.9402  1.0307 -1.1812
  236MPD1    H2 3586   4.312   4.285  10.362 -0.1021  0.4146 -0.0780
  236MPD1    H3 3587   4.214   4.077  10.402 -0.0182  0.5705  0.6063
  236MPD1     N 3588   4.598   3.847  10.440 -0.0464  0.3607  0.0833
  236MPD1    H5 3589   4.539   3.766  10.456  2.8257 -2.1751 -2.1643
  236MPD1    N1 3590   4.583   4.327  10.349  0.1219 -0.2249  0.3522
  236MPD1    H6 3591   4.674   4.326  10.394  0.1135 -1.0939  0.3481
  236MPD1    H7 3592   4.540   4.412  10.384  0.4834 -0.4951  1.4616
  237MPD1     C 3593   4.679   1.996  15.847  0.1969 -0.7076  0.6919
  237MPD1    C1 3594   4.605   1.930  15.944 -0.6643  0.1343 -0.4715
  237MPD1    C2 3595   4.471   1.914  15.914  0.3881 -0.2926  1.3175
  237MPD1    C3 3596   4.410   1.998  15.819  0.5748  0.2255 -0.6464
  237MPD1    C4 3597   4.487   2.081  15.742  0.4224 -0.4873 -0.2191
  237MPD1    C5 3598   4.619   2.076  15.753  0.0290 -0.0669  0.2162
  237MPD1     H 3599   4.417   1.841  15.973  1.2089 -0.5556  1.7274
  237MPD1    H1 3600   4.451   2.147  15.664  1.1739  0.4092  0.2107
  237MPD1    H2 3601   0.064   1.995  15.846  0.1902 -0.8457  0.0824
  237MPD1    H3 3602   4.683   2.130  15.685 -0.0366  0.6354  0.7146
  237MPD1     N 3603   4.274   1.996  15.786  0.9487  0.2001  0.4445
  237MPD1    H5 3604   4.246   2.052  15.705  0.5252 -0.5336  0.0832
  237MPD1    N1 3605   4.674   1.843  16.030  0.8361  0.2916  0.1267
  237MPD1    H6 3606   4.626   1.839  16.119  1.5710 -2.2798  0.3913
  237MPD1    H7 3607   0.047   1.866  16.051 -0.5446  1.5722  5.0388
  238MPD1     C 3608   0.107   1.515  14.661 -0.7383  0.1654  0.2347
  238MPD1    C1 3609   0.243   1.486  14.643  0.0382  0.4991  0.4691
  238MPD1    C2 3610   0.295   1.354  14.651  0.2135  0.2382  0.1752
  238MPD1    C3 3611   0.211   1.252  14.690 -0.1455 -0.9819 -0.2349
  238MPD1    C4 3612   0.079   1.279  14.707 -0.6456 -0.1497  0.2023
  238MPD1    C5 3613   0.028   1.400  14.701 -0.0263  0.4039  0.3494
  238MPD1     H 3614   0.402   1.346  14.635  0.2217  1.3645 -0.3361
  238MPD1    H1 3615   0.019   1.195  14.739 -1.6358 -0.0073 -1.3196
  238MPD1    H2 3616   0.067   1.615  14.652  1.2646  1.0434  0.9893
  238MPD1    H3 3617   4.647   1.419  14.723 -0.7624 -2.2444 -0.9224
  238MPD1     N 3618   0.247   1.118  14.698 -0.1766  0.6265 -0.0705
  238MPD1    H5 3619   0.169   1.056  14.716 -0.4704  1.4854  1.6100
  238MPD1    N1 3620   0.330   1.588  14.602 -0.0142  0.2232  0.2557
  238MPD1    H6 3621   0.424   1.573  14.639 -0.4876 -0.7609  1.0688
  238MPD1    H7 3622   0.305   1.683  14.626  0.6937 -0.0823  2.1954
  239MPD1     C 3623   1.338   1.834  14.967 -0.1192 -0.0473  0.8488
  239MPD1    C1 3624   1.437   1.863  14.876 -0.0480  1.1502 -0.0347
  239MPD1    C2 3625   1.395   1.901  14.747 -0.5062  0.9917  0.1678
  239MPD1    C3 3626   1.261   1.914  14.722  0.3637 -0.0531  1.1973
  239MPD1    C4 3627   1.165   1.887  14.815 -0.2032 -0.9037 -0.1401
  239MPD1    C5 3628   1.203   1.842  14.943  0.1873  0.0540  0.1970
  239MPD1     H 3629   1.476   1.923  14.679  0.4216 -2.3625  0.1852
  239MPD1    H1 3630   1.058   1.889  14.793  0.3512 -1.1284 -2.9238
  239MPD1    H2 3631   1.367   1.796  15.065  1.7735 -2.0148 -0.4698
  239MPD1    H3 3632   1.125   1.827  15.017 -1.7246  0.7054 -1.6892
  239MPD1     N 3633   1.212   1.976  14.602 -0.2492 -0.3404 -0.2818
  239MPD1    H5 3634   1.111   1.983  14.589 -0.5017 -1.2123  1.2490
  239MPD1    N1 3635   1.573   1.829  14.908 -0.4251  0.0145  0.0581
  239MPD1    H6 3636   1.637   1.882  14.849 -0.9504  0.0384 -0.4942
  239MPD1    H7 3637   1.598   1.847  15.005 -3.5171 -0.1596  0.8998
  240MPD1     C 3638   0.357   2.153  13.921 -0.3839  0.1759  0.2273
  240MPD1    C1 3639   0.462   2.092  13.975 -0.1857 -0.6613 -0.2574
  240MPD1    C2 3640   0.461   1.953  13.977 -0.3101  0.6545 -0.6589
  240MPD1    C3 3641   0.356   1.873  13.944 -0.0840  0.2954  0.2191
  240MPD1    C4 3642   0.245   1.936  13.879 -0.0198  0.4492  0.8380
  240MPD1    C5 3643   0.251   2.074  13.868 -0.8277  0.3787 -0.4333
  240MPD1     H 3644   0.551   1.907  14.015 -0.1877  2.2635  1.0252
  240MPD1    H1 3645   0.149   1.891  13.859 -0.1732  1.6218 -1.1246
  240MPD1    H2 3646   0.348   2.261  13.913  0.1304 -0.0161 -2.8040
  240MPD1    H3 3647   0.159   2.119  13.831 -0.5524  0.6648 -0.7735
  240MPD1     N 3648   0.350   1.731  13.969  0.2871  0.1570  0.0513
  240MPD1    H5 3649   0.430   1.692  14.018  0.5906 -1.1132 -1.4476
  240MPD1    N1 3650   0.582   2.160  13.998  0.3881 -0.0590 -0.4846
  240MPD1    H6 3651   0.637   2.109  14.067  0.8142  1.0266 -0.0103
  240MPD1    H7 3652   0.568   2.257  14.026 -1.6330 -0.8755  1.3637
  241MPD1     C 3653   1.045   1.314  14.189  0.1999 -0.0651  0.1241
  241MPD1    C1 3654   0.966   1.204  14.176 -0.4421  0.2364 -0.6992
  241MPD1    C2 3655   0.836   1.217  14.138 -0.0132 -0.5106  0.6533
  241MPD1    C3 3656   0.786   1.336  14.100 -0.4466  0.1116 -0.0294
  241MPD1    C4 3657   0.871   1.445  14.109  0.8634 -0.1039  0.6296
  241MPD1    C5 3658   0.995   1.430  14.141 -0.7301 -0.6277  0.1562
  241MPD1     H 3659   0.769   1.133  14.145 -1.3205  0.3596 -1.5226
  241MPD1    H1 3660   0.836   1.546  14.094  0.0451 -0.6119 -0.9668
  241MPD1    H2 3661   1.145   1.295  14.225  0.3986  1.7959  0.5325
  241MPD1    H3 3662   1.058   1.518  14.138 -0.3468 -0.8349  1.6571
  241MPD1     N 3663   0.647   1.367  14.058 -0.1819  0.5430 -0.1938
  241MPD1    H5 3664   0.625   1.466  14.055  1.0672  0.8316  0.0793
  241MPD1    N1 3665   1.013   1.080  14.229  0.2417  0.4191  0.3953
  241MPD1    H6 3666   1.113   1.068  14.217 -0.0495  0.7331 -2.2532
  241MPD1    H7 3667   0.964   0.999  14.192 -0.7179  0.9571  0.4895
  242MPD1     C 3668   0.156   4.710  15.970  0.5664 -0.0646 -0.0795
  242MPD1    C1 3669   0.049   4.642  15.920 -0.3885  0.1435  0.4636
  242MPD1    C2 3670   0.039   4.616  15.786 -0.0742 -0.1487 -0.2676
  242MPD1    C3 3671   0.114   4.688  15.697  0.5502 -0.0791 -0.3549
  242MPD1    C4 3672   0.211   0.045  15.744  0.5368  0.0024 -0.3886
  242MPD1    C5 3673   0.236   0.047  15.883  0.0147 -0.6748  0.3748
  242MPD1     H 3674   4.686   4.548  15.754 -0.2436 -0.4498  0.7671
  242MPD1    H1 3675   0.283   0.095  15.680  0.0788 -0.4216 -1.2205
  242MPD1    H2 3676   0.185   4.718  16.074 -1.7358 -0.1979  0.5605
  242MPD1    H3 3677   0.326   0.098  15.916  1.3428 -1.8486 -1.3906
  242MPD1     N 3678   0.101   4.661  15.558 -0.2763 -0.2647  0.3328
  242MPD1    H5 3679   0.192   4.675  15.515 -0.2421 -2.3737 -0.2742
  242MPD1    N1 3680   4.690   4.567  16.003 -0.1303  0.1666  0.3438
  242MPD1    H6 3681   4.682   4.609  16.095  1.1510  0.0954  0.4904
  242MPD1    H7 3682   4.600   4.556  15.957 -0.2535 -0.3201  0.7057
  243MPD1     C 3683   1.101   3.183   0.039 -0.1544  0.4632 -0.1268
  243MPD1    C1 3684   1.152   3.062   0.089 -0.5305 -0.0901 -0.1902
  243MPD1    C2 3685   1.253   3.004   0.021 -1.8537  0.1171 -0.2611
  243MPD1    C3 3686   1.327   3.063  17.622 -0.6483  0.5851 -0.4963
  243MPD1    C4 3687   1.286   3.192  17.587 -0.3494 -0.8321 -0.3204
  243MPD1    C5 3688   1.177   3.245  17.641  0.8894  0.1804  0.9649
  243MPD1     H 3689   1.285   2.906   0.055  0.2867  0.7337 -0.4693
  243MPD1    H1 3690   1.342   3.247  17.512 -0.6409 -1.5011 -1.0239
  243MPD1    H2 3691   1.010   3.231   0.074 -0.3415 -1.0855  1.5398
  243MPD1    H3 3692   1.142   3.337  17.595  0.0816 -0.8257 -0.4462
  243MPD1     N 3693   1.426   2.987  17.555  0.2135  0.5715  0.0423
  243MPD1    H5 3694   1.452   2.895  17.587 -0.8997  0.7453  1.4582
  243MPD1    N1 3695   1.068   2.987   0.175 -0.1732 -0.5538 -0.5035
  243MPD1    H6 3696   1.105   2.900   0.214 -1.0612 -0.3003  0.8931
  243MPD1    H7 3697   1.040   3.044   0.255  0.8638  0.2283 -0.6968
  244MPD1     C 3698   1.745   2.096  17.350  0.1729  0.1718  0.0483
  244MPD1    C1 3699   1.700   2.139  17.229 -0.2679 -0.2388 -0.6465
  244MPD1    C2 3700   1.670   2.272  17.219 -0.1174 -0.3763 -0.4223
  244MPD1    C3 3701   1.701   2.367  17.319  0.2334  0.1039 -1.2841
  244MPD1    C4 3702   1.758   2.315  17.435 -0.2282  0.1639  0.1652
  244MPD1    C5 3703   1.779   2.180  17.449 -0.1137  0.2933  0.1314
  244MPD1     H 3704   1.631   2.297  17.121 -0.6584  0.1952 -0.0613
  244MPD1    H1 3705   1.790   2.383  17.513 -1.1899  2.2831 -1.2987
  244MPD1    H2 3706   1.768   1.993  17.371 -0.7946 -0.5860 -2.4901
  244MPD1    H3 3707   1.822   2.140  17.540 -2.3761 -0.4567  0.8583
  244MPD1     N 3708   1.672   2.499  17.295 -0.0557 -0.6665 -0.5676
  244MPD1    H5 3709   1.630   2.521  17.205 -0.8350 -0.9797 -0.2760
  244MPD1    N1 3710   1.658   2.041  17.136 -0.4344  0.3607 -0.7617
  244MPD1    H6 3711   1.730   1.969  17.134 -0.6915  0.1345 -2.0224
  244MPD1    H7 3712   1.653   2.088  17.045  1.0986 -1.1010 -1.5987
  245MPD1     C 3713   3.461   3.934  13.236 -0.0339  0.1578  0.2447
  245MPD1    C1 3714   3.561   3.857  13.297  0.1097  0.5971  0.7222
  245MPD1    C2 3715   3.673   3.919  13.351 -0.0975  0.7651 -0.3497
  245MPD1    C3 3716   3.703   4.048  13.313 -0.5858 -0.8102  0.6371
  245MPD1    C4 3717   3.617   4.114  13.227  0.5464  0.5565 -0.4193
  245MPD1    C5 3718   3.488   4.066  13.202 -0.4197 -0.1358  0.5398
  245MPD1     H 3719   3.751   3.868  13.407  0.3797  0.0207 -1.7016
  245MPD1    H1 3720   3.639   4.215  13.193  0.8277  0.7012  0.2075
  245MPD1    H2 3721   3.367   3.887  13.214 -1.4353  3.0509  0.1032
  245MPD1    H3 3722   3.421   4.114  13.131 -0.2545  1.2726  1.3321
  245MPD1     N 3723   3.811   4.112  13.370  0.3839  0.4150 -0.0327
  245MPD1    H5 3724   3.854   4.061  13.446 -0.8212 -0.2501  0.2155
  245MPD1    N1 3725   3.525   3.729  13.332  1.0458 -0.1715  0.2387
  245MPD1    H6 3726   3.602   3.663  13.344 -1.3758 -2.8988  0.7115
  245MPD1    H7 3727   3.469   3.692  13.256  1.3826  0.1558 -0.1689
  246MPD1     C 3728   3.803   1.353   9.489  0.4486 -0.4044  0.1977
  246MPD1    C1 3729   3.918   1.414   9.515  0.6722  0.1249 -0.4325
  246MPD1    C2 3730   4.024   1.353   9.579 -0.0327  0.8578  0.6885
  246MPD1    C3 3731   4.015   1.225   9.616 -0.2270  0.2249  0.1983
  246MPD1    C4 3732   3.895   1.163   9.604 -0.4437 -0.0145 -0.4358
  246MPD1    C5 3733   3.790   1.223   9.534 -0.0109 -0.2779 -1.0524
  246MPD1     H 3734   4.125   1.393   9.576 -1.0980  3.3397 -2.8771
  246MPD1    H1 3735   3.880   1.058   9.626  1.0111  0.2622  1.9888
  246MPD1    H2 3736   3.724   1.395   9.428  0.4148 -1.4274 -0.4590
  246MPD1    H3 3737   3.710   1.155   9.507 -2.0754  1.5357  0.5450
  246MPD1     N 3738   4.133   1.155   9.652 -1.0666 -0.7870 -0.6546
  246MPD1    H5 3739   4.220   1.206   9.663  0.2975 -3.2598 -0.0214
  246MPD1    N1 3740   3.945   1.535   9.437  0.4123  0.5007  0.2906
  246MPD1    H6 3741   4.016   1.593   9.483 -0.0057  0.7194  0.6585
  246MPD1    H7 3742   3.858   1.587   9.430  0.6930  0.9506  0.1033
  247MPD1     C 3743   2.838   4.347  16.771 -0.4260  0.1359  0.4564
  247MPD1    C1 3744   2.863   4.378  16.637 -0.3872  0.2537 -0.4615
  247MPD1    C2 3745   2.857   4.272  16.546 -0.1939 -0.1554  0.5438
  247MPD1    C3 3746   2.848   4.144  16.596  0.8038 -0.1130  0.9127
  247MPD1    C4 3747   2.829   4.118  16.730 -0.1646  0.4867  0.2619
  247MPD1    C5 3748   2.825   4.222  16.820  0.2805 -0.2066 -0.3307
  247MPD1     H 3749   2.879   4.289  16.441  3.5314  0.3133  1.3814
  247MPD1    H1 3750   2.822   4.018  16.771 -1.6128  0.1150 -0.9063
  247MPD1    H2 3751   2.822   4.427  16.843 -0.3305  1.0216 -0.5022
  247MPD1    H3 3752   2.789   4.208  16.922 -1.4936 -0.8775 -1.0490
  247MPD1     N 3753   2.867   4.030  16.516  0.0083  0.2557  0.0366
  247MPD1    H5 3754   2.885   3.948  16.572 -0.1525  1.3409  1.6881
  247MPD1    N1 3755   2.861   4.514  16.601 -0.6941  0.5179  0.4198
  247MPD1    H6 3756   2.899   4.527  16.508  0.7798  3.6593  1.4780
  247MPD1    H7 3757   2.909   4.566  16.674  1.9984 -0.7274 -0.4591
  248MPD1     C 3758   3.846   2.340   0.745 -0.0590  0.0366  0.6506
  248MPD1    C1 3759   3.857   2.413   0.866 -0.5750 -0.2550  0.5414
  248MPD1    C2 3760   3.848   2.551   0.858  0.7748  0.1588 -0.1878
  248MPD1    C3 3761   3.810   2.617   0.746  0.3146  0.2010  0.1817
  248MPD1    C4 3762   3.790   2.538   0.634  0.2599 -0.3586 -0.5360
  248MPD1    C5 3763   3.821   2.404   0.627  0.0347  0.3611 -0.8980
  248MPD1     H 3764   3.863   2.600   0.954  3.8399 -0.6473 -0.2331
  248MPD1    H1 3765   3.781   2.582   0.535 -2.2446  1.7547  0.6414
  248MPD1    H2 3766   3.857   2.232   0.741  0.2826  0.0905  0.2491
  248MPD1    H3 3767   3.808   2.351   0.533  1.1697 -1.6659  0.0765
  248MPD1     N 3768   3.780   2.753   0.752  0.3836  0.1016  0.2485
  248MPD1    H5 3769   3.815   2.798   0.836  0.6784 -0.4491  0.4223
  248MPD1    N1 3770   3.902   2.342   0.979 -0.5068  0.3322  0.3289
  248MPD1    H6 3771   3.850   2.254   0.980  1.0667 -0.6027 -0.2595
  248MPD1    H7 3772   3.880   2.380   1.071  0.7990  0.7156  0.4847
  249MPD1     C 3773   0.931   2.131  10.794 -0.1124  0.1506 -0.5840
  249MPD1    C1 3774   1.030   2.166  10.881 -0.0614  0.2142  0.5940
  249MPD1    C2 3775   1.147   2.224  10.831  0.9950 -0.3673 -0.2579
  249MPD1    C3 3776   1.161   2.250  10.699  0.0230 -0.0089 -0.4186
  249MPD1    C4 3777   1.065   2.222  10.613 -0.0609  0.2054 -0.2360
  249MPD1    C5 3778   0.954   2.151  10.659  0.6142 -0.7849  0.1476
  249MPD1     H 3779   1.223   2.256  10.902  1.2872  0.0229 -0.7462
  249MPD1    H1 3780   1.076   2.227  10.505 -1.4244  1.4266 -0.3215
  249MPD1    H2 3781   0.837   2.090  10.831 -1.1214  3.5790  0.5872
  249MPD1    H3 3782   0.877   2.124  10.587  1.2669  0.2579 -0.9270
  249MPD1     N 3783   1.279   2.307  10.658 -0.0223  0.0574  0.3160
  249MPD1    H5 3784   1.340   2.322  10.738  2.6972  1.5049 -2.0387
  249MPD1    N1 3785   1.017   2.134  11.018  0.1013  0.0249 -0.3981
  249MPD1    H6 3786   0.918   2.133  11.042 -0.1257  3.0810 -1.1914
  249MPD1    H7 3787   1.056   2.200  11.086 -2.6485  1.7564 -0.4919
  250MPD2     C 3788   1.661   2.484  13.204  0.5474 -0.2442  0.3465
  250MPD2    C1 3789   1.681   2.477  13.070  0.3268  0.1111  0.0747
  250MPD2    C2 3790   1.646   2.364  13.001  0.2554 -0.0371 -0.4401
  250MPD2    C3 3791   1.605   2.248  13.071 -0.1667 -0.0724  0.2160
  250MPD2    C4 3792   1.578   2.258  13.206 -0.1064 -0.1389  0.2204
  250MPD2    C5 3793   1.609   2.374  13.267  0.3336  0.7162  0.4223
  250MPD2     H 3794   1.665   2.369  12.894 -1.7642  1.4259 -0.7491
  250MPD2    H1 3795   1.523   2.187  13.267 -1.3549  1.2878  0.7493
  250MPD2    H2 3796   1.683   2.570  13.267 -2.6158  0.8793 -0.1106
  250MPD2    H3 3797   1.584   2.390  13.371 -0.4987 -0.0887  0.3522
  250MPD2     N 3798   1.570   2.132  13.008 -0.1568  0.2674 -0.2250
  250MPD2    H5 3799   1.521   2.061  13.063 -3.2128  2.7641  0.3012
  250MPD2    N1 3800   1.743   2.590  13.013 -0.1046  0.5626  0.1326
  250MPD2    H7 3801   1.753   2.677  13.065 -1.0918  0.7143  0.0588
  251TMC3    C1 3802   1.890   2.701  12.871 -1.0391 -0.2493 -0.4158
  251TMC3    C2 3803   1.828   2.822  12.906 -0.3906 -0.0980 -0.5567
  251TMC3    C3 3804   1.901   2.938  12.886  0.0724  0.2009 -0.2456
  251TMC3    C4 3805   2.016   2.698  12.817 -0.3144 -0.3247  0.3374
  251TMC3    C5 3806   2.088   2.811  12.808 -0.1656  0.3377 -0.7071
  251TMC3    C6 3807   2.026   2.934  12.834 -0.2174 -0.2813  0.0190
  251TMC3     C 3808   1.827   2.577  12.900  0.2713  0.7377  0.4058
  251TMC3     O 3809   1.853   2.472  12.842  0.4792  0.4570  0.0499
  251TMC3     H 3810   1.726   2.823  12.943  0.2103  1.5814  1.0344
  251TMC3    H1 3811   2.071   2.605  12.806  1.5013  0.9834 -1.6006
  251TMC3    H2 3812   2.085   3.024  12.822 -1.7713  0.5902 -0.9990
  251TMC3    C7 3813   2.227   2.796  12.758 -0.2135 -0.1577  0.1868
  251TMC3    C8 3814   1.836   3.064  12.903  0.0271 -0.0390 -0.7312
  251TMC3    O1 3815   2.272   2.682  12.740 -0.0646 -0.5916  0.5576
  251TMC3    O2 3816   1.722   3.078  12.858 -0.5929  1.0986 -0.3834
  252TMC3    C1 3817   1.351   3.390   9.383 -0.0302  0.3932  0.3896
  252TMC3    C2 3818   1.462   3.445   9.326  0.1934  0.3915 -0.0651
  252TMC3    C3 3819   1.580   3.434   9.393 -0.3739  0.3141  0.0575
  252TMC3    C4 3820   1.354   3.314   9.495  0.3883 -0.2285  0.3358
  252TMC3    C5 3821   1.481   3.294   9.548  0.1150 -0.9672 -0.0275
  252TMC3    C6 3822   1.596   3.358   9.506  0.0355  0.8641  0.3495
  252TMC3     C 3823   1.215   3.417   9.329  0.0076 -0.7218  0.5691
  252TMC3     O 3824   1.122   3.376   9.396  0.2888  0.3692  0.2427
  252TMC3     H 3825   1.453   3.521   9.250  2.2067  0.3876 -0.3088
  252TMC3    H1 3826   1.269   3.261   9.537  2.0164 -3.0303  0.0778
  252TMC3    H2 3827   1.688   3.343   9.561  0.7072 -1.2946 -1.3478
  252TMC3    C7 3828   1.477   3.209   9.663 -0.4750  0.8672  1.0423
  252TMC3    C8 3829   1.695   3.475   9.310  0.1664  0.1997  0.1458
  252TMC3    O1 3830   1.380   3.200   9.734  0.1586  0.0164  0.3344
  252TMC3    O2 3831   1.671   3.566   9.231 -0.0126  0.0403  0.2029
  253MPD2     C 3832   3.208   1.997  15.472 -0.1710  0.3866 -0.2327
  253MPD2    C1 3833   3.081   1.992  15.427 -0.4079 -0.1777 -0.4057
  253MPD2    C2 3834   2.985   2.025  15.521  0.3766 -0.3392 -0.4290
  253MPD2    C3 3835   3.002   2.038  15.659  0.8548  0.2382  0.1441
  253MPD2    C4 3836   3.134   2.044  15.692  0.1961  0.1301 -0.2117
  253MPD2    C5 3837   3.237   2.023  15.605  0.0703  0.3637 -0.3427
  253MPD2     H 3838   2.890   2.037  15.469 -0.5435  1.1746  1.5646
  253MPD2    H1 3839   3.157   2.068  15.795  1.2720  0.1160 -0.4478
  253MPD2    H2 3840   3.297   1.982  15.411  0.2865 -1.7275  0.9711
  253MPD2    H3 3841   3.339   2.023  15.640 -0.5856  0.3483  1.6033
  253MPD2     N 3842   2.901   2.068  15.748  0.5708  0.0527 -0.5061
  253MPD2    H5 3843   2.926   2.084  15.845 -1.7215 -0.1211  0.0910
  253MPD2    N1 3844   3.059   1.980  15.291  0.2195  0.0106  0.1898
  253MPD2    H7 3845   2.960   1.983  15.268 -0.1449 -0.0648  1.7538
  254TMC3    C1 3846   2.688   2.067  15.841 -0.9728 -0.8315 -0.6763
  254TMC3    C2 3847   2.570   2.113  15.807  1.0755  0.5097 -0.3625
  254TMC3    C3 3848   2.468   2.095  15.902  0.7625  1.0032  0.7064
  254TMC3    C4 3849   2.713   1.993  15.954 -0.4695 -0.2158 -0.9900
  254TMC3    C5 3850   2.611   1.975  16.042 -0.2654  0.3118 -0.5977
  254TMC3    C6 3851   2.486   2.033  16.022  0.1545  0.2658 -0.2846
  254TMC3     C 3852   2.766   2.049  15.720  0.4100 -0.5431 -0.4874
  254TMC3     O 3853   2.704   2.024  15.616 -0.7361  0.4958  0.5931
  254TMC3     H 3854   2.552   2.176  15.721 -0.5667  2.5047  1.4621
  254TMC3    H1 3855   2.805   1.935  15.960  0.7805  1.6882 -1.5693
  254TMC3    H2 3856   2.403   2.011  16.088  0.7070  0.6138  0.5310
  254TMC3    C7 3857   2.633   1.914  16.172  0.8362  0.1287  0.3491
  254TMC3    C8 3858   2.413   2.221  15.944 -0.5419  0.0723  0.6494
  254TMC3    O1 3859   2.726   1.946  16.246  0.1820 -0.1780  0.2222
  254TMC3    O2 3860   2.488   2.313  15.923 -1.0070 -0.3970 -0.3603
  255MPD2     C 3861   1.078   0.152  10.640 -0.5961  0.1763 -0.2280
  255MPD2    C1 3862   1.165   0.242  10.581 -0.4212 -0.1296 -0.5006
  255MPD2    C2 3863   1.295   0.194  10.549  0.0072  0.2069 -0.7725
  255MPD2    C3 3864   1.331   0.065  10.566  0.7616 -0.3806 -0.6674
  255MPD2    C4 3865   1.238   4.703  10.617  0.3648 -0.0334 -0.3967
  255MPD2    C5 3866   1.110   0.022  10.645  0.6417  0.6128  0.2628
  255MPD2     H 3867   1.369   0.258  10.503 -0.7766  0.9244 -1.0479
  255MPD2    H1 3868   1.266   4.599  10.633 -0.4894 -0.2549 -0.2835
  255MPD2    H2 3869   0.982   0.176  10.685  0.7006  2.2202  1.3813
  255MPD2    H3 3870   1.038   4.678  10.689  1.2433 -0.7553 -0.8747
  255MPD2     N 3871   1.459   0.021  10.513 -0.1646 -1.0473  0.4670
  255MPD2    H5 3872   1.521   0.096  10.487 -2.7352  1.3833  1.3881
  255MPD2    N1 3873   1.113   0.375  10.555  0.0847  0.1359 -0.1953
  255MPD2    H7 3874   1.015   0.385  10.578 -0.3642 -2.8676 -0.7518
  256TMC3    C1 3875   1.105   0.602  10.487 -0.0288 -0.4661  0.4080
  256TMC3    C2 3876   1.178   0.723  10.474  0.0434 -0.4553  0.2627
  256TMC3    C3 3877   1.118   0.822  10.398  0.1598  0.1171 -0.1795
  256TMC3    C4 3878   0.977   0.588  10.436  0.0111 -0.1639  0.0212
  256TMC3    C5 3879   0.932   0.694  10.353  0.9908  0.2311  0.0658
  256TMC3    C6 3880   0.997   0.811  10.337  0.1586 -0.7179 -0.8631
  256TMC3     C 3881   1.183   0.479  10.498 -0.5001  0.9837  0.5370
  256TMC3     O 3882   1.304   0.486  10.485 -0.1153  0.5202 -0.7023
  256TMC3     H 3883   1.280   0.739  10.509  0.1406 -1.5390  0.4613
  256TMC3    H1 3884   0.919   0.498  10.451 -0.2027 -0.1433 -0.6690
  256TMC3    H2 3885   0.960   0.889  10.271  1.4653 -0.1664 -0.9488
  256TMC3    C7 3886   0.832   0.662  10.253  0.1073 -0.2044  0.2362
  256TMC3    C8 3887   1.190   0.942  10.380 -0.5095  0.0055  0.2128
  256TMC3    O1 3888   0.789   0.547  10.233  0.3036  0.3073 -0.3154
  256TMC3    O2 3889   1.268   0.967  10.475 -0.0770  0.2956 -0.1595
  257MPD2     C 3890   0.863   2.525  13.079 -0.2283  0.1712  0.3009
  257MPD2    C1 3891   0.796   2.417  13.030  1.0469  0.1901 -0.2173
  257MPD2    C2 3892   0.780   2.315  13.119  0.4023 -0.5718 -0.6098
  257MPD2    C3 3893   0.831   2.320  13.247  0.2338  0.0977 -0.1474
  257MPD2    C4 3894   0.910   2.428  13.289 -0.4975  0.1222 -0.0811
  257MPD2    C5 3895   0.916   2.532  13.206 -0.1757 -0.0368  0.0261
  257MPD2     H 3896   0.723   2.226  13.095  0.9074 -0.9929 -0.2190
  257MPD2    H1 3897   0.954   2.449  13.386  2.2916 -0.7049 -1.1924
  257MPD2    H2 3898   0.866   2.612  13.015 -2.9658  0.4105  0.5087
  257MPD2    H3 3899   0.975   2.612  13.249 -1.4370  1.0495 -0.2530
  257MPD2     N 3900   0.800   2.210  13.338  0.1505 -0.5184 -0.7569
  257MPD2    H5 3901   0.736   2.137  13.306  0.3248 -0.9400 -0.1477
  257MPD2    N1 3902   0.752   2.406  12.894  0.2167  0.9787  0.2891
  257MPD2    H7 3903   0.778   2.487  12.840 -2.0197  1.6596  0.2162
  258TMC3    C1 3904   0.770   2.109  13.547  0.3908 -0.0248 -0.0426
  258TMC3    C2 3905   0.645   2.076  13.512 -0.1620  0.8208  0.3975
  258TMC3    C3 3906   0.580   1.978  13.588  0.6164 -0.0357  1.4132
  258TMC3    C4 3907   0.851   2.034  13.633  0.4596 -0.1411 -0.0651
  258TMC3    C5 3908   0.782   1.932  13.696  0.8135 -0.0005 -0.3991
  258TMC3    C6 3909   0.653   1.898  13.671  0.4752 -0.7091 -0.5592
  258TMC3     C 3910   0.848   2.197  13.462 -0.7495  0.0023  0.3861
  258TMC3     O 3911   0.935   2.256  13.525  0.3648  0.6605  0.2949
  258TMC3     H 3912   0.589   2.141  13.446 -0.8741  0.2775  0.4646
  258TMC3    H1 3913   0.953   2.062  13.657  0.1047  3.1268 -2.3260
  258TMC3    H2 3914   0.596   1.828  13.732 -0.4508  0.7825  0.2997
  258TMC3    C7 3915   0.827   1.880  13.830 -0.2300 -0.0518  0.1304
  258TMC3    C8 3916   0.480   1.910  13.512  0.1377 -0.0712  0.1046
  258TMC3    O1 3917   0.748   1.847  13.915 -0.3048  0.3180 -0.0540
  258TMC3    O2 3918   0.440   1.966  13.411  0.2965 -0.0005  0.0485
  259MPD2     C 3919   3.437   4.584   0.762 -0.2742 -0.6816  0.2723
  259MPD2    C1 3920   3.489   4.459   0.786 -0.0133 -0.0687 -0.2272
  259MPD2    C2 3921   3.571   4.395   0.687 -0.0432  0.3020 -0.6391
  259MPD2    C3 3922   3.581   4.450   0.560  0.2244  0.4120 -0.1646
  259MPD2    C4 3923   3.509   4.561   0.533  0.7475  0.1424 -0.6065
  259MPD2    C5 3924   3.438   4.633   0.630 -0.4767  0.2344  0.0404
  259MPD2     H 3925   3.635   4.312   0.711  2.9162  2.3752 -1.3672
  259MPD2    H1 3926   3.505   4.592   0.429  3.3874 -0.9880 -1.0378
  259MPD2    H2 3927   3.386   4.635   0.844  2.7643 -0.1492  1.8476
  259MPD2    H3 3928   3.376   4.716   0.599  0.8542  1.9677  2.0213
  259MPD2     N 3929   3.658   4.383   0.466  0.1784 -0.2552  0.1755
  259MPD2    H5 3930   3.683   4.285   0.476  1.4848  0.5672  4.7520
  259MPD2    N1 3931   3.465   4.412   0.917 -0.2932 -0.1576 -0.3439
  259MPD2    H7 3932   3.410   4.463   0.986  1.5618 -0.5373  1.3877
  260TMC3    C1 3933   3.814   4.352   0.298 -0.1039  1.2609 -0.7730
  260TMC3    C2 3934   3.904   4.403   0.208  0.5908  0.0552  0.0750
  260TMC3    C3 3935   3.990   4.322   0.145 -0.0201  0.3017  0.4087
  260TMC3    C4 3936   3.813   4.216   0.323  0.0577  0.0967  0.0014
  260TMC3    C5 3937   3.895   4.131   0.243 -0.0579  0.2627 -0.3061
  260TMC3    C6 3938   3.985   4.185   0.163 -0.2248 -0.3329 -0.4364
  260TMC3     C 3939   3.721   4.446   0.361  0.2705  0.2001  0.3279
  260TMC3     O 3940   3.719   4.563   0.329  0.0013 -0.0582 -0.6378
  260TMC3     H 3941   3.918   4.510   0.191 -0.4995  0.3108  0.7766
  260TMC3    H1 3942   3.739   4.162   0.381  0.8754 -1.3314 -0.2768
  260TMC3    H2 3943   4.046   4.124   0.096 -1.2073 -1.2584 -0.4800
  260TMC3    C7 3944   3.894   3.991   0.261 -0.1081 -0.3066 -0.1382
  260TMC3    C8 3945   4.092   4.381   0.060  0.4238 -0.1318 -0.2875
  260TMC3    O1 3946   3.996   3.938   0.230  0.6323  0.3656 -0.4400
  260TMC3    O2 3947   4.059   4.478  17.689 -0.2309  0.0331  0.6343
  261MPD2     C 3948   1.454   1.862  12.234  0.2322 -0.1899 -0.1668
  261MPD2    C1 3949   1.427   1.968  12.307 -0.0888 -0.2308  0.1813
  261MPD2    C2 3950   1.450   2.099  12.256 -0.5212 -0.1802 -0.4318
  261MPD2    C3 3951   1.494   2.119  12.120  0.5116  0.5910 -0.0089
  261MPD2    C4 3952   1.529   2.005  12.047 -0.6956 -0.1445 -0.2783
  261MPD2    C5 3953   1.501   1.883  12.106 -0.3515 -0.4665 -0.2446
  261MPD2     H 3954   1.428   2.183  12.320 -0.9638 -0.4486 -0.2307
  261MPD2    H1 3955   1.560   2.003  11.943 -0.4218  1.6571 -0.2285
  261MPD2    H2 3956   1.441   1.761  12.272 -1.2574 -0.0416 -0.2944
  261MPD2    H3 3957   1.515   1.795  12.045  1.3053 -1.3816  1.4136
  261MPD2     N 3958   1.524   2.247  12.071  0.0516  0.3438 -0.8027
  261MPD2    H5 3959   1.480   2.322  12.123 -0.4539 -0.5371  0.0478
  261MPD2    N1 3960   1.382   1.962  12.447 -0.2786 -0.5594  0.1168
  261MPD2    H7 3961   1.389   2.048  12.499  3.6255 -2.0106  2.0295
  262TMC3    C1 3962   1.616   2.417  11.933  0.2836 -0.1376  0.4006
  262TMC3    C2 3963   1.617   2.510  12.034 -0.6377 -0.1755  1.3598
  262TMC3    C3 3964   1.633   2.640  12.004  0.2439 -0.0428 -0.5086
  262TMC3    C4 3965   1.649   2.453  11.809  0.2841 -0.0555  0.3806
  262TMC3    C5 3966   1.689   2.579  11.777 -0.0437 -0.6778  0.1109
  262TMC3    C6 3967   1.680   2.672  11.875  0.6220 -0.0951 -0.1781
  262TMC3     C 3968   1.611   2.275  11.966 -0.0876 -0.3007 -0.1031
  262TMC3     O 3969   1.687   2.206  11.902  0.7668 -0.3024 -0.5996
  262TMC3     H 3970   1.593   2.491  12.138 -1.1500 -0.0752  1.2624
  262TMC3    H1 3971   1.664   2.372  11.738  0.1859 -0.8509  1.2755
  262TMC3    H2 3972   1.728   2.769  11.863 -0.0907  0.5950  2.5564
  262TMC3    C7 3973   1.770   2.591  11.654 -0.1335 -0.1889  0.4135
  262TMC3    C8 3974   1.510   2.714  12.045  0.3691  0.3535  0.2344
  262TMC3    O1 3975   1.799   2.488  11.598  0.0993 -0.4528  0.2550
  262TMC3    O2 3976   1.421   2.649  12.104 -0.2106  0.3185 -0.6966
  263MPD2     C 3977   2.602   1.039  10.760  0.3047 -0.7719 -0.2643
  263MPD2    C1 3978   2.580   1.156  10.829 -0.0716  0.0576 -0.5600
  263MPD2    C2 3979   2.618   1.277  10.773 -0.6512 -0.5511  0.3654
  263MPD2    C3 3980   2.682   1.283  10.652 -0.3278 -0.0638 -0.3872
  263MPD2    C4 3981   2.698   1.162  10.582  0.0517  0.5130 -0.2433
  263MPD2    C5 3982   2.651   1.046  10.634 -0.2447  0.6432 -0.2211
  263MPD2     H 3983   2.609   1.369  10.829 -0.8295  0.8698 -1.9657
  263MPD2    H1 3984   2.737   1.162  10.481  1.2657 -0.4295  0.2303
  263MPD2    H2 3985   2.572   0.944  10.801  0.8376 -1.7912 -2.2065
  263MPD2    H3 3986   2.674   0.956  10.578  1.3325  1.4876 -0.9221
  263MPD2     N 3987   2.731   1.413  10.614 -0.1504  0.0772  0.2426
  263MPD2    H5 3988   2.692   1.496  10.657 -0.1238 -0.0604  0.5322
  263MPD2    N1 3989   2.538   1.136  10.962  0.1739  0.3785  1.1229
  263MPD2    H7 3990   2.558   1.041  10.993 -0.1157 -0.2733 -0.6895
  264TMC3    C1 3991   2.821   1.583  10.457 -0.3765  0.0695  0.2057
  264TMC3    C2 3992   2.751   1.689  10.514 -0.8655  0.2039 -0.2089
  264TMC3    C3 3993   2.738   1.806  10.445  0.0332  0.0822  0.7389
  264TMC3    C4 3994   2.872   1.595  10.330 -0.0664 -0.8787  0.6937
  264TMC3    C5 3995   2.862   1.713  10.271  0.4479  0.4324  0.0628
  264TMC3    C6 3996   2.791   1.818  10.321 -0.0866 -0.6921 -0.2479
  264TMC3     C 3997   2.811   1.444  10.504  0.0237 -0.5842  0.2946
  264TMC3     O 3998   2.876   1.366  10.433  0.2019 -0.2774 -0.0459
  264TMC3     H 3999   2.744   1.699  10.622 -0.5190  0.3688 -0.2011
  264TMC3    H1 4000   2.936   1.521  10.283  0.3295  0.4103 -0.7744
  264TMC3    H2 4001   2.776   1.914  10.272  2.3301 -0.5713 -0.7404
  264TMC3    C7 4002   2.983   1.759  10.207 -0.9831  0.0393 -0.7115
  264TMC3    C8 4003   2.744   1.930  10.514 -0.8848  0.0931 -0.0539
  264TMC3    O1 4004   3.055   1.681  10.148  0.2883  0.1603  0.3391
  264TMC3    O2 4005   2.821   2.009  10.466  0.1008  0.2228 -0.5437
  265MPD2     C 4006   4.343   2.121  15.410 -0.0895  0.1419 -0.1463
  265MPD2    C1 4007   4.423   2.230  15.396 -0.1124  0.0232  0.0631
  265MPD2    C2 4008   4.529   2.218  15.310  0.3839 -0.8547 -0.6348
  265MPD2    C3 4009   4.560   2.098  15.244  0.0961  0.7583  0.1019
  265MPD2    C4 4010   4.480   1.987  15.268 -0.8798  0.1637 -1.3467
  265MPD2    C5 4011   4.369   2.007  15.345 -0.5948 -0.1498  0.1065
  265MPD2     H 4012   4.594   2.303  15.295 -0.9740  0.1561 -0.7014
  265MPD2    H1 4013   4.507   1.889  15.230  1.0617 -0.0845  0.6097
  265MPD2    H2 4014   4.253   2.120  15.470  0.6030  0.7694  0.9000
  265MPD2    H3 4015   4.308   1.921  15.368 -1.7045  0.8583  0.9192
  265MPD2     N 4016   4.683   2.073  15.171  0.0331 -0.1702 -0.3035
  265MPD2    H5 4017   4.707   1.976  15.153 -0.8421 -0.4134 -0.1653
  265MPD2    N1 4018   4.407   2.355  15.469  0.0795 -0.0927 -0.3007
  265MPD2    H7 4019   4.484   2.420  15.455  0.0514  0.3148  1.4724
  266TMC3    C1 4020   4.329   2.503  15.630 -0.1354  0.1055  0.1668
  266TMC3    C2 4021   4.354   2.492  15.764 -0.0034  0.0776  0.2021
  266TMC3    C3 4022   4.388   2.602  15.833 -0.0338 -0.3382 -1.0449
  266TMC3    C4 4023   4.352   2.614  15.557  0.3044  0.3004  0.0860
  266TMC3    C5 4024   4.383   2.725  15.628  0.5841 -0.1792  0.1111
  266TMC3    C6 4025   4.400   2.723  15.767  0.6041  0.3907  0.5961
  266TMC3     C 4026   4.316   2.373  15.569  0.0441 -0.5039  0.1155
  266TMC3     O 4027   4.249   2.287  15.627  0.3966 -0.5268  0.2287
  266TMC3     H 4028   4.337   2.397  15.812 -1.5307 -0.8430 -2.1476
  266TMC3    H1 4029   4.352   2.609  15.448 -0.8538 -1.0837  0.1527
  266TMC3    H2 4030   4.407   2.813  15.826  1.4548  0.2345  0.7326
  266TMC3    C7 4031   4.356   2.854  15.556 -0.3338 -0.6389 -0.0454
  266TMC3    C8 4032   4.441   2.574  15.970 -0.1338  0.4133  0.8963
  266TMC3    O1 4033   4.305   2.843  15.447  1.0387 -0.5250  0.3291
  266TMC3    O2 4034   4.451   2.457  16.013 -0.4631  0.6050 -0.2787
  267MPD2     C 4035   1.817   4.316   0.612 -0.1142 -0.3590  0.2190
  267MPD2    C1 4036   1.807   4.178   0.596  0.5307 -0.2677  0.4243
  267MPD2    C2 4037   1.714   4.105   0.677 -0.3972  0.1822  0.1047
  267MPD2    C3 4038   1.625   4.174   0.763 -0.0396 -0.0807 -0.1051
  267MPD2    C4 4039   1.638   4.310   0.782  0.1056 -0.1244  0.4672
  267MPD2    C5 4040   1.737   4.375   0.712  0.6323 -0.9182 -0.5456
  267MPD2     H 4041   1.705   3.998   0.659  1.0083  0.1220 -0.2156
  267MPD2    H1 4042   1.573   4.368   0.847  1.3370  1.7188  0.0368
  267MPD2    H2 4043   1.886   4.371   0.549  0.5469 -0.1859  1.1006
  267MPD2    H3 4044   1.755   4.477   0.740 -3.7613 -0.3817  0.3698
  267MPD2     N 4045   1.512   4.112   0.828 -0.1651 -0.1597  0.0357
  267MPD2    H5 4046   1.452   4.174   0.880 -0.0400 -0.4757  0.5494
  267MPD2    N1 4047   1.896   4.118   0.501  0.5833 -0.3597  0.5668
  267MPD2    H7 4048   1.950   4.178   0.440  0.4899 -0.9353 -0.0771
  268TMC3    C1 4049   1.990   3.929   0.378  0.0303  0.5261  0.2113
  268TMC3    C2 4050   1.985   4.002   0.259  0.6566  0.3055  0.3196
  268TMC3    C3 4051   2.033   3.935   0.152 -0.2549 -0.2868 -0.3438
  268TMC3    C4 4052   2.046   3.808   0.391 -0.1206 -0.3186 -0.1363
  268TMC3    C5 4053   2.094   3.754   0.278  0.1535 -0.5334 -0.1425
  268TMC3    C6 4054   2.093   3.817   0.159 -0.1267 -0.1562 -0.2220
  268TMC3     C 4055   1.919   3.978   0.499  0.3256 -0.0457 -0.3819
  268TMC3     O 4056   1.870   3.888   0.561 -0.0717  0.0381 -0.3299
  268TMC3     H 4057   1.951   4.104   0.251 -1.6589 -0.5177 -0.2331
  268TMC3    H1 4058   2.042   3.761   0.488  3.2772 -0.8767 -0.2711
  268TMC3    H2 4059   2.146   3.772   0.075 -0.0152 -0.3718 -0.0368
  268TMC3    C7 4060   2.170   3.633   0.302  0.8067  0.0571 -0.1797
  268TMC3    C8 4061   2.063   4.021   0.039  0.3129  0.4479  0.6765
  268TMC3    O1 4062   2.152   3.587   0.412 -0.1103 -0.0946 -0.3368
  268TMC3    O2 4063   2.088   4.139   0.054 -0.1831  0.2602  0.4449
  269MPD2     C 4064   2.431   2.730  15.935  0.6544  0.3123  0.3100
  269MPD2    C1 4065   2.313   2.762  15.873 -0.3216 -0.3656 -0.6033
  269MPD2    C2 4066   2.276   2.891  15.850 -0.1050  0.0653  0.4309
  269MPD2    C3 4067   2.355   2.997  15.891 -0.1872  0.3612 -0.1090
  269MPD2    C4 4068   2.480   2.965  15.960 -0.6311 -0.8296  0.1177
  269MPD2    C5 4069   2.511   2.837  15.980  0.7634  0.3024  0.2440
  269MPD2     H 4070   2.182   2.920  15.803  0.2591  1.7606  0.7675
  269MPD2    H1 4071   2.553   3.040  15.989 -1.0432 -0.2331 -0.3983
  269MPD2    H2 4072   2.458   2.627  15.953  1.2061  0.1358 -1.5007
  269MPD2    H3 4073   2.600   2.820  16.041 -1.0412  2.4261  3.4651
  269MPD2     N 4074   2.311   3.123  15.861  0.0163  0.0283  0.7815
  269MPD2    H5 4075   2.229   3.142  15.803  0.9713 -1.4859 -1.0547
  269MPD2    N1 4076   2.236   2.649  15.820  1.2665 -0.7819  0.4285
  269MPD2    H7 4077   2.287   2.562  15.806  0.5953 -1.2481  0.8765
  270TMC3    C1 4078   2.074   2.518  15.714  0.2433  0.0293 -0.2919
  270TMC3    C2 4079   1.961   2.512  15.637 -0.5340 -0.4594 -0.5911
  270TMC3    C3 4080   1.929   2.401  15.574  0.0307  0.1459  0.0266
  270TMC3    C4 4081   2.148   2.405  15.728 -0.4207  0.2350 -0.1723
  270TMC3    C5 4082   2.108   2.290  15.668 -0.0043  0.4603  0.0692
  270TMC3    C6 4083   2.002   2.288  15.585 -0.0449  0.2937 -0.0320
  270TMC3     C 4084   2.107   2.656  15.769 -0.2368  0.0753  0.6743
  270TMC3     O 4085   2.016   2.742  15.783 -0.6390 -0.5185  0.5010
  270TMC3     H 4086   1.895   2.598  15.634 -0.8720 -0.7259 -0.7132
  270TMC3    H1 4087   2.243   2.403  15.780 -0.0548 -0.2056 -0.8533
  270TMC3    H2 4088   1.976   2.196  15.533  1.3502 -0.2881  0.3123
  270TMC3    C7 4089   2.203   2.190  15.658 -0.2945 -0.0450 -0.3708
  270TMC3    C8 4090   1.836   2.405  15.463  0.1725 -0.4056  0.1636
  270TMC3    O1 4091   2.321   2.223  15.664 -0.3242 -0.2560 -0.3535
  270TMC3    O2 4092   1.745   2.488  15.452 -0.5065  0.3888 -0.0231
  271MPD2     C 4093   1.436   2.702  13.778 -0.5622 -0.8559 -0.0499
  271MPD2    C1 4094   1.346   2.611  13.829 -0.3613 -0.0764 -0.1442
  271MPD2    C2 4095   1.223   2.593  13.771  0.3822 -0.0058 -0.1929
  271MPD2    C3 4096   1.188   2.672  13.662  0.5914  0.2291  0.3270
  271MPD2    C4 4097   1.280   2.755  13.608 -0.5118  0.4013  0.2460
  271MPD2    C5 4098   1.400   2.783  13.671 -0.5721 -0.0004 -0.7553
  271MPD2     H 4099   1.155   2.516  13.806 -1.0205  0.3143 -2.2226
  271MPD2    H1 4100   1.268   2.808  13.515 -0.0940 -2.0802 -1.2173
  271MPD2    H2 4101   1.530   2.726  13.825 -1.1923 -1.6279  1.5992
  271MPD2    H3 4102   1.470   2.856  13.630  0.6752  0.5441  2.3255
  271MPD2     N 4103   1.054   2.676  13.601  0.2147  0.2113  0.1536
  271MPD2    H5 4104   1.033   2.734  13.521  1.3074 -0.3115 -0.5014
  271MPD2    N1 4105   1.384   2.526  13.935 -0.2227  0.1370 -0.4779
  271MPD2    H7 4106   1.307   2.483  13.984 -0.0389 -1.0064 -1.2053
  272TMC3    C1 4107   1.532   2.400  14.070  0.4287 -0.0891 -0.2190
  272TMC3    C2 4108   1.643   2.326  14.052  0.2593  0.1906 -0.4518
  272TMC3    C3 4109   1.683   2.246  14.158  0.3443 -0.3594  0.0302
  272TMC3    C4 4110   1.452   2.408  14.181 -0.6143  0.0793 -0.2962
  272TMC3    C5 4111   1.503   2.338  14.287 -0.0661 -0.0745 -0.8697
  272TMC3    C6 4112   1.612   2.251  14.273  0.9832 -0.1617 -0.6198
  272TMC3     C 4113   1.514   2.493  13.968  0.3665 -0.0051  0.6214
  272TMC3     O 4114   1.611   2.535  13.913 -0.3300  0.1980  0.0218
  272TMC3     H 4115   1.694   2.321  13.956  1.7542 -1.2643  0.4071
  272TMC3    H1 4116   1.373   2.482  14.189  0.1948  1.1185 -1.7206
  272TMC3    H2 4117   1.650   2.207  14.364 -0.3080  0.5322  0.2565
  272TMC3    C7 4118   1.458   2.360  14.416  0.1800 -0.1636  0.2206
  272TMC3    C8 4119   1.804   2.167  14.137  0.3151  0.7006 -0.4333
  272TMC3    O1 4120   1.348   2.407  14.430  0.5671 -0.1997  0.3106
  272TMC3    O2 4121   1.877   2.200  14.047  0.0014 -0.1133 -0.2750
  273MPD2     C 4122   3.331   0.267  11.536 -0.2764  0.4016 -0.4465
  273MPD2    C1 4123   3.451   0.318  11.513 -0.4062 -0.3937 -0.0471
  273MPD2    C2 4124   3.473   0.377  11.388 -0.1954 -0.7930  0.4826
  273MPD2    C3 4125   3.371   0.373  11.286 -0.4289  0.3067  0.1458
  273MPD2    C4 4126   3.258   0.298  11.314 -0.2535 -0.0742  0.3677
  273MPD2    C5 4127   3.238   0.246  11.434 -0.0460  0.9623 -0.5714
  273MPD2     H 4128   3.568   0.418  11.353 -0.4715  0.6370  1.3979
  273MPD2    H1 4129   3.177   0.272  11.247  0.9315 -0.3126 -0.9837
  273MPD2    H2 4130   3.298   0.219  11.628  1.5382  1.7676  0.8962
  273MPD2    H3 4131   3.142   0.198  11.446  0.6921 -0.6049 -0.9810
  273MPD2     N 4132   3.368   0.441  11.162  0.1022 -0.3885  0.1902
  273MPD2    H5 4133   3.291   0.421  11.099 -0.4815 -1.3067  1.2055
  273MPD2    N1 4134   3.548   0.326  11.622  0.1250 -0.2503 -0.3130
  273MPD2    H7 4135   3.515   0.287  11.710  1.9609  2.1262  1.4470
  274TMC3    C1 4136   3.436   0.606  11.003  0.1023  0.3517 -0.3215
  274TMC3    C2 4137   3.350   0.544  10.917 -0.5054  0.0216 -0.3408
  274TMC3    C3 4138   3.295   0.636  10.828  0.0066 -0.0620  0.2380
  274TMC3    C4 4139   3.484   0.732  10.993 -0.0300  0.7780  0.2000
  274TMC3    C5 4140   3.419   0.812  10.909 -0.1700 -0.2235 -0.7728
  274TMC3    C6 4141   3.331   0.764  10.818  0.3279 -0.7448 -0.5463
  274TMC3     C 4142   3.451   0.546  11.132  0.2570  0.2695  0.2164
  274TMC3     O 4143   3.536   0.596  11.202  0.4273  0.1580  0.3188
  274TMC3     H 4144   3.322   0.439  10.920 -0.4999 -0.0385 -1.9722
  274TMC3    H1 4145   3.549   0.766  11.072  1.5799 -1.8630  0.0273
  274TMC3    H2 4146   3.253   0.826  10.775 -0.9113 -2.3080 -0.5442
  274TMC3    C7 4147   3.386   0.945  10.961 -0.6780 -0.1588 -0.3261
  274TMC3    C8 4148   3.210   0.582  10.728  0.2045  1.0710  0.0049
  274TMC3    O1 4149   3.283   0.989  10.907 -0.1656  0.1317 -0.1897
  274TMC3    O2 4150   3.134   0.499  10.773 -0.2802 -0.2258 -0.2312
  275MPD2     C 4151   3.189   3.106  14.357  0.2476  0.1121 -0.3204
  275MPD2    C1 4152   3.134   3.092  14.483  0.3444 -0.0970  0.3700
  275MPD2    C2 4153   2.991   3.078  14.495 -0.1054 -0.3435 -0.0330
  275MPD2    C3 4154   2.906   3.082  14.389  0.9022 -0.4023  0.2849
  275MPD2    C4 4155   2.964   3.107  14.266 -0.1260  0.2941  0.0443
  275MPD2    C5 4156   3.097   3.113  14.257 -0.0655 -0.5931 -0.7695
  275MPD2     H 4157   2.955   3.068  14.597 -1.3837 -1.6747 -0.6241
  275MPD2    H1 4158   2.905   3.117  14.176  0.8522 -0.7751 -0.7256
  275MPD2    H2 4159   3.294   3.119  14.334 -0.3923  0.5492 -2.9993
  275MPD2    H3 4160   3.145   3.144  14.165  2.4479 -1.8467  0.1021
  275MPD2     N 4161   2.761   3.089  14.389  0.1868  0.1946  0.0855
  275MPD2    H5 4162   2.728   3.111  14.296  1.8912 -1.3783 -0.8762
  275MPD2    N1 4163   3.210   3.076  14.604  0.0805  0.7125  0.2437
  275MPD2    H7 4164   3.174   3.032  14.688 -1.0109 -0.9350 -1.0763
  276TMC3    C1 4165   3.383   3.111  14.756 -0.5986  0.2559 -0.1023
  276TMC3    C2 4166   3.342   3.005  14.838 -0.0088  0.4398 -0.4971
  276TMC3    C3 4167   3.374   3.010  14.970 -0.5110 -0.6436 -0.2709
  276TMC3    C4 4168   3.446   3.228  14.806 -0.0198  0.2498  0.3712
  276TMC3    C5 4169   3.466   3.229  14.940 -0.2415 -0.1584 -0.2723
  276TMC3    C6 4170   3.441   3.117  15.017  0.0868  0.2691  0.2096
  276TMC3     C 4171   3.337   3.123  14.616  0.8456 -0.5597  0.1627
  276TMC3     O 4172   3.399   3.202  14.549  0.3050  0.0577 -0.0608
  276TMC3     H 4173   3.295   2.920  14.790 -0.8923  1.8670 -2.1466
  276TMC3    H1 4174   3.466   3.301  14.729  0.0882  0.7010  0.8309
  276TMC3    H2 4175   3.466   3.122  15.122  0.0729 -0.3960  0.2448
  276TMC3    C7 4176   3.492   3.354  15.005  0.6701  0.0902  0.2762
  276TMC3    C8 4177   3.352   2.897  15.065  0.1256  0.2408 -0.4691
  276TMC3    O1 4178   3.446   3.367  15.117 -0.0519 -0.2381 -0.2584
  276TMC3    O2 4179   3.378   2.931  15.181 -0.0354  0.5291 -0.3973
  277MPD2     C 4180   4.521   2.434  13.282 -0.3997 -0.0751 -0.2111
  277MPD2    C1 4181   4.388   2.457  13.317 -0.3379  0.3288 -0.3637
  277MPD2    C2 4182   4.331   2.376  13.414 -0.1833 -0.0061  0.2525
  277MPD2    C3 4183   4.391   2.251  13.446 -0.2386 -0.4568  0.2989
  277MPD2    C4 4184   4.517   2.223  13.388  0.2316  0.3509 -0.0353
  277MPD2    C5 4185   4.586   2.320  13.318  0.8879 -0.3153  0.3212
  277MPD2     H 4186   4.241   2.408  13.466 -0.0639  1.2063 -0.3034
  277MPD2    H1 4187   4.566   2.131  13.416 -0.3470 -0.3106 -1.2187
  277MPD2    H2 4188   4.578   2.507  13.226 -0.2878  0.7081  0.9284
  277MPD2    H3 4189   4.689   2.302  13.291  0.7374 -1.6476  0.6618
  277MPD2     N 4190   4.318   2.154  13.518 -0.0374 -0.3924 -0.5011
  277MPD2    H5 4191   4.228   2.188  13.551 -0.4007 -0.2070 -1.6670
  277MPD2    N1 4192   4.335   2.582  13.286 -0.3008  0.7220  0.2171
  277MPD2    H7 4193   4.402   2.650  13.250 -0.0028  0.2202 -0.1671
  278TMC3    C1 4194   4.269   1.956  13.634  0.1731 -0.1444 -0.6253
  278TMC3    C2 4195   4.286   1.819  13.647 -0.3326  0.0163 -0.0292
  278TMC3    C3 4196   4.243   1.767  13.769  0.3217 -0.1740 -0.2147
  278TMC3    C4 4197   4.204   2.033  13.724  0.1137  0.0317  0.5203
  278TMC3    C5 4198   4.164   1.970  13.841  0.7240  0.5443  0.1905
  278TMC3    C6 4199   4.183   1.839  13.862  0.3834  0.1265 -0.2162
  278TMC3     C 4200   4.363   2.028  13.548  0.2251  0.0013 -0.0367
  278TMC3     O 4201   4.461   1.964  13.516 -0.1941 -0.1670 -0.3656
  278TMC3     H 4202   4.342   1.757  13.578  1.1731  0.4848  0.7788
  278TMC3    H1 4203   4.199   2.141  13.721 -0.5635 -0.0232 -0.2423
  278TMC3    H2 4204   4.136   1.805  13.954  1.1436  0.8772  0.4465
  278TMC3    C7 4205   4.049   2.036  13.901 -0.3959 -0.1241 -0.9953
  278TMC3    C8 4206   4.224   1.624  13.773 -0.3517 -0.3841  0.2968
  278TMC3    O1 4207   4.067   2.146  13.956  0.1247 -0.3790  0.2016
  278TMC3    O2 4208   4.253   1.572  13.880  0.0083  0.1080 -0.2693
  279MPD2     C 4209   3.501   2.227   0.521  0.1167  0.1814 -0.2638
  279MPD2    C1 4210   3.459   2.344   0.459 -0.4900  0.5916  1.5516
  279MPD2    C2 4211   3.440   2.349   0.326 -0.1224 -0.0885  0.0166
  279MPD2    C3 4212   3.475   2.238   0.243  0.2382 -0.0084  0.0668
  279MPD2    C4 4213   3.519   2.123   0.308 -0.5207  0.0322 -0.5238
  279MPD2    C5 4214   3.524   2.114   0.448 -0.3042 -0.6873  0.0673
  279MPD2     H 4215   3.401   2.434   0.271  0.7766  2.1501  2.8805
  279MPD2    H1 4216   3.550   2.033   0.257 -2.6072 -1.1986  0.3761
  279MPD2    H2 4217   3.513   2.221   0.629  1.1782  1.8017 -0.2943
  279MPD2    H3 4218   3.561   2.027   0.500  0.0653 -0.0715  0.8371
  279MPD2     N 4219   3.479   2.250   0.098  0.0703 -0.0693 -0.0571
  279MPD2    H5 4220   3.511   2.164   0.055 -0.4544 -0.8266  1.0522
  279MPD2    N1 4221   3.454   2.461   0.546  0.3773  0.5353  0.1762
  279MPD2    H7 4222   3.460   2.435   0.644  1.8442  1.1299  0.2360
  280TMC3    C1 4223   3.415   2.680   0.609  0.9366  0.3341 -0.5035
  280TMC3    C2 4224   3.460   2.639   0.738 -0.2438 -0.1984  0.3658
  280TMC3    C3 4225   3.435   2.731   0.838 -0.3349 -0.1643  0.5575
  280TMC3    C4 4226   3.342   2.794   0.594  0.3286  0.5531  0.5692
  280TMC3    C5 4227   3.313   2.872   0.703  0.2839 -0.2193 -1.0026
  280TMC3    C6 4228   3.367   2.846   0.821 -0.3426 -0.3867  0.2168
  280TMC3     C 4229   3.426   2.589   0.505  0.1290  0.1828  0.6100
  280TMC3     O 4230   3.379   2.624   0.398  0.2135  0.7287 -0.2347
  280TMC3     H 4231   3.534   2.560   0.746  1.1405  0.8559 -2.1118
  280TMC3    H1 4232   3.294   2.812   0.499  0.7972  0.7394  0.3675
  280TMC3    H2 4233   3.358   2.920   0.900 -1.6727 -0.3585  0.0466
  280TMC3    C7 4234   3.215   2.983   0.700 -0.7328  0.0908  0.3370
  280TMC3    C8 4235   3.465   2.702   0.979 -0.5034  0.7229 -0.1608
  280TMC3    O1 4236   3.201   3.048   0.799  0.5726 -0.7814 -0.2632
  280TMC3    O2 4237   3.440   2.796   1.053  0.1665 -0.2872 -0.2379
  281TMC3    C1 4238   2.513   2.455  12.787  0.2584 -0.0854 -0.3947
  281TMC3    C2 4239   2.569   2.559  12.712  0.5244  0.1756  0.3675
  281TMC3    C3 4240   2.592   2.528  12.573 -0.1271 -0.0265  0.5906
  281TMC3    C4 4241   2.489   2.330  12.739  0.2800 -0.1322 -0.1200
  281TMC3    C5 4242   2.522   2.306  12.609 -0.3074  0.0870 -0.2540
  281TMC3    C6 4243   2.564   2.406  12.523 -0.4341 -0.1229 -0.5489
  281TMC3     C 4244   2.485   2.473  12.924 -0.4780 -0.4496 -0.0056
  281TMC3     O 4245   2.491   2.368  12.987 -0.6537 -0.0828 -1.1001
  281TMC3     H 4246   2.605   2.653  12.752 -1.9446  1.5233 -0.5690
  281TMC3    H1 4247   2.434   2.260  12.802  0.5520  1.0960  1.5015
  281TMC3    H2 4248   2.592   2.381  12.421  2.9051  1.5427 -0.0264
  281TMC3    C7 4249   2.517   2.169  12.550  0.2436 -0.3534  0.5429
  281TMC3    C8 4250   2.691   2.598  12.498 -0.4289  0.0066  0.0002
  281TMC3    O1 4251   2.590   2.155  12.453 -0.3780 -0.2378 -0.5479
  281TMC3    O2 4252   2.760   2.537  12.418  0.0084 -0.5444  0.5812
  282MPD2     C 4253   4.617   4.051  15.396  0.7946 -0.2441  0.2378
  282MPD2    C1 4254   4.496   4.080  15.461 -0.0970  0.4953  0.4097
  282MPD2    C2 4255   4.381   4.097  15.386 -0.2421  0.7641 -0.8313
  282MPD2    C3 4256   4.380   4.081  15.249 -0.1489 -0.2007  0.0582
  282MPD2    C4 4257   4.500   4.046  15.183 -0.2831 -0.4000  0.7176
  282MPD2    C5 4258   4.617   4.036  15.257  0.4345 -0.0801  0.0152
  282MPD2     H 4259   4.286   4.124  15.431  0.8914  2.8725  0.2614
  282MPD2    H1 4260   4.504   4.037  15.075  0.9377  0.5848  0.6722
  282MPD2    H2 4261   4.708   4.025  15.448  1.8743 -1.1928 -2.1204
  282MPD2    H3 4262   4.706   4.006  15.202 -0.6569 -0.1604 -1.7142
  282MPD2     N 4263   4.256   4.095  15.186 -0.4625  0.0953  0.8575
  282MPD2    H5 4264   4.184   4.141  15.240 -4.3848 -2.5683 -2.1035
  282MPD2    N1 4265   4.481   4.084  15.599 -0.3040  0.1995  0.3143
  282MPD2    H7 4266   4.390   4.105  15.638 -1.1773  0.3601 -1.8312
  283TMC3    C1 4267   4.535   4.072  15.824 -0.0751 -0.7306  0.2085
  283TMC3    C2 4268   4.488   4.203  15.838 -0.0262 -0.2616  0.7596
  283TMC3    C3 4269   4.375   4.223  15.917 -0.2519 -0.2965 -0.2241
  283TMC3    C4 4270   4.460   3.967  15.866  0.2295 -0.2643 -0.2219
  283TMC3    C5 4271   4.349   3.994  15.949 -0.3425 -0.4057 -0.1088
  283TMC3    C6 4272   4.307   4.121  15.973 -0.4377 -0.4103  0.2262
  283TMC3     C 4273   4.584   4.058  15.692  0.3904  0.4936  0.4777
  283TMC3     O 4274   4.694   4.004  15.683  0.9939  0.2404  0.2484
  283TMC3     H 4275   4.548   4.283  15.795  0.5722  0.5462  3.0819
  283TMC3    H1 4276   4.489   3.866  15.842  0.0726 -0.2201 -0.5978
  283TMC3    H2 4277   4.229   4.138  16.047  2.1856 -1.0100  3.1495
  283TMC3    C7 4278   4.240   3.892  15.975 -0.2294 -0.0898 -0.0282
  283TMC3    C8 4279   4.341   4.358  15.963 -0.6850  0.4243 -0.1854
  283TMC3    O1 4280   4.134   3.940  16.013 -0.0980  0.2068 -0.5869
  283TMC3    O2 4281   4.281   4.362  16.073 -0.2870  0.0638  0.0459
  284MPD2     C 4282   2.565   3.192  11.752 -0.7115 -0.5449  0.0014
  284MPD2    C1 4283   2.649   3.124  11.674 -0.3907 -0.3114  0.3945
  284MPD2    C2 4284   2.645   2.988  11.676  0.3454 -0.6860 -0.2280
  284MPD2    C3 4285   2.549   2.917  11.741  0.6327  0.0370 -0.3390
  284MPD2    C4 4286   2.462   2.984  11.822  0.0636 -0.5583  0.3418
  284MPD2    C5 4287   2.477   3.121  11.836 -0.1619 -0.1873 -0.1443
  284MPD2     H 4288   2.717   2.935  11.614  0.8096 -0.5891  0.2301
  284MPD2    H1 4289   2.379   2.934  11.869  1.5079 -1.1393  2.2664
  284MPD2    H2 4290   2.572   3.298  11.774  1.3360 -0.5932 -0.4326
  284MPD2    H3 4291   2.413   3.172  11.908 -0.1661  0.4775 -0.6183
  284MPD2     N 4292   2.564   2.772  11.733 -0.5109  0.0231  0.4731
  284MPD2    H5 4293   2.635   2.728  11.675 -1.3036 -1.9909  1.0154
  284MPD2    N1 4294   2.734   3.188  11.579  0.1717 -0.0505  0.6641
  284MPD2    H7 4295   2.797   3.135  11.519 -1.4063  0.6495 -1.6323
  285TMC3    C1 4296   2.811   3.368  11.438 -0.2807 -0.3074 -0.2213
  285TMC3    C2 4297   2.801   3.298  11.324  0.0047  0.2285 -0.5134
  285TMC3    C3 4298   2.840   3.362  11.206  0.9326  0.4178 -0.7786
  285TMC3    C4 4299   2.847   3.501  11.442 -0.4188 -0.3225  0.2364
  285TMC3    C5 4300   2.880   3.558  11.321  0.1417 -0.0829 -0.2154
  285TMC3    C6 4301   2.876   3.493  11.196  1.0691 -0.5068 -0.6018
  285TMC3     C 4302   2.723   3.323  11.544  0.0600 -0.0863  0.1103
  285TMC3     O 4303   2.642   3.399  11.594 -0.3633  0.3687  0.5439
  285TMC3     H 4304   2.773   3.193  11.323  1.7869 -0.2604 -0.0663
  285TMC3    H1 4305   2.855   3.548  11.539 -0.2506 -1.6086  0.8423
  285TMC3    H2 4306   2.911   3.529  11.101  2.3688 -0.1328  0.0163
  285TMC3    C7 4307   2.970   3.682  11.334  0.2586  0.5192 -0.0175
  285TMC3    C8 4308   2.875   3.270  11.097  0.2761 -0.1216  0.4202
  285TMC3    O1 4309   3.040   3.685  11.436 -0.1204 -0.2540  0.0111
  285TMC3    O2 4310   2.811   3.169  11.074 -0.1795  0.4393  0.9488
  286MPD2     C 4311   2.863   1.801   2.154  0.0856 -0.5520  0.2374
  286MPD2    C1 4312   2.840   1.829   2.019 -0.2830  0.4421  0.0959
  286MPD2    C2 4313   2.916   1.772   1.919 -0.4733 -0.7497  0.3305
  286MPD2    C3 4314   3.013   1.683   1.956  0.0852  0.1843 -0.1632
  286MPD2    C4 4315   3.039   1.652   2.088 -0.5460 -0.2278  0.0957
  286MPD2    C5 4316   2.964   1.710   2.182 -0.1643  0.2771  0.2555
  286MPD2     H 4317   2.911   1.810   1.818  2.4342 -0.8098  0.1700
  286MPD2    H1 4318   3.109   1.577   2.123 -0.0682  0.0917 -0.1786
  286MPD2    H2 4319   2.797   1.839   2.232  1.1685 -0.5177  1.1280
  286MPD2    H3 4320   2.971   1.675   2.284  1.6319  2.3628  0.8576
  286MPD2     N 4321   3.090   1.615   1.862  0.5538 -0.3612  0.0294
  286MPD2    H5 4322   3.159   1.550   1.899  1.3363  1.7752  2.3021
  286MPD2    N1 4323   2.736   1.915   1.971 -0.0490  0.5965  0.3021
  286MPD2    H7 4324   2.733   1.918   1.870  1.7747  2.8207  0.3190
  287TMC3    C1 4325   3.150   1.545   1.641 -0.6310 -0.0118  0.3266
  287TMC3    C2 4326   3.118   1.543   1.508  0.2779 -0.9491 -0.0623
  287TMC3    C3 4327   3.200   1.477   1.423 -0.0756  0.4661 -0.0938
  287TMC3    C4 4328   3.268   1.491   1.691  0.1854  0.0549  0.1794
  287TMC3    C5 4329   3.340   1.415   1.599  0.7420 -0.8344 -0.8531
  287TMC3    C6 4330   3.313   1.406   1.464 -0.7476 -0.5307  0.1873
  287TMC3     C 4331   3.058   1.614   1.724 -0.0913  0.0332 -1.2535
  287TMC3     O 4332   2.965   1.667   1.660  0.4422  0.1639  0.2387
  287TMC3     H 4333   3.031   1.593   1.470 -0.1430 -1.8092 -0.2279
  287TMC3    H1 4334   3.298   1.506   1.794  3.0174 -0.4010 -0.5652
  287TMC3    H2 4335   3.379   1.359   1.391  1.3830  0.3176  1.5459
  287TMC3    C7 4336   3.456   1.368   1.650 -0.7136 -0.0764  0.0800
  287TMC3    C8 4337   3.166   1.487   1.286  0.5318  0.4160 -0.4430
  287TMC3    O1 4338   3.499   1.423   1.750 -0.6498  0.2959 -0.0446
  287TMC3    O2 4339   3.055   1.532   1.254 -0.2269 -0.6142  0.0727
  288TMC3    C1 4340   4.573   1.252  14.409 -0.5487 -0.2172  0.0837
  288TMC3    C2 4341   4.482   1.261  14.511  0.4883 -0.7119  0.0273
  288TMC3    C3 4342   4.443   1.386  14.550 -1.1354  0.5589 -0.1506
  288TMC3    C4 4343   4.614   1.365  14.335  0.0727  0.7180  0.4665
  288TMC3    C5 4344   4.576   1.485  14.381  0.2393  0.6972  0.6766
  288TMC3    C6 4345   4.489   1.497  14.487 -0.0226  0.1139 -0.0666
  288TMC3     C 4346   4.648   1.135  14.382  0.0141  0.0856 -1.3897
  288TMC3     O 4347   4.603   1.028  14.418 -0.1903  0.0094  0.4104
  288TMC3     H 4348   4.456   1.179  14.577 -0.0885 -1.0342 -0.6050
  288TMC3    H1 4349   4.677   1.350  14.248 -0.0783  1.6049  0.2097
  288TMC3    H2 4350   4.448   1.592  14.521 -1.4705 -0.2111 -0.9091
  288TMC3    C7 4351   4.640   1.598  14.322  0.4356  0.1052  0.7239
  288TMC3    C8 4352   4.373   1.402  14.674  0.4005 -0.6964  0.1570
  288TMC3    O1 4353   4.701   1.568  14.219  0.8994 -0.8188 -0.5122
  288TMC3    O2 4354   4.415   1.489  14.748 -0.0919  0.4084  0.6905
  289MPD2     C 4355   0.024   0.874  13.869 -0.1976 -0.4725  0.3512
  289MPD2    C1 4356   4.705   0.986  13.936 -0.1791 -0.3459 -0.2319
  289MPD2    C2 4357   4.574   0.984  13.980  0.0376 -0.6722  0.4692
  289MPD2    C3 4358   4.484   0.875  13.946  0.1918  0.5053 -0.3820
  289MPD2    C4 4359   4.533   0.772  13.871 -1.0676  0.5911  0.7435
  289MPD2    C5 4360   4.662   0.772  13.831  0.4927 -0.1390  0.0530
  289MPD2     H 4361   4.530   1.061  14.043 -0.1088 -0.3125 -0.0703
  289MPD2    H1 4362   4.474   0.686  13.842  0.9917 -1.1344  1.7155
  289MPD2    H2 4363   0.126   0.882  13.831 -2.0770 -0.4687 -4.7001
  289MPD2    H3 4364   4.710   0.684  13.790 -0.1689 -0.1177 -0.7577
  289MPD2     N 4365   4.345   0.881  13.983  0.7607  0.1223 -0.1037
  289MPD2    H5 4366   4.288   0.801  13.956 -1.2834  0.4382  3.3664
  289MPD2    N1 4367   0.079   1.092  13.954 -0.0751 -0.4108 -0.5778
  289MPD2    H7 4368   0.172   1.075  13.919  0.0064 -1.7145  0.2643
  290TMC3    C1 4369   4.143   0.981  14.065  0.2385 -0.2835 -0.2042
  290TMC3    C2 4370   4.064   1.094  14.054  0.1905  0.3766 -0.0747
  290TMC3    C3 4371   3.942   1.094  14.114 -1.1702  0.1841 -0.1609
  290TMC3    C4 4372   4.102   0.863  14.121 -1.1536 -0.3864 -0.7534
  290TMC3    C5 4373   3.988   0.879  14.197  0.7116  0.9771 -0.1290
  290TMC3    C6 4374   3.899   0.988  14.189 -0.2093  0.2172  0.0151
  290TMC3     C 4375   4.279   0.996  14.016 -0.1805 -0.4806  0.0752
  290TMC3     O 4376   4.310   1.112  13.994  0.5684  0.3341 -0.4801
  290TMC3     H 4377   4.093   1.178  13.992 -0.1828  0.6215  0.0887
  290TMC3    H1 4378   4.178   0.789  14.144 -1.2095  0.1438  1.2225
  290TMC3    H2 4379   3.810   1.002  14.250 -0.8568 -0.7300 -0.7308
  290TMC3    C7 4380   3.979   0.815  14.325 -0.2948  0.0943  0.2711
  290TMC3    C8 4381   3.869   1.222  14.130 -0.4794  0.5767 -0.1296
  290TMC3    O1 4382   3.953   0.896  14.411 -0.1711 -0.2200 -0.3443
  290TMC3    O2 4383   3.746   1.209  14.136  0.3985 -0.3307 -0.2077
  291MPD2     C 4384   3.934   0.702   0.715 -0.1081  0.0580  0.1854
  291MPD2    C1 4385   3.939   0.631   0.599  0.2031 -0.0053  0.3640
  291MPD2    C2 4386   4.053   0.635   0.517 -0.4219 -0.1823  0.5824
  291MPD2    C3 4387   4.163   0.713   0.560 -0.1235 -0.6473  0.0853
  291MPD2    C4 4388   4.148   0.793   0.667  0.0613 -0.4601  0.2214
  291MPD2    C5 4389   4.038   0.788   0.750 -0.4065  0.2464  0.2081
  291MPD2     H 4390   4.057   0.580   0.423  1.3156  3.0654 -1.2233
  291MPD2    H1 4391   4.229   0.862   0.690  0.3725 -1.1115  1.0495
  291MPD2    H2 4392   3.848   0.718   0.780 -1.9083 -2.2895 -1.6260
  291MPD2    H3 4393   4.038   0.846   0.842  1.3496  1.6398 -0.6804
  291MPD2     N 4394   4.284   0.717   0.485 -0.6124 -0.0176  0.3872
  291MPD2    H5 4395   4.358   0.782   0.510  0.5044 -0.7297 -1.0290
  291MPD2    N1 4396   3.816   0.579   0.553  0.2058 -0.1293  0.2918
  291MPD2    H7 4397   3.736   0.600   0.611  1.1327  0.0053  1.5094
  292TMC3    C1 4398   3.653   0.475   0.398 -0.7508 -0.2548  0.0255
  292TMC3    C2 4399   3.555   0.531   0.466 -0.1721  0.4989 -1.0194
  292TMC3    C3 4400   3.426   0.490   0.447  0.2535 -0.7394 -0.7971
  292TMC3    C4 4401   3.628   0.371   0.310 -1.2357 -0.3936 -0.7843
  292TMC3    C5 4402   3.504   0.322   0.302  0.6454  0.3436  0.3570
  292TMC3    C6 4403   3.401   0.372   0.373 -0.9394 -1.0009  0.1110
  292TMC3     C 4404   3.796   0.497   0.440 -0.5775 -0.2816  0.6063
  292TMC3     O 4405   3.874   0.437   0.374  0.3930  0.0482  0.3069
  292TMC3     H 4406   3.570   0.628   0.512  0.6146 -0.1679  0.1216
  292TMC3    H1 4407   3.712   0.321   0.264  0.7986  0.7599  1.7169
  292TMC3    H2 4408   3.298   0.338   0.369 -0.9061 -0.9503 -1.1300
  292TMC3    C7 4409   3.487   0.204   0.221 -0.2440 -0.5857 -0.5953
  292TMC3    C8 4410   3.332   0.540   0.545 -0.2599 -0.0141  0.3333
  292TMC3    O1 4411   3.558   0.199   0.123  0.2176  0.0977  0.2617
  292TMC3    O2 4412   3.366   0.636   0.611 -0.6914 -0.0613  0.0547
  293MPD2     C 4413   1.086   2.168  12.428  0.0677  0.7199  0.4494
  293MPD2    C1 4414   1.025   2.121  12.536 -0.5940  0.2226 -1.1048
  293MPD2    C2 4415   1.073   2.143  12.664 -0.1138  0.9675 -0.3940
  293MPD2    C3 4416   1.177   2.229  12.691 -0.4357 -0.8088  0.0575
  293MPD2    C4 4417   1.238   2.282  12.577  0.6733 -0.6720  0.2452
  293MPD2    C5 4418   1.195   2.247  12.452 -0.2668  0.1152  0.2543
  293MPD2     H 4419   1.028   2.099  12.752  0.7647  0.1671 -0.3465
  293MPD2    H1 4420   1.323   2.348  12.565 -0.9472  1.2995 -0.3096
  293MPD2    H2 4421   1.040   2.162  12.330  1.4743  0.8616 -0.2292
  293MPD2    H3 4422   1.249   2.296  12.372 -0.5105  0.2231  0.1549
  293MPD2     N 4423   1.203   2.261  12.826  0.1388  0.1299  0.2745
  293MPD2    H5 4424   1.147   2.212  12.896  0.3096  1.4590  1.3410
  293MPD2    N1 4425   0.916   2.035  12.503  0.4410 -0.0363  0.3311
  293MPD2    H7 4426   0.876   2.030  12.410 -1.7197 -2.8395  1.4022
  294TMC3    C1 4427   0.708   1.938  12.551  0.6530 -0.0184  0.2011
  294TMC3    C2 4428   0.609   1.933  12.641  0.2673 -0.5713 -0.0681
  294TMC3    C3 4429   0.484   1.899  12.598 -0.6655  0.7790  0.1213
  294TMC3    C4 4430   0.695   1.891  12.423 -0.0910 -0.3332  0.1845
  294TMC3    C5 4431   0.562   1.860  12.380  0.3947  0.2693  0.4788
  294TMC3    C6 4432   0.459   1.854  12.474  0.1971 -0.1350  0.5462
  294TMC3     C 4433   0.835   1.975  12.600  0.7656 -0.6241  0.0485
  294TMC3     O 4434   0.855   1.970  12.719  0.0932  0.3872 -0.1184
  294TMC3     H 4435   0.628   1.955  12.745  2.1674  3.3938 -1.2574
  294TMC3    H1 4436   0.778   1.870  12.356  1.5902  0.5348  2.0038
  294TMC3    H2 4437   0.356   1.847  12.441  1.4326 -1.5768 -3.0266
  294TMC3    C7 4438   0.534   1.802  12.252 -0.4561  0.3534 -0.2458
  294TMC3    C8 4439   0.379   1.895  12.702  0.2598 -0.7046 -0.3024
  294TMC3    O1 4440   0.429   1.733  12.244 -0.3099 -0.1739  0.3542
  294TMC3    O2 4441   0.384   1.980  12.785 -0.4710 -0.6070  0.2153
  295MPD2     C 4442   1.235   0.880   0.378 -0.2964 -0.9208  0.5631
  295MPD2    C1 4443   1.334   0.935   0.459  0.1820 -0.4497 -0.1256
  295MPD2    C2 4444   1.296   1.017   0.560  0.0287 -0.3701  0.0511
  295MPD2    C3 4445   1.161   1.047   0.583 -0.3465  0.3193 -0.0042
  295MPD2    C4 4446   1.059   1.000   0.500  0.2441  0.1516 -0.3516
  295MPD2    C5 4447   1.104   0.918   0.395 -0.4288 -0.1030  0.3591
  295MPD2     H 4448   1.373   1.062   0.621 -0.9683 -1.8215  2.3800
  295MPD2    H1 4449   0.955   1.025   0.518  0.3969 -0.6622  1.6437
  295MPD2    H2 4450   1.256   0.815   0.294 -0.4248 -0.0626 -0.1351
  295MPD2    H3 4451   1.021   0.869   0.345  0.0005  1.0757 -1.4939
  295MPD2     N 4452   1.114   1.120   0.695 -0.5357  0.0168 -0.6694
  295MPD2    H5 4453   1.014   1.133   0.705 -0.4518 -0.8847  1.2449
  295MPD2    N1 4454   1.468   0.903   0.448  0.0663  0.0804  0.7316
  295MPD2    H7 4455   1.531   0.946   0.515 -0.2292  2.0972 -0.2942
  296TMC3    C1 4456   1.104   1.240   0.890 -0.0896 -0.3978  0.4519
  296TMC3    C2 4457   1.159   1.338   0.967 -0.4720  0.1633  0.1165
  296TMC3    C3 4458   1.090   1.392   1.067 -0.0471 -0.5145 -0.2391
  296TMC3    C4 4459   0.977   1.187   0.910 -0.0169 -0.3703 -0.5838
  296TMC3    C5 4460   0.903   1.252   1.008 -1.0822 -0.5260  0.1372
  296TMC3    C6 4461   0.954   1.356   1.089  0.0282 -0.3572 -0.3832
  296TMC3     C 4462   1.194   1.189   0.785  0.8760 -0.9565  0.1896
  296TMC3     O 4463   1.316   1.201   0.788 -0.1351  0.0767  0.0062
  296TMC3     H 4464   1.257   1.376   0.942 -0.3064 -0.4555 -0.1829
  296TMC3    H1 4465   0.934   1.100   0.862 -3.3538  1.5390 -1.0750
  296TMC3    H2 4466   0.882   1.409   1.151  0.5626  0.0665 -0.1199
  296TMC3    C7 4467   0.772   1.197   1.046 -0.2209  0.4157  0.0428
  296TMC3    C8 4468   1.115   1.528   1.108 -0.7756 -0.0221  0.8221
  296TMC3    O1 4469   0.728   1.218   1.158  0.4419  0.0826  0.2884
  296TMC3    O2 4470   1.021   1.606   1.099 -0.0338  0.2227  0.2149
  297MPD2     C 4471   3.387   3.221  17.030  0.1629 -0.3795  0.7207
  297MPD2    C1 4472   3.443   3.163  16.921 -0.7048  0.0798 -0.6951
  297MPD2    C2 4473   3.507   3.241  16.827  0.1886 -0.8474  0.3447
  297MPD2    C3 4474   3.518   3.383  16.833  0.1294 -0.0962  0.8943
  297MPD2    C4 4475   3.447   3.442  16.940 -0.1360 -0.2896 -0.5421
  297MPD2    C5 4476   3.390   3.364  17.036  0.0376 -0.3286 -0.8868
  297MPD2     H 4477   3.544   3.195  16.736 -4.3910 -0.8561 -1.5140
  297MPD2    H1 4478   3.439   3.550  16.948  1.6224 -0.1765 -0.4087
  297MPD2    H2 4479   3.335   3.162  17.105 -0.1745 -0.8038  0.1586
  297MPD2    H3 4480   3.336   3.413  17.116 -0.3877  0.1853 -1.4799
  297MPD2     N 4481   3.596   3.466  16.744 -0.1571  0.0619  0.3136
  297MPD2    H5 4482   3.596   3.561  16.779  1.0999 -0.5187  1.8920
  297MPD2    N1 4483   3.442   3.020  16.889 -0.5622 -0.2252  0.3741
  297MPD2    H7 4484   3.490   2.998  16.802 -2.3410 -2.2713 -0.0939
  298TMC3    C1 4485   3.354   2.799  16.877  0.4755  0.3819 -0.2483
  298TMC3    C2 4486   3.452   2.774  16.783 -0.0025 -0.8944  0.0916
  298TMC3    C3 4487   3.413   2.714  16.660  0.1608 -0.0836 -0.2494
  298TMC3    C4 4488   3.223   2.775  16.843 -0.3865 -0.1482  1.0387
  298TMC3    C5 4489   3.185   2.723  16.721 -0.0475  0.7187  0.0776
  298TMC3    C6 4490   3.280   2.683  16.630 -0.0627  0.4512 -0.4687
  298TMC3     C 4491   3.364   2.926  16.949 -0.7655 -0.5691 -0.0762
  298TMC3     O 4492   3.270   2.949  17.019 -0.2704 -0.3535 -0.4519
  298TMC3     H 4493   3.554   2.791  16.813 -0.7068 -0.7521  2.3595
  298TMC3    H1 4494   3.146   2.807  16.912 -3.5282 -1.6633 -1.7667
  298TMC3    H2 4495   3.245   2.649  16.534 -1.4085 -1.9964  0.8948
  298TMC3    C7 4496   3.057   2.778  16.678  0.2455 -0.1436  0.0249
  298TMC3    C8 4497   3.525   2.648  16.596 -0.3894  0.1293 -0.3447
  298TMC3    O1 4498   2.997   2.859  16.755 -0.1184  0.1487  0.1469
  298TMC3    O2 4499   3.639   2.665  16.632  0.0981 -0.2094 -0.0222
  299MPD2     C 4500   4.386   2.133  10.849  0.0040 -0.0935  0.0827
  299MPD2    C1 4501   4.412   2.253  10.785  0.1006 -0.8483 -0.3395
  299MPD2    C2 4502   4.388   2.271  10.652 -0.6657  0.1705  0.4814
  299MPD2    C3 4503   4.330   2.169  10.581 -0.3453 -0.4750  0.6835
  299MPD2    C4 4504   4.328   2.040  10.638 -0.3407  0.1265 -0.4103
  299MPD2    C5 4505   4.353   2.025  10.770 -0.1888  0.0354 -0.2522
  299MPD2     H 4506   4.409   2.366  10.605 -0.0693 -0.0966  0.2064
  299MPD2    H1 4507   4.293   1.954  10.583 -0.2240 -0.4558  0.4229
  299MPD2    H2 4508   4.395   2.115  10.956  3.4385 -0.3778 -0.2737
  299MPD2    H3 4509   4.336   1.936  10.829 -0.8595  0.7677  0.6523
  299MPD2     N 4510   4.280   2.186  10.449 -0.6255 -0.1345  0.2125
  299MPD2    H5 4511   4.236   2.106  10.403 -0.9313  0.4045 -0.4309
  299MPD2    N1 4512   4.445   2.357  10.869 -0.1183 -1.0178 -0.0220
  299MPD2    H7 4513   4.455   2.335  10.968  1.7383  0.1472  0.0638
  300TMC3    C1 4514   4.145   2.296  10.286 -0.6338 -1.0359  0.1998
  300TMC3    C2 4515   4.114   2.410  10.218  0.0799 -0.4207  0.0320
  300TMC3    C3 4516   3.989   2.416  10.171  0.3631 -0.6372  0.2554
  300TMC3    C4 4517   4.058   2.195  10.308 -0.5470 -0.0760 -0.5992
  300TMC3    C5 4518   3.934   2.214  10.273 -0.4148  0.3717 -0.1862
  300TMC3    C6 4519   3.898   2.318  10.201  1.4260  0.0841  0.1320
  300TMC3     C 4520   4.259   2.300  10.378  0.1543 -0.7194  0.0713
  300TMC3     O 4521   4.299   2.415  10.395  0.3318 -0.5843  0.1616
  300TMC3     H 4522   4.189   2.481  10.186 -0.0662 -1.2164 -2.1053
  300TMC3    H1 4523   4.085   2.111  10.371 -0.7482 -0.9017 -1.6119
  300TMC3    H2 4524   3.795   2.343  10.179  1.3863  0.3012  0.5540
  300TMC3    C7 4525   3.835   2.149  10.363 -0.2408  0.5296 -0.8407
  300TMC3    C8 4526   3.945   2.545  10.131 -0.3444  0.4421  0.2417
  300TMC3    O1 4527   3.866   2.047  10.419 -0.3838  0.0701  0.3049
  300TMC3    O2 4528   3.989   2.648  10.180 -0.5952 -0.2464 -0.3943
  301MPD2     C 4529   1.564   3.816   1.190  0.0246 -0.2464  0.2134
  301MPD2    C1 4530   1.442   3.750   1.215  0.0284  0.1062  0.2729
  301MPD2    C2 4531   1.439   3.614   1.200  0.2916  0.3152  0.3530
  301MPD2    C3 4532   1.557   3.541   1.169 -0.1976  0.5607  0.5364
  301MPD2    C4 4533   1.675   3.605   1.176 -0.0527 -0.6482  0.5585
  301MPD2    C5 4534   1.677   3.741   1.189 -0.3263 -0.3051 -0.2533
  301MPD2     H 4535   1.344   3.566   1.220 -0.6015  1.6495 -0.7134
  301MPD2    H1 4536   1.762   3.541   1.185  0.5737  0.0807 -0.3170
  301MPD2    H2 4537   1.576   3.923   1.185 -0.3814 -0.1873  0.5442
  301MPD2    H3 4538   1.773   3.792   1.179 -0.9109  0.9757  0.6199
  301MPD2     N 4539   1.563   3.401   1.136  0.8639 -0.2688 -0.0944
  301MPD2    H5 4540   1.653   3.361   1.110  0.8249  0.4443 -1.3260
  301MPD2    N1 4541   1.328   3.817   1.263 -1.2736  0.5545 -0.2194
  301MPD2    H7 4542   1.250   3.757   1.287  2.4776 -3.2404  2.4739
  302TMC3    C1 4543   1.483   3.207   1.036 -0.1887 -0.1118 -0.1142
  302TMC3    C2 4544   1.582   3.125   1.082  1.0432  0.2349  0.3755
  302TMC3    C3 4545   1.601   3.006   1.021  0.4090 -0.0348  0.3220
  302TMC3    C4 4546   1.400   3.168   0.935 -0.1173  0.5634  0.1743
  302TMC3    C5 4547   1.407   3.040   0.890 -0.4207  0.3633  0.1920
  302TMC3    C6 4548   1.513   2.962   0.925  0.4117 -0.1788  0.1209
  302TMC3     C 4549   1.450   3.325   1.104 -0.6263  0.4822  0.5754
  302TMC3     O 4550   1.336   3.362   1.103 -0.0457  0.6313  0.3523
  302TMC3     H 4551   1.627   3.161   1.174  1.0103 -2.4958  1.4506
  302TMC3    H1 4552   1.342   3.244   0.884 -0.9664  0.9091  1.6541
  302TMC3    H2 4553   1.518   2.857   0.898 -1.0321 -0.6724  1.8079
  302TMC3    C7 4554   1.304   2.989   0.804  0.0810  0.1802 -0.1381
  302TMC3    C8 4555   1.695   2.907   1.083 -1.0627  0.5826 -0.2265
  302TMC3    O1 4556   1.323   2.875   0.758  0.6359 -0.8270  0.1662
  302TMC3    O2 4557   1.685   2.789   1.050 -0.2084  0.1611 -0.3774
  303MPD2     C 4558   1.690   2.194  10.882  0.8351 -0.6489 -0.3983
  303MPD2    C1 4559   1.574   2.129  10.880 -0.3044 -0.4689 -0.0790
  303MPD2    C2 4560   1.515   2.093  10.761  0.0995 -0.7130 -0.2915
  303MPD2    C3 4561   1.586   2.118  10.640  0.7112 -0.4540  0.3465
  303MPD2    C4 4562   1.711   2.183  10.648 -0.2273  0.3772  0.1844
  303MPD2    C5 4563   1.756   2.227  10.768  0.5646 -0.0904  0.4166
  303MPD2     H 4564   1.424   2.035  10.754  0.4134 -1.4825  1.9401
  303MPD2    H1 4565   1.771   2.207  10.561 -1.5775  0.7106 -0.6652
  303MPD2    H2 4566   1.733   2.215  10.980  0.2869  1.2356 -0.5545
  303MPD2    H3 4567   1.856   2.270  10.766  0.5833 -0.2293 -2.1755
  303MPD2     N 4568   1.533   2.080  10.509  0.1780  0.3692  0.0349
  303MPD2    H5 4569   1.588   2.111  10.429  0.4873 -0.8904 -0.2485
  303MPD2    N1 4570   1.517   2.090  11.004  0.0906  0.0867 -0.3468
  303MPD2    H7 4571   1.553   2.136  11.087 -1.1313 -2.2076  1.4701
  304TMC3    C1 4572   1.409   1.944  11.159  0.7566 -0.0645  0.7575
  304TMC3    C2 4573   1.364   2.040  11.245  0.4158 -0.1101 -0.7630
  304TMC3    C3 4574   1.288   2.014  11.363  0.2808 -0.0853 -0.1235
  304TMC3    C4 4575   1.378   1.812  11.182  0.3277  0.1870 -0.0555
  304TMC3    C5 4576   1.315   1.781  11.295 -0.8507 -0.5147  0.0921
  304TMC3    C6 4577   1.268   1.879  11.385  0.5231  0.4852  0.7299
  304TMC3     C 4578   1.430   1.983  11.017 -0.0996  0.6401  0.4532
  304TMC3     O 4579   1.374   1.903  10.939 -0.5112  0.6694 -0.1684
  304TMC3     H 4580   1.368   2.146  11.223 -2.4572  0.0937 -0.3233
  304TMC3    H1 4581   1.405   1.734  11.111 -1.2161 -0.5210  0.1372
  304TMC3    H2 4582   1.215   1.836  11.469 -2.9884 -0.7663 -2.1007
  304TMC3    C7 4583   1.212   1.676  11.277  0.6844  0.6563  0.6477
  304TMC3    C8 4584   1.166   2.086  11.376 -0.3655  0.8778 -1.0380
  304TMC3    O1 4585   1.105   1.700  11.338 -0.0633 -0.0709 -0.6947
  304TMC3    O2 4586   1.172   2.208  11.388 -0.0387  0.3913 -0.2249
  305MPD2     C 4587   4.657   4.139  14.011 -0.9740 -0.4113  0.0576
  305MPD2    C1 4588   4.531   4.086  14.028 -0.0665 -0.6218  0.1696
  305MPD2    C2 4589   4.457   4.039  13.916  0.2105 -0.2613  0.0360
  305MPD2    C3 4590   4.520   4.051  13.794  0.5196 -0.6116 -0.2418
  305MPD2    C4 4591   4.651   4.092  13.780  0.1012 -0.4309  0.3001
  305MPD2    C5 4592   4.724   4.134  13.888 -0.0255 -0.5717  0.0458
  305MPD2     H 4593   4.357   3.998  13.922 -0.0144  0.5994  2.1418
  305MPD2    H1 4594   4.710   4.082  13.689  1.3621  0.3972  1.0271
  305MPD2    H2 4595   4.712   4.180  14.095 -0.6674 -1.7746  0.5127
  305MPD2    H3 4596   0.097   4.177  13.870  0.7104 -2.1325  0.2436
  305MPD2     N 4597   4.456   4.022  13.667  0.0551 -0.2822 -0.5022
  305MPD2    H5 4598   4.512   4.037  13.584 -0.6123  1.5943 -0.6031
  305MPD2    N1 4599   4.466   4.103  14.150 -0.2119 -0.4653 -0.0553
  305MPD2    H7 4600   4.522   4.153  14.219 -0.7376 -0.9395  0.7125
  306TMC3    C1 4601   4.333   4.040  14.333  0.2246  0.0937  0.2268
  306TMC3    C2 4602   4.430   3.971  14.392 -0.5695  0.0653 -0.0654
  306TMC3    C3 4603   4.435   3.962  14.529  0.6929 -0.1770 -0.1671
  306TMC3    C4 4604   4.241   4.110  14.401 -0.9838 -1.3564 -0.1220
  306TMC3    C5 4605   4.243   4.101  14.535 -0.4773  0.0637  0.2095
  306TMC3    C6 4606   4.340   4.028  14.598 -0.5898  0.1137  0.3109
  306TMC3     C 4607   4.347   4.051  14.191  0.2939 -0.7252 -0.6041
  306TMC3     O 4608   4.260   4.018  14.114  0.1158 -0.0504  0.1530
  306TMC3     H 4609   4.501   3.928  14.322  0.3143 -1.6301  1.8631
  306TMC3    H1 4610   4.175   4.181  14.353 -0.1509 -1.6119 -1.6238
  306TMC3    H2 4611   4.323   3.996  14.700 -0.9130 -0.9941 -0.0951
  306TMC3    C7 4612   4.196   4.206  14.606  0.8098 -0.2718 -0.2158
  306TMC3    C8 4613   4.494   3.846  14.584  0.4775  0.4038  0.5883
  306TMC3    O1 4614   4.109   4.274  14.552 -0.5573 -0.3287 -0.3314
  306TMC3    O2 4615   4.523   3.753  14.510  0.0186 -0.1464  0.0847
  307MPD2     C 4616   2.373   1.986   0.240 -0.1151 -0.4910  0.4807
  307MPD2    C1 4617   2.359   2.119   0.255  0.7042  0.4177 -0.4507
  307MPD2    C2 4618   2.293   2.175   0.366 -0.1250 -0.1801 -0.1531
  307MPD2    C3 4619   2.243   2.084   0.461  0.6797 -0.1176 -0.5008
  307MPD2    C4 4620   2.257   1.952   0.446  0.1484  0.4333  0.3727
  307MPD2    C5 4621   2.321   1.902   0.335  1.3327 -0.3338 -0.0211
  307MPD2     H 4622   2.273   2.281   0.366  0.5731 -0.0476  0.2598
  307MPD2    H1 4623   2.215   1.877   0.512 -0.7273 -0.2321 -0.9335
  307MPD2    H2 4624   2.426   1.938   0.158  0.1300  0.5809  0.0106
  307MPD2    H3 4625   2.319   1.794   0.321 -0.1435 -0.1406 -1.3242
  307MPD2     N 4626   2.161   2.142   0.568 -0.3948  0.2614 -0.4801
  307MPD2    H5 4627   2.136   2.239   0.554  2.7288  1.1044 -0.0654
  307MPD2    N1 4628   2.394   2.214   0.153  0.2576 -0.6100 -0.0779
  307MPD2    H7 4629   2.356   2.308   0.156 -1.1163 -1.1635 -0.2727
  308TMC3    C1 4630   1.814   2.147   0.886  0.2392  0.2404  0.7612
  308TMC3    C2 4631   1.832   2.281   0.921 -0.7816 -0.0536 -0.4063
  308TMC3    C3 4632   1.938   2.345   0.864 -0.0551  0.3739  0.3659
  308TMC3    C4 4633   1.894   2.082   0.801 -0.5574 -0.2229  0.0276
  308TMC3    C5 4634   2.002   2.152   0.752  0.1012 -0.7325  0.6349
  308TMC3    C6 4635   2.018   2.286   0.773  0.1625 -0.0135 -0.5941
  308TMC3     C 4636   1.677   2.099   0.888 -0.2752  0.4651 -0.3295
  308TMC3     O 4637   1.665   1.978   0.873 -0.0401  0.1626  0.4163
  308TMC3     H 4638   1.772   2.326   0.999 -1.1454  0.7155 -1.1344
  308TMC3    H1 4639   1.900   1.974   0.797 -1.4119 -0.2026 -1.4778
  308TMC3    H2 4640   2.103   2.340   0.732 -0.2718  0.5777 -0.7293
  308TMC3    C7 4641   2.105   2.073   0.675 -0.2826 -0.4840  0.4671
  308TMC3    C8 4642   1.979   2.473   0.923 -0.4414  0.5812 -0.5963
  308TMC3    O1 4643   2.113   1.954   0.712  0.1218  0.1841  0.5301
  308TMC3    O2 4644   1.971   2.468   1.047  0.0469  0.2358 -0.2927
  309MPD2     C 4645   1.273   2.811  17.192  0.2480  0.2142  0.6276
  309MPD2    C1 4646   1.209   2.819  17.069  0.9278  0.3440 -0.8243
  309MPD2    C2 4647   1.072   2.833  17.061  0.5914  0.2060 -0.2757
  309MPD2    C3 4648   0.998   2.841  17.179 -0.2941 -0.4329  0.3145
  309MPD2    C4 4649   1.064   2.830  17.299 -0.0343 -0.1227  0.2517
  309MPD2    C5 4650   1.201   2.808  17.304  0.0635 -0.5709 -0.2874
  309MPD2     H 4651   1.008   2.831  16.974  1.9450  2.1911 -1.3332
  309MPD2    H1 4652   1.011   2.835  17.394  1.9970 -0.4268  1.3867
  309MPD2    H2 4653   1.378   2.786  17.203 -0.3527 -2.2274  0.8005
  309MPD2    H3 4654   1.248   2.797  17.401 -1.4230 -2.6426  0.2050
  309MPD2     N 4655   0.861   2.851  17.188  0.1137 -0.2495  0.2210
  309MPD2    H5 4656   0.820   2.831  17.279 -0.1222 -0.8235 -0.0096
  309MPD2    N1 4657   1.282   2.819  16.940  0.2547  0.4796  0.7235
  309MPD2    H7 4658   1.226   2.832  16.857  0.6279 -0.3391  0.3382
  310TMC3    C1 4659   1.458   2.791  16.792 -0.5068  0.5288 -0.5434
  310TMC3    C2 4660   1.398   2.865  16.693  0.1213  0.0310  0.3141
  310TMC3    C3 4661   1.450   2.867  16.568  0.0026 -0.2498  0.0347
  310TMC3    C4 4662   1.590   2.758  16.774 -0.3319 -0.2623  0.2513
  310TMC3    C5 4663   1.641   2.757  16.648  0.2932 -0.1757 -0.0608
  310TMC3    C6 4664   1.573   2.818  16.544  0.5428 -0.4368 -0.3268
  310TMC3     C 4665   1.420   2.792  16.928  0.4636  0.0737  0.3598
  310TMC3     O 4666   1.499   2.757  17.014 -0.1074  0.1006  0.3667
  310TMC3     H 4667   1.301   2.913  16.701 -0.1482 -0.5307  0.4809
  310TMC3    H1 4668   1.646   2.699  16.844  2.2315 -0.4433 -1.9425
  310TMC3    H2 4669   1.625   2.823  16.449  0.4682  1.3890 -0.2692
  310TMC3    C7 4670   1.789   2.724  16.631 -0.0203 -0.3055 -0.0290
  310TMC3    C8 4671   1.396   2.957  16.465 -0.8698  0.3179  0.3340
  310TMC3    O1 4672   1.822   2.710  16.514 -0.3741 -0.1544  0.8584
  310TMC3    O2 4673   1.275   2.965  16.455 -0.2432  0.0297  0.0124
  311MPD2     C 4674   3.531   3.432  13.009 -0.0536  0.3292  0.3037
  311MPD2    C1 4675   3.504   3.566  13.005 -0.1459 -0.8648  0.0194
  311MPD2    C2 4676   3.384   3.606  13.057 -0.3686 -0.2285  0.9284
  311MPD2    C3 4677   3.290   3.523  13.101 -0.0155 -0.2105 -0.1555
  311MPD2    C4 4678   3.311   3.389  13.090 -0.0144  0.1207 -0.7401
  311MPD2    C5 4679   3.427   3.345  13.036  0.2653  0.0425 -0.0519
  311MPD2     H 4680   3.360   3.712  13.063 -2.0269 -0.6187  1.1856
  311MPD2    H1 4681   3.244   3.311  13.124  0.5145 -0.1174 -0.2392
  311MPD2    H2 4682   3.626   3.390  12.980 -0.2926 -0.6255  0.9108
  311MPD2    H3 4683   3.443   3.238  13.033  2.5540  0.3484  1.4047
  311MPD2     N 4684   3.166   3.565  13.154  0.1310 -0.4754 -0.0011
  311MPD2    H5 4685   3.162   3.666  13.161  1.3953 -0.4076 -0.1516
  311MPD2    N1 4686   3.607   3.658  12.974 -0.2514 -0.4520 -0.5932
  311MPD2    H7 4687   3.581   3.756  12.970  2.8896  0.4132  0.1358
  312TMC3    C1 4688   2.956   3.558  13.231  0.1741 -0.0647  0.0738
  312TMC3    C2 4689   2.840   3.550  13.154  0.5463 -0.2741 -0.7776
  312TMC3    C3 4690   2.753   3.653  13.155 -0.4422  0.2538  0.1642
  312TMC3    C4 4691   2.981   3.665  13.313 -0.1535  0.1702 -0.3428
  312TMC3    C5 4692   2.897   3.764  13.315  0.2149  0.1505  0.4133
  312TMC3    C6 4693   2.783   3.764  13.236 -0.1307 -0.4952 -0.1254
  312TMC3     C 4694   3.067   3.482  13.196 -0.0359  0.2767  0.0902
  312TMC3     O 4695   3.037   3.364  13.188 -0.6741  0.1074  0.3158
  312TMC3     H 4696   2.819   3.461  13.095  0.9486 -1.3338  0.6798
  312TMC3    H1 4697   3.076   3.675  13.365 -0.1450  0.6930 -0.4653
  312TMC3    H2 4698   2.733   3.860  13.236 -0.7771 -0.8369 -1.1534
  312TMC3    C7 4699   2.952   3.890  13.360 -0.2658  0.1455 -0.2419
  312TMC3    C8 4700   2.630   3.648  13.074  0.0884 -0.3779 -0.2040
  312TMC3    O1 4701   2.953   3.985  13.284 -0.0637 -1.1321 -0.3474
  312TMC3    O2 4702   2.585   3.537  13.063  0.1398  0.4224  0.4588
  313MPD2     C 4703   3.368   2.652  10.135  0.1795 -0.1022  0.0254
  313MPD2    C1 4704   3.235   2.684  10.142 -0.1839  0.2939 -0.4264
  313MPD2    C2 4705   3.142   2.598  10.084 -0.2058 -0.3613  0.1989
  313MPD2    C3 4706   3.191   2.495   9.999 -0.8880 -0.4065 -0.4811
  313MPD2    C4 4707   3.323   2.469   9.989  0.1236  0.3321  0.4330
  313MPD2    C5 4708   3.408   2.546  10.068 -1.0847 -0.6904  0.2827
  313MPD2     H 4709   3.035   2.609  10.097 -0.5342 -0.1201 -2.7933
  313MPD2    H1 4710   3.353   2.382   9.933  1.1093  1.5779 -0.9746
  313MPD2    H2 4711   3.448   2.706  10.185 -0.4354 -0.6990  1.6748
  313MPD2    H3 4712   3.515   2.525  10.066 -0.9715  0.0577 -2.4518
  313MPD2     N 4713   3.091   2.420   9.933 -0.0813 -0.0142  0.0009
  313MPD2    H5 4714   2.996   2.439   9.964  0.2948 -0.4476  1.3817
  313MPD2    N1 4715   3.187   2.796  10.218  0.5404 -0.0892 -0.2396
  313MPD2    H7 4716   3.086   2.795  10.218  0.5353  0.7977 -1.7312
  314TMC3    C1 4717   3.173   2.975  10.376 -0.5885  0.8094 -0.3350
  314TMC3    C2 4718   3.238   3.067  10.450 -0.5765  0.6772 -0.1182
  314TMC3    C3 4719   3.155   3.150  10.524 -0.3364 -0.2150 -0.0279
  314TMC3    C4 4720   3.035   2.965  10.367  0.1059 -0.1503  0.5567
  314TMC3    C5 4721   2.957   3.049  10.434  0.5177  0.0895  0.1208
  314TMC3    C6 4722   3.017   3.142  10.513 -0.6780 -0.1656 -0.1166
  314TMC3     C 4723   3.259   2.880  10.300  0.2100 -0.5475 -0.4958
  314TMC3     O 4724   3.379   2.883  10.324 -0.2752  0.5441  0.2664
  314TMC3     H 4725   3.345   3.081  10.447 -0.9080  2.5372 -2.6538
  314TMC3    H1 4726   2.989   2.877  10.322 -1.7735  0.0483  2.1463
  314TMC3    H2 4727   2.960   3.217  10.567 -2.9849 -0.9979 -1.4417
  314TMC3    C7 4728   2.819   3.055  10.412  0.1557  0.0771 -0.1053
  314TMC3    C8 4729   3.209   3.268  10.589  0.2849  0.7562 -0.1752
  314TMC3    O1 4730   2.743   3.053  10.507 -0.2009 -0.2007 -0.0033
  314TMC3    O2 4731   3.133   3.358  10.623  0.0038  0.1055  1.0265
  315MPD2     C 4732   2.741   2.509  17.560 -0.1281  0.2928 -0.0908
  315MPD2    C1 4733   2.773   2.566  17.679 -0.5551 -0.1941  0.2268
  315MPD2    C2 4734   2.763   2.701  17.693 -0.0492 -0.0180 -1.1016
  315MPD2    C3 4735   2.742   2.780  17.585 -0.0266  0.1539  0.6679
  315MPD2    C4 4736   2.734   2.722  17.460 -0.1324  0.1476 -0.1462
  315MPD2    C5 4737   2.715   2.588  17.457  0.5214  0.1609 -0.1269
  315MPD2     H 4738   2.780   2.747   0.090 -0.3944  1.8170 -1.9312
  315MPD2    H1 4739   2.709   2.774  17.367  0.4034 -0.4750 -0.6352
  315MPD2    H2 4740   2.744   2.402  17.540  1.0624  0.3508 -0.1969
  315MPD2    H3 4741   2.685   2.544  17.362 -0.3516 -0.9735  0.6823
  315MPD2     N 4742   2.739   2.922  17.607  0.1528  0.0290 -0.7323
  315MPD2    H5 4743   2.726   2.955   0.004  0.7027  1.7597 -1.2425
  315MPD2    N1 4744   2.823   2.490   0.089 -0.2797 -0.6034 -0.2113
  315MPD2    H7 4745   2.847   2.543   0.173 -0.2285  0.9255 -1.1900
  316TMC3    C1 4746   2.749   3.153  17.570  0.1195  0.5786 -0.2266
  316TMC3    C2 4747   2.820   3.173  17.689  0.2912 -0.5308 -0.4524
  316TMC3    C3 4748   2.835   3.304   0.037 -0.1383 -0.8026  0.1178
  316TMC3    C4 4749   2.707   3.253  17.491  0.8072 -0.8589 -0.4046
  316TMC3    C5 4750   2.729   3.385  17.539  0.4775 -0.4123  0.9072
  316TMC3    C6 4751   2.780   3.409  17.664 -0.3618 -0.2159 -0.1992
  316TMC3     C 4752   2.734   3.019  17.512  0.1049 -0.1201 -0.1500
  316TMC3     O 4753   2.745   3.008  17.391  0.1961  0.5790 -0.0497
  316TMC3     H 4754   2.871   3.095   0.046 -0.7562 -0.2215  0.9605
  316TMC3    H1 4755   2.646   3.233  17.403 -1.8394  2.9507  0.5308
  316TMC3    H2 4756   2.805   3.509  17.696  0.6993 -0.8435  0.8916
  316TMC3    C7 4757   2.707   3.503  17.454  0.7713  0.2040  0.0263
  316TMC3    C8 4758   2.844   3.319   0.178 -0.0808 -0.4977  0.6993
  316TMC3    O1 4759   2.703   3.611  17.514  0.4008  0.0954  0.9119
  316TMC3    O2 4760   2.778   3.409   0.233  0.5588 -0.5576  0.1555
  317MPD2     C 4761   4.368   1.050  12.762 -0.1627 -0.2351 -0.3862
  317MPD2    C1 4762   4.402   0.913  12.771  0.7862  1.0036  0.2377
  317MPD2    C2 4763   4.453   0.859  12.886 -0.9133  1.1313  0.0984
  317MPD2    C3 4764   4.481   0.931  13.000 -0.6500  0.1862 -0.7453
  317MPD2    C4 4765   4.444   1.065  12.998  0.0916 -0.4209 -0.0474
  317MPD2    C5 4766   4.385   1.117  12.882 -0.1500  0.1739 -0.1072
  317MPD2     H 4767   4.483   0.755  12.885  0.4009  1.5145 -0.9430
  317MPD2    H1 4768   4.445   1.128  13.086  0.7583 -0.4573 -0.0284
  317MPD2    H2 4769   4.318   1.093  12.677  0.1645  0.9232  0.0115
  317MPD2    H3 4770   4.347   1.219  12.879 -0.7089 -0.0737 -1.7563
  317MPD2     N 4771   4.521   0.864  13.122  0.0908 -0.2989  0.1142
  317MPD2    H5 4772   4.545   0.765  13.122  2.7632  0.3387 -1.2327
  317MPD2    N1 4773   4.383   0.825  12.671 -0.3317 -0.0239  0.2545
  317MPD2    H7 4774   4.415   0.730  12.689 -0.5749 -0.1337  0.1137
  318TMC3    C1 4775   4.529   0.799  13.336  0.5848 -0.5697  0.2251
  318TMC3    C2 4776   4.416   0.742  13.387 -0.1756 -0.5322 -0.1276
  318TMC3    C3 4777   4.437   0.642  13.469  0.0107 -0.3983 -0.0074
  318TMC3    C4 4778   4.652   0.744  13.338  0.1317 -0.3556  0.7246
  318TMC3    C5 4779   4.659   0.636  13.426 -0.7051 -1.3018 -0.0698
  318TMC3    C6 4780   4.554   0.582  13.490 -0.9230 -0.9895  0.8082
  318TMC3     C 4781   4.513   0.913  13.253 -0.7484  0.1189  0.1375
  318TMC3     O 4782   4.449   1.014  13.279  0.3221  0.0954 -0.2977
  318TMC3     H 4783   4.320   0.791  13.372  0.2398  0.7190  1.2544
  318TMC3    H1 4784   0.017   0.797  13.307  1.7387 -2.8129  1.1749
  318TMC3    H2 4785   4.567   0.489  13.546 -0.6423 -3.6101 -3.6363
  318TMC3    C7 4786   0.067   0.581  13.447  0.0286  0.2944  1.0470
  318TMC3    C8 4787   4.326   0.553  13.505  0.2991  0.2821 -0.0228
  318TMC3    O1 4788   0.084   0.518  13.550 -0.2165 -0.0363 -0.7692
  318TMC3    O2 4789   4.328   0.507  13.619  0.2422  0.1499  0.1992
  319MPD2     C 4790   0.952   2.453  16.783  0.4831  0.2658  0.3954
  319MPD2    C1 4791   0.861   2.364  16.832  0.8415 -0.3100  0.3160
  319MPD2    C2 4792   0.752   2.337  16.753  0.1183 -0.2465 -0.8555
  319MPD2    C3 4793   0.745   2.368  16.621 -0.2989  0.1905 -0.7985
  319MPD2    C4 4794   0.844   2.444  16.565  0.7419  0.4294  0.1398
  319MPD2    C5 4795   0.948   2.489  16.650 -0.6517  0.2742 -0.6136
  319MPD2     H 4796   0.672   2.290  16.808 -0.6475  0.6799 -1.1867
  319MPD2    H1 4797   0.852   2.480  16.463  0.1681  3.1077  1.0252
  319MPD2    H2 4798   1.040   2.473  16.844  1.2194  0.3507 -0.6949
  319MPD2    H3 4799   1.020   2.551  16.597  0.3832  0.5227  1.0682
  319MPD2     N 4800   0.643   2.326  16.540  0.4594 -0.5316 -0.2542
  319MPD2    H5 4801   0.648   2.360  16.444  1.1485  1.1210  0.3650
  319MPD2    N1 4802   0.869   2.321  16.968  0.2174 -0.2467  0.1940
  319MPD2    H7 4803   0.928   2.375  17.031  1.3112 -1.1916 -0.0135
  320TMC3    C1 4804   0.455   2.205  16.459 -0.2495  0.2026  0.1505
  320TMC3    C2 4805   0.416   2.310  16.376  0.7087  0.4291 -1.0212
  320TMC3    C3 4806   0.312   2.284  16.294  0.0804  1.0160 -0.2332
  320TMC3    C4 4807   0.383   2.094  16.476 -0.1003 -0.2741 -1.1795
  320TMC3    C5 4808   0.271   2.081  16.397  0.4555  0.2226  0.0433
  320TMC3    C6 4809   0.228   2.173  16.304  0.1035 -0.3154 -0.2501
  320TMC3     C 4810   0.547   2.236  16.569  0.0429  0.5381  0.3979
  320TMC3     O 4811   0.541   2.153  16.664 -0.3378  0.4282 -0.2666
  320TMC3     H 4812   0.472   2.403  16.373 -0.2465  0.9897 -1.3118
  320TMC3    H1 4813   0.405   2.005  16.534 -2.6427 -0.3570 -0.3727
  320TMC3    H2 4814   0.134   2.166  16.250  0.5650 -0.5023 -1.0330
  320TMC3    C7 4815   0.195   1.954  16.420 -0.1425  0.2773 -0.3262
  320TMC3    C8 4816   0.265   2.394  16.210  0.8543  0.1039 -0.4455
  320TMC3    O1 4817   0.264   1.856  16.415  0.1079 -0.5896  0.0248
  320TMC3    O2 4818   0.323   2.494  16.233 -0.2594  0.1193 -0.3820
  321TMC3    C1 4819   0.814   2.221  17.167 -0.1152 -0.2850  0.0106
  321TMC3    C2 4820   0.794   2.100  17.234  0.2489 -0.1536  1.1444
  321TMC3    C3 4821   0.822   2.093  17.367 -0.0904  0.3136  0.5410
  321TMC3    C4 4822   0.845   2.336  17.229 -0.4529  0.2720 -0.6036
  321TMC3    C5 4823   0.859   2.330  17.362 -1.4488  0.1223  0.1870
  321TMC3    C6 4824   0.857   2.207  17.432  0.1504  0.2694 -0.3920
  321TMC3     C 4825   0.786   2.225  17.027  0.0749 -0.0425  0.3365
  321TMC3     O 4826   0.723   2.136  16.976  0.1144  0.8447 -0.8078
  321TMC3     H 4827   0.772   2.008  17.182  0.5621 -0.4437  1.5382
  321TMC3    H1 4828   0.837   2.432  17.179 -1.9063  0.4356 -0.0689
  321TMC3    H2 4829   0.878   2.195  17.538  0.8350  0.3962 -0.5100
  321TMC3    C7 4830   0.961   2.422  17.409 -0.7539 -0.3167 -0.7162
  321TMC3    C8 4831   0.920   2.007  17.414 -0.6323 -0.0392  0.7354
  321TMC3    O1 4832   0.947   2.544  17.394  0.0097 -0.0416 -0.1582
  321TMC3    O2 4833   1.032   2.056  17.401 -0.0884  0.0585  0.1531
  322MPD2     C 4834   4.283   3.210  13.960 -0.5266  0.1157  0.1902
  322MPD2    C1 4835   4.301   3.113  14.055  0.7115 -0.3918 -0.1886
  322MPD2    C2 4836   4.284   2.977  14.019  0.0123 -0.6686 -0.7147
  322MPD2    C3 4837   4.267   2.941  13.888  0.1715  0.7532 -0.3332
  322MPD2    C4 4838   4.260   3.048  13.796  0.0834 -0.1358  0.8700
  322MPD2    C5 4839   4.258   3.177  13.832 -0.1300 -0.0512  0.2457
  322MPD2     H 4840   4.295   2.898  14.093 -1.3732  0.7613  1.0419
  322MPD2    H1 4841   4.235   3.019  13.694  0.6232  2.5335 -0.0133
  322MPD2    H2 4842   4.284   3.315  13.986 -0.3494 -0.0645  0.9155
  322MPD2    H3 4843   4.256   3.262  13.764  1.8260 -0.4522 -0.3164
  322MPD2     N 4844   4.271   2.805  13.861 -0.8834 -0.0314 -0.0894
  322MPD2    H5 4845   4.267   2.746  13.944  1.8213 -0.4436 -0.2416
  322MPD2    N1 4846   4.328   3.157  14.183  0.7071  0.4655 -0.2731
  322MPD2    H7 4847   4.335   3.258  14.184  0.2222  0.5035 -0.4889
  323TMC3    C1 4848   4.398   3.163  14.413  0.5793  0.1123  0.5637
  323TMC3    C2 4849   4.467   3.280  14.385 -0.7299 -0.7398  0.1566
  323TMC3    C3 4850   4.563   3.325  14.471  0.2592 -0.1096 -0.8487
  323TMC3    C4 4851   4.416   3.092  14.531  0.1096 -0.0595 -0.2726
  323TMC3    C5 4852   4.516   3.135  14.613 -1.0310 -0.1881 -0.1650
  323TMC3    C6 4853   4.594   3.245  14.583 -0.3573  0.1875  0.4902
  323TMC3     C 4854   4.358   3.079  14.295  0.4043 -0.2092  0.3709
  323TMC3     O 4855   4.359   2.959  14.313 -0.3003  0.0130  0.0538
  323TMC3     H 4856   4.458   3.323  14.285  1.0368 -1.7545 -0.4583
  323TMC3    H1 4857   4.367   2.997  14.551 -1.0888  0.8472  1.1578
  323TMC3    H2 4858   4.680   3.264  14.647 -0.9685  2.9282  0.4926
  323TMC3    C7 4859   4.577   3.034  14.694 -0.1621 -0.4141  0.5018
  323TMC3    C8 4860   4.669   3.416  14.426 -0.0906  0.7322 -0.3431
  323TMC3    O1 4861   4.549   2.918  14.661 -0.1239  0.1182 -0.2058
  323TMC3    O2 4862   0.057   3.408  14.475  0.1822 -0.3992 -0.3345
  324MPD2     C 4863   1.521   4.077  14.561  0.1479 -0.4622 -0.3220
  324MPD2    C1 4864   1.515   4.212  14.514  1.1662 -1.1732 -0.0161
  324MPD2    C2 4865   1.397   4.266  14.470 -0.2659 -0.6704 -0.0589
  324MPD2    C3 4866   1.280   4.194  14.473  0.2811 -0.2534 -0.2986
  324MPD2    C4 4867   1.289   4.064  14.504 -0.1271 -0.3872 -0.0031
  324MPD2    C5 4868   1.407   4.009  14.554 -0.1679 -0.2131 -0.0040
  324MPD2     H 4869   1.383   4.370  14.444 -0.3251 -1.3396 -2.7450
  324MPD2    H1 4870   1.200   4.003  14.519 -2.5881  3.5085  1.3856
  324MPD2    H2 4871   1.611   4.023  14.587  0.3826 -0.2725 -0.7462
  324MPD2    H3 4872   1.414   3.905  14.582  5.1141  0.1877  0.1698
  324MPD2     N 4873   1.156   4.256  14.461 -0.1335 -0.4784 -0.0565
  324MPD2    H5 4874   1.082   4.189  14.480 -1.2116  0.9265  0.6218
  324MPD2    N1 4875   1.630   4.296  14.522  0.3828  0.3339 -0.4543
  324MPD2    H7 4876   1.616   4.388  14.483  1.2111  0.8462  0.4758
  325TMC3    C1 4877   0.986   4.423  14.435 -0.1982  0.2212 -0.6909
  325TMC3    C2 4878   0.899   4.331  14.393 -0.6951 -0.2310  0.0464
  325TMC3    C3 4879   0.769   4.353  14.418  0.5534 -0.3934 -0.7785
  325TMC3    C4 4880   0.948   4.537  14.495 -0.0754  0.1385 -0.5602
  325TMC3    C5 4881   0.811   4.558  14.521 -0.2066 -0.8812  0.3684
  325TMC3    C6 4882   0.715   4.468  14.476 -0.1320 -0.0689  1.1532
  325TMC3     C 4883   1.128   4.390  14.439  0.9120 -0.2715  0.1950
  325TMC3     O 4884   1.201   4.485  14.440 -0.3796  0.2784 -0.3544
  325TMC3     H 4885   0.933   4.243  14.339 -1.4965  0.0419 -0.8970
  325TMC3    H1 4886   1.022   4.594  14.549 -0.1778 -0.0539 -0.2146
  325TMC3    H2 4887   0.611   4.498  14.475  0.0436  0.5396  1.0863
  325TMC3    C7 4888   0.779   4.685  14.578 -0.0307  0.1512  0.0625
  325TMC3    C8 4889   0.679   4.260  14.353  0.3843 -0.3799  0.0088
  325TMC3    O1 4890   0.867   0.021  14.633 -0.3905  0.0383  1.3123
  325TMC3    O2 4891   0.730   4.174  14.281 -0.4550  0.2253 -0.1246
  326MPD2     C 4892   2.795   0.517  10.971 -0.1495 -0.4555  0.2165
  326MPD2    C1 4893   2.796   0.542  10.838 -0.3298  0.4974  0.2687
  326MPD2    C2 4894   2.861   0.661  10.797  0.1527 -0.7943  0.5286
  326MPD2    C3 4895   2.913   0.753  10.888 -0.6890  0.7157 -0.7292
  326MPD2    C4 4896   2.901   0.733  11.025 -0.0505  0.1364 -0.0046
  326MPD2    C5 4897   2.839   0.618  11.059  1.3275  0.5724 -0.4963
  326MPD2     H 4898   2.860   0.674  10.689  1.0068  0.7472  0.7104
  326MPD2    H1 4899   2.920   0.809  11.100  0.8662 -1.8255  1.7357
  326MPD2    H2 4900   2.754   0.425  11.010  2.2513 -0.4931  2.6609
  326MPD2    H3 4901   2.816   0.593  11.162 -1.9781 -1.0805 -1.6375
  326MPD2     N 4902   2.975   0.875  10.846  0.3041 -0.0663 -0.0738
  326MPD2    H5 4903   3.003   0.941  10.918  1.1086  0.8115 -1.1857
  326MPD2    N1 4904   2.748   0.453  10.742 -1.0542  0.6744  0.4140
  326MPD2    H7 4905   2.753   0.488  10.647  0.9455 -1.9767 -0.4479
  327TMC3    C1 4906   2.598   0.300  10.647 -0.3299  0.3628  0.0681
  327TMC3    C2 4907   2.466   0.336  10.639 -0.1138  0.8293  0.4245
  327TMC3    C3 4908   2.425   0.370  10.513 -0.1514 -0.5722  0.2202
  327TMC3    C4 4909   2.686   0.298  10.543 -0.1311  0.4947  0.4526
  327TMC3    C5 4910   2.645   0.327  10.418  0.0317  0.9410  0.2807
  327TMC3    C6 4911   2.511   0.353  10.406  1.0996  0.5171 -0.2980
  327TMC3     C 4912   2.659   0.346  10.770 -0.4517 -0.0265 -0.0719
  327TMC3     O 4913   2.601   0.315  10.870  0.2792 -0.5231  0.2458
  327TMC3     H 4914   2.409   0.341  10.731 -0.2194  1.9715  0.3010
  327TMC3    H1 4915   2.782   0.253  10.564  0.8520  1.1192 -2.5614
  327TMC3    H2 4916   2.481   0.384  10.306 -1.0410  1.2354  0.5710
  327TMC3    C7 4917   2.725   0.423  10.345  0.0208 -0.6940  0.7417
  327TMC3    C8 4918   2.341   0.486  10.492 -0.4744  0.2124  0.1792
  327TMC3    O1 4919   2.690   0.463  10.236  0.0097 -0.2282  0.2612
  327TMC3    O2 4920   2.348   0.544  10.381 -0.1509  0.3305 -0.4818
  328MPD2     C 4921   0.202   0.988  17.160  0.9781  0.3199 -0.3407
  328MPD2    C1 4922   0.153   0.937  17.042 -0.2848  0.1086 -0.3987
  328MPD2    C2 4923   0.127   1.029  16.940  0.1377 -0.4489 -0.8448
  328MPD2    C3 4924   0.127   1.161  16.966  0.1980  0.0970 -0.1133
  328MPD2    C4 4925   0.162   1.207  17.092  0.0303 -0.0199  0.1308
  328MPD2    C5 4926   0.207   1.118  17.182  0.6920  0.3421  0.0988
  328MPD2     H 4927   0.098   0.988  16.843 -2.6031  1.9690 -1.0558
  328MPD2    H1 4928   0.176   1.313  17.109 -0.3767  0.0789 -0.1516
  328MPD2    H2 4929   0.236   0.925  17.241  2.4687  0.5006 -0.8186
  328MPD2    H3 4930   0.245   1.145  17.280 -0.2985  0.3862  0.4718
  328MPD2     N 4931   0.086   1.257  16.868  0.4563 -0.2646  0.4703
  328MPD2    H5 4932   0.078   1.354  16.898  2.1532 -0.7567  2.5292
  328MPD2    N1 4933   0.156   0.794  17.028 -0.0507 -0.0769  0.2792
  328MPD2    H7 4934   0.174   0.742  17.113 -0.9668 -1.3544 -0.2966
  329TMC3    C1 4935   0.155   0.581  16.916 -0.3455 -0.4956 -0.4102
  329TMC3    C2 4936   0.165   0.522  17.043  0.1723 -0.4549  0.1358
  329TMC3    C3 4937   0.150   0.387  17.046 -0.0467  0.8370 -0.2772
  329TMC3    C4 4938   0.099   0.510  16.817  0.6342  0.5834 -0.1440
  329TMC3    C5 4939   0.058   0.379  16.834  0.2729  0.1209 -0.4667
  329TMC3    C6 4940   0.092   0.316  16.945  0.0359  0.4161  0.3402
  329TMC3     C 4941   0.123   0.726  16.915  0.1406 -0.0281  0.0866
  329TMC3     O 4942   0.068   0.764  16.815 -0.1806 -0.4277 -0.3514
  329TMC3     H 4943   0.211   0.579  17.123  1.7251 -1.3840 -0.0913
  329TMC3    H1 4944   0.079   0.547  16.717 -2.9540  0.2821  0.4541
  329TMC3    H2 4945   0.076   0.209  16.950  2.0085  0.1403  0.7722
  329TMC3    C7 4946   0.035   0.282  16.717 -0.0805  0.3827 -0.3707
  329TMC3    C8 4947   0.147   0.322  17.173  0.1627 -0.4416  0.0048
  329TMC3    O1 4948   0.062   0.163  16.741  0.2178  0.4299 -0.2845
  329TMC3    O2 4949   0.116   0.204  17.167  0.0462  0.4230 -0.1839
  330TMC3    C1 4950   3.011   0.021   9.363 -0.6394  0.5794 -0.5152
  330TMC3    C2 4951   2.893   4.724   9.298 -0.7476  0.4058 -0.3646
  330TMC3    C3 4952   2.823   4.617   9.320 -0.4774 -0.6336  0.3225
  330TMC3    C4 4953   3.052   4.644   9.442  0.5329  0.9566 -0.0043
  330TMC3    C5 4954   2.985   4.528   9.471  0.7668 -0.8739  0.2966
  330TMC3    C6 4955   2.861   4.514   9.410  0.0203  0.2202  0.3428
  330TMC3     C 4956   3.065   0.156   9.383 -0.1611  0.2287  0.4509
  330TMC3     O 4957   3.175   0.166   9.436  0.5963  0.4317  0.1801
  330TMC3     H 4958   2.868   0.061   9.212 -0.8415 -0.3804 -0.8993
  330TMC3    H1 4959   3.149   4.662   9.488 -0.0908  0.3910  1.5192
  330TMC3    H2 4960   2.801   4.424   9.425  0.6692 -0.2430  0.1667
  330TMC3    C7 4961   3.027   4.434   9.572 -0.2456  0.1865 -0.0497
  330TMC3    C8 4962   2.693   4.610   9.250 -0.9335 -0.3091  0.1545
  330TMC3    O1 4963   2.938   4.351   9.599 -0.9165 -0.4092  0.0136
  330TMC3    O2 4964   2.650   4.712   9.195  0.0069 -0.0794 -0.4042
  331MPD2     C 4965   0.365   3.887  12.306 -0.3397 -0.1419  0.3309
  331MPD2    C1 4966   0.496   3.928  12.294  0.4154  0.2006 -0.1823
  331MPD2    C2 4967   0.590   3.827  12.283  0.2525  0.0016 -0.3809
  331MPD2    C3 4968   0.559   3.692  12.284 -0.9177  0.4166  0.4590
  331MPD2    C4 4969   0.425   3.653  12.296  0.0061 -0.8555 -0.5058
  331MPD2    C5 4970   0.331   3.756  12.310  0.0050  0.0684 -0.3513
  331MPD2     H 4971   0.694   3.859  12.281  0.3482 -0.3202 -0.5634
  331MPD2    H1 4972   0.385   3.552  12.289  1.1572 -1.3214 -0.2031
  331MPD2    H2 4973   0.282   3.957  12.306 -0.1286  0.1311 -2.8584
  331MPD2    H3 4974   0.226   3.728  12.309 -0.2469  1.0594 -1.3824
  331MPD2     N 4975   0.663   3.601  12.270 -0.7395 -0.5504 -0.4337
  331MPD2    H5 4976   0.752   3.629  12.229 -0.4380 -0.0740  0.5372
  331MPD2    N1 4977   0.533   4.063  12.284  0.2572 -0.7743  0.4975
  331MPD2    H7 4978   0.632   4.079  12.268  0.1872 -1.2327 -0.3962
  332TMC3    C1 4979   0.792   3.413  12.250 -0.1050 -0.0198  0.8272
  332TMC3    C2 4980   0.869   3.481  12.159 -0.2424 -0.2053  0.4102
  332TMC3    C3 4981   1.002   3.467  12.160 -0.1159  0.7074  0.0182
  332TMC3    C4 4982   0.848   3.332  12.338  0.1711 -0.6264 -0.0181
  332TMC3    C5 4983   0.983   3.317  12.335  0.1848 -0.3054  0.4776
  332TMC3    C6 4984   1.063   3.378  12.242 -0.1427 -0.5064 -0.1486
  332TMC3     C 4985   0.653   3.463  12.279  0.0084  0.1362  0.9143
  332TMC3     O 4986   0.576   3.404  12.350  0.1278  0.2641 -0.3202
  332TMC3     H 4987   0.822   3.553  12.094  2.0397  0.0568 -0.9613
  332TMC3    H1 4988   0.789   3.284  12.416 -1.0391  0.1728 -0.4389
  332TMC3    H2 4989   1.170   3.358  12.237 -0.2742 -2.0127  3.1600
  332TMC3    C7 4990   1.038   3.243  12.447 -0.4274  0.2112  0.6039
  332TMC3    C8 4991   1.083   3.559  12.083 -0.2417  0.1380 -0.4063
  332TMC3    O1 4992   0.957   3.166  12.495  0.0071 -0.4293  0.2130
  332TMC3    O2 4993   1.197   3.563  12.126  0.3988  0.4016 -0.4891
  333MPD2     C 4994   0.789   3.992  11.207 -0.1326  1.0507 -0.4818
  333MPD2    C1 4995   0.922   3.951  11.195  0.1433 -0.5496 -0.2129
  333MPD2    C2 4996   0.973   3.847  11.271  0.5804 -0.0890 -0.4426
  333MPD2    C3 4997   0.885   3.773  11.348  0.1918 -0.1496  0.1158
  333MPD2    C4 4998   0.752   3.821  11.358  0.4018  0.3044 -0.4989
  333MPD2    C5 4999   0.708   3.934  11.300  0.5842  0.6976  0.8036
  333MPD2     H 5000   1.071   3.806  11.249  2.2932  3.3121  0.8631
  333MPD2    H1 5001   0.675   3.769  11.413  0.8056  0.6963  0.4467
  333MPD2    H2 5002   0.757   4.079  11.151 -2.1299  0.4201 -0.3272
  333MPD2    H3 5003   0.604   3.964  11.308  0.9629  1.5038  2.7180
  333MPD2     N 5004   0.933   3.652  11.402  0.0394 -0.0041 -0.5231
  333MPD2    H5 5005   1.028   3.626  11.378  0.5560 -0.5603  2.1581
  333MPD2    N1 5006   0.998   4.015  11.091  0.3072 -0.1780 -0.5304
  333MPD2    H7 5007   0.944   4.077  11.032 -4.6990 -1.2716  2.9621
  334TMC3    C1 5008   1.167   4.099  10.952 -0.0774  0.1244  0.9580
  334TMC3    C2 5009   1.244   4.058  10.847  0.7106 -0.0412 -0.4238
  334TMC3    C3 5010   1.314   4.157  10.783 -0.1677 -0.0832  0.2803
  334TMC3    C4 5011   1.149   4.228  10.990 -0.1226 -0.6836 -0.0366
  334TMC3    C5 5012   1.228   4.326  10.924 -0.0627  0.2233  0.3439
  334TMC3    C6 5013   1.309   4.291  10.824 -0.1012 -0.6634  0.3563
  334TMC3     C 5014   1.132   3.995  11.055 -0.0486  0.0778 -0.0782
  334TMC3     O 5015   1.207   3.905  11.090 -0.2389  0.2644 -0.0313
  334TMC3     H 5016   1.271   3.954  10.837 -0.1476 -0.2609 -0.4553
  334TMC3    H1 5017   1.117   4.259  11.089  1.1473  1.3729 -0.2605
  334TMC3    H2 5018   1.360   4.373  10.774  1.4680 -2.3866 -0.8489
  334TMC3    C7 5019   1.225   4.468  10.945 -0.2316 -0.0984 -0.4340
  334TMC3    C8 5020   1.398   4.115  10.677  0.3199 -0.3552  0.0111
  334TMC3    O1 5021   1.327   4.537  10.926 -0.0533 -0.5534 -0.1599
  334TMC3    O2 5022   1.369   4.009  10.622 -0.0957  0.1711  0.2250
  335TMC3    C1 5023   0.621   1.039  17.604 -0.1208  0.8534  0.0545
  335TMC3    C2 5024   0.563   0.997  17.492 -0.4814 -0.2866 -0.6978
  335TMC3    C3 5025   0.601   1.054  17.374 -0.3396  0.5111 -0.4590
  335TMC3    C4 5026   0.719   1.135  17.610  0.3442 -0.1306 -0.8297
  335TMC3    C5 5027   0.779   1.166  17.488 -0.1940  0.1258 -0.5477
  335TMC3    C6 5028   0.719   1.133  17.372 -0.0308 -0.3845 -0.0578
  335TMC3     C 5029   0.579   0.983   0.031 -0.0990 -0.0039 -0.2953
  335TMC3     O 5030   0.640   1.006   0.134 -0.2972  0.3405  0.3334
  335TMC3     H 5031   0.459   0.967  17.497 -0.7343  0.5043 -1.2711
  335TMC3    H1 5032   0.764   1.171   0.003  0.2572 -2.1222 -0.0031
  335TMC3    H2 5033   0.771   1.161  17.282  1.4616 -1.4861  0.4587
  335TMC3    C7 5034   0.925   1.171  17.494  0.1958 -0.9937 -0.4272
  335TMC3    C8 5035   0.567   0.992  17.246 -0.4034 -0.5505  0.2681
  335TMC3    O1 5036   0.990   1.146  17.391  0.0222 -0.6234 -0.6372
  335TMC3    O2 5037   0.586   1.063  17.151  0.5040  0.4631  0.6022
  336MPD2     C 5038   0.292   3.418  16.236  0.5450  0.2489 -0.6138
  336MPD2    C1 5039   0.325   3.378  16.109 -0.2349  0.4893 -0.4168
  336MPD2    C2 5040   0.408   3.266  16.090  0.1606 -0.9019 -0.3644
  336MPD2    C3 5041   0.465   3.202  16.195 -0.1404 -0.0851  0.0365
  336MPD2    C4 5042   0.435   3.254  16.323  0.3618  0.3131  0.0841
  336MPD2    C5 5043   0.356   3.361  16.344  0.7566 -0.0941 -0.0275
  336MPD2     H 5044   0.428   3.232  15.989 -1.9370  0.0342 -1.0971
  336MPD2    H1 5045   0.485   3.214  16.411  0.9258  1.4802  0.2867
  336MPD2    H2 5046   0.215   3.492  16.257 -0.0306 -0.7523  0.7752
  336MPD2    H3 5047   0.332   3.403  16.440  1.1712  0.4921 -0.1814
  336MPD2     N 5048   0.545   3.083  16.191  0.1675 -0.4047  0.0153
  336MPD2    H5 5049   0.574   3.049  16.282 -0.6123  0.0160  0.4237
  336MPD2    N1 5050   0.272   3.445  15.993 -0.3035 -0.2230  0.0947
  336MPD2    H7 5051   0.318   3.430  15.903  2.2412  2.2028  0.9806
  337TMC3    C1 5052   0.144   3.585  15.862  0.1843  0.2642 -0.2495
  337TMC3    C2 5053   0.013   3.589  15.816 -0.0717  0.4136 -1.1954
  337TMC3    C3 5054   4.720   3.640  15.693 -0.0886  0.5262  0.0985
  337TMC3    C4 5055   0.253   3.639  15.796 -0.4544  0.5144  0.4312
  337TMC3    C5 5056   0.222   3.702  15.675  0.6017  0.4364 -0.3151
  337TMC3    C6 5057   0.097   3.703  15.625  0.4857 -0.3176  0.3828
  337TMC3     C 5058   0.160   3.528  15.990  0.4739 -0.1179  0.8482
  337TMC3     O 5059   0.060   3.533  16.066 -0.4601  0.5711 -0.6024
  337TMC3     H 5060   4.659   3.546  15.877 -0.1236  0.1056 -1.4812
  337TMC3    H1 5061   0.355   3.635  15.833 -0.5386 -1.5289  0.4566
  337TMC3    H2 5062   0.070   3.782  15.555  0.1160 -0.2310  0.6271
  337TMC3    C7 5063   0.309   3.803  15.612  0.1754 -0.6615 -0.7732
  337TMC3    C8 5064   4.590   3.665  15.655 -0.0050 -0.0485 -0.4002
  337TMC3    O1 5065   0.276   3.854  15.504 -0.5468 -0.0044 -0.1540
  337TMC3    O2 5066   4.506   3.651  15.746  0.1970 -0.2601  0.0215
  338MPD2     C 5067   0.785   3.031   0.910  0.0036  0.6094  0.5768
  338MPD2    C1 5068   0.704   2.955   0.828  0.2559 -0.0636  0.0200
  338MPD2    C2 5069   0.571   2.997   0.804 -0.0692  0.1018  0.5525
  338MPD2    C3 5070   0.517   3.096   0.888 -0.3775  0.2185 -0.7103
  338MPD2    C4 5071   0.599   3.163   0.981 -0.3109 -0.5900  0.6670
  338MPD2    C5 5072   0.732   3.134   0.991  0.4628  0.3772 -0.2206
  338MPD2     H 5073   0.520   2.940   0.727 -0.1091  1.5011 -0.4547
  338MPD2    H1 5074   0.557   3.229   1.055 -0.4837  1.0571 -0.9023
  338MPD2    H2 5075   0.889   3.004   0.926  0.0064  0.0570 -0.3455
  338MPD2    H3 5076   0.797   3.195   1.053  0.5158  0.6224 -0.5188
  338MPD2     N 5077   0.381   3.125   0.871  0.1089  0.1471  0.0903
  338MPD2    H5 5078   0.330   3.079   0.796 -2.3749  2.3281  0.4964
  338MPD2    N1 5079   0.732   2.825   0.767 -0.1417 -0.4564  0.3259
  338MPD2    H7 5080   0.662   2.799   0.697 -1.8804  2.8580  0.8167
  339TMC3    C1 5081   0.177   3.202   0.929  0.0779 -0.1843  0.2259
  339TMC3    C2 5082   0.074   3.197   1.023 -0.3064  0.0529 -0.1167
  339TMC3    C3 5083   4.671   3.209   0.977 -0.8545 -0.7149 -0.0721
  339TMC3    C4 5084   0.140   3.236   0.796  0.2365  0.8745  0.5685
  339TMC3    C5 5085   0.008   3.262   0.765 -0.4591 -0.8212  0.0398
  339TMC3    C6 5086   4.631   3.222   0.851  0.4821  0.2640  0.6659
  339TMC3     C 5087   0.306   3.180   0.971 -0.6367 -0.2832  0.3399
  339TMC3     O 5088   0.333   3.204   1.087 -0.5149 -0.1247 -0.0399
  339TMC3     H 5089   0.095   3.191   1.129 -0.5546 -0.6589 -0.1038
  339TMC3    H1 5090   0.221   3.255   0.727 -0.4336 -0.7274 -0.6498
  339TMC3    H2 5091   4.525   3.224   0.826  0.6012  1.1461  0.2302
  339TMC3    C7 5092   4.695   3.327   0.644 -0.9906 -0.2345 -0.1682
  339TMC3    C8 5093   4.564   3.188   1.072 -0.0317  0.4031  0.6312
  339TMC3    O1 5094   0.064   3.353   0.572 -0.2336  0.0340 -0.4508
  339TMC3    O2 5095   4.466   3.260   1.055 -0.2836 -0.3110 -0.0522
  340MPD2     C 5096   0.658   0.768   9.784 -0.4386 -0.3124  0.3882
  340MPD2    C1 5097   0.724   0.660   9.831  0.0655  0.1302 -0.2152
  340MPD2    C2 5098   0.767   0.665   9.959  0.1276 -0.1909 -0.0623
  340MPD2    C3 5099   0.739   0.769  10.045 -0.1123 -0.5709 -0.2161
  340MPD2    C4 5100   0.684   0.881   9.992 -0.5302  0.0225  0.3602
  340MPD2    C5 5101   0.655   0.881   9.857  0.1771 -0.0611 -0.4642
  340MPD2     H 5102   0.837   0.590   9.994  1.0123  1.2865  1.3580
  340MPD2    H1 5103   0.676   0.970  10.053 -1.7311  0.0099  0.2143
  340MPD2    H2 5104   0.614   0.766   9.685 -0.3952 -0.8204  0.3816
  340MPD2    H3 5105   0.605   0.968   9.818  1.6319 -0.3337 -2.9134
  340MPD2     N 5106   0.777   0.773  10.180 -0.4250  0.3443 -0.1485
  340MPD2    H5 5107   0.771   0.868  10.217  2.1991  0.7723 -0.8322
  340MPD2    N1 5108   0.775   0.551   9.759  0.6105  0.6841  0.6636
  340MPD2    H7 5109   0.830   0.481   9.806 -1.3609 -1.5050 -0.2949
  341TMC3    C1 5110   0.851   0.443   9.563 -1.1247  0.0696  0.2285
  341TMC3    C2 5111   0.826   0.310   9.596 -0.0659 -0.0974  0.5412
  341TMC3    C3 5112   0.933   0.228   9.608  0.1428  0.1182  0.1173
  341TMC3    C4 5113   0.970   0.492   9.520 -0.6167  0.6412 -0.4816
  341TMC3    C5 5114   1.066   0.390   9.508  0.2348 -0.0592  0.1852
  341TMC3    C6 5115   1.049   0.261   9.551  0.0629  0.2172 -0.1535
  341TMC3     C 5116   0.765   0.544   9.619  0.5569 -0.1291 -0.1172
  341TMC3     O 5117   0.753   0.638   9.541 -0.3753  0.5890 -0.3395
  341TMC3     H 5118   0.726   0.270   9.614 -0.7927  1.9165  0.9003
  341TMC3    H1 5119   0.968   0.594   9.484 -1.3054  0.0248 -2.1897
  341TMC3    H2 5120   1.133   0.194   9.565  1.7557  2.1006 -1.1982
  341TMC3    C7 5121   1.206   0.431   9.505  1.1374 -0.2983  0.8418
  341TMC3    C8 5122   0.902   0.104   9.670 -0.6033 -0.0028 -0.3123
  341TMC3    O1 5123   1.291   0.369   9.572 -0.2974  0.2302  0.4778
  341TMC3    O2 5124   0.816   0.094   9.755  0.0923 -0.2211 -0.5473
  342MPD2     C 5125   4.044   3.891  17.081 -0.7038 -0.5882  0.2404
  342MPD2    C1 5126   3.934   3.839  17.139  1.3242  0.4447  0.1689
  342MPD2    C2 5127   3.830   3.916  17.190  0.7427  0.1463  0.8772
  342MPD2    C3 5128   3.848   4.054  17.187 -0.8423 -0.1673 -0.6453
  342MPD2    C4 5129   3.957   4.108  17.119 -0.3955 -0.2689 -0.5624
  342MPD2    C5 5130   4.057   4.026  17.073 -0.3423 -0.3120  0.4003
  342MPD2     H 5131   3.732   3.870  17.203  0.5287 -0.1478 -1.7484
  342MPD2    H1 5132   3.965   4.215  17.105  1.7683 -0.0782  2.0087
  342MPD2    H2 5133   4.105   3.823  17.022 -1.4647 -1.8423  0.8850
  342MPD2    H3 5134   4.135   4.071  17.014 -1.3943  0.6037 -0.2858
  342MPD2     N 5135   3.756   4.150  17.227 -0.4726 -0.3701  0.2427
  342MPD2    H5 5136   3.766   4.247  17.198  0.8359 -0.6525 -0.2820
  342MPD2    N1 5137   3.930   3.697  17.120  0.1678  0.2171  0.1515
  342MPD2    H7 5138   4.015   3.651  17.087 -0.7424 -2.6568  1.7989
  343TMC3    C1 5139   3.848   3.477  17.103  0.9433  1.0684  0.1902
  343TMC3    C2 5140   3.969   3.438  17.048 -0.0595  0.0329  0.1319
  343TMC3    C3 5141   3.983   3.300  17.035 -0.4206 -0.1064 -0.8710
  343TMC3    C4 5142   3.749   3.390  17.133 -0.4264  0.3972  0.3017
  343TMC3    C5 5143   3.767   3.258  17.113  0.3818 -0.6694 -0.2579
  343TMC3    C6 5144   3.882   3.209  17.055 -1.2154 -0.4309  0.6737
  343TMC3     C 5145   3.825   3.614  17.136  0.3770 -0.5448 -0.4715
  343TMC3     O 5146   3.707   3.644  17.158 -0.1819  0.1475  0.0437
  343TMC3     H 5147   4.046   3.511  17.028 -0.0713  0.0944  0.3123
  343TMC3    H1 5148   3.660   3.419  17.186 -1.0170  0.9981 -1.0106
  343TMC3    H2 5149   3.908   3.105  17.065 -0.4104 -0.5205 -2.3721
  343TMC3    C7 5150   3.694   3.157  17.185  0.5518 -0.0757  0.6304
  343TMC3    C8 5151   4.106   3.261  17.087 -0.4641  0.0189 -0.1725
  343TMC3    O1 5152   3.679   3.050  17.119 -0.3180  0.2856  0.5230
  343TMC3    O2 5153   4.158   3.327  17.178 -0.1218  0.1409 -0.1163
  344MPD2     C 5154   0.431   2.746  10.978  0.0023  0.6589  0.1190
  344MPD2    C1 5155   0.329   2.805  10.909  0.4486 -0.0918  0.5864
  344MPD2    C2 5156   0.355   2.872  10.791  0.0383  0.1877  0.0584
  344MPD2    C3 5157   0.488   2.887  10.745  0.3383 -0.0425 -0.0494
  344MPD2    C4 5158   0.592   2.826  10.815  0.1055 -0.1704  0.4386
  344MPD2    C5 5159   0.559   2.751  10.927 -0.2267  0.1881  0.7109
  344MPD2     H 5160   0.275   2.920  10.737  1.4100 -0.6597 -2.7064
  344MPD2    H1 5161   0.696   2.840  10.790 -0.2853 -1.6315 -1.9888
  344MPD2    H2 5162   0.416   2.697  11.073 -3.2455  0.7972 -0.3381
  344MPD2    H3 5163   0.630   2.701  10.992  0.0422  0.7129  0.8203
  344MPD2     N 5164   0.527   2.969  10.632  0.3025 -0.1234  0.1800
  344MPD2    H5 5165   0.626   2.969  10.612  0.0991 -1.3896 -0.8409
  344MPD2    N1 5166   0.193   2.785  10.947 -0.9073  0.4092  0.8501
  344MPD2    H7 5167   0.117   2.821  10.890 -0.1490 -0.9499 -0.9968
  345TMC3    C1 5168   0.504   3.121  10.449 -0.0906 -0.3814  0.6223
  345TMC3    C2 5169   0.641   3.139  10.429  0.0904  0.1294  0.0327
  345TMC3    C3 5170   0.681   3.229  10.336  0.6975 -1.3729 -0.0718
  345TMC3    C4 5171   0.406   3.187  10.371  0.3829 -0.1902 -0.9810
  345TMC3    C5 5172   0.460   3.272  10.271 -0.4877  0.1649  0.3062
  345TMC3    C6 5173   0.596   3.298  10.259 -0.5894 -0.2105  0.4154
  345TMC3     C 5174   0.438   3.040  10.554 -0.3344  0.1846  0.5410
  345TMC3     O 5175   0.318   3.033  10.545 -0.7408  0.1063 -0.3557
  345TMC3     H 5176   0.717   3.095  10.492 -0.0352  1.5740  1.2124
  345TMC3    H1 5177   0.300   3.174  10.388  0.3594  0.1165 -0.9050
  345TMC3    H2 5178   0.628   3.357  10.175  0.9393  1.0863  1.9038
  345TMC3    C7 5179   0.371   3.364  10.195 -0.5713 -0.0723  0.3683
  345TMC3    C8 5180   0.827   3.236  10.321 -0.2821 -0.8185  0.5552
  345TMC3    O1 5181   0.419   3.468  10.148 -0.1672 -0.3577  0.7390
  345TMC3    O2 5182   0.898   3.204  10.414  0.3878 -0.3744 -0.6147
  346MPD2     C 5183   4.286   4.633  13.974  0.4562 -0.9186 -0.5711
  346MPD2    C1 5184   4.423   4.620  13.999  0.3372  0.5908 -0.6256
  346MPD2    C2 5185   4.488   4.700  14.085 -0.2678  0.3543  0.1012
  346MPD2    C3 5186   4.427   0.071  14.158  0.3859  0.3363 -0.0726
  346MPD2    C4 5187   4.291   0.092  14.132  1.1761 -0.0941  0.6707
  346MPD2    C5 5188   4.223   0.001  14.047 -0.2468 -0.7928 -0.7647
  346MPD2     H 5189   4.593   4.680  14.102 -0.0782  2.4126  1.3378
  346MPD2    H1 5190   4.237   0.174  14.178 -0.4862 -0.4067 -0.7404
  346MPD2    H2 5191   4.224   4.564  13.918  0.7761  0.0268 -2.0967
  346MPD2    H3 5192   4.115   4.724  14.043 -0.3015  3.2269 -0.5396
  346MPD2     N 5193   4.502   0.138  14.261  0.5862 -0.2801 -0.0310
  346MPD2    H5 5194   4.592   0.092  14.272  1.2314  1.0315  0.1668
  346MPD2    N1 5195   4.507   4.545  13.918  0.4391 -0.2671  0.5327
  346MPD2    H7 5196   4.606   4.569  13.911 -0.0414  1.1651 -1.6687
  347TMC3    C1 5197   4.545   0.279  14.453 -0.7232  0.4193  0.0929
  347TMC3    C2 5198   4.675   0.248  14.439 -0.6344 -0.1095 -0.1628
  347TMC3    C3 5199   0.031   0.266  14.548 -0.5858 -0.6854  0.0777
  347TMC3    C4 5200   4.489   0.326  14.571 -0.4675 -0.3115  0.0833
  347TMC3    C5 5201   4.575   0.342  14.677 -0.3075 -0.1724 -0.3524
  347TMC3    C6 5202   4.706   0.305  14.676  0.3078  0.4444 -0.2218
  347TMC3     C 5203   4.452   0.237  14.348 -0.3347  0.5039 -0.8434
  347TMC3     O 5204   4.338   0.284  14.343  0.0800 -0.4271  0.0321
  347TMC3     H 5205   4.720   0.213  14.346 -0.3588  0.1546 -0.1280
  347TMC3    H1 5206   4.383   0.347  14.577 -0.7928 -2.2851  1.1401
  347TMC3    H2 5207   0.039   0.289  14.767 -0.2513 -0.5217 -0.0382
  347TMC3    C7 5208   4.512   0.359  14.803  0.7858  0.5580  0.6700
  347TMC3    C8 5209   0.166   0.206  14.542  1.1773  0.7665 -0.7390
  347TMC3    O1 5210   4.414   0.301  14.840 -0.4035  0.1873 -0.2805
  347TMC3    O2 5211   0.185   0.122  14.455  0.2491 -0.6248  0.2471
  348MPD2     C 5212   3.221   4.218  12.185 -0.3971 -0.5267 -0.4452
  348MPD2    C1 5213   3.350   4.193  12.138 -0.0182 -0.4430  0.0605
  348MPD2    C2 5214   3.383   4.230  12.011 -0.4933  0.0098  0.5919
  348MPD2    C3 5215   3.292   4.263  11.916 -0.1211 -0.1807  0.5904
  348MPD2    C4 5216   3.160   4.270  11.960 -0.2488 -0.5561  0.0222
  348MPD2    C5 5217   3.128   4.256  12.089 -0.0061  0.3440 -0.2998
  348MPD2     H 5218   3.487   4.218  11.981 -0.3182  1.3664  0.6784
  348MPD2    H1 5219   3.085   4.322  11.902 -3.3896 -0.9530  3.7632
  348MPD2    H2 5220   3.191   4.208  12.289 -3.5450  1.1557 -1.2134
  348MPD2    H3 5221   3.024   4.273  12.116  0.0256  1.4320 -0.8932
  348MPD2     N 5222   3.327   4.300  11.787  0.2610 -0.0646  0.1495
  348MPD2    H5 5223   3.426   4.319  11.776 -0.2494  2.0162 -0.8581
  348MPD2    N1 5224   3.452   4.159  12.231 -0.4049 -0.6057  0.3298
  348MPD2    H7 5225   3.548   4.147  12.198 -0.3054  0.2479  0.3304
  349TMC3    C1 5226   3.567   4.106  12.440 -0.4511  1.0877  0.4709
  349TMC3    C2 5227   3.595   3.981  12.492 -0.3273  0.3072 -0.1361
  349TMC3    C3 5228   3.726   3.950  12.513  0.3998 -0.2854  0.0683
  349TMC3    C4 5229   3.666   4.196  12.416 -0.0185  0.4429 -0.3769
  349TMC3    C5 5230   3.802   4.162  12.427 -0.2598 -0.1619  0.4709
  349TMC3    C6 5231   3.831   4.036  12.477 -0.4347  0.0187 -0.5653
  349TMC3     C 5232   3.439   4.116  12.360  1.7498  0.3956  0.2338
  349TMC3     O 5233   3.337   4.061  12.409 -0.0549 -0.2157  0.6022
  349TMC3     H 5234   3.517   3.907  12.509 -0.5902 -0.1802 -3.3460
  349TMC3    H1 5235   3.641   4.295  12.379  1.4077  1.0585  0.2702
  349TMC3    H2 5236   3.936   4.015  12.489 -0.4887  0.6261  0.9861
  349TMC3    C7 5237   3.885   4.208  12.314 -0.3809 -0.5536 -0.0763
  349TMC3    C8 5238   3.758   3.817  12.554  0.3065  0.4307 -0.9165
  349TMC3    O1 5239   3.944   4.118  12.263 -0.1662 -0.1064  0.4023
  349TMC3    O2 5240   3.680   3.771  12.636 -0.3527  0.2156 -0.6701
  350MPD2     C 5241   2.176   2.262  10.047 -0.9236 -0.1885  0.0521
  350MPD2    C1 5242   2.206   2.140   9.987  0.7527  0.8039 -0.0766
  350MPD2    C2 5243   2.328   2.125   9.921  0.3147  0.7972 -0.1704
  350MPD2    C3 5244   2.410   2.239   9.901 -0.2173  0.2026  0.2068
  350MPD2    C4 5245   2.377   2.365   9.952 -0.4894 -0.3867 -0.2769
  350MPD2    C5 5246   2.256   2.368  10.024 -0.2635  0.3803 -0.3342
  350MPD2     H 5247   2.366   2.035   9.873  0.5799  1.4064 -1.0898
  350MPD2    H1 5248   2.444   2.449   9.940  1.4129 -1.8536  0.0701
  350MPD2    H2 5249   2.087   2.280  10.107 -1.9372  2.0373 -2.1460
  350MPD2    H3 5250   2.226   2.458  10.077  0.2352  0.0892  0.4441
  350MPD2     N 5251   2.537   2.213   9.838  0.0555  0.2127 -0.6642
  350MPD2    H5 5252   2.543   2.122   9.794  2.9786  1.1091 -2.1313
  350MPD2    N1 5253   2.129   2.018   9.995 -0.3850  0.2137 -0.5638
  350MPD2    H7 5254   2.171   1.932   9.962  1.6824  1.2550 -0.6880
  351TMC3    C1 5255   1.957   1.870  10.059  0.1762 -0.2795  0.6334
  351TMC3    C2 5256   1.953   1.816   9.936  0.5476  0.1180  0.4165
  351TMC3    C3 5257   1.853   1.722   9.914 -0.2985  0.2234 -0.3321
  351TMC3    C4 5258   1.856   1.851  10.148  1.0559 -0.3347  0.1706
  351TMC3    C5 5259   1.760   1.758  10.122  0.0950  0.4574 -0.0019
  351TMC3    C6 5260   1.756   1.697  10.005  0.4424  0.2314 -0.6453
  351TMC3     C 5261   2.015   2.002  10.065 -0.1733 -0.8241 -0.2425
  351TMC3     O 5262   1.942   2.092  10.115 -0.2680  0.5902  0.0927
  351TMC3     H 5263   2.008   1.865   9.856  0.9702 -0.2267  0.4996
  351TMC3    H1 5264   1.853   1.903  10.243  2.3298 -0.4470  0.2673
  351TMC3    H2 5265   1.701   1.604   9.997  0.7623 -0.0954  0.9253
  351TMC3    C7 5266   1.666   1.741  10.226 -0.4029  0.2170  0.4226
  351TMC3    C8 5267   1.842   1.668   9.784  0.1308  0.6992 -0.3064
  351TMC3    O1 5268   1.681   1.800  10.331 -0.3857 -0.5861  0.2310
  351TMC3    O2 5269   1.942   1.663   9.714 -0.0123  0.4271  0.1797
  352MPD2     C 5270   1.014   0.057   1.271 -0.2946  0.0186 -0.2343
  352MPD2    C1 5271   0.900   4.709   1.282 -0.0306 -0.5709 -0.0086
  352MPD2    C2 5272   0.915   4.572   1.312  0.1104 -0.2268  0.1881
  352MPD2    C3 5273   1.037   4.511   1.333 -0.5775  0.1643  0.1182
  352MPD2    C4 5274   1.151   4.592   1.325 -0.1041 -0.4277 -0.3998
  352MPD2    C5 5275   1.136   0.005   1.301 -0.1158 -0.1218  0.3468
  352MPD2     H 5276   0.825   4.511   1.301  0.8878 -1.1767 -0.9288
  352MPD2    H1 5277   1.253   4.556   1.333 -0.2039 -1.0673 -2.1513
  352MPD2    H2 5278   1.001   0.159   1.237  0.3237  0.3440  0.5044
  352MPD2    H3 5279   1.220   0.073   1.293  1.0162 -1.7179 -1.5283
  352MPD2     N 5280   1.060   4.369   1.340 -0.2225 -0.5124 -0.4618
  352MPD2    H5 5281   1.155   4.337   1.329 -0.0048 -0.5094  1.4728
  352MPD2    N1 5282   0.777   0.052   1.242 -0.0843 -0.1640  0.0419
  352MPD2    H7 5283   0.785   0.150   1.216 -0.9129  0.1886  1.1172
  353TMC3    C1 5284   1.000   4.137   1.333 -0.5742  0.0124  0.2578
  353TMC3    C2 5285   1.135   4.107   1.334  0.0809  0.1422  0.0193
  353TMC3    C3 5286   1.170   3.979   1.290 -0.2650  0.2417  0.3752
  353TMC3    C4 5287   0.902   4.042   1.310 -0.5239 -0.2516 -0.4057
  353TMC3    C5 5288   0.946   3.922   1.266 -0.4951 -1.2125 -0.2357
  353TMC3    C6 5289   1.074   3.885   1.258  0.0905  0.0033  0.1931
  353TMC3     C 5290   0.958   4.273   1.352 -0.2382  0.1333 -0.0165
  353TMC3     O 5291   0.836   4.292   1.358  0.2546 -0.2166  0.8326
  353TMC3     H 5292   1.206   4.175   1.379  0.0644  0.7705 -0.9126
  353TMC3    H1 5293   0.801   4.078   1.298 -0.9612 -1.0714  0.8229
  353TMC3    H2 5294   1.097   3.787   1.216 -0.8295  0.4158 -1.2822
  353TMC3    C7 5295   0.863   3.817   1.199 -0.7770 -0.7935  0.2107
  353TMC3    C8 5296   1.316   3.953   1.277  0.5166 -0.4333 -0.8294
  353TMC3    O1 5297   0.904   3.764   1.095  0.2633  0.7663 -0.0133
  353TMC3    O2 5298   1.395   4.044   1.276 -0.3776 -0.1274 -0.0501
  354TMC3    C1 5299   2.494   1.006  13.272 -0.5941  0.3727  0.1506
  354TMC3    C2 5300   2.431   1.084  13.184  0.0249  0.4245 -0.0357
  354TMC3    C3 5301   2.483   1.091  13.055  0.4573  0.2128 -0.7879
  354TMC3    C4 5302   2.603   0.927  13.241  0.4809  0.4145 -0.3047
  354TMC3    C5 5303   2.665   0.947  13.120  0.3734 -0.6546 -0.0639
  354TMC3    C6 5304   2.599   1.021  13.020 -0.7795 -0.3280 -0.0287
  354TMC3     C 5305   2.406   0.947  13.364 -1.0438  0.9567  0.2413
  354TMC3     O 5306   2.308   1.015  13.391 -0.1401 -0.0558  0.6390
  354TMC3     H 5307   2.342   1.141  13.211  0.9462  0.3913  3.1343
  354TMC3    H1 5308   2.664   0.879  13.317 -1.5259 -0.8798  0.5013
  354TMC3    H2 5309   2.629   1.019  12.916 -1.4907 -2.9130 -0.1887
  354TMC3    C7 5310   2.749   0.839  13.086 -0.7177 -0.3635 -1.1602
  354TMC3    C8 5311   2.425   1.167  12.947 -0.0146  0.1233  0.0957
  354TMC3    O1 5312   2.758   0.742  13.160  0.0914 -0.0982  0.0351
  354TMC3    O2 5313   2.494   1.182  12.844 -0.0236  0.2185  0.2827
  355MPD2     C 5314   2.652   1.583  11.709 -0.1551 -0.0144 -0.2209
  355MPD2    C1 5315   2.673   1.665  11.595  0.3765 -0.1467 -0.4178
  355MPD2    C2 5316   2.808   1.704  11.580  0.2776  0.4130 -0.0646
  355MPD2    C3 5317   2.900   1.708  11.682 -0.0888 -0.0470 -0.7939
  355MPD2    C4 5318   2.868   1.645  11.804 -0.6557 -0.1368  0.1963
  355MPD2    C5 5319   2.750   1.574  11.802  0.7053 -0.3222 -0.7199
  355MPD2     H 5320   2.833   1.763  11.493  0.0732 -1.8653 -1.6586
  355MPD2    H1 5321   2.934   1.637  11.889  1.7827  0.1067 -1.6834
  355MPD2    H2 5322   2.556   1.535  11.722 -1.0544  2.3288  1.8292
  355MPD2    H3 5323   2.733   1.507  11.885  3.9493  0.8058  0.8502
  355MPD2     N 5324   3.024   1.769  11.681  0.7299  0.1542 -0.3699
  355MPD2    H5 5325   3.089   1.775  11.758  2.3416  2.4346 -1.9009
  355MPD2    N1 5326   2.557   1.680  11.504  0.6449  0.0310 -0.9027
  355MPD2    H7 5327   2.478   1.624  11.535  2.4336 -1.6055  0.7380
  356TMC3    C1 5328   3.195   1.908  11.596  0.3637  0.1001  0.2263
  356TMC3    C2 5329   3.279   1.939  11.493 -0.4337 -0.1236  0.2557
  356TMC3    C3 5330   3.369   2.044  11.502 -0.4190  0.3670  0.2147
  356TMC3    C4 5331   3.194   1.980  11.708  0.2697 -0.1616 -0.5055
  356TMC3    C5 5332   3.280   2.083  11.721 -0.3717  0.0525  0.7808
  356TMC3    C6 5333   3.371   2.121  11.616 -0.5562 -0.1055  0.5962
  356TMC3     C 5334   3.084   1.814  11.567  0.7097  0.0266  0.0659
  356TMC3     O 5335   3.057   1.788  11.449 -0.5185  0.2873 -0.1206
  356TMC3     H 5336   3.271   1.887  11.399 -1.4772 -0.4982  0.5526
  356TMC3    H1 5337   3.139   1.953  11.797 -0.0260  0.6439 -0.4442
  356TMC3    H2 5338   3.446   2.196  11.637 -0.8237 -0.3914  2.6702
  356TMC3    C7 5339   3.288   2.152  11.854  0.2460  0.4989 -0.1740
  356TMC3    C8 5340   3.443   2.079  11.378  0.2110 -0.2686 -0.2521
  356TMC3    O1 5341   3.254   2.077  11.949 -0.4996  0.0659  0.4595
  356TMC3    O2 5342   3.429   2.000  11.283 -0.0992 -0.0996 -0.1990
  357MPD2     C 5343   2.220   1.843   1.528  0.7325  0.4825  0.0648
  357MPD2    C1 5344   2.311   1.747   1.574 -0.8078  0.2738 -0.2567
  357MPD2    C2 5345   2.354   1.762   1.706 -0.1418  0.0972  0.2917
  357MPD2    C3 5346   2.283   1.846   1.795 -0.2199  0.7489  0.3396
  357MPD2    C4 5347   2.192   1.936   1.745  0.2172 -0.8144  0.0932
  357MPD2    C5 5348   2.168   1.941   1.613 -0.3654  0.2428  0.6222
  357MPD2     H 5349   2.430   1.696   1.745 -0.5367  0.0679  1.0218
  357MPD2    H1 5350   2.134   2.003   1.807  0.6678 -3.2432  3.1882
  357MPD2    H2 5351   2.196   1.849   1.423 -0.8301  1.6577  0.4834
  357MPD2    H3 5352   2.097   2.015   1.580 -0.7558 -0.9207 -1.1233
  357MPD2     N 5353   2.312   1.854   1.932 -0.1670  0.1997 -0.2142
  357MPD2    H5 5354   2.280   1.939   1.978  0.8931  1.0196 -0.9836
  357MPD2    N1 5355   2.379   1.659   1.485 -0.0741  0.7009 -0.0564
  357MPD2    H7 5356   2.372   1.680   1.386 -2.3347 -0.2238 -0.0834
  358TMC3    C1 5357   2.552   1.506   1.425 -0.8576 -0.7143 -0.2310
  358TMC3    C2 5358   2.560   1.560   1.302 -0.5541 -0.7775 -0.1178
  358TMC3    C3 5359   2.660   1.525   1.215 -0.0144  0.5069 -0.7648
  358TMC3    C4 5360   2.637   1.408   1.458 -0.8082 -0.2417 -0.1129
  358TMC3    C5 5361   2.734   1.371   1.369 -0.3387  0.7412 -0.5622
  358TMC3    C6 5362   2.754   1.430   1.247  0.1700 -0.1856 -0.2896
  358TMC3     C 5363   2.458   1.552   1.530 -0.5450 -1.1980  0.7196
  358TMC3     O 5364   2.451   1.488   1.632  0.5355 -0.6445  0.5175
  358TMC3     H 5365   2.482   1.625   1.267  1.6567  3.1025  2.1898
  358TMC3    H1 5366   2.652   1.378   1.561  1.6910 -2.2786 -1.0791
  358TMC3    H2 5367   2.815   1.384   1.170  0.6878  0.4600 -0.2593
  358TMC3    C7 5368   2.845   1.313   1.437 -0.4636  0.4306 -0.2056
  358TMC3    C8 5369   2.684   1.587   1.093  0.3339  0.8936  0.2591
  358TMC3    O1 5370   2.851   1.324   1.560  0.2247 -0.0937  0.0505
  358TMC3    O2 5371   2.783   1.562   1.030 -0.3785  0.6784 -0.1081
  359MPD2     C 5372   3.391   0.906  11.951 -0.2658  1.0141 -0.2935
  359MPD2    C1 5373   3.375   0.774  11.986 -0.5274 -0.3932 -0.5683
  359MPD2    C2 5374   3.261   0.733  12.051  0.0860  0.5348  0.0203
  359MPD2    C3 5375   3.160   0.827  12.085  0.0905 -0.2651  0.1229
  359MPD2    C4 5376   3.178   0.959  12.045 -0.2634 -0.0625  0.4678
  359MPD2    C5 5377   3.290   0.994  11.979 -0.0492 -0.7796  0.1474
  359MPD2     H 5378   3.249   0.627  12.074 -1.3351  0.9034  0.9861
  359MPD2    H1 5379   3.101   1.033  12.066 -0.7387  0.2209 -2.2220
  359MPD2    H2 5380   3.478   0.945  11.901  1.3302 -1.7048  0.3483
  359MPD2    H3 5381   3.299   1.096  11.945  1.1895 -0.7645  0.5021
  359MPD2     N 5382   3.049   0.795  12.166 -0.5415  0.4021  0.3082
  359MPD2    H5 5383   2.976   0.865  12.177  0.9857  2.0711 -0.1499
  359MPD2    N1 5384   3.479   0.676  11.955  0.1457  0.2193  0.0929
  359MPD2    H7 5385   3.469   0.577  11.973 -1.7060 -0.0679 -2.4984
  360TMC3    C1 5386   3.694   0.586  11.900 -0.8909 -0.3953  0.2830
  360TMC3    C2 5387   3.822   0.616  11.883 -0.0527 -0.7080  0.4200
  360TMC3    C3 5388   3.908   0.540  11.806  0.0236  0.1356 -0.2894
  360TMC3    C4 5389   3.644   0.476  11.839  0.0751  0.4766  0.5374
  360TMC3    C5 5390   3.725   0.407  11.754  0.5428  0.2431 -0.2294
  360TMC3    C6 5391   3.855   0.433  11.745 -0.3065 -0.1098  0.0075
  360TMC3     C 5392   3.610   0.707  11.926  0.5057  0.2904  0.2589
  360TMC3     O 5393   3.655   0.815  11.903 -0.4460  0.7189 -0.3996
  360TMC3     H 5394   3.864   0.710  11.916 -1.8794 -0.0275  0.7955
  360TMC3    H1 5395   3.536   0.470  11.825  0.3816 -2.5636 -0.4707
  360TMC3    H2 5396   3.909   0.366  11.679 -1.2153 -0.0489 -0.7950
  360TMC3    C7 5397   3.670   0.396  11.622 -0.0669  0.8592  0.2279
  360TMC3    C8 5398   4.028   0.602  11.753  0.2059  0.3657  0.5002
  360TMC3    O1 5399   3.730   0.457  11.530  0.0575 -0.8092  0.1230
  360TMC3    O2 5400   4.050   0.721  11.777 -0.0161  0.2736  0.1444
  361MPD2     C 5401   4.599   4.640  16.842  0.2230  0.3415  0.2019
  361MPD2    C1 5402   4.590   4.643  16.984 -0.0760  0.4284 -0.0237
  361MPD2    C2 5403   4.664   4.549  17.053 -0.3268 -0.3184 -0.7106
  361MPD2    C3 5404   0.016   4.455  16.982 -0.8898  0.6759  0.2725
  361MPD2    C4 5405   0.022   4.462  16.844  0.3442  0.1226  0.1582
  361MPD2    C5 5406   4.674   4.551  16.777 -0.1879  0.1339 -0.7240
  361MPD2     H 5407   4.653   4.539  17.160  0.8281 -0.0753 -0.5677
  361MPD2    H1 5408   0.084   4.402  16.778  0.7266  2.1683 -1.3525
  361MPD2    H2 5409   4.559   4.718  16.779  0.0066  0.8628  0.9835
  361MPD2    H3 5410   4.687   4.545  16.669 -2.4949  1.5878 -1.0686
  361MPD2     N 5411   0.096   4.355  17.041 -0.8013  0.2726  0.3723
  361MPD2    H5 5412   0.147   4.301  16.972 -1.5204  1.9367 -1.4623
  361MPD2    N1 5413   4.532   0.014  17.061  0.2787 -0.2978  0.4037
  361MPD2    H7 5414   4.566   0.020  17.157  0.0283 -1.5378  0.5732
  362TMC3    C1 5415   4.385   0.210  17.091 -0.0678  0.1056  0.3880
  362TMC3    C2 5416   4.470   0.262  17.182  0.3094 -0.2888 -0.2682
  362TMC3    C3 5417   4.499   0.397  17.178 -0.4170 -0.1121  0.1048
  362TMC3    C4 5418   4.308   0.290  17.008 -0.3595  0.5634  0.5615
  362TMC3    C5 5419   4.357   0.414  16.990 -0.0167  0.5373  0.5968
  362TMC3    C6 5420   4.453   0.470  17.067 -0.0961  0.6865  0.2507
  362TMC3     C 5421   4.431   0.092  17.015  1.2161 -0.3534  0.1686
  362TMC3     O 5422   4.368   0.075  16.913 -0.3299  1.0645  0.3125
  362TMC3     H 5423   4.517   0.201  17.258 -2.0327 -0.9586  0.6500
  362TMC3    H1 5424   4.226   0.251  16.948  1.1775 -0.9468 -0.5433
  362TMC3    H2 5425   4.501   0.564  17.043  0.5856  0.7273  1.7613
  362TMC3    C7 5426   4.359   0.443  16.842  0.1880 -0.0466  0.5633
  362TMC3    C8 5427   4.529   0.471  17.297 -0.0293  0.0603  0.0668
  362TMC3    O1 5428   4.412   0.547  16.800  0.1665  0.4133 -0.2246
  362TMC3    O2 5429   4.615   0.561  17.284 -0.4575 -0.2557  0.2756
  363TMC3    C1 5430   2.734   1.385   9.134 -0.1948 -0.2907 -0.1131
  363TMC3    C2 5431   2.816   1.285   9.166  0.4529 -0.4186 -0.0730
  363TMC3    C3 5432   2.899   1.312   9.271 -0.8940 -0.1830 -0.7619
  363TMC3    C4 5433   2.726   1.497   9.210  0.0682  0.2630  0.2651
  363TMC3    C5 5434   2.825   1.524   9.297 -0.5517 -0.1590  0.0695
  363TMC3    C6 5435   2.919   1.433   9.324  0.8265 -0.0304 -1.0812
  363TMC3     C 5436   2.668   1.372   9.006  0.5216 -0.0429 -0.1208
  363TMC3     O 5437   2.727   1.301   8.925  0.3324  0.1016  0.2341
  363TMC3     H 5438   2.794   1.187   9.126  0.8923  0.2718 -2.0137
  363TMC3    H1 5439   2.656   1.577   9.186 -0.7384 -0.2409  0.9399
  363TMC3    H2 5440   2.983   1.455   9.409  2.0981 -1.8273 -1.5878
  363TMC3    C7 5441   2.826   1.665   9.339 -0.0420  0.4064  0.6127
  363TMC3    C8 5442   2.965   1.199   9.326  0.5967 -0.0446  0.1235
  363TMC3    O1 5443   2.735   1.737   9.299  0.3873 -0.1972 -0.2781
  363TMC3    O2 5444   2.921   1.085   9.303  0.0831  0.0818  0.2847
  364MPD2     C 5445   2.179   0.912  10.715 -0.2312 -0.3189 -0.3711
  364MPD2    C1 5446   2.235   0.891  10.593 -0.1921  0.1462  0.5854
  364MPD2    C2 5447   2.258   0.759  10.558  0.4475 -0.0256 -0.4241
  364MPD2    C3 5448   2.239   0.658  10.644  1.0353 -0.1111  0.3430
  364MPD2    C4 5449   2.181   0.677  10.759 -0.0954  0.0232 -0.4927
  364MPD2    C5 5450   2.142   0.807  10.801 -0.1168  0.1854  1.0476
  364MPD2     H 5451   2.300   0.733  10.461 -1.5834 -1.4641 -0.9255
  364MPD2    H1 5452   2.160   0.583  10.809 -1.6507  0.2602 -0.6803
  364MPD2    H2 5453   2.156   1.016  10.735  1.9282  0.0266  0.3659
  364MPD2    H3 5454   2.090   0.823  10.895 -3.0919 -2.8791 -0.0856
  364MPD2     N 5455   2.274   0.522  10.608 -0.0981  0.0102  0.3761
  364MPD2    H5 5456   2.246   0.451  10.674 -0.1372 -0.5441 -0.2407
  364MPD2    N1 5457   2.308   0.998  10.528 -0.0974  0.7951 -0.1588
  364MPD2    H7 5458   2.306   1.090  10.572  0.8975  1.1633 -0.8668
  365TMC3    C1 5459   2.436   1.100  10.356  0.4637 -0.7270 -0.0787
  365TMC3    C2 5460   2.548   1.074  10.285 -0.1937 -0.0599 -0.0209
  365TMC3    C3 5461   2.625   1.170  10.231  0.0546 -0.0980  0.4560
  365TMC3    C4 5462   2.400   1.225  10.393 -0.3331  0.1060  0.3886
  365TMC3    C5 5463   2.485   1.326  10.349 -0.0155  0.2870  0.5145
  365TMC3    C6 5464   2.592   1.302  10.263 -0.1834  0.6720  0.8278
  365TMC3     C 5465   2.361   0.984  10.396 -0.0520 -0.7242 -0.0505
  365TMC3     O 5466   2.375   0.883  10.329  0.0228 -0.1898 -0.2271
  365TMC3     H 5467   2.572   0.969  10.270 -0.3648 -0.2338  0.9453
  365TMC3    H1 5468   2.299   1.232  10.430 -0.9844  1.3273 -1.5777
  365TMC3    H2 5469   2.669   1.375  10.240 -0.0992  0.3724  0.1528
  365TMC3    C7 5470   2.471   1.460  10.393  0.0008 -0.1584 -0.4379
  365TMC3    C8 5471   2.733   1.142  10.133 -0.4010 -0.7832 -0.5495
  365TMC3    O1 5472   2.514   1.542  10.312 -0.4683  1.0380 -0.2313
  365TMC3    O2 5473   2.805   1.238  10.098 -0.2457 -0.5113 -0.1903
  366MPD2     C 5474   0.081   2.290  15.477 -0.1126 -0.0374 -1.3812
  366MPD2    C1 5475   0.166   2.397  15.462 -0.0958  0.1396 -0.5912
  366MPD2    C2 5476   0.303   2.370  15.439  0.2812  0.0054  0.5451
  366MPD2    C3 5477   0.343   2.237  15.416 -1.0090 -0.9043 -0.3331
  366MPD2    C4 5478   0.252   2.131  15.434 -0.0062 -0.3998  0.0624
  366MPD2    C5 5479   0.123   2.159  15.458 -0.6132 -0.2459  0.6234
  366MPD2     H 5480   0.376   2.450  15.430  1.3115 -1.0163 -0.1094
  366MPD2    H1 5481   0.279   2.028  15.414  1.4594 -0.1072  0.5390
  366MPD2    H2 5482   4.702   2.305  15.504  0.5017  3.9838 -1.3614
  366MPD2    H3 5483   0.047   2.081  15.450  0.6529 -1.7252  3.2272
  366MPD2     N 5484   0.476   2.209  15.400  0.0138 -0.6480 -0.1869
  366MPD2    H5 5485   0.538   2.289  15.408  0.1521 -0.5484 -2.2307
  366MPD2    N1 5486   0.131   2.537  15.468 -0.7243 -0.3071  0.7047
  366MPD2    H7 5487   0.201   2.607  15.444  0.2025 -1.9636 -1.3177
  367TMC3    C1 5488   0.003   2.731  15.474  0.8116  0.3205  0.7213
  367TMC3    C2 5489   0.113   2.793  15.534  0.2507 -0.4155 -0.2126
  367TMC3    C3 5490   0.141   2.923  15.506 -0.0430 -0.5736 -0.1974
  367TMC3    C4 5491   4.644   2.800  15.387  0.1384 -0.4454  0.5864
  367TMC3    C5 5492   4.678   2.935  15.370 -0.2215  0.6584  0.5777
  367TMC3    C6 5493   0.067   2.995  15.421  0.2269  0.2562 -0.4292
  367TMC3     C 5494   0.004   2.589  15.469  0.6097 -0.0517  0.1788
  367TMC3     O 5495   4.626   2.529  15.442 -0.0481  0.2118 -0.3698
  367TMC3     H 5496   0.174   2.738  15.604 -1.1874 -0.2735  1.1562
  367TMC3    H1 5497   4.556   2.750  15.348 -0.0743  1.6486 -1.5837
  367TMC3    H2 5498   0.095   3.097  15.396 -1.7211  1.1213  0.9407
  367TMC3    C7 5499   4.597   3.013  15.281 -0.0491  0.3787  0.3297
  367TMC3    C8 5500   0.271   2.978  15.542  0.3542  0.1428 -0.2005
  367TMC3    O1 5501   4.630   3.130  15.252 -0.4386  0.2557 -0.3775
  367TMC3    O2 5502   0.351   2.907  15.600  0.0424 -0.6613  0.5220
  368MPD2     C 5503   1.687   4.427  13.114 -0.2092 -0.8526 -0.0011
  368MPD2    C1 5504   1.664   4.544  13.048  0.0178  0.2776 -0.0850
  368MPD2    C2 5505   1.754   4.587  12.954 -0.0511  0.0101 -0.7508
  368MPD2    C3 5506   1.863   4.508  12.919  0.2648  0.0261  0.5341
  368MPD2    C4 5507   1.875   4.388  12.984 -0.0273 -0.5969  0.9105
  368MPD2    C5 5508   1.790   4.346  13.077  1.1004 -0.6774  0.3629
  368MPD2     H 5509   1.746   4.682  12.902 -0.9010  0.7224  0.6939
  368MPD2    H1 5510   1.954   4.320  12.951  0.4741 -0.4422  1.7983
  368MPD2    H2 5511   1.626   4.395  13.198 -2.0509  1.3117 -0.5148
  368MPD2    H3 5512   1.787   4.249  13.127 -0.2973 -1.0318 -0.4154
  368MPD2     N 5513   1.962   4.554  12.827  0.9301  0.2296 -0.4545
  368MPD2    H5 5514   2.044   4.495  12.826  1.5563  1.0881  0.3509
  368MPD2    N1 5515   1.553   4.628  13.090  0.0029 -0.3055 -0.0306
  368MPD2    H7 5516   1.504   4.582  13.166 -0.2909  0.8163  0.4623
  369TMC3    C1 5517   1.391   0.073  13.075  0.0887 -0.0230 -0.8840
  369TMC3    C2 5518   1.371   0.202  13.037  0.8837 -0.3766  0.2242
  369TMC3    C3 5519   1.244   0.245  13.041  0.2741  0.2579  0.0877
  369TMC3    C4 5520   1.294   4.709  13.118  0.3253  0.2336 -0.0410
  369TMC3    C5 5521   1.172   0.046  13.131 -0.5344  0.2695  0.1936
  369TMC3    C6 5522   1.141   0.172  13.085 -0.2669 -0.4719  0.6834
  369TMC3     C 5523   1.518   0.021  13.034  0.7390 -0.2232  0.6806
  369TMC3     O 5524   1.567   0.088  12.941 -0.4366  0.0936 -0.7292
  369TMC3     H 5525   1.457   0.265  13.015 -0.1303  1.6054  1.8742
  369TMC3    H1 5526   1.303   4.603  13.139  1.8196  0.9230  2.7376
  369TMC3    H2 5527   1.035   0.191  13.098  0.4249  1.6010  3.2495
  369TMC3    C7 5528   1.070   4.682  13.173 -0.3922  1.0892  0.4065
  369TMC3    C8 5529   1.216   0.388  13.015 -0.5037 -0.0609  0.0146
  369TMC3    O1 5530   1.113   4.605  13.256  0.3895 -0.2926  0.3320
  369TMC3    O2 5531   1.114   0.436  13.065 -0.3342  0.5923  0.7798
  370TMC3    C1 5532   0.763   0.464  15.940 -0.2533 -0.5183 -0.3288
  370TMC3    C2 5533   0.667   0.436  16.034  0.0587  0.3086 -0.0530
  370TMC3    C3 5534   0.615   0.310  16.033 -0.2024 -0.5555  0.9903
  370TMC3    C4 5535   0.805   0.373  15.846  0.4573 -0.1980  0.0121
  370TMC3    C5 5536   0.753   0.247  15.855  0.2206 -0.3639 -0.2914
  370TMC3    C6 5537   0.660   0.213  15.947  0.8697  0.9752  0.2840
  370TMC3     C 5538   0.763   0.594  15.891  0.2369 -0.0241  0.9023
  370TMC3     O 5539   0.663   0.628  15.833  0.9360 -0.2331 -0.1889
  370TMC3     H 5540   0.636   0.528  16.082  0.1563  0.7610 -0.8418
  370TMC3    H1 5541   0.866   0.407  15.763  0.9714 -1.6104 -0.1924
  370TMC3    H2 5542   0.620   0.113  15.958  0.2874  1.4023  2.1140
  370TMC3    C7 5543   0.799   0.148  15.755  0.0386 -0.4416  0.5411
  370TMC3    C8 5544   0.551   0.270  16.154 -0.8316  0.0904  0.2767
  370TMC3    O1 5545   0.803   0.190  15.641  0.1855 -0.1551  0.0352
  370TMC3    O2 5546   0.510   0.156  16.161  0.0142  0.3794 -0.1666
  371TMC3    C1 5547   2.300   3.353  15.867 -0.1567  0.4093 -0.2395
  371TMC3    C2 5548   2.169   3.338  15.891 -0.2181  0.0390 -0.0314
  371TMC3    C3 5549   2.099   3.453  15.899 -0.0123  0.1543 -0.3741
  371TMC3    C4 5550   2.360   3.471  15.846 -0.0398  0.0988 -0.2557
  371TMC3    C5 5551   2.279   3.585  15.846  0.0785 -0.2841 -0.3770
  371TMC3    C6 5552   2.145   3.582  15.869  0.0539 -0.0096 -0.5110
  371TMC3     C 5553   2.383   3.240  15.894  0.2804  0.6149 -0.1246
  371TMC3     O 5554   2.496   3.265  15.931  1.0575 -0.1338  0.0084
  371TMC3     H 5555   2.134   3.246  15.937 -0.9107 -0.3466 -1.3237
  371TMC3    H1 5556   2.468   3.465  15.840 -0.3385  0.1390 -5.3896
  371TMC3    H2 5557   2.080   3.666  15.850 -1.3721 -1.0100 -0.1028
  371TMC3    C7 5558   2.335   3.716  15.805 -0.5923 -0.1159 -0.0491
  371TMC3    C8 5559   1.960   3.429  15.914  0.1129 -0.1272 -0.7184
  371TMC3    O1 5560   2.260   3.806  15.829 -0.1790 -0.3906  0.2276
  371TMC3    O2 5561   1.925   3.313  15.932  0.3376 -0.0502 -0.7811
  372MPD2     C 5562   1.984   4.643  13.388 -0.4243 -1.1377  0.3703
  372MPD2    C1 5563   2.049   4.527  13.416  0.3555  0.7009 -0.1099
  372MPD2    C2 5564   1.974   4.418  13.448 -0.0884  0.0174 -0.2406
  372MPD2    C3 5565   1.836   4.417  13.455  0.3423 -0.1657 -0.6776
  372MPD2    C4 5566   1.772   4.532  13.418  0.0755  1.2439  0.5379
  372MPD2    C5 5567   1.847   4.645  13.383  0.2009  0.1938 -0.2255
  372MPD2     H 5568   2.034   4.329  13.461 -0.1714 -0.2434 -1.6347
  372MPD2    H1 5569   1.666   4.553  13.407 -0.2234 -0.9452 -0.8812
  372MPD2    H2 5570   2.018   0.019  13.364 -0.8491 -1.8834 -3.3393
  372MPD2    H3 5571   1.788   0.007  13.355 -0.8648 -0.0615  1.2590
  372MPD2     N 5572   1.772   4.292  13.495 -0.5318  0.0490  0.2535
  372MPD2    H5 5573   1.829   4.217  13.533 -0.6014 -0.1658 -0.0670
  372MPD2    N1 5574   2.195   4.521  13.418  0.1254  0.0432  1.2798
  372MPD2    H7 5575   2.230   4.436  13.459  1.1197 -1.4829 -2.7322
  373TMC3    C1 5576   1.585   4.174  13.570 -0.5203 -0.6988 -0.5895
  373TMC3    C2 5577   1.492   4.183  13.667  0.0386 -0.2846  0.4059
  373TMC3    C3 5578   1.455   4.063  13.728 -0.0195  0.4462 -0.0727
  373TMC3    C4 5579   1.639   4.056  13.524 -0.8164  0.0281 -0.2402
  373TMC3    C5 5580   1.592   3.946  13.584  0.2690 -0.3030 -0.8337
  373TMC3    C6 5581   1.498   3.945  13.678  0.2886 -0.5122 -0.7894
  373TMC3     C 5582   1.638   4.295  13.518 -0.9529  0.4892 -0.7971
  373TMC3     O 5583   1.558   4.386  13.517 -0.0159 -0.1921  0.3302
  373TMC3     H 5584   1.462   4.277  13.712  3.8070  2.0739 -2.0045
  373TMC3    H1 5585   1.713   4.054  13.445  0.9441 -0.1713  1.4099
  373TMC3    H2 5586   1.479   3.848  13.723 -0.6279 -0.3004 -0.7289
  373TMC3    C7 5587   1.653   3.821  13.535 -0.3125  0.5533  0.4903
  373TMC3    C8 5588   1.493   4.069  13.873  0.4981  0.1962  1.0481
  373TMC3    O1 5589   1.764   3.835  13.482 -0.2414  0.3885  0.5138
  373TMC3    O2 5590   1.532   4.176  13.911 -0.4138 -0.4270 -0.2063
  374TMC3    C1 5591   2.360   4.447   9.550 -0.1954 -0.2158  0.2658
  374TMC3    C2 5592   2.471   4.519   9.593 -0.0372  0.6622 -0.0556
  374TMC3    C3 5593   2.452   4.650   9.577 -0.6646 -0.4670  0.8898
  374TMC3    C4 5594   2.256   4.496   9.478  0.0639  0.5260  0.2073
  374TMC3    C5 5595   2.244   4.634   9.466  0.4496 -0.2981  0.0860
  374TMC3    C6 5596   2.344   4.713   9.512 -0.0326  0.6780 -0.2141
  374TMC3     C 5597   2.357   4.309   9.594 -0.3880 -0.6710 -0.1516
  374TMC3     O 5598   2.467   4.259   9.601  0.2829  0.1045  0.5118
  374TMC3     H 5599   2.552   4.466   9.642  1.1884  1.4384 -1.2838
  374TMC3    H1 5600   2.196   4.428   9.418 -2.2995  3.5533 -0.8474
  374TMC3    H2 5601   2.333   0.097   9.506  0.6085  0.6835 -1.3067
  374TMC3    C7 5602   2.140   4.694   9.382  0.0969  0.0022 -0.1732
  374TMC3    C8 5603   2.559   0.014   9.637  0.2656 -0.4632 -0.0618
  374TMC3    O1 5604   2.161   0.082   9.337  0.0303  0.7666 -0.2175
  374TMC3    O2 5605   2.567   0.129   9.590 -0.6174  0.1873  0.3045
  375MPD2     C 5606   2.308   1.006  17.412  0.9117 -0.5011  0.0374
  375MPD2    C1 5607   2.219   0.945  17.323  0.7783  0.2869 -0.1252
  375MPD2    C2 5608   2.268   0.908  17.200 -0.6929  0.5896 -0.6463
  375MPD2    C3 5609   2.400   0.918  17.172 -0.4602 -0.1303 -0.3429
  375MPD2    C4 5610   2.487   0.976  17.266 -0.8285  0.5954 -0.2758
  375MPD2    C5 5611   2.442   1.012  17.384 -0.0500  0.2810  0.2262
  375MPD2     H 5612   2.206   0.854  17.130  0.2559  0.1630 -1.1519
  375MPD2    H1 5613   2.590   0.980  17.235 -0.1437  2.2428  2.2214
  375MPD2    H2 5614   2.280   1.046  17.509  0.7691  0.3526 -0.3514
  375MPD2    H3 5615   2.509   1.061  17.454 -0.3989  1.2397 -0.1008
  375MPD2     N 5616   2.453   0.880  17.046 -0.2296 -0.6325  0.1745
  375MPD2    H5 5617   2.551   0.898  17.030 -0.6135 -0.4848 -1.9790
  375MPD2    N1 5618   2.080   0.925  17.341 -0.2008  0.3585 -0.3972
  375MPD2    H7 5619   2.035   0.877  17.264  0.0844 -0.3309 -0.1308
  376TMC3    C1 5620   2.463   0.853  16.805 -0.0370 -0.1700  0.5256
  376TMC3    C2 5621   2.594   0.820  16.815  0.3566  0.3015  0.2958
  376TMC3    C3 5622   2.667   0.835  16.702  0.0587 -0.5979  0.4028
  376TMC3    C4 5623   2.402   0.884  16.690 -0.5558  0.2171 -0.3259
  376TMC3    C5 5624   2.484   0.908  16.586 -0.2678 -0.0690 -0.8839
  376TMC3    C6 5625   2.620   0.894  16.586 -0.2589  0.8356 -0.6617
  376TMC3     C 5626   2.382   0.858  16.928  0.5452  0.3422 -0.1766
  376TMC3     O 5627   2.265   0.851  16.912 -0.0461 -0.3560 -0.4367
  376TMC3     H 5628   2.631   0.776  16.907  1.3028 -0.2913 -0.3717
  376TMC3    H1 5629   2.296   0.909  16.685 -0.5313 -0.2196 -2.8557
  376TMC3    H2 5630   2.681   0.896  16.496 -0.6872  0.1044 -0.9610
  376TMC3    C7 5631   2.427   0.959  16.462  0.3077  0.3823 -0.1504
  376TMC3    C8 5632   2.807   0.817  16.703  0.2127  0.2251 -0.0073
  376TMC3    O1 5633   2.510   0.995  16.379  0.3201  0.0183  0.4979
  376TMC3    O2 5634   2.867   0.862  16.605 -0.1151 -0.2009 -0.1715
  377MPD2     C 5635   0.465   0.123  12.183 -0.0487 -0.1706  0.0060
  377MPD2    C1 5636   0.490   0.104  12.317 -0.0507 -0.0457  0.0829
  377MPD2    C2 5637   0.386   0.094  12.411  0.2347  0.5038 -0.0876
  377MPD2    C3 5638   0.252   0.108  12.369  0.0989 -0.2936 -0.4708
  377MPD2    C4 5639   0.233   0.138  12.238  0.0297  0.4875 -0.0560
  377MPD2    C5 5640   0.335   0.139  12.140  0.1106 -0.1674  0.2071
  377MPD2     H 5641   0.415   0.062  12.510 -1.1002  2.8023  1.0518
  377MPD2    H1 5642   0.136   0.161  12.195 -0.1575  0.4998  0.3656
  377MPD2    H2 5643   0.543   0.146  12.111  0.3271 -0.0789  0.4394
  377MPD2    H3 5644   0.310   0.163  12.038 -0.0614 -0.2452  0.2309
  377MPD2     N 5645   0.137   0.092  12.451  0.3417 -0.6088  0.2963
  377MPD2    H5 5646   0.049   0.117  12.408 -0.4633  1.6273  3.2565
  377MPD2    N1 5647   0.622   0.105  12.359  0.2322 -1.1256  0.1094
  377MPD2    H7 5648   0.696   0.116  12.290 -1.4174 -0.1170 -1.4955
  378TMC3    C1 5649   1.008   0.032  12.372  0.0958 -0.7399  0.1101
  378TMC3    C2 5650   0.887   0.083  12.380  0.3948  0.0119 -0.2733
  378TMC3    C3 5651   0.822   0.066  12.497 -0.5288  0.0171  0.5373
  378TMC3    C4 5652   1.066   4.681  12.467  0.0518 -0.4685  0.4340
  378TMC3    C5 5653   0.997   4.659  12.581  0.3331  0.4496  0.6060
  378TMC3    C6 5654   0.869   4.709  12.600 -0.1491 -0.2921  0.4826
  378TMC3     C 5655   1.055   0.012  12.236 -0.1300  0.1437  0.1921
  378TMC3     O 5656   0.961   0.024  12.156 -0.3835 -0.3685 -0.6439
  378TMC3     H 5657   0.861   0.159  12.307  2.1579  0.8481 -0.0187
  378TMC3    H1 5658   1.143   4.608  12.443  0.9075  0.7118 -0.3877
  378TMC3    H2 5659   0.821   4.692  12.696 -0.7894  2.5239  0.6679
  378TMC3    C7 5660   1.065   4.585  12.689 -0.1524  0.2103 -0.2933
  378TMC3    C8 5661   0.675   0.071  12.484  1.3282 -0.9725  0.1761
  378TMC3    O1 5662   1.002   4.540  12.784 -0.2997 -0.3021  0.3344
  378TMC3    O2 5663   0.615   0.039  12.585  0.8306 -0.3602  0.7798
  379MPD2     C 5664   1.471   3.241  16.052  0.0358  0.7045  0.5395
  379MPD2    C1 5665   1.362   3.161  16.084  0.1140 -0.5015  0.6227
  379MPD2    C2 5666   1.358   3.103  16.211 -0.3267  0.6910 -0.0816
  379MPD2    C3 5667   1.467   3.115  16.295 -0.7860  0.5010  0.7441
  379MPD2    C4 5668   1.579   3.178  16.249  0.0698 -0.2981 -0.2075
  379MPD2    C5 5669   1.579   3.250  16.133 -0.1168  0.6419 -1.3602
  379MPD2     H 5670   1.273   3.044  16.245 -0.3789  0.2027 -1.0591
  379MPD2    H1 5671   1.674   3.181  16.301 -0.2513  0.6444  0.3150
  379MPD2    H2 5672   1.481   3.280  15.951 -1.5852 -0.2755  0.0013
  379MPD2    H3 5673   1.665   3.300  16.090  1.3676  0.3918  1.3530
  379MPD2     N 5674   1.484   3.040  16.414  0.0190 -1.3614  1.1116
  379MPD2    H5 5675   1.578   3.036  16.451  0.4004 -1.8122  0.0708
  379MPD2    N1 5676   1.270   3.139  15.974  0.0834 -1.0175 -0.1715
  379MPD2    H7 5677   1.307   3.166  15.883  1.1376 -1.9820 -0.0405
  380TMC3    C1 5678   1.109   3.036  15.852  0.3240  0.1536  0.1164
  380TMC3    C2 5679   1.206   2.979  15.774  1.1683  0.4466  0.1195
  380TMC3    C3 5680   1.180   2.932  15.648  0.0547  1.1530  0.3368
  380TMC3    C4 5681   0.984   3.065  15.800  0.4881  0.1884 -0.1512
  380TMC3    C5 5682   0.958   3.014  15.677  0.5142  1.0644 -0.3601
  380TMC3    C6 5683   1.049   2.939  15.608 -0.0980  0.9664  0.0354
  380TMC3     C 5684   1.144   3.081  15.982 -0.0541 -0.5472  0.0993
  380TMC3     O 5685   1.066   3.100  16.072 -0.0479 -0.2547  0.0294
  380TMC3     H 5686   1.309   2.979  15.806  1.5010 -1.9363 -0.9515
  380TMC3    H1 5687   0.903   3.112  15.855  0.1662 -0.0309 -0.4333
  380TMC3    H2 5688   1.022   2.892  15.514  0.3304  1.4617 -0.3390
  380TMC3    C7 5689   0.827   3.030  15.617 -0.0160  0.6486  0.5844
  380TMC3    C8 5690   1.280   2.866  15.564  0.1222 -0.5699 -0.1810
  380TMC3    O1 5691   0.763   2.933  15.576  0.4191 -1.0116 -0.1331
  380TMC3    O2 5692   1.256   2.841  15.441  0.0565  0.6536  0.0398
  381TMC3    C1 5693   0.375   4.379  16.062 -1.0738  0.2456 -0.0962
  381TMC3    C2 5694   0.483   4.469  16.049 -0.5040 -0.6708 -0.8002
  381TMC3    C3 5695   0.552   4.507  16.160 -0.1806  0.7276 -0.4090
  381TMC3    C4 5696   0.339   4.335  16.190 -0.1931  0.4132  0.1838
  381TMC3    C5 5697   0.411   4.383  16.298 -0.0303  0.9362  0.4043
  381TMC3    C6 5698   0.512   4.474  16.282 -0.0388 -0.2382 -0.1321
  381TMC3     C 5699   0.293   4.353  15.947  0.5195 -0.2801  0.7342
  381TMC3     O 5700   0.171   4.327  15.969 -0.0345  0.3310 -0.6045
  381TMC3     H 5701   0.514   4.509  15.952 -0.2910  1.1294  0.0083
  381TMC3    H1 5702   0.239   4.297  16.205 -0.3624  1.1514  0.9390
  381TMC3    H2 5703   0.579   4.486  16.367 -0.3281  0.9391 -0.0680
  381TMC3    C7 5704   0.426   4.302  16.417 -0.1246 -0.5845 -0.1444
  381TMC3    C8 5705   0.675   4.584  16.133  0.1527 -0.1663 -0.3905
  381TMC3    O1 5706   0.470   4.191  16.399  0.5783  0.2645 -0.3369
  381TMC3    O2 5707   0.716   4.566  16.021 -0.0908 -0.4742  0.3761
  382MPD2     C 5708   0.343   2.313  17.058 -0.5895  0.0088 -0.5485
  382MPD2    C1 5709   0.252   2.301  17.161 -0.8351  0.0188  0.6911
  382MPD2    C2 5710   0.208   2.176  17.202 -0.3050  0.1180 -0.0983
  382MPD2    C3 5711   0.261   2.058  17.148 -0.1278  0.3270 -0.0588
  382MPD2    C4 5712   0.357   2.074  17.052 -0.2487  0.7311 -0.0683
  382MPD2    C5 5713   0.387   2.193  16.998  0.1008  0.4449  0.3148
  382MPD2     H 5714   0.137   2.173  17.284 -1.2737  0.1027 -0.9489
  382MPD2    H1 5715   0.397   1.985  17.006 -1.8875  0.9806 -1.9861
  382MPD2    H2 5716   0.375   2.406  17.013  1.0070 -0.8206 -1.1562
  382MPD2    H3 5717   0.463   2.204  16.922 -0.6106 -1.9723 -0.7350
  382MPD2     N 5718   0.225   1.926  17.184  0.2904  0.3360 -0.0758
  382MPD2    H5 5719   0.257   1.848  17.128 -0.0806 -0.6193  1.0399
  382MPD2    N1 5720   0.190   2.417  17.217 -0.9665 -0.0160 -0.0448
  382MPD2    H7 5721   0.116   2.397  17.283  0.5132  2.7277  2.4310
  383TMC3    C1 5722   0.102   1.750  17.293  0.2680  0.8253 -0.0288
  383TMC3    C2 5723   0.038   1.711  17.178  0.0037 -0.8975 -0.4235
  383TMC3    C3 5724   4.712   1.585  17.174 -0.0746 -0.6465  0.2112
  383TMC3    C4 5725   0.094   1.681  17.411  0.2271  0.3229 -0.3528
  383TMC3    C5 5726   0.026   1.564  17.403  0.4727 -0.6211 -0.0476
  383TMC3    C6 5727   4.705   1.505  17.284  0.0440 -0.1819 -0.5931
  383TMC3     C 5728   0.150   1.890  17.299  0.1760  0.0270 -1.0076
  383TMC3     O 5729   0.129   1.954  17.402  0.2902  0.3596  0.2744
  383TMC3     H 5730   0.045   1.763  17.083 -0.8005 -1.0105 -0.5492
  383TMC3    H1 5731   0.138   1.730  17.497  3.2060 -1.7574 -0.6982
  383TMC3    H2 5732   4.645   1.415  17.287 -1.8564  1.2097  3.2526
  383TMC3    C7 5733   4.694   1.503  17.527 -0.1851  0.1324  0.3007
  383TMC3    C8 5734   4.609   1.557  17.080  0.4007 -0.3937 -0.2945
  383TMC3    O1 5735   4.591   1.441  17.522  0.0029 -0.5910  0.3369
  383TMC3    O2 5736   4.617   1.445  17.031 -0.0611  0.6952 -0.3866
  384MPD2     C 5737   1.844   3.016  12.000  0.0458  0.3052 -0.6319
  384MPD2    C1 5738   1.852   2.909  12.085 -0.3519  0.1484  0.0814
  384MPD2    C2 5739   1.937   2.810  12.053  0.1089 -0.9202  0.3062
  384MPD2    C3 5740   2.015   2.815  11.940 -0.6079 -0.1913  0.6293
  384MPD2    C4 5741   1.991   2.912  11.853 -0.9871  0.5599  0.9283
  384MPD2    C5 5742   1.914   3.019  11.884  0.3428  0.0840 -0.1211
  384MPD2     H 5743   1.945   2.731  12.127  1.3646  0.7359  1.9409
  384MPD2    H1 5744   2.043   2.918  11.758 -0.1322 -0.7191  1.3026
  384MPD2    H2 5745   1.776   3.098  12.021 -0.2115 -0.7398  2.5519
  384MPD2    H3 5746   1.921   3.111  11.827 -0.6330  0.4112  0.2779
  384MPD2     N 5747   2.111   2.715  11.901 -0.5252  0.2651 -0.6496
  384MPD2    H5 5748   2.154   2.729  11.810  0.8355  0.6666  0.0557
  384MPD2    N1 5749   1.782   2.896  12.209  0.3642  0.1687  0.3376
  384MPD2    H7 5750   1.811   2.817  12.266  0.2555 -0.8996 -1.0723
  385TMC3    C1 5751   2.191   2.486  11.902  0.5388  0.0920  0.0818
  385TMC3    C2 5752   2.164   2.465  11.767 -0.2312  0.2456 -0.2040
  385TMC3    C3 5753   2.128   2.342  11.724 -0.0514  0.3509 -0.5533
  385TMC3    C4 5754   2.203   2.376  11.979 -0.0028 -0.6038  0.8483
  385TMC3    C5 5755   2.156   2.251  11.936  0.3261  0.1585  0.5831
  385TMC3    C6 5756   2.115   2.232  11.808 -0.0023 -0.6475 -0.5184
  385TMC3     C 5757   2.133   2.597  11.976 -0.1110  0.2329  0.1925
  385TMC3     O 5758   2.111   2.578  12.095  0.3324  0.2615 -0.3620
  385TMC3     H 5759   2.175   2.547  11.697 -2.6446  3.0612  2.7339
  385TMC3    H1 5760   2.239   2.379  12.081  1.6018 -0.0180  0.2673
  385TMC3    H2 5761   2.094   2.134  11.768  2.8851 -1.1909 -0.6847
  385TMC3    C7 5762   2.055   2.195  12.032  0.4258  0.1389  0.8073
  385TMC3    C8 5763   2.131   2.330  11.574  0.0437  1.1728 -0.2247
  385TMC3    O1 5764   2.009   2.086  12.004  0.5682  0.7247 -0.8873
  385TMC3    O2 5765   2.203   2.415  11.517 -0.1230  0.0918 -0.6918
  386TMC3    C1 5766   1.319   0.375  12.030  0.4086 -0.3166  0.0194
  386TMC3    C2 5767   1.374   0.423  11.907  0.3229 -0.0080 -0.1622
  386TMC3    C3 5768   1.291   0.491  11.819 -0.0953 -0.5392  0.0690
  386TMC3    C4 5769   1.186   0.385  12.055 -0.7591  0.3538 -0.3846
  386TMC3    C5 5770   1.110   0.462  11.973 -0.4508  0.1389  0.5930
  386TMC3    C6 5771   1.153   0.508  11.855 -0.4548  0.3582 -0.5615
  386TMC3     C 5772   1.399   0.346  12.146 -0.2745  0.9614 -0.4712
  386TMC3     O 5773   1.355   0.301  12.251  0.1173 -0.0069  0.5864
  386TMC3     H 5774   1.463   0.375  11.868  0.4814  1.9234 -2.2272
  386TMC3    H1 5775   1.145   0.349  12.148 -0.0802  1.7069  0.4332
  386TMC3    H2 5776   1.081   0.549  11.786 -0.8509 -1.2466 -1.0826
  386TMC3    C7 5777   1.017   0.548  12.043 -0.7426 -0.7440  0.5965
  386TMC3    C8 5778   1.337   0.545  11.696 -0.4384  1.4325  0.2671
  386TMC3    O1 5779   0.942   0.490  12.119  0.0553  0.4349 -0.4713
  386TMC3    O2 5780   1.252   0.595  11.622  0.3631  0.1082  0.1128
  387MPD2     C 5781   4.364   0.005   9.797  0.0826  0.4294  0.0983
  387MPD2    C1 5782   4.502   4.721   9.776  0.9544 -0.1166  0.6343
  387MPD2    C2 5783   4.556   4.593   9.789  0.4742  0.0039  0.1290
  387MPD2    C3 5784   4.488   4.474   9.802  0.3055  0.0514  0.0871
  387MPD2    C4 5785   4.356   4.487   9.815 -0.1350  0.0062  0.2986
  387MPD2    C5 5786   4.295   4.608   9.809  0.1061 -0.2659 -0.6674
  387MPD2     H 5787   4.664   4.584   9.790  0.3836 -1.0153  1.2694
  387MPD2    H1 5788   4.286   4.404   9.809  0.2493 -0.1591 -2.1788
  387MPD2    H2 5789   4.306   0.097   9.796  0.4241  0.6034 -2.6689
  387MPD2    H3 5790   4.186   4.609   9.806  0.0664 -0.0359  1.2341
  387MPD2     N 5791   4.560   4.352   9.815 -0.3965 -0.3206 -0.0319
  387MPD2    H5 5792   4.661   4.368   9.818 -0.7038  1.7803 -0.9905
  387MPD2    N1 5793   4.588   0.104   9.779 -0.2855 -0.1132 -0.4882
  387MPD2    H7 5794   4.688   0.091   9.771 -0.3116 -1.5675  1.7725
  388TMC3    C1 5795   4.662   0.303   9.878 -0.8301  0.0674 -0.2404
  388TMC3    C2 5796   4.644   0.436   9.905  0.0700 -0.0952  0.1303
  388TMC3    C3 5797   0.009   0.495   9.990  0.0799 -0.1133 -0.4821
  388TMC3    C4 5798   0.039   0.227   9.938  0.8666  0.4073  0.1761
  388TMC3    C5 5799   0.129   0.293  10.020 -0.2508 -0.4417 -0.4993
  388TMC3    C6 5800   0.117   0.428  10.038 -0.4806 -0.0288  0.5699
  388TMC3     C 5801   4.552   0.235   9.811 -0.0426 -0.5318 -0.3239
  388TMC3     O 5802   4.444   0.290   9.826  0.2929 -0.4576  0.2942
  388TMC3     H 5803   4.548   0.479   9.879 -0.4672 -0.4311  1.5676
  388TMC3    H1 5804   0.049   0.121   9.919 -0.8750  0.2683  0.0493
  388TMC3    H2 5805   0.189   0.465  10.111 -0.0824 -0.7645  0.5498
  388TMC3    C7 5806   0.208   0.209  10.112  0.4939 -0.0077  0.1051
  388TMC3    C8 5807   4.698   0.613  10.069 -0.2060 -0.2177 -0.5438
  388TMC3    O1 5808   0.228   0.260  10.220  0.2018 -0.2578 -0.0526
  388TMC3    O2 5809   4.602   0.685  10.031  0.3226  0.0361  0.5372
  389MPD2     C 5810   3.873   2.860  10.748 -0.2009  0.4655 -0.4605
  389MPD2    C1 5811   3.750   2.909  10.718  0.1846  0.4541  0.1205
  389MPD2    C2 5812   3.639   2.851  10.780 -0.2342 -0.0695 -0.2245
  389MPD2    C3 5813   3.651   2.756  10.882 -0.0581 -0.4884 -0.6739
  389MPD2    C4 5814   3.780   2.702  10.899 -0.4467 -0.3619  0.5488
  389MPD2    C5 5815   3.886   2.756  10.833 -0.5452 -0.0707  0.5228
  389MPD2     H 5816   3.540   2.894  10.771 -0.2341  0.3660  1.7926
  389MPD2    H1 5817   3.797   2.610  10.955  0.8058 -1.2511 -1.2863
  389MPD2    H2 5818   3.965   2.894  10.702  0.4472  0.5561  0.8874
  389MPD2    H3 5819   3.988   2.719  10.835 -0.3769  0.3742  0.1955
  389MPD2     N 5820   3.552   2.702  10.964  0.4214  0.3052 -0.2272
  389MPD2    H5 5821   3.582   2.654  11.049 -2.0889  0.9805  1.0317
  389MPD2    N1 5822   3.748   3.021  10.631  0.1358 -1.0206 -0.5038
  389MPD2    H7 5823   3.838   3.044  10.588 -1.4357  1.1341 -2.6405
  390TMC3    C1 5824   3.333   2.702  11.072  0.5450  0.4958 -1.0080
  390TMC3    C2 5825   3.398   2.660  11.189  0.0359 -0.1728  0.8459
  390TMC3    C3 5826   3.353   2.698  11.310  1.0186  0.0417 -0.6412
  390TMC3    C4 5827   3.214   2.762  11.071 -0.1739  0.1384 -0.9775
  390TMC3    C5 5828   3.168   2.792  11.193  0.0245 -0.3425 -0.1804
  390TMC3    C6 5829   3.247   2.784  11.310 -0.3384  0.6004 -1.1974
  390TMC3     C 5830   3.417   2.731  10.950  0.0818 -0.7128  0.1720
  390TMC3     O 5831   3.356   2.765  10.846  0.4690  0.0162  0.5111
  390TMC3     H 5832   3.476   2.585  11.183 -0.7824 -0.9653  0.2097
  390TMC3    H1 5833   3.159   2.782  10.980  0.7818  1.7533 -1.1895
  390TMC3    H2 5834   3.208   2.802  11.410 -0.2988  0.3053 -1.1293
  390TMC3    C7 5835   3.032   2.745  11.221  0.1212 -0.1674 -0.1653
  390TMC3    C8 5836   3.315   2.575  11.384  0.4097 -0.7308  0.4839
  390TMC3    O1 5837   2.981   2.797  11.317 -0.3233 -0.0889 -0.2358
  390TMC3    O2 5838   3.307   2.480  11.309  0.1090 -0.3096  0.4480
  391MPD2     C 5839   2.863   4.325  11.114  0.7917  0.3570  0.9482
  391MPD2    C1 5840   2.984   4.391  11.103 -0.4526 -1.3959  0.7829
  391MPD2    C2 5841   3.023   4.413  10.972  0.8365 -0.3024  0.2511
  391MPD2    C3 5842   2.941   4.400  10.861 -0.1907 -0.5266 -0.1760
  391MPD2    C4 5843   2.818   4.347  10.883  0.5081  0.2823  0.9174
  391MPD2    C5 5844   2.781   4.305  11.005  0.3333 -0.0406 -0.4646
  391MPD2     H 5845   3.122   4.450  10.948  1.2852 -1.8769 -0.3569
  391MPD2    H1 5846   2.752   4.313  10.803  0.9344 -0.9944  1.1135
  391MPD2    H2 5847   2.826   4.288  11.209 -2.1391 -0.7804 -0.6338
  391MPD2    H3 5848   2.691   4.247  11.023  0.2563 -0.3232 -1.7744
  391MPD2     N 5849   2.998   4.424  10.736  0.2753 -0.0302 -0.0227
  391MPD2    H5 5850   3.097   4.448  10.737  0.4794 -0.7986 -2.3466
  391MPD2    N1 5851   3.065   4.410  11.216  0.4581 -0.0927  0.4215
  391MPD2    H7 5852   3.030   4.368  11.301  1.6639  0.0294  0.9725
  392TMC3    C1 5853   3.006   4.452  10.500 -0.3677 -0.0382  0.5258
  392TMC3    C2 5854   2.940   4.481  10.384 -0.7886  0.1450  0.0228
  392TMC3    C3 5855   3.003   4.558  10.287  0.6829  0.2807 -0.5556
  392TMC3    C4 5856   3.133   4.509  10.516 -0.2375  0.2519  0.2575
  392TMC3    C5 5857   3.187   4.590  10.422 -0.1948  0.0627 -0.5704
  392TMC3    C6 5858   3.128   4.621  10.307  0.2608 -0.2040  0.1537
  392TMC3     C 5859   2.930   4.419  10.617  0.2744  0.3497 -0.7040
  392TMC3     O 5860   2.815   4.392  10.597  0.1176  0.3244 -0.7795
  392TMC3     H 5861   2.843   4.433  10.380 -0.3894 -0.7466  1.2653
  392TMC3    H1 5862   3.198   4.492  10.601  1.5379  0.5854 -1.0320
  392TMC3    H2 5863   3.165   4.695  10.236 -0.2541  0.1306  0.2344
  392TMC3    C7 5864   3.309   4.663  10.447  0.4119 -0.2909 -0.8427
  392TMC3    C8 5865   2.921   4.577  10.166 -0.5574 -0.1678  0.9371
  392TMC3    O1 5866   3.342   4.676  10.566 -0.6488  0.0398  0.1356
  392TMC3    O2 5867   2.806   4.535  10.180  0.0947 -0.6627 -0.2684
  393TMC3    C1 5868   2.409   2.600  10.399  0.2338 -0.7182  0.0028
  393TMC3    C2 5869   2.399   2.641  10.527  0.0197 -0.8436 -0.0092
  393TMC3    C3 5870   2.400   2.558  10.633  0.4254  0.1135  0.2304
  393TMC3    C4 5871   2.408   2.465  10.370 -0.0227 -0.7409  0.2194
  393TMC3    C5 5872   2.389   2.374  10.476  0.0680 -0.5547 -0.0442
  393TMC3    C6 5873   2.396   2.423  10.605 -0.0298 -0.0541 -0.8220
  393TMC3     C 5874   2.327   2.679  10.306  0.0727 -0.1923  0.1341
  393TMC3     O 5875   2.241   2.753  10.350 -0.2061  0.3787 -0.0417
  393TMC3     H 5876   2.390   2.748  10.546  1.5067 -0.4660 -1.3228
  393TMC3    H1 5877   2.405   2.438  10.265  1.7985  0.8869 -0.2664
  393TMC3    H2 5878   2.393   2.348  10.683  1.2820  1.7748  0.9833
  393TMC3    C7 5879   2.405   2.238  10.459 -0.3499  0.2364 -0.1210
  393TMC3    C8 5880   2.421   2.618  10.759 -0.0322  1.2273 -0.8363
  393TMC3    O1 5881   2.336   2.161  10.528  0.5371 -0.3096  0.0994
  393TMC3    O2 5882   2.433   2.740  10.769  0.1793 -0.3066 -0.1173
  394TMC3    C1 5883   3.672   3.154  10.458 -1.3788 -0.6653 -0.2160
  394TMC3    C2 5884   3.614   3.134  10.336 -0.4741  0.6019  0.2285
  394TMC3    C3 5885   3.675   3.175  10.227  0.7577 -0.7705 -0.0889
  394TMC3    C4 5886   3.793   3.223  10.464 -0.3755 -0.3392  0.1926
  394TMC3    C5 5887   3.853   3.255  10.347  0.5718  0.1769 -0.7423
  394TMC3    C6 5888   3.799   3.227  10.230  0.6676 -0.5690 -0.4427
  394TMC3     C 5889   3.637   3.073  10.567  0.3067  0.7650 -0.0923
  394TMC3     O 5890   3.520   3.040  10.582 -0.0506 -0.0246 -0.2777
  394TMC3     H 5891   3.523   3.074  10.331 -1.2345  2.0081 -2.2521
  394TMC3    H1 5892   3.846   3.229  10.558  3.0802 -2.3755 -1.6210
  394TMC3    H2 5893   3.850   3.250  10.137  0.6454  0.2933 -0.2431
  394TMC3    C7 5894   3.993   3.290  10.357 -0.8828 -0.5556 -0.3100
  394TMC3    C8 5895   3.645   3.103  10.108  0.1398 -0.3283 -0.1463
  394TMC3    O1 5896   4.023   3.357  10.455  0.1983 -0.2974  0.2575
  394TMC3    O2 5897   3.567   3.144  10.024 -0.0077 -0.1366 -0.2032
  395TMC3    C1 5898   3.077   0.120  14.378  0.1768  0.8462 -0.3067
  395TMC3    C2 5899   2.963   0.093  14.450 -0.1230  1.0584 -0.2606
  395TMC3    C3 5900   2.915   0.178  14.549 -0.0266 -0.2917  0.2152
  395TMC3    C4 5901   3.132   0.249  14.391 -0.3936  0.6799 -1.3792
  395TMC3    C5 5902   3.077   0.340  14.477  0.2325 -0.0450  0.4904
  395TMC3    C6 5903   2.972   0.306  14.561 -0.0337 -0.5582  0.3531
  395TMC3     C 5904   3.111   0.043  14.262 -0.2511  0.7638  0.0324
  395TMC3     O 5905   3.020   4.703  14.212  0.0605 -0.4547 -0.2456
  395TMC3     H 5906   2.904   0.007  14.421  2.8100 -0.5490 -1.4174
  395TMC3    H1 5907   3.215   0.291  14.335  0.6256  1.2224  0.5187
  395TMC3    H2 5908   2.944   0.370  14.644 -1.0904 -1.7311  0.8961
  395TMC3    C7 5909   3.164   0.432  14.536  0.2437  0.0854 -0.6432
  395TMC3    C8 5910   2.850   0.119  14.668  0.0786 -0.2794  0.3303
  395TMC3    O1 5911   3.284   0.410  14.536  0.4766 -0.7207 -0.1534
  395TMC3    O2 5912   2.816   0.195  14.756 -0.0403  0.5639  0.5212
  396MPD2     C 5913   2.923   1.204  17.451 -0.1013 -0.9592 -0.1896
  396MPD2    C1 5914   3.052   1.232  17.417 -0.4601  0.2980  0.1426
  396MPD2    C2 5915   3.080   1.310  17.306  0.2632 -0.2105  0.4488
  396MPD2    C3 5916   2.978   1.339  17.215  0.1800 -0.1635  0.6942
  396MPD2    C4 5917   2.847   1.301  17.251  0.0520  0.4946 -0.3381
  396MPD2    C5 5918   2.823   1.245  17.372  0.7342 -0.8681 -1.3561
  396MPD2     H 5919   3.177   1.339  17.269 -0.9411  4.1344  0.6933
  396MPD2    H1 5920   2.759   1.327  17.194 -1.0223  1.7807  1.9310
  396MPD2    H2 5921   2.906   1.142  17.539  0.8086 -2.4212 -1.0473
  396MPD2    H3 5922   2.721   1.211  17.387  1.7084 -2.0830  2.5446
  396MPD2     N 5923   3.005   1.422  17.101 -0.1879  0.6392  0.5509
  396MPD2    H5 5924   3.097   1.464  17.090  1.8627 -3.3958  2.5387
  396MPD2    N1 5925   3.149   1.170  17.501  0.1807 -0.1744 -0.3312
  396MPD2    H7 5926   3.119   1.109  17.576 -1.3788 -1.1348 -1.7206
  397TMC3    C1 5927   3.346   1.060  17.551  0.0915 -0.3063  0.4469
  397TMC3    C2 5928   3.417   0.982  17.470 -0.3159 -0.2312 -0.2586
  397TMC3    C3 5929   3.352   0.866  17.422  1.4573  0.2942  0.1648
  397TMC3    C4 5930   3.252   1.001  17.631 -0.0737  0.9750 -0.1203
  397TMC3    C5 5931   3.198   0.872  17.600  0.3761  0.5159 -0.3415
  397TMC3    C6 5932   3.251   0.806  17.497 -0.1820 -0.5222  0.3313
  397TMC3     C 5933   3.277   1.158  17.464 -0.0668 -0.1805 -0.1098
  397TMC3     O 5934   3.339   1.195  17.368  0.2376  0.3345  0.3895
  397TMC3     H 5935   3.481   1.031  17.397  2.6292 -1.2707  1.6394
  397TMC3    H1 5936   3.210   1.069   0.006  0.0476  1.0130 -0.0847
  397TMC3    H2 5937   3.201   0.714  17.471  0.3201 -0.6353 -0.2381
  397TMC3    C7 5938   3.054   0.844  17.613 -0.3125 -0.3384  0.6242
  397TMC3    C8 5939   3.325   0.875  17.280 -0.0672 -0.2887 -0.4650
  397TMC3    O1 5940   2.992   0.771  17.535  0.0023  0.4428  0.1212
  397TMC3    O2 5941   3.213   0.842  17.257 -0.2195 -0.5135  0.2844
  398MPD2     C 5942   1.350   3.010   0.369  0.1766 -0.2299 -0.3851
  398MPD2    C1 5943   1.454   2.927   0.354  0.2037 -0.0466  0.0594
  398MPD2    C2 5944   1.586   2.974   0.370  0.3482  0.1649  0.3059
  398MPD2    C3 5945   1.609   3.104   0.398  0.6179 -0.0008 -0.5397
  398MPD2    C4 5946   1.495   3.192   0.401  0.4712  0.2421  0.0944
  398MPD2    C5 5947   1.363   3.138   0.387  0.2571 -0.0763  0.7589
  398MPD2     H 5948   1.666   2.900   0.369 -0.5774 -0.8330 -0.2343
  398MPD2    H1 5949   1.509   3.296   0.425  0.7248  0.5557 -1.4131
  398MPD2    H2 5950   1.246   2.981   0.360 -0.3933  1.2687  1.2166
  398MPD2    H3 5951   1.283   3.211   0.382 -0.3552 -0.9890 -2.9065
  398MPD2     N 5952   1.739   3.146   0.417 -0.0935  1.3588 -0.5834
  398MPD2    H5 5953   1.810   3.074   0.414 -0.8927  0.5766 -0.5993
  398MPD2    N1 5954   1.444   2.794   0.325 -0.0788  0.4652 -0.0436
  398MPD2    H7 5955   1.533   2.745   0.326  0.4934  1.5360  1.4975
  399TMC3    C1 5956   1.336   2.587   0.268 -0.6961  0.1575 -0.4498
  399TMC3    C2 5957   1.446   2.521   0.313  0.7394 -1.0398 -0.1375
  399TMC3    C3 5958   1.450   2.383   0.296 -0.3846  0.9879 -0.4096
  399TMC3    C4 5959   1.227   2.516   0.211  0.2219  0.5153 -0.1650
  399TMC3    C5 5960   1.234   2.379   0.205  0.4895 -0.1344 -0.3063
  399TMC3    C6 5961   1.342   2.310   0.246  0.0556  0.4522 -0.1344
  399TMC3     C 5962   1.324   2.727   0.307  0.0350  0.9315  0.2723
  399TMC3     O 5963   1.209   2.760   0.314  0.4118  0.1570  0.2532
  399TMC3     H 5964   1.527   2.574   0.362 -0.1919 -0.1866  0.4806
  399TMC3    H1 5965   1.144   2.576   0.174  0.2027  0.3036 -0.4611
  399TMC3    H2 5966   1.345   2.203   0.236 -0.6763  0.2570  1.6041
  399TMC3    C7 5967   1.123   2.295   0.151 -0.2148 -0.8541  0.1386
  399TMC3    C8 5968   1.565   2.316   0.365 -1.3901 -0.0087 -0.1687
  399TMC3    O1 5969   1.151   2.180   0.132  0.1326 -0.3214  0.4415
  399TMC3    O2 5970   1.669   2.376   0.381 -0.6556 -0.2901  0.2993
  400TMC3    C1 5971   4.713   1.364  16.696  0.2164  0.2309 -0.9811
  400TMC3    C2 5972   4.614   1.353  16.598 -0.8858 -0.8655  0.8788
  400TMC3    C3 5973   4.555   1.464  16.554  0.1662 -0.0121 -1.3075
  400TMC3    C4 5974   0.026   1.477  16.751 -0.4349 -0.5470 -0.4355
  400TMC3    C5 5975   4.683   1.589  16.712  0.1468 -0.3689  0.7609
  400TMC3    C6 5976   4.584   1.581  16.616 -0.6143  0.0104 -0.3698
  400TMC3     C 5977   0.036   1.235  16.742 -0.2747 -0.0420  0.3680
  400TMC3     O 5978   4.716   1.133  16.692 -0.3828  0.1399 -0.3010
  400TMC3     H 5979   4.595   1.255  16.554  0.2414 -0.3132 -0.8212
  400TMC3    H1 5980   0.120   1.488  16.804 -0.2879 -0.0732 -0.7956
  400TMC3    H2 5981   4.543   1.668  16.567  1.6033  1.5728  0.5570
  400TMC3    C7 5982   0.006   1.720  16.760 -0.1516  0.7117  0.5101
  400TMC3    C8 5983   4.424   1.458  16.504  0.0044  0.1678  0.3360
  400TMC3    O1 5984   0.115   1.717  16.812 -0.1225 -0.7784 -0.3056
  400TMC3    O2 5985   4.360   1.562  16.507 -1.0417  0.7125  0.3427
  401MPD2     C 5986   2.554   4.461   0.221 -0.3791 -0.4751 -0.1663
  401MPD2    C1 5987   2.575   4.431   0.350  0.1089 -0.2074 -0.8006
  401MPD2    C2 5988   2.622   4.303   0.377 -1.1699 -0.0832 -0.0049
  401MPD2    C3 5989   2.655   4.212   0.279  0.4681  0.1027  0.3007
  401MPD2    C4 5990   2.644   4.250   0.147  1.1050  0.0868  0.4786
  401MPD2    C5 5991   2.586   4.371   0.119 -0.4210 -0.4623  0.2121
  401MPD2     H 5992   2.646   4.281   0.481 -1.2003 -4.0231 -0.8532
  401MPD2    H1 5993   2.666   4.188   0.060 -1.7849  0.4233 -0.4892
  401MPD2    H2 5994   2.517   4.560   0.193 -1.1770 -0.9916 -0.9379
  401MPD2    H3 5995   2.581   4.398   0.015  0.4718 -0.5815  0.1412
  401MPD2     N 5996   2.692   4.081   0.316  0.5457 -0.1384 -0.4881
  401MPD2    H5 5997   2.674   4.056   0.413 -0.4603 -0.3592 -0.7324
  401MPD2    N1 5998   2.562   4.527   0.454 -0.3575 -0.0777 -0.1426
  401MPD2    H7 5999   2.569   4.500   0.552  0.6932 -1.3856 -0.5761
  402TMC3    C1 6000   2.806   3.861   0.298  0.4283  0.2821  0.0334
  402TMC3    C2 6001   2.751   3.813   0.415  0.7159 -0.0014  0.1627
  402TMC3    C3 6002   2.806   3.698   0.469  0.4482 -0.2149  0.7624
  402TMC3    C4 6003   2.908   3.794   0.232  0.1030 -0.4156 -0.0080
  402TMC3    C5 6004   2.962   3.685   0.289 -0.2827  0.9800 -0.2471
  402TMC3    C6 6005   2.909   3.631   0.408 -0.1815 -0.4515  0.0132
  402TMC3     C 6006   2.771   3.997   0.240 -0.8146  0.4310 -0.8416
  402TMC3     O 6007   2.829   4.023   0.135  0.0070  0.3854  0.3843
  402TMC3     H 6008   2.667   3.860   0.465 -0.0181 -0.8008 -0.3033
  402TMC3    H1 6009   2.949   3.841   0.143 -0.1648  0.0282  0.1099
  402TMC3    H2 6010   2.933   3.534   0.449 -2.0095 -1.5521 -1.5658
  402TMC3    C7 6011   3.063   3.605   0.211  0.0233 -0.3562  0.2364
  402TMC3    C8 6012   2.733   3.633   0.581  0.1550 -0.2446  0.5617
  402TMC3    O1 6013   3.084   3.638   0.098  0.0357 -0.4363 -0.0822
  402TMC3    O2 6014   2.812   3.574   0.658  0.2677  0.1272 -0.5070
  403MPD2     C 6015   1.454   2.964  13.128 -0.2031 -0.4312  0.0827
  403MPD2    C1 6016   1.447   2.852  13.205 -0.1999 -0.5185 -0.4524
  403MPD2    C2 6017   1.546   2.828  13.299 -0.1865  0.0867  0.7246
  403MPD2    C3 6018   1.647   2.916  13.317 -0.2349 -0.0384  0.2755
  403MPD2    C4 6019   1.667   3.015  13.228  0.3360  0.6218  0.3768
  403MPD2    C5 6020   1.564   3.040  13.134  0.6595  0.4309 -0.4226
  403MPD2     H 6021   1.549   2.740  13.362  0.3166 -0.6957 -0.4046
  403MPD2    H1 6022   1.753   3.082  13.229  0.0593  0.9888 -0.3021
  403MPD2    H2 6023   1.383   2.978  13.048  1.5977 -0.0306 -1.4291
  403MPD2    H3 6024   1.578   3.116  13.058  0.4073  0.6454 -0.2538
  403MPD2     N 6025   1.752   2.886  13.413 -0.6557 -0.7779  0.4819
  403MPD2    H5 6026   1.757   2.793  13.453  2.3005 -0.4478  0.8985
  403MPD2    N1 6027   1.344   2.758  13.188  0.0306  0.0699 -0.4126
  403MPD2    H7 6028   1.282   2.778  13.109 -2.2447  0.2801  1.4316
  404TMC3    C1 6029   1.251   2.544  13.191 -0.4207 -0.2046  0.3982
  404TMC3    C2 6030   1.216   2.435  13.271 -0.3314 -0.2690  0.1470
  404TMC3    C3 6031   1.214   2.306  13.220 -0.0222 -0.5266  0.1482
  404TMC3    C4 6032   1.288   2.525  13.057 -0.2939 -0.2808 -1.4903
  404TMC3    C5 6033   1.277   2.394  13.012  1.0606 -0.0892 -0.3400
  404TMC3    C6 6034   1.251   2.286  13.094 -0.3119  0.1929 -0.4519
  404TMC3     C 6035   1.335   2.639  13.253 -0.7335  0.5872 -1.3208
  404TMC3     O 6036   1.376   2.603  13.363 -0.7059 -0.4837 -0.0368
  404TMC3     H 6037   1.198   2.452  13.376 -0.9567 -0.4884  0.0748
  404TMC3    H1 6038   1.306   2.610  12.992 -1.1352  1.3109  0.3748
  404TMC3    H2 6039   1.266   2.187  13.053  0.9526  0.3260 -0.3034
  404TMC3    C7 6040   1.276   2.369  12.871 -0.2227  0.4205 -0.4071
  404TMC3    C8 6041   1.233   2.192  13.309  0.2375 -0.4685 -0.1702
  404TMC3    O1 6042   1.332   2.454  12.802  0.6049  0.0681  0.3386
  404TMC3    O2 6043   1.276   2.092  13.248  0.3539  0.2056 -0.5316
  405MPD2     C 6044   1.871   3.386  14.692 -1.0526 -0.1119  0.3524
  405MPD2    C1 6045   1.816   3.301  14.592 -0.0893 -0.4246 -0.7540
  405MPD2    C2 6046   1.701   3.348  14.529  0.4863  0.0211  0.1352
  405MPD2    C3 6047   1.632   3.457  14.579 -0.1954  0.1453 -0.4360
  405MPD2    C4 6048   1.686   3.550  14.668  0.1419  0.4055  0.8673
  405MPD2    C5 6049   1.810   3.513  14.719  0.7057  0.4225  1.2237
  405MPD2     H 6050   1.656   3.303  14.441  1.5521  0.9410 -0.8875
  405MPD2    H1 6051   1.640   3.645  14.692 -0.1671  1.0205 -2.1840
  405MPD2    H2 6052   1.968   3.371  14.739 -0.1063  0.9153 -1.2438
  405MPD2    H3 6053   1.870   3.576  14.783  1.1912 -0.9137  2.0696
  405MPD2     N 6054   1.520   3.493  14.502  0.1707 -0.1300 -0.3781
  405MPD2    H5 6055   1.512   3.434  14.420 -0.1532 -2.5965  1.4213
  405MPD2    N1 6056   1.878   3.175  14.564  0.5890  0.3126  0.2687
  405MPD2    H7 6057   1.970   3.157  14.603  0.2965 -1.0228  0.3287
  406TMC3    C1 6058   1.151   3.680  14.304 -0.1085  0.4868  0.4257
  406TMC3    C2 6059   1.163   3.579  14.212  0.0883  0.3820  1.0030
  406TMC3    C3 6060   1.262   3.487  14.220  0.9309  0.4628 -0.1239
  406TMC3    C4 6061   1.248   3.691  14.403 -0.4737  0.1785  0.3128
  406TMC3    C5 6062   1.338   3.588  14.412 -0.0228 -0.0883  0.6024
  406TMC3    C6 6063   1.344   3.480  14.328  0.5755 -0.1509 -0.6104
  406TMC3     C 6064   1.022   3.751  14.329 -0.2672  0.0517 -0.1051
  406TMC3     O 6065   1.034   3.867  14.365  0.6647  0.4838 -0.2884
  406TMC3     H 6066   1.094   3.575  14.129  0.7868 -0.6669  0.4716
  406TMC3    H1 6067   1.227   3.756  14.487 -2.3753 -0.6862  0.5098
  406TMC3    H2 6068   1.391   3.386  14.358 -1.5404 -0.7765  0.7419
  406TMC3    C7 6069   1.428   3.588  14.527  0.0487  0.6051 -0.1528
  406TMC3    C8 6070   1.258   3.368  14.134  0.4578  0.1672 -0.1714
  406TMC3    O1 6071   1.430   3.679  14.608 -0.7475  0.1062 -0.0516
  406TMC3    O2 6072   1.167   3.365  14.053 -0.5416  0.2777 -0.2906
  407MPD2     C 6073   3.829   0.080   9.577 -0.1837  0.1438 -0.7175
  407MPD2    C1 6074   3.951   0.053   9.616  0.7959  0.2593  0.4114
  407MPD2    C2 6075   3.998   0.120   9.727 -1.0450 -0.0114 -0.2864
  407MPD2    C3 6076   3.928   0.217   9.787  0.2336 -0.2042 -0.0086
  407MPD2    C4 6077   3.803   0.250   9.735 -0.2475  0.1256  0.0298
  407MPD2    C5 6078   3.751   0.176   9.636 -0.9249  0.2053  0.7996
  407MPD2     H 6079   4.103   0.106   9.748 -1.4124 -0.4937  1.2018
  407MPD2    H1 6080   3.742   0.327   9.780 -0.0431  0.4383 -0.2286
  407MPD2    H2 6081   3.794   0.040   9.483  0.5913  0.3171 -1.0812
  407MPD2    H3 6082   3.653   0.198   9.597  1.0040 -0.0820 -4.2570
  407MPD2     N 6083   3.983   0.284   9.902  0.1150  0.3039  0.0984
  407MPD2    H5 6084   3.932   0.361   9.945 -0.0777  0.2977 -0.1165
  407MPD2    N1 6085   4.046   4.699   9.551  0.5773  0.5290  0.6607
  407MPD2    H7 6086   4.139   4.714   9.591  0.4687  1.3550  0.6004
  408TMC3    C1 6087   4.154   4.603   9.384 -0.3042  0.0141 -0.0058
  408TMC3    C2 6088   4.222   4.498   9.421 -0.0539  0.6124  0.1188
  408TMC3    C3 6089   4.345   4.507   9.466  0.6209 -0.1647 -0.2479
  408TMC3    C4 6090   4.216   4.723   9.380  0.1368 -0.3463  0.1911
  408TMC3    C5 6091   4.345   0.019   9.416 -0.4786  0.1132 -0.1608
  408TMC3    C6 6092   4.414   4.630   9.463  0.8217 -0.0079  0.5659
  408TMC3     C 6093   4.025   4.612   9.451  0.5021 -0.3455 -0.5493
  408TMC3     O 6094   3.926   4.572   9.396 -0.6729  0.1288  0.0894
  408TMC3     H 6095   4.176   4.399   9.424 -0.0118  0.6301  1.7005
  408TMC3    H1 6096   4.156   0.084   9.352  0.7807 -0.4744 -1.5807
  408TMC3    H2 6097   4.511   4.639   9.510  1.1475 -0.3961 -0.0295
  408TMC3    C7 6098   4.399   0.153   9.430  0.4670 -0.4153 -0.0470
  408TMC3    C8 6099   4.427   4.385   9.478  0.3216 -0.0980  0.0888
  408TMC3    O1 6100   4.316   0.240   9.412  0.1614  0.7744  0.1624
  408TMC3    O2 6101   4.366   4.283   9.463  0.1373  0.7053 -0.4151
  409MPD2     C 6102   3.579   0.655  17.256  0.1785 -0.0646  0.0847
  409MPD2    C1 6103   3.687   0.735  17.302 -0.3570  0.2569  0.3109
  409MPD2    C2 6104   3.775   0.791  17.214  0.4106 -0.6017  0.5511
  409MPD2    C3 6105   3.747   0.782  17.075  0.0509  0.2692 -0.5650
  409MPD2    C4 6106   3.636   0.709  17.035 -0.2514  1.0094 -0.3405
  409MPD2    C5 6107   3.556   0.646  17.124  0.4063  0.4931  0.7847
  409MPD2     H 6108   3.858   0.844  17.260  1.6737 -0.8641 -1.4130
  409MPD2    H1 6109   3.602   0.713  16.933  0.4720 -1.2098 -0.6554
  409MPD2    H2 6110   3.507   0.612  17.325 -0.2669  1.6663  0.7246
  409MPD2    H3 6111   3.471   0.589  17.089  1.8147 -1.4108  0.4724
  409MPD2     N 6112   3.821   0.858  16.978  0.0306 -0.0956 -0.4242
  409MPD2    H5 6113   3.806   0.835  16.880 -2.1732 -0.4558 -0.0173
  409MPD2    N1 6114   3.725   0.737  17.440 -0.0361 -0.5853 -0.3502
  409MPD2    H7 6115   3.807   0.795  17.455 -0.8545 -0.1950  2.5328
  410TMC3    C1 6116   3.958   1.042  16.898  0.5292 -0.0842 -0.0885
  410TMC3    C2 6117   4.072   1.122  16.913  0.1183 -0.1101  0.3176
  410TMC3    C3 6118   4.090   1.218  16.824 -0.4463  0.2314  0.2386
  410TMC3    C4 6119   3.877   1.055  16.790  0.5551 -0.7210  0.3580
  410TMC3    C5 6120   3.908   1.146  16.693 -0.0309 -0.1409 -0.3057
  410TMC3    C6 6121   4.014   1.226  16.712  0.3143 -0.4978  0.0363
  410TMC3     C 6122   3.918   0.953  17.006  0.5226 -0.4093  1.2865
  410TMC3     O 6123   3.966   0.984  17.111  0.2293 -0.1972 -0.5266
  410TMC3     H 6124   4.127   1.117  17.006  1.7152  1.5204 -0.5541
  410TMC3    H1 6125   3.796   0.984  16.774  1.9748 -2.3523  0.4990
  410TMC3    H2 6126   4.039   1.297  16.634 -0.8092  0.6788  0.7410
  410TMC3    C7 6127   3.804   1.174  16.596  0.5453 -0.3225 -0.0042
  410TMC3    C8 6128   4.191   1.315  16.858  0.2118  0.7385 -0.4135
  410TMC3    O1 6129   3.733   1.082  16.557 -0.3111 -0.1773  0.1753
  410TMC3    O2 6130   4.281   1.271  16.927  0.2754 -0.0309  0.3810
  411MPD2     C 6131   3.978   1.710  14.633 -0.4771 -0.5979  0.0639
  411MPD2    C1 6132   3.871   1.743  14.551  0.0766  0.2048  0.6029
  411MPD2    C2 6133   3.789   1.644  14.502 -0.0834  0.9262 -0.0149
  411MPD2    C3 6134   3.812   1.512  14.535 -0.8360  0.5491 -0.0231
  411MPD2    C4 6135   3.923   1.485  14.609 -0.5038 -0.4946 -0.4564
  411MPD2    C5 6136   4.005   1.583  14.659  0.0220  0.4465 -0.4494
  411MPD2     H 6137   3.732   1.653  14.410 -0.7054 -0.3948  0.2391
  411MPD2    H1 6138   3.940   1.384  14.645  0.1796 -0.1536  0.1825
  411MPD2    H2 6139   4.024   1.794  14.683  0.1251 -0.9183  0.0527
  411MPD2    H3 6140   4.083   1.550  14.728 -0.4551  0.5699  0.1502
  411MPD2     N 6141   3.737   1.406  14.492  0.0539 -0.3181 -0.2715
  411MPD2    H5 6142   3.776   1.313  14.501  0.4292  0.2980  4.3573
  411MPD2    N1 6143   3.855   1.881  14.518  0.3878 -0.0597  0.4534
  411MPD2    H7 6144   3.932   1.942  14.546 -0.3935  0.9619  0.3988
  412TMC3    C1 6145   3.565   1.286  14.392  0.1044  0.5759  0.2221
  412TMC3    C2 6146   3.458   1.280  14.310 -0.4943  0.3532 -0.3222
  412TMC3    C3 6147   3.368   1.175  14.318 -0.2932  0.2311  0.7448
  412TMC3    C4 6148   3.588   1.179  14.473  0.2944 -0.1253  0.2599
  412TMC3    C5 6149   3.502   1.069  14.471 -0.0393  0.2070 -0.4105
  412TMC3    C6 6150   3.380   1.076  14.410 -0.2948  0.0095  0.1518
  412TMC3     C 6151   3.622   1.416  14.411 -0.1655  0.3595 -0.1002
  412TMC3     O 6152   3.566   1.513  14.363 -0.6726 -0.7533 -0.2034
  412TMC3     H 6153   3.433   1.360  14.242  1.3194  0.8675 -0.3816
  412TMC3    H1 6154   3.680   1.156  14.525  0.5746 -1.0109 -0.6312
  412TMC3    H2 6155   3.306   0.998  14.424  0.8901 -1.0535  0.5198
  412TMC3    C7 6156   3.560   0.937  14.460 -0.5238 -0.7499  0.3354
  412TMC3    C8 6157   3.291   1.121  14.202  0.0971  0.0548  0.0547
  412TMC3    O1 6158   3.670   0.929  14.515 -0.1322  0.0927 -0.4157
  412TMC3    O2 6159   3.279   1.000  14.192  0.0190 -0.4792 -0.4931
  413MPD2     C 6160   0.649   4.677  15.169 -0.1651  0.0898 -0.4511
  413MPD2    C1 6161   0.559   4.572  15.164 -0.0355  0.7880  0.0904
  413MPD2    C2 6162   0.610   4.446  15.152  0.4548 -0.2906  0.0060
  413MPD2    C3 6163   0.744   4.418  15.156  0.1562 -0.6371  0.7173
  413MPD2    C4 6164   0.831   4.527  15.169 -0.3822 -0.0154  0.1980
  413MPD2    C5 6165   0.781   4.651  15.180 -0.2180  0.3131 -0.4958
  413MPD2     H 6166   0.543   4.361  15.152 -0.6563  0.6007  0.7391
  413MPD2    H1 6167   0.939   4.518  15.167 -0.3461  0.2206  1.1469
  413MPD2    H2 6168   0.629   0.060  15.169 -0.6647 -0.0066  2.9875
  413MPD2    H3 6169   0.849   0.012  15.190 -0.8888  0.6180  1.4581
  413MPD2     N 6170   0.776   4.281  15.140 -0.1881 -0.0990 -0.0361
  413MPD2    H5 6171   0.700   4.214  15.135  0.8828 -1.3002 -0.2179
  413MPD2    N1 6172   0.419   4.599  15.180 -0.4369  0.4017  0.1393
  413MPD2    H7 6173   0.390   4.688  15.221  1.8318  0.5771  1.3746
  414TMC3    C1 6174   0.901   4.088  15.114 -0.3947  0.6633  0.1116
  414TMC3    C2 6175   1.002   4.013  15.174 -0.4568 -0.0298  0.0220
  414TMC3    C3 6176   1.005   3.879  15.133 -0.0880 -0.8039  0.3330
  414TMC3    C4 6177   0.806   4.030  15.029  0.9471  0.0234  0.9017
  414TMC3    C5 6178   0.826   3.907  14.984 -0.3784  0.0496 -0.5018
  414TMC3    C6 6179   0.909   3.824  15.054 -0.0225  0.4689 -0.0322
  414TMC3     C 6180   0.903   4.232  15.137  0.9506 -0.1402 -0.1119
  414TMC3     O 6181   1.008   4.289  15.153 -0.5288 -0.1543 -0.2238
  414TMC3     H 6182   1.078   4.055  15.238 -0.0018  3.8375 -3.0735
  414TMC3    H1 6183   0.744   4.100  14.974  1.4126 -0.6625 -0.5138
  414TMC3    H2 6184   0.913   3.723  15.014 -0.8685  1.5428 -2.8818
  414TMC3    C7 6185   0.760   3.875  14.859  0.1442  0.6975  0.3838
  414TMC3    C8 6186   1.119   3.796  15.157  0.6958  0.3648 -0.0964
  414TMC3    O1 6187   0.657   3.942  14.846 -0.6448  0.1601  0.3272
  414TMC3    O2 6188   1.121   3.693  15.096  0.2979  0.7639 -0.2256
  415TMC3    C1 6189   1.351   2.025  10.365  0.0811  0.1348 -0.2710
  415TMC3    C2 6190   1.418   2.038  10.247  0.6129  0.0541 -0.3768
  415TMC3    C3 6191   1.341   2.018  10.138 -0.2345  0.0360  0.4135
  415TMC3    C4 6192   1.216   2.016  10.375 -0.0350 -0.3147  0.2592
  415TMC3    C5 6193   1.144   2.010  10.259  0.6609  0.0224  0.1375
  415TMC3    C6 6194   1.204   2.014  10.136 -0.5274  0.2087 -0.6521
  415TMC3     C 6195   1.423   2.003  10.492 -0.1853 -0.5279 -0.0636
  415TMC3     O 6196   1.361   1.933  10.571 -0.4912  0.0026 -0.2093
  415TMC3     H 6197   1.524   2.017  10.244  0.5216 -0.0853 -2.5425
  415TMC3    H1 6198   1.173   2.018  10.474 -0.2255  0.6130  0.1591
  415TMC3    H2 6199   1.145   2.008  10.046 -0.7796  1.7298 -0.5866
  415TMC3    C7 6200   1.001   1.989  10.255  0.8086  0.5802 -0.0290
  415TMC3    C8 6201   1.398   2.000  10.005  0.0337 -0.4793 -0.5477
  415TMC3    O1 6202   0.951   2.025  10.148  0.3786 -0.2504  0.0802
  415TMC3    O2 6203   1.329   1.958   9.913  0.6383  0.6166  0.0922
  416MPD2     C 6204   3.281   1.223  11.378 -0.9518 -0.0113  0.8180
  416MPD2    C1 6205   3.196   1.153  11.289  0.1638  0.1524  0.6865
  416MPD2    C2 6206   3.251   1.081  11.186  0.4637  0.4406  0.6556
  416MPD2    C3 6207   3.387   1.070  11.174  0.3101  0.5430 -0.3079
  416MPD2    C4 6208   3.464   1.126  11.280  0.3942 -0.0671  0.1045
  416MPD2    C5 6209   3.409   1.207  11.374  0.4951 -0.1233 -0.6921
  416MPD2     H 6210   3.195   1.029  11.110  0.9704 -0.0195  0.5931
  416MPD2    H1 6211   3.570   1.103  11.268 -0.4366 -2.4372 -2.6735
  416MPD2    H2 6212   3.244   1.286  11.458 -1.4750  0.8993 -0.1444
  416MPD2    H3 6213   3.467   1.259  11.449 -1.3292 -0.1169  0.7163
  416MPD2     N 6214   3.447   0.985  11.076 -0.0451  0.0558 -0.2955
  416MPD2    H5 6215   3.543   0.952  11.082 -0.9062 -1.8475  2.7151
  416MPD2    N1 6216   3.054   1.168  11.297  0.0438  0.1100 -0.8635
  416MPD2    H7 6217   3.027   1.228  11.375  2.8870  0.7152 -0.3579
  417TMC3    C1 6218   2.828   1.148  11.247 -0.0966  0.2922 -0.6820
  417TMC3    C2 6219   2.801   1.188  11.374 -0.9878  0.3816  0.0503
  417TMC3    C3 6220   2.684   1.263  11.388 -0.0364 -0.5947 -0.6899
  417TMC3    C4 6221   2.736   1.147  11.149  0.3053 -0.0344  0.0235
  417TMC3    C5 6222   2.606   1.196  11.178 -0.3982  0.0654 -0.0945
  417TMC3    C6 6223   2.589   1.273  11.290 -0.1000 -0.0455  0.1553
  417TMC3     C 6224   2.962   1.126  11.208  0.1426  0.7799 -0.0447
  417TMC3     O 6225   2.975   1.064  11.104 -0.0773  0.3424  0.6044
  417TMC3     H 6226   2.878   1.184  11.450  0.0238  0.9816 -0.9387
  417TMC3    H1 6227   2.763   1.113  11.049 -1.7490 -0.3471 -0.4245
  417TMC3    H2 6228   2.488   1.307  11.309 -0.2204 -1.1712  1.6033
  417TMC3    C7 6229   2.532   1.236  11.058 -0.1023  0.7669  0.1798
  417TMC3    C8 6230   2.630   1.264  11.519  0.6586 -0.2585 -0.3338
  417TMC3    O1 6231   2.490   1.347  11.043 -0.1166  0.5218  0.5244
  417TMC3    O2 6232   2.529   1.332  11.542  0.1392 -0.6586 -0.1032
  418TMC3    C1 6233   2.088   3.221   0.275  1.0843 -0.3056  0.8553
  418TMC3    C2 6234   1.975   3.290   0.301  0.2354 -0.8049 -0.4833
  418TMC3    C3 6235   1.927   3.276   0.427  0.7059  0.4025  0.4922
  418TMC3    C4 6236   2.142   3.139   0.366  0.1018 -0.9813 -0.4357
  418TMC3    C5 6237   2.092   3.122   0.488  0.6227 -0.4928  0.1612
  418TMC3    C6 6238   1.977   3.193   0.521  0.4421 -0.0458  0.6921
  418TMC3     C 6239   2.112   3.198   0.136  0.0556  0.8877  0.0813
  418TMC3     O 6240   2.076   3.285   0.059  0.0169  0.2222  0.6468
  418TMC3     H 6241   1.922   3.351   0.229  0.1628  0.0307  0.2675
  418TMC3    H1 6242   2.235   3.089   0.341  0.2014 -0.5331 -0.9552
  418TMC3    H2 6243   1.915   3.174   0.607  0.1640  1.9726  0.9275
  418TMC3    C7 6244   2.120   3.009   0.565 -0.8120  0.0373 -0.3429
  418TMC3    C8 6245   1.778   3.283   0.426 -0.4880  0.3159 -0.2602
  418TMC3    O1 6246   2.177   2.916   0.507 -1.0745 -0.2871  0.1534
  418TMC3    O2 6247   1.725   3.385   0.390 -0.1985 -0.3592 -0.3356
  419MPD2     C 6248   0.171   1.004  13.360  0.5574  0.1740 -0.2971
  419MPD2    C1 6249   0.089   1.082  13.289  0.2807 -0.2528  0.2656
  419MPD2    C2 6250   4.723   1.163  13.350 -0.3384 -0.4119 -0.0382
  419MPD2    C3 6251   4.699   1.160  13.491  0.1779 -0.1442 -0.2153
  419MPD2    C4 6252   0.035   1.059  13.561 -0.0117 -0.4950 -0.1056
  419MPD2    C5 6253   0.133   0.985  13.492  0.1032  0.3106 -0.1240
  419MPD2     H 6254   4.664   1.223  13.283 -0.4260 -1.2502 -0.7129
  419MPD2    H1 6255   0.010   1.031  13.663  1.1753  0.6640  0.5156
  419MPD2    H2 6256   0.261   0.957  13.320  2.1792  4.0653 -1.1744
  419MPD2    H3 6257   0.192   0.912  13.547 -0.0111  0.6670  0.4756
  419MPD2     N 6258   4.592   1.237  13.549 -0.3022  0.0115  0.1091
  419MPD2    H5 6259   4.561   1.219  13.644  0.9722 -0.2768  0.4711
  419MPD2    N1 6260   0.096   1.092  13.153 -0.5249 -0.3033 -0.3789
  419MPD2    H7 6261   0.044   1.169  13.111  0.4796  2.0264  2.6622
  420TMC3    C1 6262   4.367   1.316  13.519 -0.0344 -0.4410  0.6922
  420TMC3    C2 6263   4.288   1.375  13.423 -0.1975 -0.2658  0.2318
  420TMC3    C3 6264   4.183   1.306  13.368  0.3165 -0.9972 -0.2188
  420TMC3    C4 6265   4.337   1.200  13.576  0.0467 -0.3758 -0.3925
  420TMC3    C5 6266   4.224   1.141  13.523  0.0502 -0.4218 -0.3012
  420TMC3    C6 6267   4.141   1.185  13.423 -0.2001  0.4050 -1.0603
  420TMC3     C 6268   4.509   1.322  13.476 -0.4621 -0.3835 -1.2448
  420TMC3     O 6269   4.531   1.389  13.378  0.1597  0.3148  0.3391
  420TMC3     H 6270   4.324   1.468  13.380 -3.8688  0.5577 -1.0788
  420TMC3    H1 6271   4.402   1.146  13.644  1.0326 -1.1473 -1.9293
  420TMC3    H2 6272   4.055   1.128  13.389 -1.0206  0.2747  1.2211
  420TMC3    C7 6273   4.208   1.004  13.565  0.0556 -0.1797 -0.2920
  420TMC3    C8 6274   4.100   1.366  13.263 -0.3639 -0.4648  0.4886
  420TMC3    O1 6275   4.311   0.942  13.586 -0.1792 -0.7304  0.1915
  420TMC3    O2 6276   4.107   1.487  13.242  0.3881  0.0366  0.7614
  421TMC3    C1 6277   1.939   2.910  13.538 -0.0100  0.4025  0.1182
  421TMC3    C2 6278   1.991   2.982  13.642 -0.4189  0.1261 -0.4707
  421TMC3    C3 6279   2.103   2.925  13.709  0.5784  0.0159  0.0943
  421TMC3    C4 6280   1.991   2.788  13.502 -0.4707 -0.5129 -0.4486
  421TMC3    C5 6281   2.096   2.738  13.576  0.0271  0.3620 -0.1864
  421TMC3    C6 6282   2.162   2.807  13.675 -0.7671  0.1214 -0.1897
  421TMC3     C 6283   1.845   2.979  13.456  0.3945  0.2625  0.4346
  421TMC3     O 6284   1.842   3.099  13.454 -0.0593  0.7142 -0.3544
  421TMC3     H 6285   1.951   3.079  13.668  3.0020  1.1577  0.9489
  421TMC3    H1 6286   1.947   2.740  13.415 -0.3138 -0.8119 -0.3645
  421TMC3    H2 6287   2.252   2.779  13.728 -1.6413  0.2094  1.3205
  421TMC3    C7 6288   2.143   2.600  13.545 -0.0282 -0.6854  0.2954
  421TMC3    C8 6289   2.159   2.994  13.823 -0.9976 -0.4766 -0.1676
  421TMC3    O1 6290   2.242   2.560  13.609 -0.4719 -0.0838  0.0919
  421TMC3    O2 6291   2.276   2.972  13.848  0.5010  0.5097 -0.2868
  422TMC3    C1 6292   4.026   3.828  12.844  0.2102  0.4742  0.6650
  422TMC3    C2 6293   3.974   3.958  12.839  0.2047 -0.0261  0.1912
  422TMC3    C3 6294   3.852   3.973  12.887  0.4677 -0.2126 -0.6754
  422TMC3    C4 6295   3.953   3.720  12.879  0.8794  0.3393 -0.4205
  422TMC3    C5 6296   3.827   3.742  12.926  0.7432 -0.0715 -0.3930
  422TMC3    C6 6297   3.775   3.874  12.927  0.1625  0.1561 -0.4412
  422TMC3     C 6298   4.110   3.815  12.728  0.2023 -0.4211  0.4640
  422TMC3     O 6299   4.088   3.901  12.643 -0.1907  0.3544  0.0925
  422TMC3     H 6300   4.036   4.041  12.806  1.0955 -0.6120  0.4056
  422TMC3    H1 6301   3.995   3.620  12.872  1.4004  0.2509  3.8582
  422TMC3    H2 6302   3.678   3.899  12.967 -0.6320 -1.8151 -1.1609
  422TMC3    C7 6303   3.736   3.630  12.937  0.1702  0.7370  0.8800
  422TMC3    C8 6304   3.788   4.098  12.866  0.1956  0.3477  0.0932
  422TMC3    O1 6305   3.788   3.518  12.933 -0.0171 -0.1628  0.0858
  422TMC3    O2 6306   3.874   4.190  12.869 -0.9201  0.1419  0.2248
  423MPD2     C 6307   0.563   0.483   0.696 -0.3590  0.0643 -0.6749
  423MPD2    C1 6308   0.627   0.363   0.736 -0.6701 -0.9015  0.2123
  423MPD2    C2 6309   0.729   0.313   0.660  0.5662 -0.2109 -0.4126
  423MPD2    C3 6310   0.765   0.367   0.539  0.0926 -0.6821 -0.4757
  423MPD2    C4 6311   0.705   0.487   0.507  0.2097 -0.2573  0.0006
  423MPD2    C5 6312   0.612   0.543   0.587  0.4995 -0.1477  0.2050
  423MPD2     H 6313   0.781   0.228   0.703 -0.5492  0.2106  1.8042
  423MPD2    H1 6314   0.729   0.536   0.413 -2.8004 -2.5694 -1.9742
  423MPD2    H2 6315   0.488   0.530   0.758  0.8285  0.3560  0.5290
  423MPD2    H3 6316   0.561   0.629   0.546  1.9129 -0.2481 -1.7458
  423MPD2     N 6317   0.848   0.312   0.438 -0.4047  0.2463  0.6431
  423MPD2    H5 6318   0.869   0.375   0.361  0.6810 -0.6831  0.1768
  423MPD2    N1 6319   0.601   0.301   0.856 -0.1520  0.4851  0.1275
  423MPD2    H7 6320   0.674   0.243   0.896 -1.2488  0.6495  2.3907
  424TMC3    C1 6321   0.463   0.233   1.039 -0.4295  0.2676 -0.5126
  424TMC3    C2 6322   0.576   0.166   1.094 -0.1507  0.6641  0.2916
  424TMC3    C3 6323   0.548   0.079   1.195  0.3949  0.1776 -0.4156
  424TMC3    C4 6324   0.333   0.217   1.084 -0.0252 -0.0012  0.6636
  424TMC3    C5 6325   0.313   0.122   1.184  0.3212 -0.2219 -0.1325
  424TMC3    C6 6326   0.420   0.048   1.231 -0.0304 -0.3047 -0.3531
  424TMC3     C 6327   0.481   0.322   0.924 -0.5137  0.2466  0.4485
  424TMC3     O 6328   0.385   0.383   0.884  0.4371 -0.3199  0.1683
  424TMC3     H 6329   0.680   0.184   1.067  0.0905 -2.0297 -0.5031
  424TMC3    H1 6330   0.256   0.277   1.037  1.9931  1.7087 -0.5332
  424TMC3    H2 6331   0.402   4.710   1.318  1.3288 -1.2232 -0.7353
  424TMC3    C7 6332   0.175   0.076   1.213 -0.0040  0.0749 -0.2881
  424TMC3    C8 6333   0.655   4.720   1.248  0.5023  0.0023 -0.2182
  424TMC3    O1 6334   0.170   4.681   1.243 -0.2059  0.1170  0.3429
  424TMC3    O2 6335   0.620   4.611   1.286 -0.1092  0.0591  0.7540
  425MPD2     C 6336   3.875   4.693  16.728 -0.2098  0.4612  0.2538
  425MPD2    C1 6337   3.935   4.606  16.820  0.4664  0.3404  0.3478
  425MPD2    C2 6338   3.863   4.577  16.936  0.3020  0.0571 -0.3330
  425MPD2    C3 6339   3.735   4.619  16.952  0.2130  0.1282  0.2715
  425MPD2    C4 6340   3.679   4.708  16.863  0.2774  0.4492 -0.0316
  425MPD2    C5 6341   3.748   0.017  16.749  0.3646 -0.7513 -0.6772
  425MPD2     H 6342   3.912   4.526  17.018 -1.3800 -0.0745  0.5787
  425MPD2    H1 6343   3.580   0.026  16.876 -0.7325 -2.0742  0.3977
  425MPD2    H2 6344   3.937   4.715  16.642 -0.8748  0.8317 -0.1349
  425MPD2    H3 6345   3.707   0.098  16.689  0.4590  1.5003  2.3218
  425MPD2     N 6346   3.668   4.553  17.062 -0.6941 -0.3257 -0.2599
  425MPD2    H5 6347   3.723   4.484  17.112  0.3283  0.2155 -0.6436
  425MPD2    N1 6348   4.060   4.549  16.800  0.0159 -0.3475  0.4497
  425MPD2    H7 6349   4.094   4.537  16.705 -1.6339  1.2152 -0.3226
  426TMC3    C1 6350   4.247   4.399  16.842  0.1708 -0.6222  0.1303
  426TMC3    C2 6351   4.207   4.312  16.747 -0.0801 -0.0495  0.0943
  426TMC3    C3 6352   4.261   4.194  16.725  0.1015 -0.0869 -0.4697
  426TMC3    C4 6353   4.342   4.357  16.926  0.8234 -0.3394 -0.0743
  426TMC3    C5 6354   4.412   4.250  16.888  0.5915  0.1515  0.0599
  426TMC3    C6 6355   4.378   4.168  16.789  0.8104  0.0720  0.0391
  426TMC3     C 6356   4.136   4.483  16.898 -0.2337 -0.0635 -0.4415
  426TMC3     O 6357   4.130   4.509  17.016  0.7467 -0.5318 -0.1542
  426TMC3     H 6358   4.112   4.342  16.704  0.7442 -0.0977 -1.7499
  426TMC3    H1 6359   4.358   4.420  17.013  1.9906  0.7878 -1.1200
  426TMC3    H2 6360   4.436   4.078  16.771 -0.1982 -0.1657 -1.9283
  426TMC3    C7 6361   4.506   4.189  16.985  0.0433 -0.3919 -0.1210
  426TMC3    C8 6362   4.161   4.095  16.729  0.5138  0.4157 -0.3024
  426TMC3    O1 6363   4.608   4.145  16.933 -0.4286  0.0142 -0.4600
  426TMC3    O2 6364   4.050   4.137  16.760 -0.1065 -0.5058 -0.0696
  427MPD2     C 6365   2.942   1.534  14.563 -0.6866 -0.4717  0.0619
  427MPD2    C1 6366   2.883   1.459  14.661  0.1774 -0.3139 -0.2108
  427MPD2    C2 6367   2.741   1.460  14.670  0.4327  0.5609  1.1273
  427MPD2    C3 6368   2.671   1.540  14.576 -0.0459  0.2404 -0.1749
  427MPD2    C4 6369   2.737   1.604  14.481 -0.4465  0.3079  0.0846
  427MPD2    C5 6370   2.875   1.607  14.476 -0.5819 -0.4231  0.1196
  427MPD2     H 6371   2.697   1.401  14.749  1.7365 -1.7877  0.0777
  427MPD2    H1 6372   2.686   1.667  14.410 -0.7663  0.7498  0.7066
  427MPD2    H2 6373   3.050   1.540  14.551 -0.7898  1.1864  0.0390
  427MPD2    H3 6374   2.934   1.671  14.411 -0.1738 -0.2800  0.6308
  427MPD2     N 6375   2.530   1.559  14.581  1.0478 -0.6085  0.6188
  427MPD2    H5 6376   2.492   1.630  14.518  2.1510  0.1808  0.8552
  427MPD2    N1 6377   2.957   1.388  14.757  0.4944  0.2900  0.0140
  427MPD2    H7 6378   2.904   1.328  14.820  0.5764  1.6142  1.3501
  428TMC3    C1 6379   3.137   1.315  14.886 -0.6068  0.2729 -0.7142
  428TMC3    C2 6380   3.087   1.193  14.908 -0.3734  0.8132  0.3858
  428TMC3    C3 6381   3.135   1.123  15.015 -0.1391 -0.4055  0.4525
  428TMC3    C4 6382   3.245   1.359  14.957 -0.6860 -1.0287 -0.1252
  428TMC3    C5 6383   3.290   1.288  15.062 -0.5214  0.0274 -0.4145
  428TMC3    C6 6384   3.234   1.175  15.100  0.5600 -0.5262  0.0158
  428TMC3     C 6385   3.097   1.384  14.770  0.9231  0.0892  0.1089
  428TMC3     O 6386   3.174   1.449  14.698  0.1585  0.0658  0.1751
  428TMC3     H 6387   2.998   1.160  14.855  0.1854  0.4529 -0.3234
  428TMC3    H1 6388   3.290   1.453  14.927 -4.1740  0.8249  0.4408
  428TMC3    H2 6389   3.277   1.120  15.183 -0.1300 -0.6682  0.2741
  428TMC3    C7 6390   3.426   1.305  15.107 -0.1252 -0.1738 -0.4521
  428TMC3    C8 6391   3.114   0.975  15.029 -0.4168 -0.2279  0.1569
  428TMC3    O1 6392   3.454   1.249  15.213 -0.6334  0.0401 -0.1326
  428TMC3    O2 6393   3.178   0.912  15.112  0.7357  0.0994 -0.2566
  429MPD2     C 6394   3.747   2.119  17.652 -0.2164  0.2772  0.7629
  429MPD2    C1 6395   3.736   2.045  17.534  1.0028 -0.0032  0.7920
  429MPD2    C2 6396   3.818   2.079  17.431 -0.1132 -0.9317  0.3533
  429MPD2    C3 6397   3.922   2.170  17.448  0.1511 -0.5342 -0.2976
  429MPD2    C4 6398   3.950   2.219  17.573  0.3790  0.7478  0.6528
  429MPD2    C5 6399   3.856   2.197  17.667 -0.5017  0.3968 -0.4630
  429MPD2     H 6400   3.796   2.031  17.336  1.9898 -1.4768  0.1479
  429MPD2    H1 6401   4.037   2.281  17.592  0.6026  1.2267 -1.8962
  429MPD2    H2 6402   3.681   2.114   0.039 -0.1318  1.4357  0.9055
  429MPD2    H3 6403   3.869   2.257   0.057 -1.9998  0.4016 -0.2587
  429MPD2     N 6404   3.984   2.206  17.326  0.9209 -1.0229  0.4696
  429MPD2    H5 6405   3.946   2.174  17.237  0.9705  2.2747 -0.7446
  429MPD2    N1 6406   3.634   1.950  17.515  0.1468 -0.2493  0.2582
  429MPD2    H7 6407   3.636   1.892  17.431  1.2363 -1.1813  0.9347
  430TMC3    C1 6408   4.107   2.342  17.179  0.2827 -0.3463  0.5770
  430TMC3    C2 6409   3.995   2.372  17.109  0.0396 -0.1431  0.5968
  430TMC3    C3 6410   4.011   2.357  16.975  0.0996 -0.3946 -0.3489
  430TMC3    C4 6411   4.232   2.300  17.128 -0.3156 -0.0871 -0.4810
  430TMC3    C5 6412   4.237   2.282  16.994 -0.0767  0.0820  0.4597
  430TMC3    C6 6413   4.123   2.309  16.918 -0.1307 -0.4992 -0.1333
  430TMC3     C 6414   4.086   2.304  17.316  0.1300 -0.2970  1.2863
  430TMC3     O 6415   4.135   2.371  17.406  0.7494 -0.5407  0.0991
  430TMC3     H 6416   3.907   2.418  17.153 -1.9807 -3.0008 -0.4057
  430TMC3    H1 6417   4.312   2.278  17.198 -1.5910 -2.2068  0.2946
  430TMC3    H2 6418   4.134   2.297  16.811 -1.9012  1.7545 -0.5717
  430TMC3    C7 6419   4.330   2.187  16.930 -0.1275  0.0779  0.5418
  430TMC3    C8 6420   3.887   2.350  16.894 -0.7962  0.4057  0.2496
  430TMC3    O1 6421   4.283   2.115  16.843  0.0418  0.2272  0.4154
  430TMC3    O2 6422   3.895   2.322  16.775  0.1843  0.5683 -0.3053
  431MPD2     C 6423   0.151   1.813  12.877 -0.1826 -0.0848 -0.5428
  431MPD2    C1 6424   0.201   1.733  12.774  0.3524  0.3190  0.0459
  431MPD2    C2 6425   0.139   1.612  12.757 -0.6517  0.3070 -0.1930
  431MPD2    C3 6426   0.034   1.569  12.833 -0.3610  0.4943 -0.2756
  431MPD2    C4 6427   4.713   1.642  12.939  0.2795  0.2029 -0.3211
  431MPD2    C5 6428   0.047   1.763  12.949  0.1047  0.2358  0.4231
  431MPD2     H 6429   0.182   1.538  12.690 -1.5287 -1.3172  1.0206
  431MPD2    H1 6430   4.636   1.603  13.005 -0.6318 -1.2017 -2.2143
  431MPD2    H2 6431   0.185   1.914  12.895  0.2009 -0.4164  0.5881
  431MPD2    H3 6432   0.015   1.825  13.032 -0.0219 -0.3625  0.8193
  431MPD2     N 6433   4.709   1.434  12.829  0.3705 -0.5250  0.6277
  431MPD2    H5 6434   4.647   1.406  12.904 -2.5564  0.5562 -1.3522
  431MPD2    N1 6435   0.311   1.775  12.691 -0.0068  0.1687 -0.0100
  431MPD2    H7 6436   0.331   1.715  12.612  2.0995 -0.2148  0.7974
  432TMC3    C1 6437   0.013   1.205  12.782  0.0316  0.0882  0.6780
  432TMC3    C2 6438   0.009   1.113  12.681  0.1873  0.2068 -0.2426
  432TMC3    C3 6439   0.050   0.981  12.708  0.8379  0.1863 -0.1249
  432TMC3    C4 6440   0.059   1.172  12.910  0.5108  0.2756  0.2757
  432TMC3    C5 6441   0.092   1.041  12.933  0.6627  0.1759  0.1843
  432TMC3    C6 6442   0.090   0.947  12.839  0.2106 -0.0156  0.5358
  432TMC3     C 6443   0.015   1.343  12.728  0.1380 -0.0602  0.6078
  432TMC3     O 6444   0.070   1.361  12.621  0.1717 -0.0467  0.2599
  432TMC3     H 6445   4.693   1.138  12.584 -0.8779  0.1228  0.1817
  432TMC3    H1 6446   0.062   1.251  12.985  1.7009  1.0910 -0.6149
  432TMC3    H2 6447   0.138   0.852  12.861  0.4465  0.0280  0.2121
  432TMC3    C7 6448   0.146   1.002  13.062 -0.7045 -0.4040  0.0067
  432TMC3    C8 6449   0.111   0.896  12.603 -1.2301 -0.3186 -0.2761
  432TMC3    O1 6450   0.190   0.889  13.088 -0.1884  0.1924  0.9481
  432TMC3    O2 6451   0.130   0.775  12.612  0.5060 -0.1897 -0.0728
  433MPD2     C 6452   3.706   4.673  10.659 -0.2784  0.4292 -0.7667
  433MPD2    C1 6453   3.809   4.653  10.574 -0.6187 -0.1176  0.2395
  433MPD2    C2 6454   3.938   4.691  10.615  0.0309  0.1382 -0.0515
  433MPD2    C3 6455   3.952   0.057  10.721  0.8205  0.2884  0.0837
  433MPD2    C4 6456   3.843   0.087  10.799  0.2271  0.0373  0.0127
  433MPD2    C5 6457   3.723   0.025  10.765 -0.6872  0.4848 -0.4862
  433MPD2     H 6458   4.031   4.675  10.561  0.6346 -0.0714  1.0724
  433MPD2    H1 6459   3.838   0.135  10.896  0.5107  2.9367 -1.3967
  433MPD2    H2 6460   3.608   4.631  10.644 -0.0652 -0.1215 -0.6399
  433MPD2    H3 6461   3.645   0.041  10.838 -0.8073 -0.3358 -0.4292
  433MPD2     N 6462   4.078   0.087  10.759 -0.1780 -0.2638  0.5272
  433MPD2    H5 6463   4.152   0.033  10.717 -0.6338 -0.2423 -0.2951
  433MPD2    N1 6464   3.789   4.582  10.450  0.1634  0.0056 -0.0511
  433MPD2    H7 6465   3.698   4.540  10.436 -0.5679  1.4440  0.3509
  434TMC3    C1 6466   3.859   4.474  10.251  0.2059 -0.0120  0.5316
  434TMC3    C2 6467   3.838   4.352  10.313 -0.1837 -0.1125 -0.1107
  434TMC3    C3 6468   3.894   4.239  10.253  0.2649  0.2182  0.5342
  434TMC3    C4 6469   3.913   4.484  10.127 -0.0938 -0.4914 -0.3500
  434TMC3    C5 6470   3.960   4.370  10.069  1.1088 -1.0711  0.8075
  434TMC3    C6 6471   3.956   4.247  10.127  0.3098 -0.0762  0.1356
  434TMC3     C 6472   3.877   4.584  10.344  0.5389  0.2502  0.5995
  434TMC3     O 6473   3.970   4.662  10.321 -0.2441 -0.0335 -0.1579
  434TMC3     H 6474   3.814   4.344  10.418  1.4406 -0.2362  0.2528
  434TMC3    H1 6475   3.913   4.583  10.083 -3.3972 -0.7184 -0.8291
  434TMC3    H2 6476   4.001   4.156  10.089  2.0089  0.0936  1.7138
  434TMC3    C7 6477   3.962   4.371   9.918  0.3091 -0.1701  0.7004
  434TMC3    C8 6478   3.941   4.139  10.355 -0.6578 -0.8102 -0.1528
  434TMC3    O1 6479   3.954   4.483   9.876  0.1023 -0.2108 -0.0244
  434TMC3    O2 6480   3.958   4.181  10.465 -0.1088 -0.1271  0.3711
  435MPD2     C 6481   1.039   0.251  15.205  0.0721  0.5704 -0.1189
  435MPD2    C1 6482   0.986   0.260  15.337  0.1918  0.6692 -0.4448
  435MPD2    C2 6483   1.054   0.192  15.437 -1.3679 -0.2253  0.5079
  435MPD2    C3 6484   1.167   0.117  15.412  0.3384 -0.0543  0.3905
  435MPD2    C4 6485   1.230   0.138  15.294  0.9049  0.6561  0.1528
  435MPD2    C5 6486   1.165   0.201  15.189  0.2261 -0.4726  0.5090
  435MPD2     H 6487   1.005   0.202  15.533 -0.4428  2.5443  0.6872
  435MPD2    H1 6488   1.324   0.087  15.273 -0.1927 -1.4641  0.4231
  435MPD2    H2 6489   0.993   0.306  15.123  1.3906  0.5377 -0.8833
  435MPD2    H3 6490   1.222   0.201  15.097 -1.2906  3.0399 -0.4407
  435MPD2     N 6491   1.225   0.053  15.530 -0.2846  0.1213  0.0191
  435MPD2    H5 6492   1.173   0.035  15.615 -0.2676 -0.2002 -0.0387
  435MPD2    N1 6493   0.869   0.328  15.378  1.1709  0.2829 -0.0901
  435MPD2    H7 6494   0.847   0.327  15.477  0.0856 -3.9410 -0.3465
  436TMC3    C1 6495   0.550   0.486  15.555  0.2417 -0.0132 -0.0761
  436TMC3    C2 6496   0.627   0.405  15.472 -0.5597  0.4737 -0.1299
  436TMC3    C3 6497   0.693   0.472  15.367 -0.7242 -0.4610 -0.0972
  436TMC3    C4 6498   0.543   0.621  15.541  0.4006 -0.1561 -0.0312
  436TMC3    C5 6499   0.619   0.685  15.440 -0.0124 -0.0257  0.4617
  436TMC3    C6 6500   0.690   0.608  15.351  0.2239 -0.3901  0.2027
  436TMC3     C 6501   0.462   0.416  15.651 -0.2791 -0.0976 -0.8911
  436TMC3     O 6502   0.428   0.300  15.615 -0.5115  0.2909  0.0356
  436TMC3     H 6503   0.617   0.297  15.471  1.2526  0.2738  2.0730
  436TMC3    H1 6504   0.468   0.682  15.590  1.2068  0.6717  0.1682
  436TMC3    H2 6505   0.747   0.649  15.268  1.6976 -1.8852  0.4706
  436TMC3    C7 6506   0.629   0.831  15.461  0.3403  0.0355 -0.0893
  436TMC3    C8 6507   0.790   0.392  15.292 -0.3151 -0.2629  0.0035
  436TMC3    O1 6508   0.564   0.881  15.552  0.0734  0.4410  0.3232
  436TMC3    O2 6509   0.797   0.409  15.169  0.2813 -0.0503 -0.0079
  437TMC3    C1 6510   4.379   1.980  12.383  0.2600 -0.8686 -0.4654
  437TMC3    C2 6511   4.310   1.924  12.275  0.4915 -0.0794 -0.4712
  437TMC3    C3 6512   4.311   1.993  12.156  0.3087  0.0786  0.0821
  437TMC3    C4 6513   4.442   2.098  12.373  0.3852  0.7031 -0.1534
  437TMC3    C5 6514   4.433   2.165  12.253 -0.0029  0.5234  0.1552
  437TMC3    C6 6515   4.367   2.113  12.146  0.2712  0.5669 -0.4245
  437TMC3     C 6516   4.346   1.921  12.511 -0.1595  0.4327 -0.5799
  437TMC3     O 6517   4.276   1.821  12.516  0.4150 -0.0407 -0.1465
  437TMC3     H 6518   4.261   1.831  12.302  0.8207 -0.2263 -0.3764
  437TMC3    H1 6519   4.507   2.121  12.457  0.3470  1.9615 -0.4737
  437TMC3    H2 6520   4.388   2.148  12.045 -2.2547  2.3163 -0.3596
  437TMC3    C7 6521   4.508   2.293  12.220  0.3164 -0.6091  0.0681
  437TMC3    C8 6522   4.277   1.925  12.031 -0.5065  0.2279 -0.0343
  437TMC3    O1 6523   4.457   2.385  12.158 -0.3339  0.0496  0.8549
  437TMC3    O2 6524   4.295   1.984  11.928  0.4166 -0.4069 -0.8584
  438MPD2     C 6525   2.164   3.165  16.759 -0.4010 -0.1754  0.5786
  438MPD2    C1 6526   2.220   3.048  16.803 -0.1103  0.2780 -0.6390
  438MPD2    C2 6527   2.201   3.016  16.937 -0.7109 -0.0757  0.2931
  438MPD2    C3 6528   2.113   3.084  17.016 -0.2129  0.1865  0.1195
  438MPD2    C4 6529   2.054   3.196  16.961  0.1348  0.5089  0.3957
  438MPD2    C5 6530   2.090   3.241  16.838  0.1343  0.6786  0.0181
  438MPD2     H 6531   2.260   2.934  16.976  1.7143  1.6387  0.2451
  438MPD2    H1 6532   1.984   3.253  17.020  0.2680 -0.9969  2.0123
  438MPD2    H2 6533   2.187   3.201  16.659 -1.5789  0.5491  0.5756
  438MPD2    H3 6534   2.032   3.321  16.793 -0.2556  0.2147 -0.3084
  438MPD2     N 6535   2.077   3.047  17.149  0.0367 -0.7408 -0.0437
  438MPD2    H5 6536   2.004   3.099  17.197 -0.5816 -1.4917 -0.1735
  438MPD2    N1 6537   2.317   2.969  16.738 -0.0567  0.1121 -0.4385
  438MPD2    H7 6538   2.354   2.899  16.801 -0.3246 -1.9454 -2.5414
  439TMC3    C1 6539   2.427   2.863  16.561 -0.0524  0.0334 -0.0475
  439TMC3    C2 6540   2.386   2.783  16.456 -0.2974 -0.2022  0.3350
  439TMC3    C3 6541   2.462   2.671  16.432 -0.2177  0.2880  0.5036
  439TMC3    C4 6542   2.526   2.831  16.641  0.3898  0.0013  0.0976
  439TMC3    C5 6543   2.606   2.722  16.608 -0.5427  0.1238 -0.0695
  439TMC3    C6 6544   2.577   2.645  16.491  0.2122  0.3770 -0.5612
  439TMC3     C 6545   2.345   2.974  16.605 -0.0159 -0.2234 -0.3995
  439TMC3     O 6546   2.280   3.042  16.524 -0.2314 -0.2592  0.3962
  439TMC3     H 6547   2.316   2.827  16.386 -0.6914 -2.6602 -0.7989
  439TMC3    H1 6548   2.550   2.906  16.715  0.3967 -2.0087  2.1308
  439TMC3    H2 6549   2.638   2.561  16.460  0.1269 -0.1357  0.6996
  439TMC3    C7 6550   2.700   2.674  16.709  0.1753  0.0704 -0.0815
  439TMC3    C8 6551   2.430   2.599  16.314  0.5882  0.2606 -0.4323
  439TMC3    O1 6552   2.734   2.747  16.804  0.0217  0.0995 -0.2977
  439TMC3    O2 6553   2.520   2.528  16.267  0.1051 -0.0853 -0.2051
  440MPD2     C 6554   0.926   3.166  14.761  0.2496 -0.1544 -0.4124
  440MPD2    C1 6555   0.961   3.265  14.848 -0.4482  0.6978 -0.9135
  440MPD2    C2 6556   1.101   3.272  14.888  0.4099  0.2094  0.9702
  440MPD2    C3 6557   1.197   3.182  14.831 -0.2294 -0.0912  0.3721
  440MPD2    C4 6558   1.155   3.091  14.732 -0.6251  0.3327  0.0191
  440MPD2    C5 6559   1.027   3.085  14.700 -0.3037  0.0512 -0.6914
  440MPD2     H 6560   1.123   3.347  14.963 -1.8680  2.0854 -0.2494
  440MPD2    H1 6561   1.229   3.028  14.684  0.8805  1.3379  1.0026
  440MPD2    H2 6562   0.825   3.150  14.727 -0.2958  0.4010  0.9722
  440MPD2    H3 6563   1.003   2.994  14.646 -1.4107  0.1568 -0.3814
  440MPD2     N 6564   1.338   3.193  14.856 -0.1799  0.2024  0.0923
  440MPD2    H5 6565   1.402   3.128  14.813  0.3007 -0.0122  1.1192
  440MPD2    N1 6566   0.864   3.345  14.911  0.9251  0.1797 -0.4333
  440MPD2    H7 6567   0.893   3.403  14.989 -0.2303  1.2748 -0.8173
  441TMC3    C1 6568   1.544   3.268  14.938  0.0892  0.4427 -0.4553
  441TMC3    C2 6569   1.612   3.366  14.993 -0.2915 -0.2627 -0.1016
  441TMC3    C3 6570   1.694   3.343  15.098 -0.3518 -0.5318  0.2808
  441TMC3    C4 6571   1.565   3.142  14.987  0.3469 -0.0484 -0.0471
  441TMC3    C5 6572   1.668   3.108  15.071  0.3271 -0.0573 -0.3129
  441TMC3    C6 6573   1.729   3.217  15.134 -0.0947  0.1785  0.0285
  441TMC3     C 6574   1.403   3.285  14.932  0.5653 -0.1796  0.5637
  441TMC3     O 6575   1.364   3.391  14.983  0.3183  0.2502  0.0741
  441TMC3     H 6576   1.593   3.465  14.954  2.6524  0.1833 -0.4339
  441TMC3    H1 6577   1.518   3.058  14.936  2.8835 -1.4934  0.0066
  441TMC3    H2 6578   1.812   3.207  15.203 -0.5025  0.4645  0.5566
  441TMC3    C7 6579   1.608   3.026  15.175 -0.2880 -0.5529 -0.0758
  441TMC3    C8 6580   1.663   3.422  15.213  0.1492  0.2794  0.0103
  441TMC3    O1 6581   1.497   2.976  15.168  0.4426 -0.2596  0.1203
  441TMC3    O2 6582   1.704   3.395  15.324  0.1715  0.4699 -0.1408
  442MPD2     C 6583   3.790   4.396  16.529  1.3744  0.1173 -0.7201
  442MPD2    C1 6584   3.684   4.313  16.569 -0.0748  0.5808 -0.4213
  442MPD2    C2 6585   3.694   4.177  16.561 -0.1280  0.5424  0.2916
  442MPD2    C3 6586   3.806   4.114  16.510  0.9582  0.3025 -0.1395
  442MPD2    C4 6587   3.906   4.200  16.457 -0.0880 -0.1216 -0.1873
  442MPD2    C5 6588   3.905   4.333  16.485  0.1227  0.6351  0.8781
  442MPD2     H 6589   3.602   4.123  16.581  0.4209  0.2325  1.9314
  442MPD2    H1 6590   3.996   4.158  16.413  0.0757 -0.7925  0.8015
  442MPD2    H2 6591   3.777   4.504  16.534  0.1914 -0.0470 -0.3729
  442MPD2    H3 6592   3.989   4.386  16.442 -2.9365  3.7995 -1.1816
  442MPD2     N 6593   3.811   3.975  16.487  0.0884 -0.1838 -0.2952
  442MPD2    H5 6594   3.900   3.948  16.446 -0.4725  1.5255 -2.6516
  442MPD2    N1 6595   3.566   4.373  16.611 -0.7308  0.1401  0.8227
  442MPD2    H7 6596   3.512   4.318  16.677 -0.8094 -2.2198 -1.2305
  443TMC3    C1 6597   3.397   4.507  16.640 -0.3427 -0.2007  0.1776
  443TMC3    C2 6598   3.297   4.486  16.552  0.0410  0.4514 -0.2306
  443TMC3    C3 6599   3.210   4.380  16.578  0.1898 -0.4776  0.2120
  443TMC3    C4 6600   3.384   4.443  16.757 -0.2459 -0.1063  0.1549
  443TMC3    C5 6601   3.286   4.350  16.788 -0.7818  0.0477 -0.4752
  443TMC3    C6 6602   3.197   4.312  16.698  0.0770 -0.1275 -0.3635
  443TMC3     C 6603   3.520   4.496  16.570  0.2653  0.4461  0.3488
  443TMC3     O 6604   3.557   4.564  16.477  0.1898 -0.2760 -0.0033
  443TMC3     H 6605   3.305   4.523  16.451  1.2499  2.4091  0.5807
  443TMC3    H1 6606   3.447   4.474  16.839  0.0334  2.0348 -0.8637
  443TMC3    H2 6607   3.105   4.254  16.701 -0.0170 -0.0072 -0.9146
  443TMC3    C7 6608   3.250   4.320  16.926 -0.0326 -0.7135  0.1142
  443TMC3    C8 6609   3.195   4.284  16.472  1.6437 -0.4435  0.2269
  443TMC3    O1 6610   3.300   4.378  17.021 -0.2158  0.4503  0.0966
  443TMC3    O2 6611   3.201   4.170  16.515 -0.0448  0.1195 -0.6308
  444MPD2     C 6612   4.329   3.098  17.215 -0.1589  0.8026 -0.3018
  444MPD2    C1 6613   4.277   3.080  17.088  0.6270 -0.5208  0.1507
  444MPD2    C2 6614   4.321   2.978  17.009 -0.4458  0.0166  0.5073
  444MPD2    C3 6615   4.416   2.889  17.053  0.0261 -0.0922  0.9454
  444MPD2    C4 6616   4.474   2.912  17.178  0.1960  0.1991  0.3762
  444MPD2    C5 6617   4.423   3.010  17.256  0.2042 -0.4570 -0.5072
  444MPD2     H 6618   4.281   2.958  16.910 -0.8204 -1.3333  0.9323
  444MPD2    H1 6619   4.547   2.848  17.227 -0.9779  0.3931  2.3721
  444MPD2    H2 6620   4.296   3.173  17.286 -0.0424  0.9897 -0.4483
  444MPD2    H3 6621   4.466   3.024  17.355  1.3776 -1.9162 -0.7945
  444MPD2     N 6622   4.448   2.772  16.973 -0.1828  0.4438  0.0090
  444MPD2    H5 6623   4.409   2.770  16.880  0.7402  1.1088 -0.3999
  444MPD2    N1 6624   4.166   3.147  17.026 -0.3423 -0.1296  0.3128
  444MPD2    H7 6625   4.127   3.107  16.942 -0.4280 -0.5744  0.5635
  445TMC3    C1 6626   4.595   2.607  16.894  0.1256  0.5920  0.2993
  445TMC3    C2 6627   4.499   2.544  16.827  0.2451 -0.3299  0.4634
  445TMC3    C3 6628   4.535   2.466  16.722 -0.0543  0.0704 -0.0483
  445TMC3    C4 6629   0.002   2.593  16.857  0.2453  0.4716  0.5119
  445TMC3    C5 6630   0.035   2.510  16.753 -0.2159  0.6059 -1.0100
  445TMC3    C6 6631   4.665   2.447  16.683 -0.2182 -0.0109  0.0717
  445TMC3     C 6632   4.556   2.694  16.999 -0.0859  0.3380  0.2144
  445TMC3     O 6633   4.624   2.676  17.096 -0.1487  0.4122 -0.2312
  445TMC3     H 6634   4.396   2.563  16.855  0.0980 -0.5151  0.0574
  445TMC3    H1 6635   0.073   2.657  16.908  0.7034  2.3639 -2.4950
  445TMC3    H2 6636   4.690   2.401  16.588 -0.8812 -0.7546  0.2616
  445TMC3    C7 6637   0.166   2.518  16.688  0.6367  0.3464  0.1326
  445TMC3    C8 6638   4.443   2.430  16.618 -0.4803  0.2261 -0.2459
  445TMC3    O1 6639   0.179   2.483  16.570  0.2183  0.7353  0.1574
  445TMC3    O2 6640   4.481   2.358  16.523  0.4952 -0.4591  0.3325
  446MPD2     C 6641   3.615   4.383  10.971 -0.5838  0.5300 -0.2487
  446MPD2    C1 6642   3.636   4.259  10.913 -0.5675  0.2501  0.8438
  446MPD2    C2 6643   3.767   4.220  10.896  0.9582  0.3002  0.2184
  446MPD2    C3 6644   3.868   4.312  10.904 -0.0349  0.0181  0.1971
  446MPD2    C4 6645   3.845   4.435  10.962  0.3270  0.7314 -0.0641
  446MPD2    C5 6646   3.720   4.469  11.004 -0.4839  0.0125  0.3961
  446MPD2     H 6647   3.795   4.120  10.864 -0.8429 -0.1762  0.1198
  446MPD2    H1 6648   3.932   4.499  10.976 -0.5913  2.5350 -2.7183
  446MPD2    H2 6649   3.520   4.424  11.003  0.4736  2.6613  0.1996
  446MPD2    H3 6650   3.710   4.556  11.067 -1.5713 -1.7096  2.5804
  446MPD2     N 6651   3.991   4.299  10.844 -0.0605 -0.2590 -0.3109
  446MPD2    H5 6652   4.051   4.380  10.852  0.7234 -0.7645 -1.0600
  446MPD2    N1 6653   3.527   4.166  10.890  0.4789 -0.6873  0.7660
  446MPD2    H7 6654   3.543   4.072  10.854 -3.0126 -0.9698 -0.0081
  447TMC3    C1 6655   4.179   4.231  10.718 -0.0263  0.0406 -0.4472
  447TMC3    C2 6656   4.199   4.358  10.670 -0.1070 -0.6589 -0.2265
  447TMC3    C3 6657   4.329   4.398  10.663 -0.6853 -0.7134 -0.4067
  447TMC3    C4 6658   4.273   4.149  10.764 -0.5828 -0.4234 -0.0399
  447TMC3    C5 6659   4.405   4.194  10.745  0.4597 -0.3229 -0.0438
  447TMC3    C6 6660   4.439   4.320  10.697 -0.0378  0.4677 -0.9174
  447TMC3     C 6661   4.054   4.192  10.783 -0.9431  0.2404  1.0236
  447TMC3     O 6662   4.026   4.075  10.793  0.7421 -0.3359 -0.1957
  447TMC3     H 6663   4.120   4.420  10.630 -0.5815 -1.5607 -0.7138
  447TMC3    H1 6664   4.245   4.052  10.804  0.4511 -1.0384 -0.8133
  447TMC3    H2 6665   4.543   4.345  10.679 -0.0700 -0.2439 -2.0445
  447TMC3    C7 6666   4.521   4.114  10.770  0.4075 -0.4600  0.5928
  447TMC3    C8 6667   4.354   4.528  10.600 -0.1850 -0.4447 -0.2267
  447TMC3    O1 6668   4.630   4.171  10.766  0.0833 -0.4892 -0.1790
  447TMC3    O2 6669   4.254   4.596  10.573  0.3689  0.5952 -0.4565
  448TMC3    C1 6670   1.722   4.028  16.750  0.5501  0.9357 -0.3860
  448TMC3    C2 6671   1.707   3.895  16.734 -0.0605  0.4303  0.3502
  448TMC3    C3 6672   1.775   3.805  16.814  0.2265  0.0524 -0.2058
  448TMC3    C4 6673   1.799   4.075  16.854 -0.8388 -0.6184 -0.3268
  448TMC3    C5 6674   1.861   3.983  16.934  0.7161  0.4880  0.0420
  448TMC3    C6 6675   1.845   3.849  16.915 -0.1964  0.2422 -0.0421
  448TMC3     C 6676   1.664   4.116  16.661  0.1243  0.6065  0.3995
  448TMC3     O 6677   1.669   4.075  16.544 -0.5726  0.6868 -0.0890
  448TMC3     H 6678   1.661   3.861  16.641 -0.0494 -0.9591  0.8594
  448TMC3    H1 6679   1.832   4.178  16.864  0.7634 -1.0927 -0.6146
  448TMC3    H2 6680   1.913   3.785  16.970  1.0765  0.0147 -1.8899
  448TMC3    C7 6681   1.966   4.027  17.030 -0.8312  0.0725  0.5216
  448TMC3    C8 6682   1.851   3.706  16.741  0.1141  0.2694  0.3014
  448TMC3    O1 6683   2.021   4.128  16.993  0.3652  0.0099 -0.0237
  448TMC3    O2 6684   1.955   3.671  16.802  0.2595 -0.1284  0.3413
  449MPD2     C 6685   4.039   2.881  14.613  0.3842  0.0399 -0.1588
  449MPD2    C1 6686   3.963   2.846  14.503 -0.2903 -0.8253  0.0724
  449MPD2    C2 6687   3.902   2.720  14.494  0.0653 -0.5182  0.2130
  449MPD2    C3 6688   3.901   2.635  14.600 -0.1058 -0.4836  0.7957
  449MPD2    C4 6689   3.964   2.679  14.718  0.3192 -0.2275 -0.1894
  449MPD2    C5 6690   4.035   2.798  14.726  0.0598  0.2471  1.0361
  449MPD2     H 6691   3.851   2.691  14.403  1.9911  0.1459 -1.0615
  449MPD2    H1 6692   3.958   2.611  14.802  0.3795 -1.1039 -0.9028
  449MPD2    H2 6693   4.104   2.964  14.638 -0.7520  1.3039 -1.4458
  449MPD2    H3 6694   4.097   2.802  14.814 -0.0298 -0.1569  1.1213
  449MPD2     N 6695   3.818   2.520  14.586  0.4230 -0.2728  0.0003
  449MPD2    H5 6696   3.788   2.499  14.491  1.5377 -0.9961 -0.1937
  449MPD2    N1 6697   3.966   2.919  14.379  0.3129  0.2527 -0.7469
  449MPD2    H7 6698   3.935   2.871  14.296 -0.1633 -0.3236 -0.2331
  450TMC3    C1 6699   4.024   3.088  14.221 -0.1733  0.0660 -0.1680
  450TMC3    C2 6700   3.960   3.211  14.203  0.1289 -0.0411  0.1480
  450TMC3    C3 6701   3.856   3.218  14.115  0.5256 -0.6813 -0.2625
  450TMC3    C4 6702   4.002   2.978  14.144  0.3601  0.2922 -0.0445
  450TMC3    C5 6703   3.887   2.982  14.073  0.3740  0.3686  0.4021
  450TMC3    C6 6704   3.818   3.102  14.058  0.1262 -0.1867  0.6704
  450TMC3     C 6705   4.018   3.048  14.364  0.5086  0.2971 -0.1016
  450TMC3     O 6706   4.050   3.122  14.452 -0.0040  0.1450 -0.1479
  450TMC3     H 6707   3.993   3.301  14.255  0.4566 -0.0197 -0.1002
  450TMC3    H1 6708   4.058   2.886  14.155 -1.0713 -0.8359 -2.1295
  450TMC3    H2 6709   3.723   3.107  14.006 -0.1895 -1.2267  1.1394
  450TMC3    C7 6710   3.815   2.851  14.074 -0.1298  0.1234 -0.4866
  450TMC3    C8 6711   3.872   3.321  14.019  0.5756 -1.0496 -0.6805
  450TMC3    O1 6712   3.860   2.774  14.159  0.4677  0.0068  0.5807
  450TMC3    O2 6713   3.925   3.425  14.058 -0.2953  0.3257  0.4648
  451MPD2     C 6714   4.187   1.855   1.186  0.7786 -0.6785  0.0974
  451MPD2    C1 6715   4.313   1.921   1.186  0.3419  0.0769 -0.1197
  451MPD2    C2 6716   4.427   1.851   1.142  0.1706  0.4967  0.1496
  451MPD2    C3 6717   4.411   1.720   1.107  0.0790  0.6780  0.1369
  451MPD2    C4 6718   4.295   1.651   1.135 -0.1185  0.5336 -0.2194
  451MPD2    C5 6719   4.185   1.721   1.171 -0.0371  1.0023  0.1349
  451MPD2     H 6720   4.521   1.904   1.136 -1.2584  2.9772 -0.1462
  451MPD2    H1 6721   4.279   1.549   1.102 -3.0667  1.2165 -0.9455
  451MPD2    H2 6722   4.097   1.907   1.215 -0.3650 -1.1008 -2.6680
  451MPD2    H3 6723   4.087   1.674   1.175  0.4553  0.1946  2.6876
  451MPD2     N 6724   4.520   1.640   1.067 -0.0452 -0.1974 -0.1095
  451MPD2    H5 6725   4.493   1.542   1.054  1.1475 -0.4731 -0.5236
  451MPD2    N1 6726   4.315   2.055   1.233 -0.6376 -0.1907  0.4109
  451MPD2    H7 6727   4.226   2.082   1.273  0.9026  3.8004  1.1574
  452TMC3    C1 6728   0.019   1.579   1.005 -0.5978  0.1829  0.2133
  452TMC3    C2 6729   0.022   1.487   1.108  0.3968  0.3443 -0.6227
  452TMC3    C3 6730   0.142   1.416   1.128  0.2051 -0.1570 -0.0048
  452TMC3    C4 6731   0.133   1.615   0.941 -0.4516 -0.7699 -0.6145
  452TMC3    C5 6732   0.243   1.536   0.951  0.1187  0.1915  0.0578
  452TMC3    C6 6733   0.250   1.439   1.048  0.1408  0.5947 -0.3171
  452TMC3     C 6734   4.642   1.685   1.014 -0.2009 -0.0239 -0.1583
  452TMC3     O 6735   4.678   1.797   0.981  0.2743  0.5136 -0.4921
  452TMC3     H 6736   4.668   1.473   1.181  0.2260 -1.8896 -1.2127
  452TMC3    H1 6737   0.129   1.694   0.867 -0.6669 -2.3541 -2.3024
  452TMC3    H2 6738   0.338   1.376   1.049 -1.0101 -1.0037 -1.2154
  452TMC3    C7 6739   0.333   1.545   0.842 -0.6630 -0.1031 -0.0888
  452TMC3    C8 6740   0.138   1.318   1.237  0.1684  0.2796  0.3619
  452TMC3    O1 6741   0.294   1.601   0.741 -0.1928  0.3905  0.2463
  452TMC3    O2 6742   0.025   1.277   1.261  0.1679  0.0682  0.2611
  453TMC3    C1 6743   1.537   3.653  11.930 -0.4369 -0.0362 -0.0066
  453TMC3    C2 6744   1.467   3.535  11.946 -0.2325  0.0937 -0.3242
  453TMC3    C3 6745   1.376   3.505  11.847 -0.0656  0.3751  0.3700
  453TMC3    C4 6746   1.526   3.734  11.822 -0.2332  0.4903  0.3894
  453TMC3    C5 6747   1.444   3.690  11.722  0.8892  0.5333 -0.4431
  453TMC3    C6 6748   1.364   3.582  11.735 -0.5612  0.3936 -0.1184
  453TMC3     C 6749   1.647   3.682  12.020 -0.4594  0.2983  0.9290
  453TMC3     O 6750   1.709   3.788  12.020  0.1228 -0.0049 -0.6833
  453TMC3     H 6751   1.467   3.479  12.038 -1.7520  0.8213  0.1292
  453TMC3    H1 6752   1.597   3.816  11.819 -2.1929  2.1915  0.9904
  453TMC3    H2 6753   1.289   3.558  11.661 -0.0485 -0.3255 -0.4085
  453TMC3    C7 6754   1.458   3.732  11.586 -0.6695 -0.4723  0.2277
  453TMC3    C8 6755   1.299   3.383  11.851 -0.8258  0.6558 -0.0236
  453TMC3    O1 6756   1.441   3.649  11.497 -0.5996 -0.5185  0.0218
  453TMC3    O2 6757   1.184   3.397  11.818 -0.2369  0.2551 -0.4675
  454MPD2     C 6758   0.172   2.944  16.530  0.1119  0.3117  0.5723
  454MPD2    C1 6759   0.103   3.064  16.516 -0.3203 -0.2388  0.1487
  454MPD2    C2 6760   0.051   3.129  16.628 -0.0146 -0.3473 -0.1223
  454MPD2    C3 6761   0.055   3.064  16.750  0.3894 -0.4315  0.8878
  454MPD2    C4 6762   0.124   2.945  16.771 -0.3151  0.2346 -0.2334
  454MPD2    C5 6763   0.183   2.890  16.659 -0.5575  0.2438 -0.6321
  454MPD2     H 6764   0.001   3.224  16.618  1.1132  0.3742  1.1995
  454MPD2    H1 6765   0.136   2.893  16.865  1.2726  0.1966 -0.4460
  454MPD2    H2 6766   0.212   2.877  16.455 -2.4337  1.6334 -1.9939
  454MPD2    H3 6767   0.235   2.796  16.675  0.1465  1.0085  1.5443
  454MPD2     N 6768   4.707   3.108  16.867  0.7835 -0.0035  0.0203
  454MPD2    H5 6769   0.019   3.070  16.955  0.4641 -0.8889 -0.2288
  454MPD2    N1 6770   0.093   3.133  16.387  0.2439 -0.6906 -0.0764
  454MPD2    H7 6771   0.054   3.225  16.405  3.1844  0.6864 -0.8657
  455TMC3    C1 6772   4.502   3.189  16.759  0.1089 -0.0495  0.4131
  455TMC3    C2 6773   4.444   3.310  16.730 -0.2104  0.7570 -0.4826
  455TMC3    C3 6774   4.363   3.322  16.624 -0.6934 -0.5960 -1.3168
  455TMC3    C4 6775   4.484   3.081  16.678  0.3965 -0.3954  0.7717
  455TMC3    C5 6776   4.407   3.100  16.564  0.0378  0.1574 -0.0745
  455TMC3    C6 6777   4.335   3.216  16.543  0.1058 -0.3328 -0.3332
  455TMC3     C 6778   4.598   3.186  16.873 -0.4961  0.2978  0.4196
  455TMC3     O 6779   4.572   3.269  16.960 -0.0580  0.0553  0.1632
  455TMC3     H 6780   4.470   3.388  16.801  1.1372 -0.7851  0.7224
  455TMC3    H1 6781   4.534   2.987  16.702  0.2972 -0.1165  2.0540
  455TMC3    H2 6782   4.275   3.243  16.457 -0.8313 -2.3710 -0.3164
  455TMC3    C7 6783   4.422   3.019  16.451  0.0391  0.4161 -0.1691
  455TMC3    C8 6784   4.322   3.459  16.594  0.3732  0.2773 -0.1573
  455TMC3    O1 6785   4.322   3.008  16.382 -0.2585 -0.6856  0.0758
  455TMC3    O2 6786   4.411   3.540  16.572 -1.0311 -0.3088  0.2232
  456MPD2     C 6787   2.895   2.734  16.358 -0.1655 -0.2853 -0.6444
  456MPD2    C1 6788   2.927   2.799  16.470  0.1142 -0.6719  0.1714
  456MPD2    C2 6789   2.872   2.916  16.505 -0.5940  0.3951 -0.4546
  456MPD2    C3 6790   2.772   2.967  16.427  0.6555 -0.3923  0.6764
  456MPD2    C4 6791   2.721   2.891  16.319  1.1513 -0.5893 -0.0698
  456MPD2    C5 6792   2.778   2.766  16.291  0.3695  0.1343 -0.4765
  456MPD2     H 6793   2.915   2.973  16.587  0.3046 -1.7432  0.5923
  456MPD2    H1 6794   2.625   2.915  16.274  1.9553 -2.3142 -2.6506
  456MPD2    H2 6795   2.955   2.646  16.335  0.4915 -0.0169  0.0290
  456MPD2    H3 6796   2.738   2.704  16.211  1.3801 -1.3170  0.1546
  456MPD2     N 6797   2.713   3.085  16.471  0.1571  0.4573 -0.3758
  456MPD2    H5 6798   2.757   3.132  16.550 -1.3539  0.3462  0.5357
  456MPD2    N1 6799   3.023   2.744  16.549 -0.7359  0.7902 -0.2560
  456MPD2    H7 6800   3.059   2.653  16.524  2.0580  2.1863 -1.2287
  457TMC3    C1 6801   2.565   3.256  16.511  0.0262  0.9149  0.3634
  457TMC3    C2 6802   2.433   3.303  16.491  0.7088 -1.0661  0.1571
  457TMC3    C3 6803   2.394   3.406  16.576  0.2760 -0.2652 -0.0595
  457TMC3    C4 6804   2.652   3.307  16.602  0.4798 -0.5260  0.2735
  457TMC3    C5 6805   2.601   3.393  16.690 -0.5380  0.5086  0.2220
  457TMC3    C6 6806   2.478   3.446  16.683  0.1476  0.4453  0.3335
  457TMC3     C 6807   2.604   3.150  16.420  0.2495  0.0784 -0.1079
  457TMC3     O 6808   2.531   3.120  16.325 -0.1950 -0.2143  0.0357
  457TMC3     H 6809   2.358   3.259  16.426 -1.7496  1.8009  1.0202
  457TMC3    H1 6810   2.756   3.281  16.612  0.9126  1.6494  1.4795
  457TMC3    H2 6811   2.434   3.513  16.755 -0.9367  1.4828 -1.3005
  457TMC3    C7 6812   2.676   3.420  16.807 -0.1464 -0.5542  0.0719
  457TMC3    C8 6813   2.258   3.437  16.591 -0.3579 -0.4285 -0.3327
  457TMC3    O1 6814   2.735   3.321  16.854 -0.4796 -0.4294  0.2769
  457TMC3    O2 6815   2.235   3.498  16.694  0.1142  0.4761  0.2122
  458MPD2     C 6816   0.240   2.519  12.184  0.1061  0.1825  0.0075
  458MPD2    C1 6817   0.248   2.422  12.275 -0.7855 -0.6202  0.2106
  458MPD2    C2 6818   0.136   2.347  12.292  0.1313  0.4941 -0.6796
  458MPD2    C3 6819   0.015   2.373  12.230 -0.2700 -0.3392 -0.4687
  458MPD2    C4 6820   0.007   2.479  12.138 -0.0411 -0.4509 -0.5937
  458MPD2    C5 6821   0.118   2.548  12.116  0.0369  0.2452 -0.0559
  458MPD2     H 6822   0.149   2.260  12.356  1.0373  1.0275 -0.1359
  458MPD2    H1 6823   4.644   2.510  12.083 -0.0060  1.1655  0.2849
  458MPD2    H2 6824   0.329   2.578  12.164  0.7005 -0.9186 -0.5765
  458MPD2    H3 6825   0.115   2.619  12.034  2.3840 -0.4801 -0.7507
  458MPD2     N 6826   4.640   2.278  12.260  0.6462  0.5448  0.5629
  458MPD2    H5 6827   4.667   2.195  12.312  0.7905 -0.1442 -0.6009
  458MPD2    N1 6828   0.375   2.401  12.343 -0.6981  0.5171 -0.5296
  458MPD2    H7 6829   0.446   2.469  12.317  0.2884 -0.0455  0.7347
  459TMC3    C1 6830   0.536   2.329  12.503 -0.4178 -0.2976 -0.7037
  459TMC3    C2 6831   0.640   2.378  12.432  0.0374 -0.2085 -0.1790
  459TMC3    C3 6832   0.760   2.397  12.495  0.2967  0.7810  0.0549
  459TMC3    C4 6833   0.554   2.279  12.631  0.3043  0.9133  1.0275
  459TMC3    C5 6834   0.670   2.308  12.692  0.2604 -0.6028  0.3831
  459TMC3    C6 6835   0.777   2.362  12.624 -0.4208  0.2442  0.3129
  459TMC3     C 6836   0.399   2.311  12.446 -0.4992 -0.3127 -0.0200
  459TMC3     O 6837   0.327   2.219  12.485 -0.0924 -0.0270 -0.0584
  459TMC3     H 6838   0.626   2.403  12.328 -2.8978  0.7258  0.4422
  459TMC3    H1 6839   0.481   2.227  12.692  0.7912 -0.4038  0.4896
  459TMC3    H2 6840   0.859   2.387  12.690  0.1030  2.4294 -1.1506
  459TMC3    C7 6841   0.671   2.307  12.841 -0.6883  0.4142  0.4077
  459TMC3    C8 6842   0.862   2.487  12.448  0.3627  0.1197 -0.2199
  459TMC3    O1 6843   0.593   2.234  12.903  0.1015  0.1368  0.2294
  459TMC3    O2 6844   0.963   2.482  12.519 -0.4858 -0.1408 -0.0072
  460MPD2     C 6845   4.677   4.699  10.528  0.3078  0.9104  0.1230
  460MPD2    C1 6846   4.540   4.689  10.540 -0.6733  0.1205  0.1738
  460MPD2    C2 6847   4.462   0.054  10.465 -0.0429 -0.1994 -0.5991
  460MPD2    C3 6848   4.519   0.147  10.384  0.4559 -0.1725 -0.4621
  460MPD2    C4 6849   4.652   0.157  10.375  0.0994 -0.0069 -0.0813
  460MPD2    C5 6850   0.006   0.073  10.447 -0.3096 -0.2912  0.1148
  460MPD2     H 6851   4.354   0.040  10.468 -0.3149  1.4240 -2.4560
  460MPD2    H1 6852   4.704   0.229  10.314  0.2900 -1.4697 -1.6534
  460MPD2    H2 6853   0.026   4.641  10.583 -0.8772  0.5475  1.3290
  460MPD2    H3 6854   0.113   0.086  10.436 -1.0241  3.5714 -2.0699
  460MPD2     N 6855   4.431   0.231  10.318 -0.3556 -0.4712  0.0793
  460MPD2    H5 6856   4.333   0.205  10.314 -0.7581  1.4107 -3.0059
  460MPD2    N1 6857   4.485   4.575  10.599 -0.2990  0.2728  0.2898
  460MPD2    H7 6858   4.559   4.513  10.632 -1.8919 -0.7927  1.8693
  461TMC3    C1 6859   4.373   0.385  10.152 -0.4653  0.2065 -0.7689
  461TMC3    C2 6860   4.279   0.294  10.114  0.1655  0.2763 -0.2385
  461TMC3    C3 6861   4.169   0.334  10.051  0.0133  0.8701  0.6453
  461TMC3    C4 6862   4.362   0.524  10.134  0.5055  0.2854 -0.0612
  461TMC3    C5 6863   4.247   0.565  10.070  0.0374 -0.0340  0.4061
  461TMC3    C6 6864   4.154   0.471  10.030 -0.2192 -0.0900 -0.1382
  461TMC3     C 6865   4.476   0.337  10.241 -0.5832 -1.1163  0.1629
  461TMC3     O 6866   4.569   0.414  10.257  0.3516  0.3177 -0.3477
  461TMC3     H 6867   4.296   0.188  10.127  2.2697  0.6071 -0.2359
  461TMC3    H1 6868   4.437   0.593  10.174 -0.5896  0.5695  1.5260
  461TMC3    H2 6869   4.077   0.500   9.959  0.0231  0.8243 -0.0360
  461TMC3    C7 6870   4.217   0.703  10.044 -0.0930 -0.4172 -0.3008
  461TMC3    C8 6871   4.094   0.238   9.974  0.6235  0.1160  0.0577
  461TMC3    O1 6872   4.101   0.732  10.022 -0.1641  0.3557  0.2932
  461TMC3    O2 6873   4.139   0.124   9.983 -0.1766 -0.0837  0.4169
  462TMC3    C1 6874   4.652   0.768   0.313  0.1168 -0.2176 -0.2955
  462TMC3    C2 6875   4.706   0.672   0.233  0.1510 -0.1963  0.5183
  462TMC3    C3 6876   4.640   0.552   0.226 -0.3031 -0.3608  0.3993
  462TMC3    C4 6877   4.527   0.754   0.375 -0.7675  0.1334 -0.5969
  462TMC3    C5 6878   4.460   0.632   0.358  0.0315 -0.3553  0.3295
  462TMC3    C6 6879   4.519   0.531   0.288 -0.0223 -0.8146 -0.1501
  462TMC3     C 6880   0.012   0.885   0.341  0.3761  0.0224  0.3265
  462TMC3     O 6881   0.088   0.913   0.248  0.1263  0.0395 -0.5713
  462TMC3     H 6882   0.076   0.685   0.180 -1.0375 -0.1486 -1.6146
  462TMC3    H1 6883   4.488   0.846   0.416 -0.5636  1.3743 -3.1972
  462TMC3    H2 6884   4.476   0.432   0.289  0.8956 -1.2125  0.5311
  462TMC3    C7 6885   4.317   0.623   0.394  0.2079  0.3446  0.0097
  462TMC3    C8 6886   4.699   0.448   0.152 -0.1446  0.7936 -0.1260
  462TMC3    O1 6887   4.258   0.523   0.363 -0.8560 -0.1486 -0.4271
  462TMC3    O2 6888   4.684   0.332   0.190 -0.0352 -0.2852  0.1160
  463MPD2     C 6889   4.380   0.528   1.916  0.1418  0.4022 -0.0241
  463MPD2    C1 6890   4.362   0.512   1.780 -0.6719 -0.7218  0.6737
  463MPD2    C2 6891   4.462   0.562   1.701  0.6682  0.0084 -0.1902
  463MPD2    C3 6892   4.587   0.594   1.748 -0.7717  0.3127  0.2520
  463MPD2    C4 6893   4.611   0.586   1.883 -0.2350 -0.0051  0.2836
  463MPD2    C5 6894   4.503   0.564   1.969  1.1790 -0.2215  0.4664
  463MPD2     H 6895   4.445   0.558   1.594 -0.3738 -1.3028  0.0246
  463MPD2    H1 6896   4.707   0.608   1.928  0.2302 -1.7073  0.1204
  463MPD2    H2 6897   4.294   0.506   1.979 -0.4258  0.0521 -0.9235
  463MPD2    H3 6898   4.505   0.587   2.074  0.3694  0.5487  0.3096
  463MPD2     N 6899   4.702   0.638   1.673  0.5027 -0.3150 -0.0841
  463MPD2    H5 6900   0.062   0.655   1.726 -0.8814  0.3649  1.8967
  463MPD2    N1 6901   4.242   0.475   1.718 -1.2267  0.7577 -0.2157
  463MPD2    H7 6902   4.218   0.496   1.622 -1.1460  0.0212 -0.3950
  464TMC3    C1 6903   4.023   0.377   1.699  0.1823 -0.4411 -0.6902
  464TMC3    C2 6904   4.017   0.411   1.562 -0.0334  0.7058  0.4072
  464TMC3    C3 6905   3.895   0.407   1.497 -0.3245 -0.0210 -0.0455
  464TMC3    C4 6906   3.911   0.324   1.767  0.7047 -0.2800 -0.0316
  464TMC3    C5 6907   3.792   0.328   1.698 -0.3627 -0.3385  0.0594
  464TMC3    C6 6908   3.779   0.374   1.567 -0.1515 -0.1133  0.3177
  464TMC3     C 6909   4.137   0.405   1.780  0.2836  0.0034 -0.4921
  464TMC3     O 6910   4.132   0.370   1.898  0.0669 -0.0144 -0.5812
  464TMC3     H 6911   4.107   0.444   1.511  0.9168  0.0292  1.6659
  464TMC3    H1 6912   3.919   0.274   1.862 -0.2940  0.9308  0.6893
  464TMC3    H2 6913   3.679   0.392   1.530  0.5553 -1.4807 -2.2153
  464TMC3    C7 6914   3.688   0.241   1.754 -0.6123  0.2044 -0.8229
  464TMC3    C8 6915   3.903   0.373   1.355  0.7231 -0.0517 -0.2563
  464TMC3    O1 6916   3.685   0.226   1.875 -0.2748  0.5335 -0.5086
  464TMC3    O2 6917   4.012   0.358   1.306 -0.0710 -0.2874 -0.2288
  465MPD2     C 6918   1.737   3.101  16.792  0.2724  1.0538  0.6576
  465MPD2    C1 6919   1.631   3.098  16.880 -0.1123  0.1341  0.3653
  465MPD2    C2 6920   1.508   3.161  16.856 -0.0742 -0.1942 -0.4435
  465MPD2    C3 6921   1.486   3.238  16.746 -0.1431  0.7787 -0.0264
  465MPD2    C4 6922   1.595   3.242  16.655 -0.1122  0.1637  0.2240
  465MPD2    C5 6923   1.715   3.169  16.675 -0.3834 -0.7130 -0.4570
  465MPD2     H 6924   1.429   3.150  16.928  0.6778  0.2823  0.4520
  465MPD2    H1 6925   1.598   3.306  16.567  0.8457 -2.0871 -1.4100
  465MPD2    H2 6926   1.836   3.060  16.809 -0.6505 -0.7881  1.7217
  465MPD2    H3 6927   1.797   3.172  16.603 -1.2546  0.8861 -1.3967
  465MPD2     N 6928   1.368   3.309  16.728 -0.1768 -0.3667 -0.4155
  465MPD2    H5 6929   1.304   3.308  16.807  0.4367 -1.6190  0.0693
  465MPD2    N1 6930   1.635   3.027  17.006  0.1267  0.6762 -0.6299
  465MPD2    H7 6931   1.551   3.048  17.059 -0.1131 -1.4351 -0.1738
  466TMC3    C1 6932   1.052   3.536  16.795  0.1741  0.4086  0.1237
  466TMC3    C2 6933   0.997   3.608  16.695 -0.1177  0.2093 -0.1183
  466TMC3    C3 6934   1.051   3.610  16.576 -0.1350 -0.4720  0.4317
  466TMC3    C4 6935   1.160   3.456  16.773  0.1598  0.1095 -0.4278
  466TMC3    C5 6936   1.209   3.455  16.641  0.2299 -0.2334 -0.7685
  466TMC3    C6 6937   1.149   3.526  16.543  0.0648  1.2300  0.3937
  466TMC3     C 6938   0.969   3.535  16.912 -0.1195  0.1898  0.2162
  466TMC3     O 6939   0.895   3.632  16.936  0.3181 -0.0989 -0.2288
  466TMC3     H 6940   0.903   3.660  16.710  0.3285  0.7921  0.6863
  466TMC3    H1 6941   1.201   3.400  16.857  0.1445  1.4510  0.4745
  466TMC3    H2 6942   1.192   3.515  16.444 -0.4290 -1.9270  0.5277
  466TMC3    C7 6943   1.333   3.386  16.618  0.6915 -0.2330  0.0894
  466TMC3    C8 6944   1.009   3.711  16.476 -0.1991 -0.0487  0.6175
  466TMC3    O1 6945   1.386   3.395  16.505 -0.4707 -0.2494  0.1852
  466TMC3    O2 6946   1.044   3.690  16.357 -0.0556 -0.5565 -0.6491
  467TMC3    C1 6947   2.428   1.470  13.253  0.2019  0.5106  0.7760
  467TMC3    C2 6948   2.443   1.538  13.133 -0.5961  0.0739  0.1568
  467TMC3    C3 6949   2.351   1.643  13.108 -0.0160  0.3920 -0.2731
  467TMC3    C4 6950   2.317   1.489  13.334 -0.2885 -0.0079  0.4338
  467TMC3    C5 6951   2.231   1.586  13.301  0.4253  1.0718  0.0654
  467TMC3    C6 6952   2.242   1.662  13.188 -0.0858 -0.0668 -0.3977
  467TMC3     C 6953   2.534   1.388  13.295  0.3084 -0.0487 -0.8538
  467TMC3     O 6954   2.505   1.308  13.388 -0.1810  0.5213  0.0292
  467TMC3     H 6955   2.518   1.515  13.059 -0.3253 -0.5251  0.6144
  467TMC3    H1 6956   2.300   1.433  13.425 -0.4937 -1.1090 -0.2809
  467TMC3    H2 6957   2.189   1.753  13.164  1.8096  1.6642  2.1085
  467TMC3    C7 6958   2.123   1.612  13.397 -0.2599  0.4592 -0.0255
  467TMC3    C8 6959   2.345   1.713  12.982  0.0688 -0.2759 -0.4585
  467TMC3    O1 6960   2.109   1.537  13.491  0.1113 -0.4525  0.0320
  467TMC3    O2 6961   2.255   1.793  12.968 -0.7885 -0.1347  0.3218
  468MPD2     C 6962   0.983   0.170  11.074  0.5954  0.1421 -0.2428
  468MPD2    C1 6963   1.104   0.157  11.009  0.3488  0.6469  0.5747
  468MPD2    C2 6964   1.147   0.028  10.987  0.2624  0.1290 -0.1362
  468MPD2    C3 6965   1.067   4.644  11.022  0.4967 -0.5353  0.5109
  468MPD2    C4 6966   0.950   4.662  11.092  0.1243  0.2350 -1.1171
  468MPD2    C5 6967   0.908   0.067  11.112 -0.1557  0.3881 -0.6947
  468MPD2     H 6968   1.240   0.019  10.930  0.4578 -0.3299  0.2527
  468MPD2    H1 6969   0.897   4.575  11.130 -1.8722  1.7574 -0.4245
  468MPD2    H2 6970   0.959   0.269  11.112 -2.3606 -0.5082 -0.4004
  468MPD2    H3 6971   0.818   0.084  11.170  0.5444 -0.7166  0.7153
  468MPD2     N 6972   1.102   4.509  10.995  0.5601 -0.3883 -0.0365
  468MPD2    H5 6973   1.035   4.440  11.027  0.1103  0.9742  1.9667
  468MPD2    N1 6974   1.191   0.266  10.965  1.0375 -0.3413  0.2289
  468MPD2    H7 6975   1.272   0.235  10.912  3.2457  2.0126  2.2737
  469TMC3    C1 6976   1.270   0.490  10.940  0.1493  0.1604 -0.3186
  469TMC3    C2 6977   1.299   0.579  11.028  0.0337  0.8686 -0.1835
  469TMC3    C3 6978   1.414   0.654  10.996 -0.9960 -0.5900  0.1520
  469TMC3    C4 6979   1.324   0.486  10.816  0.4624  0.3324  0.4964
  469TMC3    C5 6980   1.431   0.567  10.785  0.6499 -0.0167 -0.0521
  469TMC3    C6 6981   1.476   0.655  10.877  0.7120 -0.2898 -0.2268
  469TMC3     C 6982   1.165   0.401  10.992  0.0439  0.2723 -0.4680
  469TMC3     O 6983   1.076   0.454  11.059  0.6413  0.0356  0.4578
  469TMC3     H 6984   1.263   0.582  11.130 -1.0956  0.7639 -0.5856
  469TMC3    H1 6985   1.307   0.406  10.745 -0.4959 -1.7249  3.0289
  469TMC3    H2 6986   1.572   0.700  10.853 -0.4930  1.9601 -0.9286
  469TMC3    C7 6987   1.542   0.516  10.691  0.3224  0.0777  0.3112
  469TMC3    C8 6988   1.511   0.689  11.102  0.0742 -0.5380  0.5556
  469TMC3    O1 6989   1.540   0.393  10.676 -0.0843  0.3120 -0.0219
  469TMC3    O2 6990   1.624   0.725  11.070 -0.0908  0.1601 -0.0006
  470TMC3    C1 6991   3.411   0.947   1.037 -0.1214  0.3555 -0.2557
  470TMC3    C2 6992   3.461   1.069   1.066  0.4360 -0.1681 -0.0166
  470TMC3    C3 6993   3.582   1.078   1.136  0.0148  0.3175 -0.4424
  470TMC3    C4 6994   3.462   0.833   1.087  1.2192 -0.0188 -0.1283
  470TMC3    C5 6995   3.573   0.848   1.173 -0.7268 -0.5921  0.0402
  470TMC3    C6 6996   3.641   0.965   1.184  0.6234  0.2414 -0.7766
  470TMC3     C 6997   3.280   0.936   0.985 -0.3447 -0.5470 -0.2573
  470TMC3     O 6998   3.199   0.858   1.035 -0.1811 -0.1578 -0.0213
  470TMC3     H 6999   3.415   1.159   1.029  3.0865  0.7783 -0.9935
  470TMC3    H1 7000   3.410   0.741   1.064 -1.5033  1.2590  0.9358
  470TMC3    H2 7001   3.736   0.967   1.236  0.4309  2.4661 -0.4843
  470TMC3    C7 7002   3.607   0.734   1.257 -1.0543  0.3260  0.2785
  470TMC3    C8 7003   3.609   1.207   1.197  0.6611  0.0687  0.5811
  470TMC3    O1 7004   3.715   0.739   1.315  0.2515 -0.1833 -0.3105
  470TMC3    O2 7005   3.509   1.267   1.229  0.1027  0.0335  0.0061
  471MPD2     C 7006   3.375   2.337  16.833 -0.1714 -0.2727  0.2231
  471MPD2    C1 7007   3.487   2.289  16.762 -0.0693  0.3469  0.0443
  471MPD2    C2 7008   3.616   2.312  16.802  0.6810  0.6430  0.6487
  471MPD2    C3 7009   3.646   2.380  16.906 -0.6690 -0.0581  0.6803
  471MPD2    C4 7010   3.540   2.427  16.980 -0.0486  0.1452 -0.3543
  471MPD2    C5 7011   3.413   2.396  16.950  0.1216  0.3440 -0.2022
  471MPD2     H 7012   3.692   2.273  16.735 -0.2204  0.8731 -0.5125
  471MPD2    H1 7013   3.549   2.488  17.069  0.6360  2.3688 -1.9695
  471MPD2    H2 7014   3.272   2.322  16.801 -0.7788 -0.8943  2.4882
  471MPD2    H3 7015   3.336   2.420  17.022 -0.0358  0.0254 -0.2656
  471MPD2     N 7016   3.775   2.397  16.959  0.1123  0.8489 -0.1491
  471MPD2    H5 7017   3.778   2.441  17.050  1.1800  1.5153 -0.5118
  471MPD2    N1 7018   3.481   2.227  16.640 -0.3062  0.6028  0.2923
  471MPD2    H7 7019   3.571   2.189  16.609 -0.8296 -0.3206 -0.0981
  472TMC3    C1 7020   3.406   2.087  16.474 -0.1088  0.2696 -0.2847
  472TMC3    C2 7021   3.311   2.070  16.377 -0.2364  0.3280 -0.4555
  472TMC3    C3 7022   3.301   1.950  16.321 -0.0470  0.7570 -0.3386
  472TMC3    C4 7023   3.507   1.999  16.501 -1.1322 -0.4691  0.5437
  472TMC3    C5 7024   3.492   1.878  16.438  0.0901 -0.0801 -0.5277
  472TMC3    C6 7025   3.398   1.851  16.340 -0.2231 -0.2832  0.1835
  472TMC3     C 7026   3.376   2.197  16.565 -0.5823  0.0631  0.0452
  472TMC3     O 7027   3.259   2.219  16.584  0.0960 -0.0081  0.6389
  472TMC3     H 7028   3.236   2.147  16.366  1.3034  1.8532 -0.3105
  472TMC3    H1 7029   3.581   2.012  16.579  1.4397 -0.0504 -1.9715
  472TMC3    H2 7030   3.378   1.754  16.296 -0.9571 -0.1274  0.1810
  472TMC3    C7 7031   3.580   1.772  16.472 -1.3635 -0.1743  0.3264
  472TMC3    C8 7032   3.165   1.905  16.280 -0.4454 -0.3193 -0.0311
  472TMC3    O1 7033   3.613   1.760  16.590  0.3431 -0.0427  0.4614
  472TMC3    O2 7034   3.088   1.992  16.243 -0.8488 -0.5724 -0.5251
  473MPD2     C 7035   3.937   4.213  14.008  0.6471 -0.5189 -0.6832
  473MPD2    C1 7036   4.063   4.282  13.975  0.4898  0.0145  0.2151
  473MPD2    C2 7037   4.129   4.349  14.076  0.0521  0.2271 -0.5372
  473MPD2    C3 7038   4.071   4.370  14.195  0.0027  0.0716 -0.0284
  473MPD2    C4 7039   3.947   4.321  14.223 -0.1619  0.0643  0.3176
  473MPD2    C5 7040   3.889   4.238  14.131  0.2062 -0.9509  0.3860
  473MPD2     H 7041   4.223   4.398  14.056 -0.3502  1.0535 -0.4312
  473MPD2    H1 7042   3.900   4.339  14.319  0.4493 -1.4929  0.9343
  473MPD2    H2 7043   3.882   4.140  13.950 -0.6428 -0.5649  0.6077
  473MPD2    H3 7044   3.800   4.185  14.162 -0.3754 -0.4254 -0.4104
  473MPD2     N 7045   4.126   4.461  14.286  0.5195  0.3909  0.5891
  473MPD2    H5 7046   4.066   4.490  14.362 -0.0172 -1.2869  0.8187
  473MPD2    N1 7047   4.110   4.282  13.841 -0.5855 -0.0353 -0.1526
  473MPD2    H7 7048   4.199   4.329  13.824  0.2020 -1.9796 -1.4384
  474TMC3    C1 7049   4.278   4.587  14.408  0.6468  0.4858  0.7793
  474TMC3    C2 7050   4.191   4.695  14.443 -0.0325  0.3791 -0.2605
  474TMC3    C3 7051   4.205   0.029  14.562  0.0430 -0.0798  1.0326
  474TMC3    C4 7052   4.375   4.549  14.501 -0.0173  0.1802 -0.2740
  474TMC3    C5 7053   4.391   4.618  14.617 -0.0702 -0.0771  0.2072
  474TMC3    C6 7054   4.304   4.721  14.650  0.5043 -0.4195 -0.0512
  474TMC3     C 7055   4.258   4.490  14.300 -0.2722 -0.8910  0.2530
  474TMC3     O 7056   4.351   4.416  14.267 -0.1041 -0.4451  0.1064
  474TMC3     H 7057   4.115   0.006  14.374 -3.3554 -1.3335  2.4988
  474TMC3    H1 7058   4.448   4.479  14.464  2.6865  2.3591  1.0050
  474TMC3    H2 7059   4.318   0.042  14.747 -0.9907 -0.9396  0.4091
  474TMC3    C7 7060   4.525   4.613  14.677 -0.4074 -1.1049 -0.2302
  474TMC3    C8 7061   4.121   0.143  14.602 -0.3668  0.5461 -0.0353
  474TMC3    O1 7062   4.605   4.554  14.610  0.0903  0.0663  0.2466
  474TMC3    O2 7063   4.104   0.161  14.725  0.0525  0.0191 -0.4764
  475MPD2     C 7064   2.507   1.881  10.112 -0.0657  0.3264  0.4873
  475MPD2    C1 7065   2.606   1.980  10.105  0.6721  0.1909  0.0447
  475MPD2    C2 7066   2.597   2.090  10.191  0.4285 -0.7783 -0.4125
  475MPD2    C3 7067   2.502   2.101  10.284  0.2586  0.5916  0.8944
  475MPD2    C4 7068   2.408   1.999  10.297  0.0591  0.8079  0.5894
  475MPD2    C5 7069   2.411   1.890  10.211  0.7030 -0.3028  0.2257
  475MPD2     H 7070   2.665   2.174  10.179 -2.1256  1.1053 -1.7105
  475MPD2    H1 7071   2.315   2.013  10.352  0.7958  1.0583  1.7831
  475MPD2    H2 7072   2.519   1.793  10.050 -0.1685  0.2040  0.6409
  475MPD2    H3 7073   2.335   1.815  10.232 -0.0888  0.3578 -0.2611
  475MPD2     N 7074   2.492   2.222  10.357  0.1485 -0.1776  0.1508
  475MPD2    H5 7075   2.544   2.304  10.328  0.7214 -0.6892 -0.2543
  475MPD2    N1 7076   2.707   1.962  10.014  0.3567 -0.0422 -0.7834
  475MPD2    H7 7077   2.703   1.889   9.945  0.7644 -0.4142 -0.4072
  476TMC3    C1 7078   2.875   2.049   9.876  0.0789 -0.2595 -0.1523
  476TMC3    C2 7079   2.778   2.102   9.797  0.2062 -0.9653  0.8151
  476TMC3    C3 7080   2.767   2.235   9.775  0.1391 -0.8767 -0.2096
  476TMC3    C4 7081   2.992   2.118   9.885  0.2720  0.1954  0.0564
  476TMC3    C5 7082   2.988   2.245   9.841  0.0747  0.0880  0.0199
  476TMC3    C6 7083   2.879   2.317   9.795 -0.2249 -1.0239  0.2557
  476TMC3     C 7084   2.814   2.048  10.006  0.9517 -0.4449  0.3400
  476TMC3     O 7085   2.862   2.118  10.093  0.6116 -0.1260 -0.3464
  476TMC3     H 7086   2.695   2.032   9.781  1.3805 -1.7636 -1.8159
  476TMC3    H1 7087   3.082   2.077   9.929  0.5097  1.1821  0.4958
  476TMC3    H2 7088   2.872   2.422   9.770  0.5921 -0.7066  1.3750
  476TMC3    C7 7089   3.110   2.317   9.843 -0.3230 -0.2211  0.4689
  476TMC3    C8 7090   2.643   2.299   9.816  0.5263  0.1422 -0.1749
  476TMC3    O1 7091   3.214   2.258   9.813 -0.0274 -0.2825  0.3170
  476TMC3    O2 7092   2.649   2.421   9.842 -0.0043 -0.0484  0.1769
  477MPD2     C 7093   4.633   3.638  11.294  0.1335  0.6046  0.9654
  477MPD2    C1 7094   4.529   3.675  11.386 -0.3415 -0.0717  0.2204
  477MPD2    C2 7095   4.567   3.698  11.518  0.6540 -0.0328  0.1887
  477MPD2    C3 7096   4.696   3.662  11.565 -0.2110 -0.1527 -0.1821
  477MPD2    C4 7097   0.061   3.619  11.469 -0.3893  0.1320  0.6033
  477MPD2    C5 7098   0.030   3.601  11.337 -0.3829  1.1057  0.3741
  477MPD2     H 7099   4.486   3.736  11.580 -0.1981  1.2616 -1.6924
  477MPD2    H1 7100   0.165   3.597  11.488 -0.4456  1.2470  2.1596
  477MPD2    H2 7101   4.624   3.621  11.187 -0.0885  1.5682  0.8298
  477MPD2    H3 7102   0.100   3.564  11.264 -2.3463  0.3864 -1.1258
  477MPD2     N 7103   0.010   3.678  11.696 -0.3144  0.0362  0.1551
  477MPD2    H5 7104   0.101   3.642  11.720 -1.2449 -0.1381  3.3609
  477MPD2    N1 7105   4.399   3.694  11.331  0.6157 -0.1204  0.4481
  477MPD2    H7 7106   4.325   3.747  11.374  0.2311 -1.0198  0.8822
  478TMC3    C1 7107   4.240   3.679  11.145  0.4562 -0.4372 -0.1291
  478TMC3    C2 7108   4.157   3.767  11.211  0.6460  0.0081  0.1587
  478TMC3    C3 7109   4.052   3.824  11.140 -0.2934  0.5229 -0.5367
  478TMC3    C4 7110   4.219   3.650  11.015  0.5935  0.3507  0.0544
  478TMC3    C5 7111   4.141   3.731  10.943  0.8984  0.1267  0.0333
  478TMC3    C6 7112   4.057   3.822  11.003  0.1766  0.0026 -0.0178
  478TMC3     C 7113   4.366   3.632  11.209 -0.0655  0.3210 -0.4644
  478TMC3     O 7114   4.420   3.534  11.155  0.3858 -0.7092 -0.2402
  478TMC3     H 7115   4.151   3.776  11.319 -2.9828  1.1391 -0.1261
  478TMC3    H1 7116   4.288   3.581  10.968  0.8870  0.6980 -0.0217
  478TMC3    H2 7117   3.988   3.887  10.950 -1.2277  0.0138  1.8339
  478TMC3    C7 7118   4.155   3.708  10.798  0.2512  0.6923 -0.0927
  478TMC3    C8 7119   3.996   3.936  11.219  0.5581 -0.1611  0.0064
  478TMC3    O1 7120   4.203   3.601  10.768 -0.3719 -0.3557 -0.1746
  478TMC3    O2 7121   3.940   3.910  11.327 -0.4861  0.6559 -0.5297
  479MPD2     C 7122   3.681   1.513  14.930  0.4636 -0.5290  0.0132
  479MPD2    C1 7123   3.633   1.438  15.040 -0.5841 -0.3045 -0.1093
  479MPD2    C2 7124   3.696   1.430  15.161 -0.2509 -0.4558  0.1155
  479MPD2    C3 7125   3.811   1.510  15.172  0.1258  0.6970  0.0236
  479MPD2    C4 7126   3.859   1.580  15.059  0.7977  0.2324 -0.5197
  479MPD2    C5 7127   3.789   1.588  14.943 -0.1443  0.4186 -0.1268
  479MPD2     H 7128   3.658   1.365  15.238  0.5980  1.3259  2.0241
  479MPD2    H1 7129   3.941   1.651  15.066  1.0999 -0.3796  2.3200
  479MPD2    H2 7130   3.616   1.526  14.844  2.9036  1.6118 -1.4864
  479MPD2    H3 7131   3.813   1.655  14.862  1.6203  0.4668  0.4386
  479MPD2     N 7132   3.883   1.527  15.291  0.2293  0.4290 -0.1571
  479MPD2    H5 7133   3.974   1.571  15.283  0.6558 -0.3999  0.0957
  479MPD2    N1 7134   3.508   1.374  15.013  0.2848  0.0357 -0.2490
  479MPD2    H7 7135   3.477   1.396  14.919 -2.1751 -1.3042  0.2393
  480TMC3    C1 7136   3.541   1.428  15.607  0.0556 -0.2468  0.1720
  480TMC3    C2 7137   3.454   1.511  15.549 -0.3311  0.3132 -0.0769
  480TMC3    C3 7138   3.499   1.598  15.456  0.1030 -0.5340 -0.2260
  480TMC3    C4 7139   3.667   1.401  15.559 -0.5577 -0.1389  0.0073
  480TMC3    C5 7140   3.709   1.491  15.465 -0.3082  0.6323  0.0887
  480TMC3    C6 7141   3.624   1.582  15.406 -0.2429 -0.4965 -0.3938
  480TMC3     C 7142   3.496   1.351  15.719  0.2607  0.3286 -0.1387
  480TMC3     O 7143   3.566   1.255  15.748 -0.3459  0.5005 -1.2936
  480TMC3     H 7144   3.348   1.493  15.563 -0.1303  0.3071  1.4629
  480TMC3    H1 7145   3.727   1.324  15.607  1.5079  0.3410 -1.7946
  480TMC3    H2 7146   3.656   1.654  15.332 -1.2959  0.7230  0.3625
  480TMC3    C7 7147   3.847   1.488  15.419 -0.2999  0.3608  0.2173
  480TMC3    C8 7148   3.397   1.660  15.370 -0.1742 -0.1851 -0.8124
  480TMC3    O1 7149   3.933   1.470  15.505  0.1819 -0.3970 -0.1990
  480TMC3    O2 7150   3.291   1.681  15.425  0.7322 -0.0768  0.2892
  481MPD2     C 7151   0.238   0.301  14.134  0.0488 -0.7115  0.3111
  481MPD2    C1 7152   0.148   0.399  14.174 -0.1570  0.8333 -0.5424
  481MPD2    C2 7153   0.169   0.452  14.307 -0.0186 -0.0841  0.0032
  481MPD2    C3 7154   0.293   0.453  14.370  0.4671 -0.6066 -0.0142
  481MPD2    C4 7155   0.387   0.371  14.312  0.5385 -0.4781 -0.6066
  481MPD2    C5 7156   0.351   0.292  14.204  0.3611 -0.1639  0.1942
  481MPD2     H 7157   0.096   0.518  14.352 -1.0331 -0.4912 -1.0661
  481MPD2    H1 7158   0.485   0.354  14.355  0.8126  0.3570 -0.9017
  481MPD2    H2 7159   0.219   0.231  14.054  3.1834 -2.3440  1.0300
  481MPD2    H3 7160   0.423   0.221  14.166  0.0632 -0.7825  0.7790
  481MPD2     N 7161   0.335   0.531  14.473 -0.0459 -0.2322  0.3160
  481MPD2    H5 7162   0.432   0.519  14.501 -0.2424 -0.4697  0.8954
  481MPD2    N1 7163   0.031   0.407  14.100  0.3881  0.0454 -0.9099
  481MPD2    H7 7164   0.028   0.364  14.008  1.5454 -0.0943 -0.8747
  482TMC3    C1 7165   4.529   0.421  14.049  0.2946  0.3591  0.8266
  482TMC3    C2 7166   4.552   0.326  13.949  0.0426  0.3766 -0.3412
  482TMC3    C3 7167   4.457   0.312  13.849  0.4431  0.1478  0.2425
  482TMC3    C4 7168   4.402   0.478  14.066 -0.1068  0.3424  0.4395
  482TMC3    C5 7169   4.304   0.446  13.975  0.0563 -0.2706  1.0245
  482TMC3    C6 7170   4.332   0.365  13.867 -0.8159  0.5986  0.0999
  482TMC3     C 7171   4.635   0.451  14.146 -0.6534  0.5980  0.7961
  482TMC3     O 7172   4.616   0.505  14.254  0.2124 -0.1192  0.7167
  482TMC3     H 7173   4.646   0.272  13.943 -0.3047 -0.5522  2.3795
  482TMC3    H1 7174   4.398   0.547  14.150 -0.1354  1.5746 -0.5748
  482TMC3    H2 7175   4.250   0.350  13.798 -0.4509 -1.5264  0.1301
  482TMC3    C7 7176   4.176   0.520  13.972 -0.0466  0.6378 -0.0544
  482TMC3    C8 7177   4.484   0.220  13.739 -0.7647  1.3510 -0.4197
  482TMC3    O1 7178   4.120   0.543  14.080 -0.2363  0.8844  0.2762
  482TMC3    O2 7179   4.577   0.146  13.766 -0.0258  0.2360  0.4227
  483TMC3    C1 7180   2.507   0.004   0.569 -0.0518  0.8628 -1.3248
  483TMC3    C2 7181   2.571   0.124   0.576 -0.7092 -0.0574 -0.6741
  483TMC3    C3 7182   2.649   0.151   0.684  0.8256  0.2688 -0.2806
  483TMC3    C4 7183   2.509   4.644   0.677 -0.5676  0.0377 -0.4913
  483TMC3    C5 7184   2.613   4.666   0.767  0.1025 -0.0532  0.9265
  483TMC3    C6 7185   2.682   0.062   0.775  0.4982 -0.3351  0.0210
  483TMC3     C 7186   2.533   4.661   0.437 -0.3838 -0.0669  0.1495
  483TMC3     O 7187   2.518   0.005   0.339  0.1380  0.4023  0.0819
  483TMC3     H 7188   2.567   0.194   0.493 -1.5988 -0.1313 -0.6984
  483TMC3    H1 7189   2.466   4.545   0.668  1.8049 -1.3164  3.1292
  483TMC3    H2 7190   2.775   0.078   0.827 -0.8693  0.4349  2.2096
  483TMC3    C7 7191   2.702   4.549   0.758 -0.1525  0.5752 -0.3299
  483TMC3    C8 7192   2.759   0.234   0.642 -0.5025 -0.4009 -0.1972
  483TMC3    O1 7193   2.663   4.451   0.696  0.1966 -1.1528  0.2687
  483TMC3    O2 7194   2.791   0.233   0.524  0.4057  0.3433  0.1160
  484MPD2     C 7195   0.826   2.819  12.296 -1.4443 -0.6286 -0.0620
  484MPD2    C1 7196   0.888   2.707  12.347  0.8207 -0.0986 -0.6430
  484MPD2    C2 7197   1.025   2.707  12.367  0.2202 -0.0708 -0.2943
  484MPD2    C3 7198   1.096   2.815  12.331  0.0071 -0.7561 -0.6370
  484MPD2    C4 7199   1.040   2.927  12.282 -0.3428  0.0747  0.8304
  484MPD2    C5 7200   0.905   2.926  12.258 -0.0928  0.7610  0.5006
  484MPD2     H 7201   1.071   2.616  12.403  1.9635  1.0220  0.2297
  484MPD2    H1 7202   1.095   3.018  12.260  1.8034 -1.0530  1.5999
  484MPD2    H2 7203   0.721   2.819  12.269 -1.7238 -0.2112  1.0495
  484MPD2    H3 7204   0.855   3.013  12.217  3.5131  3.1187  1.1175
  484MPD2     N 7205   1.237   2.828  12.345  0.1133 -0.4183 -0.1777
  484MPD2    H5 7206   1.281   2.914  12.317  1.8944 -2.5026 -3.8277
  484MPD2    N1 7207   0.804   2.602  12.397 -0.1062  0.2988  0.2214
  484MPD2    H7 7208   0.706   2.604  12.371 -0.2332 -0.0894  0.6824
  485TMC3    C1 7209   1.450   2.778  12.424  0.1538 -0.6976 -0.5757
  485TMC3    C2 7210   1.541   2.689  12.485  0.2118 -0.2094  0.3313
  485TMC3    C3 7211   1.679   2.724  12.495 -0.0930  0.5573  0.6896
  485TMC3    C4 7212   1.491   2.888  12.357 -0.0149 -0.5978  0.1297
  485TMC3    C5 7213   1.625   2.924  12.373 -0.0003 -0.0075 -0.0250
  485TMC3    C6 7214   1.712   2.846  12.447 -0.0952  0.2356 -0.3820
  485TMC3     C 7215   1.318   2.735  12.407 -0.6779 -0.4936  0.3674
  485TMC3     O 7216   1.298   2.618  12.433 -0.4217  0.8534 -0.5206
  485TMC3     H 7217   1.508   2.592  12.520 -3.0756  1.0752  0.7823
  485TMC3    H1 7218   1.439   2.955  12.289  0.1506 -1.4465 -0.8362
  485TMC3    H2 7219   1.810   2.889  12.463 -0.3933  1.1010 -0.8789
  485TMC3    C7 7220   1.687   2.982  12.257 -0.0786  1.0246 -0.8964
  485TMC3    C8 7221   1.782   2.630  12.446  0.0751 -0.3362  1.2745
  485TMC3    O1 7222   1.634   3.076  12.195 -0.3353 -0.7668  0.1399
  485TMC3    O2 7223   1.869   2.682  12.377 -1.2511 -0.0437 -0.1716
  486MPD2     C 7224   3.564   1.487  12.764  0.5359 -0.2353 -0.2781
  486MPD2    C1 7225   3.457   1.445  12.688 -0.1567 -0.8554  0.0597
  486MPD2    C2 7226   3.350   1.533  12.669 -0.5249 -0.2673  0.0957
  486MPD2    C3 7227   3.362   1.667  12.712  0.1008 -0.3664  0.3835
  486MPD2    C4 7228   3.484   1.711  12.772 -0.2770  0.6514 -0.0047
  486MPD2    C5 7229   3.584   1.616  12.803 -0.5849 -0.4198  0.3675
  486MPD2     H 7230   3.266   1.519  12.602 -1.4128 -0.6569  1.2865
  486MPD2    H1 7231   3.512   1.812  12.801 -0.1693  0.5631  0.1975
  486MPD2    H2 7232   3.643   1.416  12.788  1.5462  0.0057 -2.9501
  486MPD2    H3 7233   3.671   1.644  12.863 -2.7999 -0.9245  3.8300
  486MPD2     N 7234   3.244   1.739  12.696 -1.1706  0.0668 -0.3082
  486MPD2    H5 7235   3.158   1.693  12.669 -0.7098 -0.4799 -0.8325
  486MPD2    N1 7236   3.451   1.309  12.646 -0.3601 -0.8015 -0.4770
  486MPD2    H7 7237   3.530   1.246  12.656  0.0705  0.0022  1.2360
  487TMC3    C1 7238   3.350   1.108  12.582 -0.9328 -0.3909 -0.5294
  487TMC3    C2 7239   3.272   1.044  12.484 -0.0118  0.5998  0.0439
  487TMC3    C3 7240   3.259   0.908  12.492 -0.2819 -0.7266 -0.3547
  487TMC3    C4 7241   3.428   1.045  12.670  0.6632 -0.0761  0.1879
  487TMC3    C5 7242   3.424   0.908  12.661  0.1415 -0.3764 -0.2174
  487TMC3    C6 7243   3.356   0.849  12.569  0.2146 -0.1657  0.5714
  487TMC3     C 7244   3.334   1.251  12.595  0.1893 -0.0404 -0.0654
  487TMC3     O 7245   3.226   1.297  12.565  0.3460 -0.4439  0.1817
  487TMC3     H 7246   3.205   1.100  12.421  1.7780  0.2155 -2.2016
  487TMC3    H1 7247   3.468   1.088  12.761  0.9465  0.2825 -0.1074
  487TMC3    H2 7248   3.364   0.741  12.569 -1.2584 -0.2665 -1.6840
  487TMC3    C7 7249   3.411   0.841  12.793 -0.3292 -0.6960 -0.1164
  487TMC3    C8 7250   3.132   0.883  12.555  0.2968  0.0079  0.1152
  487TMC3    O1 7251   3.382   0.912  12.887  0.2350  0.4529 -0.0162
  487TMC3    O2 7252   3.054   0.975  12.552  0.6183  0.3216 -0.2374
  488MPD2     C 7253   3.289   3.165  16.444 -0.0209 -0.1076  0.0664
  488MPD2    C1 7254   3.297   3.301  16.469 -0.2854  0.9506  0.3229
  488MPD2    C2 7255   3.223   3.350  16.579 -0.6885 -0.2549 -0.0989
  488MPD2    C3 7256   3.151   3.266  16.664  0.4484  0.4447 -0.6471
  488MPD2    C4 7257   3.139   3.128  16.624 -0.2057 -0.5353  0.3651
  488MPD2    C5 7258   3.202   3.086  16.510  1.0893  0.3785 -0.0136
  488MPD2     H 7259   3.244   3.451  16.611 -0.4417  0.2200 -1.7398
  488MPD2    H1 7260   3.079   3.053  16.673 -3.0279  1.9226  0.6559
  488MPD2    H2 7261   3.344   3.120  16.362  1.5007  0.9201  0.5254
  488MPD2    H3 7262   3.194   2.986  16.467 -0.9321 -0.5405  2.5037
  488MPD2     N 7263   3.106   3.321  16.789 -0.3911 -1.0474 -0.1131
  488MPD2    H5 7264   3.135   3.415  16.815 -0.0646 -1.1927  0.0394
  488MPD2    N1 7265   3.367   3.394  16.389 -0.3083 -0.7920 -0.2198
  488MPD2    H7 7266   3.355   3.488  16.425  0.9951 -1.4065  1.7954
  489TMC3    C1 7267   3.009   3.347  16.991  0.9476  0.2104  0.1381
  489TMC3    C2 7268   3.029   3.480  16.975  0.0858 -0.4626 -0.4845
  489TMC3    C3 7269   3.033   3.559  17.088 -0.0589 -0.1703  0.1409
  489TMC3    C4 7270   3.020   3.284  17.110 -0.0530 -0.3297  0.4100
  489TMC3    C5 7271   3.051   3.370  17.216  0.2551 -0.1649  0.0128
  489TMC3    C6 7272   3.053   3.506  17.213  0.4873 -0.2315  0.0759
  489TMC3     C 7273   3.026   3.261  16.879  0.1810  0.2197  0.3714
  489TMC3     O 7274   2.975   3.151  16.875 -0.5327 -0.2260  0.1786
  489TMC3     H 7275   2.990   3.528  16.886  0.0392 -1.2140 -0.8724
  489TMC3    H1 7276   3.022   3.176  17.124 -0.4365 -0.4414 -0.3871
  489TMC3    H2 7277   3.071   3.565  17.302  0.4396  0.5279 -0.4132
  489TMC3    C7 7278   3.067   3.311  17.350  0.2998 -0.0564  0.2307
  489TMC3    C8 7279   3.045   3.698  17.055  0.4149 -0.0179  0.4221
  489TMC3    O1 7280   3.082   3.390  17.443  0.0785  0.1270 -0.0446
  489TMC3    O2 7281   3.035   3.734  16.940  0.1726  0.0771 -0.5605
  490MPD2     C 7282   3.919   2.759  17.279 -0.7721  0.2453 -0.0931
  490MPD2    C1 7283   3.860   2.749  17.407 -0.7618  0.3996  0.5391
  490MPD2    C2 7284   3.896   2.831  17.505  0.2149  0.4920 -0.4201
  490MPD2    C3 7285   3.979   2.928  17.477  0.2980 -0.3062  0.1106
  490MPD2    C4 7286   4.036   2.948  17.352  0.0826  0.2131 -0.2514
  490MPD2    C5 7287   4.007   2.859  17.254  1.0988 -0.0772  0.0733
  490MPD2     H 7288   3.858   2.821  17.606  1.5304 -0.6017 -0.0303
  490MPD2    H1 7289   4.106   3.026  17.326  0.3936 -0.1550 -0.5298
  490MPD2    H2 7290   3.891   2.693  17.198  2.2540  0.1730 -1.0518
  490MPD2    H3 7291   4.051   2.876  17.156 -0.7879 -0.1847 -0.7889
  490MPD2     N 7292   4.014   3.028  17.576 -0.0760  0.4255 -0.3760
  490MPD2    H5 7293   4.081   3.096  17.540  0.8206 -0.1979  0.1334
  490MPD2    N1 7294   3.769   2.646  17.437 -0.0772  0.3155  0.1383
  490MPD2    H7 7295   3.737   2.642  17.533  1.3469  1.3438  0.6447
  491TMC3    C1 7296   3.625   2.449  17.410  0.2851  0.1860 -0.2533
  491TMC3    C2 7297   3.583   2.458  17.538  0.1806  0.1632 -0.4652
  491TMC3    C3 7298   3.515   2.352  17.590  0.3679 -0.1835 -0.2505
  491TMC3    C4 7299   3.594   2.339  17.332 -0.3584 -0.1905  0.2934
  491TMC3    C5 7300   3.516   2.237  17.386  0.1688  0.1336 -0.0858
  491TMC3    C6 7301   3.472   2.246  17.518 -0.3347 -0.1815 -0.0452
  491TMC3     C 7302   3.705   2.559  17.350 -0.2422 -0.1611  0.1870
  491TMC3     O 7303   3.722   2.545  17.231  0.1506 -0.0691 -0.0920
  491TMC3     H 7304   3.609   2.544  17.598  1.0923  0.5817 -1.4432
  491TMC3    H1 7305   3.620   2.342  17.227  1.0232  0.2396  0.6556
  491TMC3    H2 7306   3.420   2.164  17.566 -0.6708 -1.2321 -2.1722
  491TMC3    C7 7307   3.452   2.147  17.289 -0.2125  0.4586  0.3483
  491TMC3    C8 7308   3.477   2.369   0.027 -1.2065  0.1061  0.9030
  491TMC3    O1 7309   3.346   2.096  17.323  0.1267  0.8695  0.2048
  491TMC3    O2 7310   3.468   2.486   0.071  0.2206 -0.2716  0.3953
  492MPD2     C 7311   4.626   2.481  11.641  0.0098 -0.1025  0.0303
  492MPD2    C1 7312   4.529   2.516  11.554  0.3514  0.5841 -1.0776
  492MPD2    C2 7313   4.398   2.522  11.594  0.6457  0.5409 -0.6541
  492MPD2    C3 7314   4.359   2.493  11.721 -0.5173 -0.6442 -0.7764
  492MPD2    C4 7315   4.458   2.463  11.810  0.8663  0.5734 -0.2971
  492MPD2    C5 7316   4.582   2.450  11.767  0.9388 -0.5055  0.0131
  492MPD2     H 7317   4.325   2.562  11.524 -0.7575  2.7233  2.0518
  492MPD2    H1 7318   4.432   2.447  11.914  2.1024 -1.6566 -0.3236
  492MPD2    H2 7319   0.009   2.469  11.630  0.0820  1.0365 -0.4368
  492MPD2    H3 7320   4.651   2.408  11.840  1.3316  0.4922  0.2175
  492MPD2     N 7321   4.230   2.508  11.769  0.2033  0.4427  0.1904
  492MPD2    H5 7322   4.200   2.489  11.864 -1.6870 -3.5891 -1.1948
  492MPD2    N1 7323   4.574   2.536  11.417  0.5169  0.7518 -0.5222
  492MPD2    H7 7324   4.675   2.540  11.405  0.3043  0.7351 -2.1987
  493TMC3    C1 7325   4.566   2.577  11.186  0.1915  0.5884  0.3834
  493TMC3    C2 7326   4.693   2.627  11.184 -0.1057 -0.3198 -0.1135
  493TMC3    C3 7327   0.016   2.655  11.057 -0.3063  0.4764  0.1110
  493TMC3    C4 7328   4.501   2.544  11.067 -0.1380 -0.5643 -0.0266
  493TMC3    C5 7329   4.563   2.548  10.948 -0.1065  0.2167 -0.9195
  493TMC3    C6 7330   4.681   2.614  10.938  0.0988  0.0562  0.3565
  493TMC3     C 7331   4.494   2.563  11.309  0.8496 -0.1999 -0.6668
  493TMC3     O 7332   4.377   2.552  11.300 -0.6243 -0.1115 -0.0945
  493TMC3     H 7333   0.026   2.662  11.269  0.0088  2.7147 -1.4373
  493TMC3    H1 7334   4.400   2.504  11.066  0.0939 -1.1494  0.1710
  493TMC3    H2 7335   0.014   2.600  10.847  0.9354 -0.3875  0.9596
  493TMC3    C7 7336   4.513   2.470  10.830 -0.1255 -0.4257 -0.0301
  493TMC3    C8 7337   0.153   2.698  11.054  0.1626  0.2416 -0.4299
  493TMC3    O1 7338   4.548   2.510  10.722  0.2539 -0.4506 -0.0214
  493TMC3    O2 7339   0.225   2.646  11.136  0.1229  0.5221  0.2306
  494TMC3    C1 7340   0.273   4.530   0.604  1.1533  0.2386  0.1120
  494TMC3    C2 7341   0.275   4.393   0.603  1.0738  0.1745 -0.1711
  494TMC3    C3 7342   0.329   4.336   0.484 -0.7076  0.4938  0.3993
  494TMC3    C4 7343   0.319   4.610   0.500 -0.0759  0.4953  0.2170
  494TMC3    C5 7344   0.377   4.543   0.391 -0.2691 -0.1223 -0.1496
  494TMC3    C6 7345   0.380   4.405   0.378 -0.5312  0.2859  0.4970
  494TMC3     C 7346   0.152   4.582   0.673 -0.4415  0.8852 -1.0383
  494TMC3     O 7347   0.078   4.495   0.716 -0.0885 -0.1792  0.7344
  494TMC3     H 7348   0.237   4.332   0.684 -1.8628  0.9540 -0.9627
  494TMC3    H1 7349   0.298   4.717   0.496  2.1639  0.9369 -0.2140
  494TMC3    H2 7350   0.426   4.369   0.286 -2.2832  2.2973 -1.1626
  494TMC3    C7 7351   0.408   4.625   0.271  0.8205  0.3909 -0.3802
  494TMC3    C8 7352   0.314   4.195   0.474 -0.2678 -0.7878  0.4462
  494TMC3    O1 7353   0.403   4.568   0.163 -0.1412 -0.2675 -0.3937
  494TMC3    O2 7354   0.324   4.135   0.582 -0.1556 -0.0374  0.4651
  495TMC3    C1 7355   3.635   1.897  14.456  0.4455 -0.2932 -0.5513
  495TMC3    C2 7356   3.562   1.875  14.345 -0.1867  0.1257 -0.0507
  495TMC3    C3 7357   3.428   1.856  14.367 -0.3812  1.3944 -0.2740
  495TMC3    C4 7358   3.584   1.911  14.581  0.0756 -0.6335  0.4678
  495TMC3    C5 7359   3.454   1.874  14.602 -0.6693  0.4510 -0.0861
  495TMC3    C6 7360   3.376   1.848  14.494 -0.0235 -0.7713  0.1615
  495TMC3     C 7361   3.767   1.936  14.429 -0.1235 -0.8131 -0.1611
  495TMC3     O 7362   3.789   2.002  14.330 -0.1743 -0.4127  0.1967
  495TMC3     H 7363   3.600   1.874  14.244 -0.7166 -2.7303 -0.2334
  495TMC3    H1 7364   3.648   1.951  14.659  1.6844 -2.0740 -0.1319
  495TMC3    H2 7365   3.271   1.824  14.505 -0.3056 -0.8071 -2.7557
  495TMC3    C7 7366   3.440   1.822  14.740 -0.0063  0.1891  0.3318
  495TMC3    C8 7367   3.346   1.795  14.257  0.0679 -0.4115  0.1665
  495TMC3    O1 7368   3.539   1.838  14.811 -0.3674 -0.3097 -0.6400
  495TMC3    O2 7369   3.224   1.801  14.273  0.2434  0.0113  0.1255
  496MPD2     C 7370   0.997   1.593  14.885  0.3048 -0.4573 -0.3183
  496MPD2    C1 7371   1.041   1.559  15.012 -0.4896  0.0622 -0.5235
  496MPD2    C2 7372   0.981   1.617  15.120 -0.0124 -0.5306  0.1493
  496MPD2    C3 7373   0.858   1.679  15.111 -0.1428 -0.4145  0.8526
  496MPD2    C4 7374   0.808   1.689  14.983 -0.6379 -0.7868 -0.4733
  496MPD2    C5 7375   0.878   1.661  14.872 -0.3179 -0.5523 -0.0589
  496MPD2     H 7376   1.020   1.609  15.221 -0.9367 -0.7561  0.4943
  496MPD2    H1 7377   0.707   1.724  14.966 -1.0357 -0.7596  1.9620
  496MPD2    H2 7378   1.036   1.561  14.789  0.2170 -1.0093 -0.1702
  496MPD2    H3 7379   0.823   1.674  14.779 -0.5059  0.5493  0.2083
  496MPD2     N 7380   0.777   1.701  15.224 -0.0394  0.6764 -0.5728
  496MPD2    H5 7381   0.680   1.728  15.215 -0.3861 -1.8422 -4.1549
  496MPD2    N1 7382   1.169   1.487  15.011  0.1289  0.2761 -0.9847
  496MPD2    H7 7383   1.198   1.444  14.924  2.3878 -1.9595  0.8270
  497TMC3    C1 7384   0.703   1.721  15.440  0.0356 -0.7152  0.5683
  497TMC3    C2 7385   0.577   1.673  15.412  0.5269 -0.8390  0.1090
  497TMC3    C3 7386   0.486   1.680  15.502  0.5543  1.1679  0.6047
  497TMC3    C4 7387   0.731   1.776  15.564  0.5384 -0.4829  0.0195
  497TMC3    C5 7388   0.633   1.782  15.660 -0.4772  0.0830  0.2081
  497TMC3    C6 7389   0.510   1.725  15.629 -0.0382  0.3489 -0.1409
  497TMC3     C 7390   0.816   1.700  15.354  0.1818 -0.1396  0.0403
  497TMC3     O 7391   0.924   1.692  15.406 -0.0488 -0.6137  0.3469
  497TMC3     H 7392   0.564   1.635  15.311 -3.3959 -2.4867  1.2236
  497TMC3    H1 7393   0.821   1.832  15.584 -0.7872  1.5012  0.4627
  497TMC3    H2 7394   0.432   1.734  15.705  1.3091  0.2811  1.2620
  497TMC3    C7 7395   0.619   1.914  15.730  0.6248  0.2633  0.0349
  497TMC3    C8 7396   0.363   1.610  15.465 -0.3984 -0.1653  0.8297
  497TMC3    O1 7397   0.508   1.933  15.779  0.2111 -0.0719  0.0429
  497TMC3    O2 7398   0.378   1.518  15.384  0.1120  0.1921 -0.0876
  498MPD2     C 7399   1.763   2.080   9.655 -0.4310 -0.2586  0.3061
  498MPD2    C1 7400   1.786   2.149   9.772  0.0801  1.1758  0.5506
  498MPD2    C2 7401   1.709   2.131   9.886  0.0961 -0.3761  0.2428
  498MPD2    C3 7402   1.611   2.042   9.885 -0.0976 -0.6136  0.5539
  498MPD2    C4 7403   1.577   1.977   9.765 -0.1797 -0.2842 -0.3069
  498MPD2    C5 7404   1.655   1.993   9.655 -0.1363 -0.0236  0.0302
  498MPD2     H 7405   1.739   2.188   9.973 -0.9255 -0.4394  0.6316
  498MPD2    H1 7406   1.494   1.910   9.747 -1.4408  0.4929  2.4954
  498MPD2    H2 7407   1.826   2.093   9.568 -0.4543  0.6072  0.4111
  498MPD2    H3 7408   1.638   1.937   9.563 -0.1718 -1.2738  0.7955
  498MPD2     N 7409   1.529   2.040  10.000  0.1276  0.2524  0.1135
  498MPD2    H5 7410   1.565   2.092  10.080 -1.3611  1.3431  0.0548
  498MPD2    N1 7411   1.875   2.256   9.777  0.3722  0.0966  0.0636
  498MPD2    H7 7412   1.869   2.329   9.847  0.7779  1.7712 -1.6321
  499TMC3    C1 7413   2.044   2.397   9.693  0.4160  0.1286  0.1730
  499TMC3    C2 7414   2.175   2.399   9.653  0.2499  0.3023  0.4346
  499TMC3    C3 7415   2.226   2.519   9.615  0.4738  1.1000  0.0842
  499TMC3    C4 7416   1.967   2.506   9.707 -0.1289  0.0177  0.6029
  499TMC3    C5 7417   2.028   2.625   9.677 -0.4552 -0.0725 -0.1890
  499TMC3    C6 7418   2.152   2.635   9.621  0.4367  0.4884 -0.6655
  499TMC3     C 7419   1.982   2.270   9.692 -0.4544  0.4032 -0.3603
  499TMC3     O 7420   2.048   2.183   9.637  0.4633 -0.1986  0.2086
  499TMC3     H 7421   2.233   2.310   9.634 -0.5700 -0.3919  1.1528
  499TMC3    H1 7422   1.864   2.496   9.738 -0.8029  1.8069 -1.0896
  499TMC3    H2 7423   2.196   2.731   9.597  0.7372  0.9994  1.8980
  499TMC3    C7 7424   1.939   2.741   9.674 -0.9893 -0.5754  0.0456
  499TMC3    C8 7425   2.368   2.516   9.573 -0.5612  0.5102 -0.7711
  499TMC3    O1 7426   1.969   2.829   9.593  0.4950  0.0280 -0.5448
  499TMC3    O2 7427   2.435   2.414   9.577  0.1367  0.2211  0.0941
  500MPD2     C 7428   3.247   3.406   9.194 -0.7856  0.1434  0.1509
  500MPD2    C1 7429   3.245   3.383   9.334  0.1348  0.5261 -0.1783
  500MPD2    C2 7430   3.134   3.322   9.389 -0.5086  0.3435  0.2248
  500MPD2    C3 7431   3.021   3.289   9.313  0.2079  0.6281  0.0939
  500MPD2    C4 7432   3.029   3.305   9.173  0.0268  0.2439 -0.4347
  500MPD2    C5 7433   3.145   3.351   9.113  0.1703  0.5607 -0.4274
  500MPD2     H 7434   3.133   3.309   9.497 -2.3874  1.3300  0.3423
  500MPD2    H1 7435   2.951   3.272   9.105 -0.6995 -1.4195  1.2132
  500MPD2    H2 7436   3.334   3.453   9.149 -0.2277 -0.1198  0.9418
  500MPD2    H3 7437   3.160   3.361   9.006 -0.0206 -0.4544 -0.5449
  500MPD2     N 7438   2.898   3.235   9.356 -0.0248 -0.5958 -0.0997
  500MPD2    H5 7439   2.832   3.209   9.283  0.7741 -0.6294 -0.8055
  500MPD2    N1 7440   3.348   3.422   9.417  0.1309 -0.0279  0.0684
  500MPD2    H7 7441   3.334   3.417   9.518 -0.9652  2.3418  0.0333
  501TMC3    C1 7442   3.550   3.538   9.480  0.5095 -0.6421 -0.1239
  501TMC3    C2 7443   3.659   3.612   9.445 -0.1789 -0.3720 -0.5399
  501TMC3    C3 7444   3.748   3.658   9.537 -0.7795  0.2747  0.5100
  501TMC3    C4 7445   3.531   3.512   9.612 -0.6590  0.4279  0.4488
  501TMC3    C5 7446   3.619   3.556   9.706  0.0717  0.2157  0.5051
  501TMC3    C6 7447   3.733   3.629   9.671  0.1805 -0.2540 -0.1349
  501TMC3     C 7448   3.470   3.481   9.372  0.9439 -0.0669 -0.2151
  501TMC3     O 7449   3.511   3.493   9.259  0.4568  0.5106 -0.8033
  501TMC3     H 7450   3.664   3.640   9.340 -0.2529 -0.6358 -0.6143
  501TMC3    H1 7451   3.474   3.425   9.643 -0.0437  0.1990  0.9392
  501TMC3    H2 7452   3.816   3.652   9.737  0.9874 -0.0062 -1.2331
  501TMC3    C7 7453   3.606   3.528   9.844 -0.5759  0.7393 -0.4967
  501TMC3    C8 7454   3.797   3.794   9.504 -0.7955 -0.4771  0.3456
  501TMC3    O1 7455   3.712   3.539   9.908 -0.5328 -0.7270  0.6182
  501TMC3    O2 7456   3.775   3.834   9.390  0.4443  0.5245  0.0797
  502TMC3    C1 7457   3.069   1.968  15.067  0.2938 -0.2106 -0.4360
  502TMC3    C2 7458   3.119   2.062  14.981  0.0636 -0.4525 -0.1465
  502TMC3    C3 7459   3.037   2.164  14.953  0.6126 -0.6991 -0.3768
  502TMC3    C4 7460   2.937   1.955  15.090  0.2572  0.4214  0.8833
  502TMC3    C5 7461   2.849   2.045  15.041 -0.1965 -0.3837 -0.5968
  502TMC3    C6 7462   2.897   2.159  14.982 -0.6506 -0.3623 -0.2509
  502TMC3     C 7463   3.149   1.981  15.184 -0.7111 -0.6448 -0.2968
  502TMC3     O 7464   3.262   2.028  15.171  0.0940 -0.0022  0.5810
  502TMC3     H 7465   3.223   2.071  14.952  0.2649  0.6486  0.9312
  502TMC3    H1 7466   2.904   1.867  15.144 -1.4272 -0.4082 -1.5124
  502TMC3    H2 7467   2.836   2.247  14.969 -0.1306 -0.1503 -1.2553
  502TMC3    C7 7468   2.748   2.061  15.138 -0.1621 -0.1052 -0.3946
  502TMC3    C8 7469   3.099   2.298  14.949 -0.4659 -0.2236 -0.0430
  502TMC3    O1 7470   2.772   2.005  15.245  0.6026  0.3958 -0.4541
  502TMC3    O2 7471   3.043   2.390  14.894  0.5225  0.0082 -0.6043
  503MPD2     C 7472   0.168   3.594  16.971 -0.1344 -0.6787  0.0287
  503MPD2    C1 7473   0.257   3.617  17.074  0.2083  0.1230 -0.1257
  503MPD2    C2 7474   0.319   3.504  17.124  0.6606 -0.1009  1.1199
  503MPD2    C3 7475   0.296   3.373  17.085 -0.4087 -0.8505  0.1312
  503MPD2    C4 7476   0.208   3.361  16.975 -0.8652  0.3788  0.2164
  503MPD2    C5 7477   0.141   3.471  16.928  0.0848  0.2349 -0.5093
  503MPD2     H 7478   0.405   3.518  17.188  1.3679  0.9475 -0.0430
  503MPD2    H1 7479   0.175   3.264  16.940 -4.3729  1.7971 -0.4019
  503MPD2    H2 7480   0.109   3.673  16.926  2.0946  0.8063 -0.2939
  503MPD2    H3 7481   0.051   3.462  16.868 -1.4548  1.3718  1.6638
  503MPD2     N 7482   0.358   3.257  17.145  0.2381 -0.5205 -0.5340
  503MPD2    H5 7483   0.400   3.273  17.237 -0.6644  0.8075 -0.3524
  503MPD2    N1 7484   0.282   3.749  17.122 -0.3544  0.2180  0.0159
  503MPD2    H7 7485   0.355   3.763  17.192  0.8568  2.3823 -1.6616
  504TMC3    C1 7486   0.474   3.052  17.145  0.4386  0.9224  0.2751
  504TMC3    C2 7487   0.449   3.021  17.273 -0.1453 -0.6274  1.0074
  504TMC3    C3 7488   0.511   2.908  17.328 -0.7060 -0.4813  0.1591
  504TMC3    C4 7489   0.578   2.991  17.075 -0.2936 -0.5417 -0.0262
  504TMC3    C5 7490   0.642   2.882  17.131  0.0535 -0.1386 -0.6008
  504TMC3    C6 7491   0.600   2.836  17.256 -0.6697  0.5035 -0.3381
  504TMC3     C 7492   0.380   3.142  17.073  0.8627  0.4410  0.0480
  504TMC3     O 7493   0.375   3.133  16.952  0.0170 -0.1476  0.2357
  504TMC3     H 7494   0.375   3.070  17.335 -1.3119 -1.1375  0.0216
  504TMC3    H1 7495   0.602   3.039  16.980  0.9886  0.3976  0.7670
  504TMC3    H2 7496   0.649   2.744  17.287 -3.9830 -0.7801  1.1528
  504TMC3    C7 7497   0.778   2.868  17.088  0.1155 -0.1810 -0.0295
  504TMC3    C8 7498   0.457   2.863  17.458  0.1719  0.7838 -0.6198
  504TMC3    O1 7499   0.811   2.911  16.978 -0.2666 -0.0507  0.2846
  504TMC3    O2 7500   0.345   2.893  17.486  0.4615 -0.2928 -0.6262
  505MPD2     C 7501   0.667   2.119  11.231  0.7849  0.7638  0.5400
  505MPD2    C1 7502   0.718   1.990  11.209  0.7097 -0.0647  0.0413
  505MPD2    C2 7503   0.845   1.955  11.254 -0.8892 -0.3220  0.2095
  505MPD2    C3 7504   0.928   2.046  11.309 -0.3084 -0.6246 -0.0394
  505MPD2    C4 7505   0.876   2.171  11.337  0.3572  0.6903 -0.2052
  505MPD2    C5 7506   0.753   2.212  11.294  0.1876  0.8355 -0.4307
  505MPD2     H 7507   0.891   1.861  11.227  0.6628  0.9176 -1.5238
  505MPD2    H1 7508   0.938   2.248  11.381 -0.4744 -0.1324  2.3917
  505MPD2    H2 7509   0.567   2.142  11.197  1.0550 -2.1097 -2.2677
  505MPD2    H3 7510   0.717   2.312  11.314 -0.8773  0.3867 -0.1134
  505MPD2     N 7511   1.058   2.003  11.349 -0.2470  0.6055  0.3596
  505MPD2    H5 7512   1.084   1.908  11.324 -2.2894 -0.4304  2.1713
  505MPD2    N1 7513   0.636   1.900  11.138  0.1436 -0.0431 -1.1449
  505MPD2    H7 7514   0.556   1.944  11.094  0.4895  1.6820 -0.0653
  506TMC3    C1 7515   0.550   1.701  11.066  0.4983 -0.4038  0.2377
  506TMC3    C2 7516   0.548   1.749  10.932 -0.5531 -0.1350  0.2032
  506TMC3    C3 7517   0.524   1.659  10.833 -0.5639  0.6683  0.4712
  506TMC3    C4 7518   0.555   1.565  11.090  0.0619  0.0539  0.0009
  506TMC3    C5 7519   0.570   1.480  10.987  0.3740 -0.7468  0.4653
  506TMC3    C6 7520   0.536   1.528  10.861 -0.1884  0.1496 -0.3294
  506TMC3     C 7521   0.649   1.768  11.147 -0.5039 -0.0435  0.2222
  506TMC3     O 7522   0.733   1.700  11.209 -0.1218  0.1313 -0.6830
  506TMC3     H 7523   0.555   1.853  10.900  0.9747 -0.7529 -1.4789
  506TMC3    H1 7524   0.563   1.523  11.190 -0.0779 -0.3184 -0.1434
  506TMC3    H2 7525   0.515   1.464  10.776  0.8169 -0.4177 -0.1552
  506TMC3    C7 7526   0.700   1.401  10.983  0.8376  0.1496  0.0894
  506TMC3    C8 7527   0.522   1.702  10.697 -0.0020 -0.9631  0.3484
  506TMC3    O1 7528   0.714   1.323  10.888  0.0257  0.3194  0.0710
  506TMC3    O2 7529   0.465   1.634  10.616 -0.1588  0.2381 -0.4385
  507TMC3    C1 7530   1.759   2.794  14.622  0.0321  0.6370  0.4104
  507TMC3    C2 7531   1.725   2.713  14.515 -0.4595  0.1210  0.8851
  507TMC3    C3 7532   1.747   2.768  14.389  0.1208 -0.0440 -0.3226
  507TMC3    C4 7533   1.845   2.905  14.613 -0.0062  0.1944 -0.4435
  507TMC3    C5 7534   1.861   2.951  14.484 -0.7049  0.0277  0.5235
  507TMC3    C6 7535   1.821   2.886  14.379 -0.4021 -0.4057  0.2795
  507TMC3     C 7536   1.662   2.809  14.732  0.4911 -0.1107  0.0888
  507TMC3     O 7537   1.696   2.878  14.828 -0.7445 -0.0705  0.1632
  507TMC3     H 7538   1.658   2.630  14.533  1.7961 -2.0728 -0.9919
  507TMC3    H1 7539   1.879   2.961  14.699 -1.8559 -0.2434  0.5651
  507TMC3    H2 7540   1.844   2.925  14.281 -0.1495  1.2105  0.9929
  507TMC3    C7 7541   1.819   3.086  14.477 -0.1288 -0.2674 -0.2092
  507TMC3    C8 7542   1.634   2.759  14.298  0.1333  0.2880 -0.6784
  507TMC3    O1 7543   1.724   3.092  14.399 -0.0785  0.2360 -0.2957
  507TMC3    O2 7544   1.544   2.680  14.315  0.0854 -0.0841 -0.1369
  508MPD2     C 7545   2.077   0.901  16.372  0.3136 -0.2168  0.5948
  508MPD2    C1 7546   2.202   0.952  16.351 -0.1337  0.4464  0.1566
  508MPD2    C2 7547   2.226   1.031  16.240  0.1546 -0.4031  0.2942
  508MPD2    C3 7548   2.124   1.043  16.147  0.2376  0.6956 -0.0252
  508MPD2    C4 7549   2.002   0.985  16.165  0.2211 -0.6465  0.3180
  508MPD2    C5 7550   1.976   0.913  16.282 -0.3669 -0.6045  0.3073
  508MPD2     H 7551   2.326   1.067  16.221 -0.5610  0.9100 -0.9590
  508MPD2    H1 7552   1.925   0.987  16.089 -0.9691 -0.0974  1.5506
  508MPD2    H2 7553   2.040   0.859  16.464 -0.0739 -0.3200  0.3913
  508MPD2    H3 7554   1.875   0.886  16.312 -1.1462 -0.5732 -2.3094
  508MPD2     N 7555   2.156   1.110  16.028 -0.6889  0.1674 -0.6106
  508MPD2    H5 7556   2.255   1.118  16.005 -0.3982  1.1441  0.9064
  508MPD2    N1 7557   2.292   0.930  16.454  0.7054  0.4937  0.1386
  508MPD2    H7 7558   2.259   0.874  16.532 -2.4840  0.9738 -0.8698
  509TMC3    C1 7559   2.035   1.305  15.603 -0.0217  0.0139  0.2739
  509TMC3    C2 7560   2.130   1.234  15.533  0.5264 -0.0632 -0.6056
  509TMC3    C3 7561   2.208   1.152  15.607 -0.1802 -0.1967  0.0357
  509TMC3    C4 7562   2.013   1.287  15.736 -0.2680 -0.2575  0.1381
  509TMC3    C5 7563   2.089   1.191  15.806  0.2966  1.0884 -0.0467
  509TMC3    C6 7564   2.188   1.123  15.741  0.4727  0.4002  1.1382
  509TMC3     C 7565   1.922   1.365  15.530 -0.1649 -0.0826  0.5332
  509TMC3     O 7566   1.815   1.383  15.587  0.0439 -0.1508 -0.2673
  509TMC3     H 7567   2.144   1.225  15.426 -1.7796 -1.0101 -0.8244
  509TMC3    H1 7568   1.939   1.344  15.791 -0.7555 -0.0997 -0.6951
  509TMC3    H2 7569   2.241   1.044  15.793  0.0674 -0.0362  0.8917
  509TMC3    C7 7570   2.053   1.158  15.945 -0.8599 -0.0347  0.1616
  509TMC3    C8 7571   2.322   1.088  15.548 -0.5869 -0.1018  0.4379
  509TMC3    O1 7572   1.944   1.208  15.975  0.0830  0.4467 -0.3189
  509TMC3    O2 7573   2.363   0.984  15.597  0.3971  0.3282 -0.4602
  510MPD2     C 7574   0.437   2.255  14.514  0.9553  0.1405  0.0401
  510MPD2    C1 7575   0.519   2.190  14.606 -0.6372 -0.1791 -0.3291
  510MPD2    C2 7576   0.640   2.148  14.557 -0.2777 -0.1301  0.7184
  510MPD2    C3 7577   0.684   2.170  14.424 -0.7439  0.1619  0.0306
  510MPD2    C4 7578   0.599   2.236  14.338 -0.1445 -1.7908 -0.4911
  510MPD2    C5 7579   0.483   2.274  14.387 -0.6110  0.3199 -0.5631
  510MPD2     H 7580   0.713   2.111  14.628 -1.7244 -1.1649  1.6584
  510MPD2    H1 7581   0.617   2.260  14.233  2.8886 -1.5078  0.0836
  510MPD2    H2 7582   0.329   2.257  14.529  0.7181 -1.6959 -1.3046
  510MPD2    H3 7583   0.417   2.312  14.310 -0.4597 -0.1964 -0.9498
  510MPD2     N 7584   0.814   2.128  14.389 -0.4043 -0.4613  0.5974
  510MPD2    H5 7585   0.871   2.082  14.459 -1.2589 -1.0890  0.8772
  510MPD2    N1 7586   0.495   2.166  14.744  0.2595 -0.6263 -0.5385
  510MPD2    H7 7587   0.559   2.104  14.793  0.9143  0.2163 -0.3184
  511TMC3    C1 7588   0.372   2.175  14.950  0.1998 -0.2126  0.0346
  511TMC3    C2 7589   0.253   2.218  15.006  0.2915 -0.2414  0.3585
  511TMC3    C3 7590   0.188   2.127  15.090  0.2354 -0.6010 -0.3004
  511TMC3    C4 7591   0.432   2.057  14.975 -0.1383  0.1745  0.8145
  511TMC3    C5 7592   0.364   1.974  15.060  0.5614  0.1631 -0.0097
  511TMC3    C6 7593   0.244   2.010  15.110 -0.0160  0.2228 -0.0541
  511TMC3     C 7594   0.395   2.230  14.816  0.5445 -0.1480 -0.0698
  511TMC3     O 7595   0.336   2.331  14.789  0.3316 -0.0924  0.2660
  511TMC3     H 7596   0.204   2.313  14.985  1.7625  0.6158  0.8054
  511TMC3    H1 7597   0.517   2.010  14.926 -0.9108 -0.0320 -0.3399
  511TMC3    H2 7598   0.189   1.939  15.171  0.5464 -0.9539 -0.9219
  511TMC3    C7 7599   0.406   1.839  15.067 -0.0446 -0.2495 -0.1697
  511TMC3    C8 7600   0.054   2.171  15.146  0.3571  0.2706  0.3703
  511TMC3    O1 7601   0.522   1.821  15.055  0.0529 -0.2055 -0.2042
  511TMC3    O2 7602   0.031   2.291  15.141 -0.4462  0.2166 -0.0126
  512TMC3    C1 7603   3.576   1.357  13.110  0.5246 -0.2399 -0.1169
  512TMC3    C2 7604   3.648   1.342  13.227 -0.6840  0.2582  0.1057
  512TMC3    C3 7605   3.728   1.235  13.234  0.3730  0.7511  0.4623
  512TMC3    C4 7606   3.598   1.268  13.003  0.2568  0.7108 -0.3175
  512TMC3    C5 7607   3.688   1.167  13.018  0.3440 -0.3626  0.1463
  512TMC3    C6 7608   3.747   1.137  13.139  0.5679 -0.4469 -0.5010
  512TMC3     C 7609   3.488   1.468  13.110 -0.3787  0.1736 -0.6972
  512TMC3     O 7610   3.521   1.577  13.166 -0.2677 -0.0358  0.1333
  512TMC3     H 7611   3.627   1.413  13.307 -2.4357  0.7322 -0.7657
  512TMC3    H1 7612   3.535   1.281  12.916  1.8617  0.1604 -1.5636
  512TMC3    H2 7613   3.819   1.061  13.166 -1.4405 -2.2020 -0.1641
  512TMC3    C7 7614   3.717   1.111  12.891  0.1045 -0.0462  0.7260
  512TMC3    C8 7615   3.773   1.206  13.372 -0.0383  0.0979 -0.2366
  512TMC3    O1 7616   3.679   1.166  12.787 -0.3857  0.8860  0.2310
  512TMC3    O2 7617   3.783   1.090  13.398 -0.6112 -0.2571  0.0673
  513MPD2     C 7618   0.642   1.464  13.573  0.6537 -0.2568  0.2959
  513MPD2    C1 7619   0.643   1.496  13.442  0.7536 -0.0938  0.6344
  513MPD2    C2 7620   0.752   1.574  13.402  0.0968 -0.2585  0.8038
  513MPD2    C3 7621   0.850   1.616  13.486  0.5305  0.3509  0.4159
  513MPD2    C4 7622   0.835   1.588  13.616  0.0177 -0.5261  0.4990
  513MPD2    C5 7623   0.735   1.511  13.660 -0.5215 -0.5944  0.5245
  513MPD2     H 7624   0.748   1.609  13.300 -0.8467  0.9866  1.2555
  513MPD2    H1 7625   0.902   1.626  13.692 -0.3475 -0.2944  0.7051
  513MPD2    H2 7626   0.567   1.398  13.617 -1.8719  1.8844 -0.8349
  513MPD2    H3 7627   0.738   1.491  13.766  0.7186  0.0017  0.5974
  513MPD2     N 7628   0.951   1.701  13.432  0.1372 -0.0765  0.6027
  513MPD2    H5 7629   0.945   1.713  13.331  2.2016 -0.5849  0.4167
  513MPD2    N1 7630   0.560   1.444  13.337 -0.6783  0.2308  0.1983
  513MPD2    H7 7631   0.566   1.483  13.244 -3.5667 -1.7580 -0.8463
  514TMC3    C1 7632   0.401   1.315  13.227  0.5366  0.5274  0.0447
  514TMC3    C2 7633   0.379   1.423  13.147  0.5608 -0.5889  0.1466
  514TMC3    C3 7634   0.398   1.413  13.015  0.3022 -0.1049 -0.7292
  514TMC3    C4 7635   0.439   1.195  13.179 -0.6237  0.0297  0.0904
  514TMC3    C5 7636   0.465   1.185  13.048 -0.0949 -0.4914  1.2226
  514TMC3    C6 7637   0.436   1.289  12.962 -1.1758 -1.2473  0.0825
  514TMC3     C 7638   0.463   1.346  13.352  0.0846 -0.2408 -0.1317
  514TMC3     O 7639   0.457   1.269  13.442 -0.0468 -0.5445  0.0061
  514TMC3     H 7640   0.378   1.523  13.189  2.3449 -0.8180  0.7576
  514TMC3    H1 7641   0.478   1.118  13.245  0.7961  0.9951  0.3695
  514TMC3    H2 7642   0.465   1.279  12.858  1.5757 -0.2255  0.7600
  514TMC3    C7 7643   0.600   1.136  13.021  0.1896 -0.5111 -0.1775
  514TMC3    C8 7644   0.500   1.509  12.975  0.9836 -0.5934 -0.1993
  514TMC3    O1 7645   0.608   1.032  12.960 -0.1585 -0.1444 -0.1078
  514TMC3    O2 7646   0.593   1.521  13.058  0.0841  0.5318 -0.5047
  515MPD2     C 7647   3.826   3.265  15.205 -1.1097  0.1921  0.4845
  515MPD2    C1 7648   3.830   3.210  15.079  0.0925  0.6337 -0.1981
  515MPD2    C2 7649   3.883   3.282  14.975  0.4282 -0.1436 -0.2427
  515MPD2    C3 7650   3.946   3.407  14.995 -0.1428 -0.1169 -0.5132
  515MPD2    C4 7651   3.942   3.464  15.121 -0.6354  0.5762  0.0490
  515MPD2    C5 7652   3.879   3.392  15.227 -0.0940 -0.1810 -0.3787
  515MPD2     H 7653   3.884   3.229  14.880  3.3356 -1.5742  0.6123
  515MPD2    H1 7654   3.977   3.566  15.135 -1.6069  1.1379 -1.6304
  515MPD2    H2 7655   3.794   3.214  15.295 -0.3540 -0.4997  0.3737
  515MPD2    H3 7656   3.877   3.436  15.326  2.3174  0.1078 -0.4415
  515MPD2     N 7657   4.002   3.481  14.892  0.0507 -0.2512  0.0680
  515MPD2    H5 7658   4.043   3.571  14.915  1.1340 -0.8331  0.4126
  515MPD2    N1 7659   3.779   3.080  15.054 -0.1959 -0.0507  0.7384
  515MPD2    H7 7660   3.777   3.053  14.957 -0.6189  1.0525  0.4427
  516TMC3    C1 7661   3.746   2.853  15.089 -0.0282 -0.1654 -0.4243
  516TMC3    C2 7662   3.694   2.841  14.961  0.2644  0.0358  0.0340
  516TMC3    C3 7663   3.666   2.711  14.915 -0.3995 -0.1056  0.1110
  516TMC3    C4 7664   3.783   2.747  15.164 -0.5255  0.5948 -0.7150
  516TMC3    C5 7665   3.773   2.622  15.105 -0.4289 -0.1286 -0.0483
  516TMC3    C6 7666   3.700   2.601  14.990  0.3116  0.8281 -0.2917
  516TMC3     C 7667   3.782   2.978  15.145 -0.2429  0.1265  0.0084
  516TMC3     O 7668   3.822   2.967  15.260  0.1020  0.3219 -0.0865
  516TMC3     H 7669   3.639   2.921  14.912 -2.3978 -1.1617  1.0507
  516TMC3    H1 7670   3.842   2.748  15.254  0.3023 -1.8072 -1.2488
  516TMC3    H2 7671   3.656   2.502  14.975 -0.9677  1.3560 -0.0434
  516TMC3    C7 7672   3.822   2.501  15.170 -0.0641 -0.1669  0.3793
  516TMC3    C8 7673   3.586   2.690  14.798 -0.3128 -0.0463  0.0132
  516TMC3    O1 7674   3.861   2.523  15.285  0.1255 -0.2561  0.6934
  516TMC3    O2 7675   3.533   2.582  14.778  0.6713 -0.8092 -0.0956
  517MPD2     C 7676   3.250   4.484   0.096  0.6688 -0.1297 -0.0584
  517MPD2    C1 7677   3.333   4.565   0.022 -0.9774  0.8238 -0.1980
  517MPD2    C2 7678   3.383   4.674   0.087  0.1995  0.3533 -0.2602
  517MPD2    C3 7679   3.353   4.718   0.213 -0.8523  0.0064 -0.1176
  517MPD2    C4 7680   3.268   4.635   0.283 -1.2548 -0.5907  0.7279
  517MPD2    C5 7681   3.222   4.514   0.230 -1.0066  0.1072  0.0804
  517MPD2     H 7682   3.452   0.019   0.040  0.1813 -1.1893 -2.5621
  517MPD2    H1 7683   3.224   4.651   0.381  1.0016 -1.6670  1.9333
  517MPD2    H2 7684   3.197   4.398   0.057  0.7084  0.5591 -1.6468
  517MPD2    H3 7685   3.165   4.450   0.297  2.2577 -1.0542  1.7350
  517MPD2     N 7686   3.391   0.118   0.272  0.1968 -0.1156  0.7997
  517MPD2    H5 7687   3.343   0.144   0.357 -0.9699  0.1289  0.0652
  517MPD2    N1 7688   3.369   4.544  17.585 -0.3527 -0.0910  0.0386
  517MPD2    H7 7689   3.427   4.611  17.536 -1.7454  3.0518  2.7350
  518TMC3    C1 7690   3.429   4.405  17.403  0.3903 -0.5068 -0.1104
  518TMC3    C2 7691   3.480   4.279  17.391  0.1729  0.1841 -1.5239
  518TMC3    C3 7692   3.550   4.250  17.278  0.3796  0.4249  0.2284
  518TMC3    C4 7693   3.445   4.510  17.314  0.1810 -0.4561 -0.1969
  518TMC3    C5 7694   3.525   4.477  17.209  0.4577  0.6136  0.3478
  518TMC3    C6 7695   3.572   4.350  17.186  0.0617 -0.1446 -0.0436
  518TMC3     C 7696   3.342   4.427  17.519 -0.1833  0.2899 -0.2273
  518TMC3     O 7697   3.273   4.330  17.553  0.2272 -0.6267  0.2107
  518TMC3     H 7698   3.454   4.199  17.460  1.5256  1.0016 -0.0697
  518TMC3    H1 7699   3.405   4.611  17.320  0.2138 -0.4727  0.3277
  518TMC3    H2 7700   3.637   4.324  17.103  2.7241  2.0292  1.3528
  518TMC3    C7 7701   3.543   4.572  17.109  0.2079 -0.0022  0.1435
  518TMC3    C8 7702   3.631   4.131  17.284  0.0183  0.2719 -0.0261
  518TMC3    O1 7703   3.455   4.650  17.076  0.7478  0.3167 -0.0299
  518TMC3    O2 7704   3.584   4.022  17.313 -0.1974  0.5920 -0.0050
  519MPD2     C 7705   0.718   3.238  14.116  0.2629 -0.5526 -0.2806
  519MPD2    C1 7706   0.605   3.165  14.092  0.1797  0.1718 -0.4499
  519MPD2    C2 7707   0.604   3.077  13.981 -0.1157  0.4065  0.0013
  519MPD2    C3 7708   0.709   3.080  13.891  0.0490  0.5996  1.2892
  519MPD2    C4 7709   0.821   3.155  13.922  0.4708  0.8636  0.2617
  519MPD2    C5 7710   0.823   3.236  14.030 -0.1399 -0.5468  0.3117
  519MPD2     H 7711   0.517   3.013  13.968  0.2091  0.2418 -1.3690
  519MPD2    H1 7712   0.905   3.149  13.853  0.3336  1.8495  0.0092
  519MPD2    H2 7713   0.721   3.295  14.209  0.1869 -0.9401 -0.0426
  519MPD2    H3 7714   0.914   3.294  14.042  1.2997 -2.8281  0.5445
  519MPD2     N 7715   0.716   2.992  13.777  0.5929  0.4257 -0.1445
  519MPD2    H5 7716   0.799   3.006  13.721 -1.1906  3.6855 -1.9630
  519MPD2    N1 7717   0.491   3.170  14.177  0.1100  0.8334  0.0366
  519MPD2    H7 7718   0.492   3.254  14.234 -2.6362  1.5756 -0.9869
  520TMC3    C1 7719   0.656   2.806  13.641 -0.0629 -0.1616  0.1471
  520TMC3    C2 7720   0.560   2.713  13.614 -0.0506  0.0528  0.1130
  520TMC3    C3 7721   0.602   2.586  13.583  0.6527 -0.0009  0.2004
  520TMC3    C4 7722   0.791   2.779  13.618 -0.2860 -0.3455 -1.1152
  520TMC3    C5 7723   0.829   2.649  13.582  0.7739  0.4559  0.2735
  520TMC3    C6 7724   0.734   2.548  13.572  0.2030 -0.3480  0.3307
  520TMC3     C 7725   0.614   2.917  13.731  0.2339  0.5936 -0.0061
  520TMC3     O 7726   0.493   2.912  13.758  0.7130 -0.2708  0.3900
  520TMC3     H 7727   0.458   2.749  13.604 -0.2276 -0.1990  1.0096
  520TMC3    H1 7728   0.864   2.849  13.656  1.8343 -3.9019  1.4217
  520TMC3    H2 7729   0.758   2.448  13.538 -0.2963 -0.6660  0.9109
  520TMC3    C7 7730   0.952   2.598  13.641  0.3584 -0.0684  0.7552
  520TMC3    C8 7731   0.503   2.472  13.574 -0.0196 -0.0025 -0.3151
  520TMC3    O1 7732   0.958   2.492  13.702 -0.4604 -0.0392  0.7382
  520TMC3    O2 7733   0.549   2.374  13.514  0.2848  0.3126 -0.1629
  521MPD2     C 7734   1.109   1.199   0.119 -0.0167  0.1340 -0.2530
  521MPD2    C1 7735   1.099   1.187  17.678  0.4625  0.3201 -0.5167
  521MPD2    C2 7736   1.205   1.137  17.607 -0.5337  0.4888 -0.3104
  521MPD2    C3 7737   1.318   1.096  17.669  0.5721 -0.0325 -0.5437
  521MPD2    C4 7738   1.332   1.110   0.107 -0.2182 -0.0446 -0.2142
  521MPD2    C5 7739   1.233   1.173   0.177  0.5591 -0.1127  0.0839
  521MPD2     H 7740   1.197   1.122  17.500  2.9768  0.8332 -0.5975
  521MPD2    H1 7741   1.420   1.080   0.164  0.9075  0.6340 -1.5974
  521MPD2    H2 7742   1.030   1.246   0.177  0.6151  0.3453  0.4416
  521MPD2    H3 7743   1.241   1.196   0.283  0.5887  0.7983 -0.1127
  521MPD2     N 7744   1.426   1.044  17.586  0.6097 -0.3622 -0.1186
  521MPD2    H5 7745   1.401   1.033  17.488  1.5436 -1.1511 -0.2719
  521MPD2    N1 7746   0.970   1.199  17.619  0.5921  0.2542 -0.0770
  521MPD2    H7 7747   0.901   1.229  17.687 -1.5324 -2.0406 -1.2269
  522TMC3    C1 7748   1.642   0.983  17.517  0.0255 -0.6425 -0.5062
  522TMC3    C2 7749   1.777   0.997  17.528 -0.0085  0.7927  0.8240
  522TMC3    C3 7750   1.860   0.946  17.428 -0.3300 -0.1134  0.2443
  522TMC3    C4 7751   1.589   0.914  17.409  0.0147 -0.3144 -0.5276
  522TMC3    C5 7752   1.674   0.862  17.320  0.1142 -0.1079 -0.3470
  522TMC3    C6 7753   1.807   0.872  17.320 -0.3799  0.1094 -0.0042
  522TMC3     C 7754   1.559   1.031  17.627  0.0871 -0.0989 -0.0346
  522TMC3     O 7755   1.616   1.051   0.035  0.8378  0.2044 -0.4234
  522TMC3     H 7756   1.822   1.059  17.605  0.5829 -0.4483  1.4821
  522TMC3    H1 7757   1.486   0.878  17.407 -0.5116  1.1183  1.2984
  522TMC3    H2 7758   1.861   0.823  17.239  1.5446  0.8864  0.8175
  522TMC3    C7 7759   1.620   0.805  17.200 -0.3040 -0.0803 -0.3701
  522TMC3    C8 7760   2.002   0.970  17.444  0.2413 -0.1059  0.0756
  522TMC3    O1 7761   1.686   0.717  17.146  0.4367  0.0313  0.0475
  522TMC3    O2 7762   2.039   1.042  17.535  0.6761 -0.3205 -0.9470
  523MPD2     C 7763   4.442   0.999  10.022  0.8568 -0.4098 -0.0298
  523MPD2    C1 7764   4.323   0.926  10.023 -0.2858  0.3389  0.1706
  523MPD2    C2 7765   4.204   0.993  10.004 -0.3994 -0.2251  0.8018
  523MPD2    C3 7766   4.199   1.124   9.987  0.9146  0.3793 -0.3952
  523MPD2    C4 7767   4.314   1.200   9.993 -0.1524  0.2345 -0.1012
  523MPD2    C5 7768   4.439   1.139  10.003 -0.0030  0.0283 -0.0133
  523MPD2     H 7769   4.115   0.937   9.977 -0.0222 -0.5394  0.1997
  523MPD2    H1 7770   4.313   1.303   9.960  1.4564 -0.2956 -1.7943
  523MPD2    H2 7771   4.531   0.937  10.017 -0.2490 -2.0053  0.0761
  523MPD2    H3 7772   4.525   1.201   9.981 -0.5155  0.4229 -0.9479
  523MPD2     N 7773   4.078   1.191   9.959  0.2171  0.0547 -0.4589
  523MPD2    H5 7774   4.088   1.283   9.918  1.3803  0.4526  0.7219
  523MPD2    N1 7775   4.326   0.782  10.042  0.7637 -0.4877 -0.5486
  523MPD2    H7 7776   4.419   0.741  10.044  0.5177 -1.0723 -1.1287
  524TMC3    C1 7777   3.848   1.214   9.916  0.1303 -0.0892 -0.5166
  524TMC3    C2 7778   3.858   1.345   9.891 -0.2490 -0.2895  0.0719
  524TMC3    C3 7779   3.748   1.411   9.841 -0.5123  0.2351 -0.5830
  524TMC3    C4 7780   3.731   1.144   9.888 -0.2089 -0.8717 -0.8974
  524TMC3    C5 7781   3.631   1.211   9.823 -0.0869 -0.2088 -0.7576
  524TMC3    C6 7782   3.634   1.344   9.806 -0.4579  0.1471 -0.3490
  524TMC3     C 7783   3.955   1.136   9.975 -0.5742  0.0453 -0.1930
  524TMC3     O 7784   3.919   1.035  10.039 -0.1502  0.1114  0.5698
  524TMC3     H 7785   3.917   1.415   9.949 -0.4070  0.3914 -0.5916
  524TMC3    H1 7786   3.741   1.036   9.894 -1.1248 -0.9826 -1.3786
  524TMC3    H2 7787   3.572   1.396   9.734 -0.7442  0.0689 -0.1616
  524TMC3    C7 7788   3.522   1.130   9.777 -0.7111  0.1403 -0.0677
  524TMC3    C8 7789   3.747   1.554   9.828 -0.4042  0.2356  0.3688
  524TMC3    O1 7790   3.516   1.012   9.821 -0.1572 -0.1081 -0.6135
  524TMC3    O2 7791   3.641   1.615   9.821  0.3754 -0.3234  0.3062
  525MPD2     C 7792   1.928   2.545  14.228  0.2952 -0.4018 -0.4636
  525MPD2    C1 7793   2.043   2.531  14.301  0.5659  0.4126  0.5394
  525MPD2    C2 7794   2.144   2.625  14.289  0.1047  0.4464 -0.1727
  525MPD2    C3 7795   2.132   2.738  14.210  0.0673  0.7035  0.5019
  525MPD2    C4 7796   2.023   2.751  14.136  1.0830 -0.1465 -0.2253
  525MPD2    C5 7797   1.919   2.658  14.141 -0.4662  0.4879 -0.4162
  525MPD2     H 7798   2.222   2.627  14.364  0.3542  1.5111 -0.4540
  525MPD2    H1 7799   2.018   2.840  14.074 -1.2137 -1.5387 -2.0426
  525MPD2    H2 7800   1.840   2.483  14.226 -1.3696  1.9082  1.1836
  525MPD2    H3 7801   1.823   2.674  14.092 -1.1071  1.5504  1.2010
  525MPD2     N 7802   2.222   2.850  14.213 -0.5606  0.2412 -0.6473
  525MPD2    H5 7803   2.200   2.937  14.165 -1.5994  1.3161  1.7561
  525MPD2    N1 7804   2.059   2.419  14.395 -0.4584 -0.1826  0.7159
  525MPD2    H7 7805   2.141   2.413  14.453 -0.3560 -0.9357  0.4953
  526TMC3    C1 7806   2.002   2.242  14.532 -1.1948 -0.2523 -0.1025
  526TMC3    C2 7807   1.943   2.226  14.653  0.1794 -0.9848  0.0695
  526TMC3    C3 7808   2.015   2.157  14.744  0.2144  0.1353 -0.1142
  526TMC3    C4 7809   2.122   2.184  14.506 -0.1846 -0.0500 -0.3163
  526TMC3    C5 7810   2.188   2.106  14.601 -0.4030  0.8039 -0.6674
  526TMC3    C6 7811   2.146   2.110  14.724  0.3087  0.1902 -0.5258
  526TMC3     C 7812   1.956   2.350  14.455 -0.1444 -0.5435 -0.0150
  526TMC3     O 7813   1.836   2.368  14.443 -0.2811 -0.3814 -0.1550
  526TMC3     H 7814   1.863   2.290  14.688  1.6687  1.4343 -0.9519
  526TMC3    H1 7815   2.157   2.184  14.403 -0.4226  0.9547 -0.3956
  526TMC3    H2 7816   2.193   2.048  14.799  0.3431  0.6137 -0.1963
  526TMC3    C7 7817   2.328   2.091  14.581  0.0244 -1.1045 -0.3608
  526TMC3    C8 7818   1.981   2.159  14.888  0.3204 -0.4916 -0.2858
  526TMC3    O1 7819   2.395   2.091  14.679 -0.5522 -0.3763  0.0607
  526TMC3    O2 7820   2.075   2.132  14.957  0.1474  0.6823 -0.1778
  527MPD2     C 7821   4.385   0.107   1.173 -0.2428 -0.0706 -0.0037
  527MPD2    C1 7822   4.436   0.234   1.159 -0.0874 -0.3087 -0.9391
  527MPD2    C2 7823   4.572   0.259   1.192  0.4702 -0.0452 -0.1570
  527MPD2    C3 7824   4.661   0.155   1.224 -0.4479 -0.5605 -0.2862
  527MPD2    C4 7825   4.607   0.030   1.239  0.5072  0.0067 -0.2445
  527MPD2    C5 7826   4.469   0.008   1.230  0.7006  0.5768  0.0882
  527MPD2     H 7827   4.624   0.351   1.169 -1.1662  0.7285 -0.7516
  527MPD2    H1 7828   4.663   4.669   1.277  0.3806  0.7583  1.6507
  527MPD2    H2 7829   4.283   0.081   1.148 -0.4750 -0.6327  1.5007
  527MPD2    H3 7830   4.429   4.633   1.247 -0.2397  0.6007 -2.0376
  527MPD2     N 7831   0.078   0.172   1.214 -0.1826 -0.0067  0.0532
  527MPD2    H5 7832   0.114   0.267   1.207 -1.2755  0.3260 -0.9739
  527MPD2    N1 7833   4.347   0.344   1.127  0.8946 -0.3247 -1.0152
  527MPD2    H7 7834   4.376   0.438   1.151 -0.0758 -0.5124  0.8854
  528TMC3    C1 7835   4.157   0.451   1.063 -0.1705 -0.4217  0.3154
  528TMC3    C2 7836   4.186   0.559   1.136 -0.2914 -0.0510  0.0269
  528TMC3    C3 7837   4.090   0.652   1.161 -0.0088 -0.2594 -0.9981
  528TMC3    C4 7838   4.029   0.445   0.999  0.2758 -0.6497  0.2119
  528TMC3    C5 7839   3.938   0.540   1.031 -0.3495  0.0130  0.1537
  528TMC3    C6 7840   3.966   0.639   1.122  0.3567  0.9538 -0.4902
  528TMC3     C 7841   4.232   0.330   1.062  0.5561 -0.1994  0.1780
  528TMC3     O 7842   4.193   0.239   0.989  0.1524  0.5074 -0.4673
  528TMC3     H 7843   4.286   0.585   1.170 -0.3155 -1.2435  1.0112
  528TMC3    H1 7844   4.013   0.351   0.947  0.3151 -0.6800  0.2541
  528TMC3    H2 7845   3.889   0.713   1.140  0.2567  0.5518  0.6951
  528TMC3    C7 7846   3.801   0.534   0.980 -0.4202 -0.0658  0.5338
  528TMC3    C8 7847   4.113   0.736   1.278  0.1075 -0.0733  0.3903
  528TMC3    O1 7848   3.713   0.602   1.023  0.1854 -0.3017 -0.0437
  528TMC3    O2 7849   4.227   0.780   1.296 -0.2376 -0.0083  0.0999
  529MPD2     C 7850   2.500   3.252   0.177  0.2746 -0.0119  0.0511
  529MPD2    C1 7851   2.443   3.288   0.298  0.3880 -0.1990  0.1542
  529MPD2    C2 7852   2.364   3.405   0.307  0.4462  0.0949  0.1721
  529MPD2    C3 7853   2.336   3.480   0.199  0.4814 -0.2334  0.5495
  529MPD2    C4 7854   2.396   3.444   0.074  0.2216  0.1680 -0.2764
  529MPD2    C5 7855   2.479   3.328   0.069  0.1294 -0.2181  0.5089
  529MPD2     H 7856   2.322   3.426   0.405  0.4169 -1.5040  0.4878
  529MPD2    H1 7857   2.373   3.487  17.676 -1.1172 -1.7291 -0.8067
  529MPD2    H2 7858   2.557   3.160   0.170 -1.3462 -1.0307  0.2303
  529MPD2    H3 7859   2.504   3.285  17.671 -1.4623  0.3673 -0.1659
  529MPD2     N 7860   2.241   3.585   0.192  0.6977 -0.4723 -0.5451
  529MPD2    H5 7861   2.220   3.631   0.104 -0.0028 -2.6126 -1.5013
  529MPD2    N1 7862   2.465   3.221   0.421  0.6741 -0.0150 -0.1909
  529MPD2    H7 7863   2.427   3.262   0.505  1.9288  0.0407  0.3455
  530TMC3    C1 7864   2.481   3.034   0.559 -0.1012 -0.1137 -0.5903
  530TMC3    C2 7865   2.483   3.100   0.670 -0.9259  0.0953 -0.5192
  530TMC3    C3 7866   2.475   3.041   0.794  0.6274 -0.7624  0.5085
  530TMC3    C4 7867   2.479   2.899   0.571  0.4718 -0.2127 -0.1962
  530TMC3    C5 7868   2.451   2.834   0.686 -0.0969 -0.4379 -0.4716
  530TMC3    C6 7869   2.458   2.906   0.810  0.3474  0.4330  0.1300
  530TMC3     C 7870   2.499   3.089   0.427 -0.3791 -0.1808  0.3221
  530TMC3     O 7871   2.523   3.005   0.338  0.4686  0.2194 -0.5488
  530TMC3     H 7872   2.491   3.208   0.660  1.2811  0.0131  0.4080
  530TMC3    H1 7873   2.473   2.839   0.481  0.5513 -1.2673  0.4967
  530TMC3    H2 7874   2.447   2.857   0.906 -4.5539 -0.4828 -0.9170
  530TMC3    C7 7875   2.438   2.688   0.680 -0.2647  0.8180  0.1826
  530TMC3    C8 7876   2.420   3.120   0.898  0.5361  0.8115  0.1990
  530TMC3    O1 7877   2.446   2.633   0.572  0.6304  0.5556  0.0912
  530TMC3    O2 7878   2.375   3.228   0.861  0.1269 -0.3904 -0.2681
  531MPD2     C 7879   1.094   1.253  12.987  0.2543  0.4482  0.3543
  531MPD2    C1 7880   1.031   1.370  13.031  0.0885 -0.4943  0.1443
  531MPD2    C2 7881   0.894   1.368  13.041  0.5396  0.3289  0.1798
  531MPD2    C3 7882   0.831   1.243  13.007 -0.1060 -0.0931 -0.2361
  531MPD2    C4 7883   0.895   1.135  12.953  1.2498  0.3485 -0.1011
  531MPD2    C5 7884   1.026   1.144  12.949 -0.7447  0.2114  0.1004
  531MPD2     H 7885   0.836   1.452  13.076 -1.5053 -0.1828 -1.9716
  531MPD2    H1 7886   0.843   1.049  12.912  1.9855  0.1215 -0.5492
  531MPD2    H2 7887   1.202   1.256  12.979  0.1950 -0.3386 -0.7147
  531MPD2    H3 7888   1.081   1.071  12.890 -0.1911 -0.2209  1.1655
  531MPD2     N 7889   0.692   1.241  13.024  0.2066 -0.7534  0.1466
  531MPD2    H5 7890   0.659   1.329  13.061  0.9579  0.4160 -1.9679
  531MPD2    N1 7891   1.118   1.478  13.076  0.1804  0.3199 -0.2494
  531MPD2    H7 7892   1.218   1.465  13.067  0.4213  0.0474  2.8515
  532TMC3    C1 7893   1.162   1.673  13.206 -0.2267 -0.1976  0.3510
  532TMC3    C2 7894   1.109   1.780  13.270  0.0567 -0.2396 -0.2028
  532TMC3    C3 7895   1.153   1.810  13.395  0.5014 -0.3206  0.1714
  532TMC3    C4 7896   1.271   1.601  13.262 -0.2898  0.3148 -0.1123
  532TMC3    C5 7897   1.322   1.650  13.369  0.5980  0.0724 -0.1642
  532TMC3    C6 7898   1.270   1.750  13.440 -0.3073 -0.9050  0.2531
  532TMC3     C 7899   1.070   1.599  13.122  0.3717  0.5022 -0.3456
  532TMC3     O 7900   0.960   1.647  13.111 -0.1631 -0.6136  0.7520
  532TMC3     H 7901   1.021   1.832  13.234  0.4471  0.8847  0.4599
  532TMC3    H1 7902   1.325   1.529  13.202 -1.5767 -0.3514 -0.4739
  532TMC3    H2 7903   1.313   1.764  13.539  0.5037 -2.4291  0.1187
  532TMC3    C7 7904   1.434   1.581  13.435  0.1783  0.3097 -0.2215
  532TMC3    C8 7905   1.049   1.771  13.496  0.6283 -0.2943 -0.9956
  532TMC3    O1 7906   1.502   1.634  13.520 -0.4061 -0.5993 -0.7372
  532TMC3    O2 7907   1.079   1.783  13.610  0.6195 -0.4052  0.4501
  533TMC3    C1 7908   2.383   2.984  14.319 -0.0431 -0.4246 -0.2906
  533TMC3    C2 7909   2.517   2.999  14.342  0.4822  0.1406 -0.1044
  533TMC3    C3 7910   2.545   3.057  14.462 -0.2973 -0.2996 -0.4924
  533TMC3    C4 7911   2.282   3.063  14.382 -0.0246 -0.1331  0.1269
  533TMC3    C5 7912   2.325   3.124  14.491  0.1114 -0.4941 -0.3500
  533TMC3    C6 7913   2.453   3.115  14.537 -0.0678  0.1485  0.1689
  533TMC3     C 7914   2.343   2.850  14.280  0.0838 -0.6555 -0.1906
  533TMC3     O 7915   2.405   2.756  14.322 -0.1859  0.4527 -0.2020
  533TMC3     H 7916   2.589   2.937  14.289 -0.2947 -0.4897 -0.4240
  533TMC3    H1 7917   2.178   3.068  14.352  0.8368  4.1575 -2.1002
  533TMC3    H2 7918   2.483   3.145  14.637  0.9512  1.3071 -0.4776
  533TMC3    C7 7919   2.222   3.118  14.597 -0.0456  0.5634  0.7295
  533TMC3    C8 7920   2.678   3.078  14.504 -0.5490  0.8069 -0.0366
  533TMC3    O1 7921   2.132   3.039  14.572 -0.0770  0.3625  0.3598
  533TMC3    O2 7922   2.710   3.053  14.623 -0.6741  0.5370 -0.0366
  534MPD2     C 7923   3.449   0.064   1.793 -0.8904  0.0542  0.7937
  534MPD2    C1 7924   3.528   0.069   1.677 -0.7759  0.2946 -0.3232
  534MPD2    C2 7925   3.508   4.705   1.578  0.2071 -0.1964 -1.0111
  534MPD2    C3 7926   3.413   4.607   1.584  0.9706 -0.2554 -0.1426
  534MPD2    C4 7927   3.334   4.602   1.696 -0.0048  0.2072  0.0202
  534MPD2    C5 7928   3.348   4.693   1.801 -0.5062  0.1914 -0.3366
  534MPD2     H 7929   3.582   4.714   1.499  0.1382 -1.8398 -1.2663
  534MPD2    H1 7930   3.260   4.524   1.710  0.2479  0.5339  3.2014
  534MPD2    H2 7931   3.460   0.128   1.880 -1.0392 -0.1473  0.9579
  534MPD2    H3 7932   3.282   4.686   1.886  2.3624  1.7105  2.0413
  534MPD2     N 7933   3.397   4.507   1.488  0.1442 -0.7387 -0.0137
  534MPD2    H5 7934   3.310   4.455   1.499  0.0804 -1.1643 -2.4693
  534MPD2    N1 7935   3.625   0.171   1.658  0.4174 -0.2069  0.2143
  534MPD2    H7 7936   3.668   0.172   1.566  1.2068 -2.0739  0.5719
  535TMC3    C1 7937   3.440   4.380   1.299  0.6965  0.3365 -0.0314
  535TMC3    C2 7938   3.348   4.290   1.344 -0.1874 -0.7668  0.2084
  535TMC3    C3 7939   3.325   4.178   1.265  0.0406  0.4680 -0.2497
  535TMC3    C4 7940   3.474   4.383   1.169  0.4501 -0.5954 -0.5470
  535TMC3    C5 7941   3.444   4.267   1.094 -0.1788 -0.2840 -0.0705
  535TMC3    C6 7942   3.379   4.161   1.142 -0.4077 -0.1785  0.3806
  535TMC3     C 7943   3.477   4.493   1.380 -0.1030  0.2105 -0.6494
  535TMC3     O 7944   3.590   4.531   1.370 -0.3062  0.1242  0.0417
  535TMC3     H 7945   3.302   4.294   1.443 -0.3400 -0.4381  0.1210
  535TMC3    H1 7946   3.532   4.469   1.138 -0.2358 -0.8484 -2.5360
  535TMC3    H2 7947   3.353   4.083   1.071  1.3132 -1.6217  1.3176
  535TMC3    C7 7948   3.470   4.281   0.955  0.0741  0.9128 -0.3533
  535TMC3    C8 7949   3.199   4.107   1.287  0.1171 -0.3663 -0.2026
  535TMC3    O1 7950   3.502   4.183   0.889 -0.8117  0.0565  0.4198
  535TMC3    O2 7951   3.149   4.047   1.192  0.0872  0.3271  0.4014
  536MPD2     C 7952   2.484   1.582  16.559 -0.8864  0.9574 -0.4502
  536MPD2    C1 7953   2.612   1.643  16.530  0.7656  0.4902  0.4279
  536MPD2    C2 7954   2.619   1.727  16.419 -0.0993  0.3336 -0.0466
  536MPD2    C3 7955   2.518   1.751  16.331 -0.4155  0.3840  0.0224
  536MPD2    C4 7956   2.397   1.679  16.355 -0.4543 -0.3179 -0.1437
  536MPD2    C5 7957   2.385   1.604  16.471 -0.1793 -0.4108 -0.4484
  536MPD2     H 7958   2.712   1.774  16.390 -0.2407  1.4422  1.3143
  536MPD2    H1 7959   2.310   1.682  16.291  0.4076  1.2522 -1.2202
  536MPD2    H2 7960   2.464   1.510  16.637  1.3982 -0.7248 -1.3922
  536MPD2    H3 7961   2.288   1.557  16.489 -0.6908  0.8355  0.0729
  536MPD2     N 7962   2.526   1.829  16.208  0.2385  0.4483 -0.2727
  536MPD2    H5 7963   2.451   1.815  16.142 -1.4536 -0.1583  1.7578
  536MPD2    N1 7964   2.713   1.641  16.621  0.0865 -0.1475  0.2528
  536MPD2    H7 7965   2.692   1.593  16.707  0.6598  0.7311  0.8766
  537TMC3    C1 7966   2.901   1.692  16.742 -0.2596  0.4789 -0.5640
  537TMC3    C2 7967   2.978   1.794  16.797  0.7041 -0.3567 -0.5625
  537TMC3    C3 7968   3.020   1.786  16.922 -0.9848  0.1283  0.7317
  537TMC3    C4 7969   2.878   1.578  16.816  0.3086  0.5924  0.3868
  537TMC3    C5 7970   2.941   1.568  16.936  0.2875 -0.6271 -0.4270
  537TMC3    C6 7971   3.010   1.675  16.996 -0.3605 -0.3318  0.8201
  537TMC3     C 7972   2.833   1.714  16.622 -0.2521  0.4686 -0.7800
  537TMC3     O 7973   2.870   1.803  16.542  0.2856  0.1721 -0.0991
  537TMC3     H 7974   2.991   1.884  16.738  1.6056 -0.1293 -0.0091
  537TMC3    H1 7975   2.831   1.491  16.770  0.8165 -0.5095  1.9621
  537TMC3    H2 7976   3.061   1.675  17.091  0.4274  0.8493  0.3910
  537TMC3    C7 7977   2.909   1.451  17.007 -0.3091 -0.1490 -0.3995
  537TMC3    C8 7978   3.126   1.868  16.975  0.4188  0.5292 -0.7406
  537TMC3    O1 7979   2.800   1.397  16.984 -0.0232 -0.7187 -0.3246
  537TMC3    O2 7980   3.095   1.936  17.074  0.0462  0.1627  0.0986
  538TMC3    C1 7981   0.048   0.128  11.175  0.0586 -0.3458  0.0187
  538TMC3    C2 7982   0.137   0.080  11.083 -0.7371 -0.1556  0.7661
  538TMC3    C3 7983   0.141   0.135  10.964  0.3784 -0.3889 -0.6630
  538TMC3    C4 7984   4.668   0.212  11.134 -0.2501 -0.3904  0.0177
  538TMC3    C5 7985   4.678   0.263  11.007  0.5264 -0.2984 -0.7195
  538TMC3    C6 7986   0.050   0.225  10.912  0.7650 -0.1511 -0.0695
  538TMC3     C 7987   0.093   0.134  11.318  0.0039 -0.4292  0.5678
  538TMC3     O 7988   0.004   0.150  11.400 -0.1313  0.0189  0.8373
  538TMC3     H 7989   0.226   0.026  11.110  1.5590  3.6427  0.7470
  538TMC3    H1 7990   4.599   0.251  11.208 -1.0367  0.7016 -1.2880
  538TMC3    H2 7991   0.052   0.241  10.804  0.9627 -2.6404 -0.4358
  538TMC3    C7 7992   4.575   0.354  10.963  0.5223  0.4907  0.1104
  538TMC3    C8 7993   0.239   0.082  10.868  0.2171  0.2488  0.2843
  538TMC3    O1 7994   4.488   0.395  11.041  0.0759  0.2898 -0.1602
  538TMC3    O2 7995   0.274   4.689  10.876 -0.5069 -0.4740 -0.2060
  539MPD2     C 7996   3.926   4.220  11.317  0.2562 -0.0270  0.7248
  539MPD2    C1 7997   4.020   4.190  11.222 -0.4489  0.0261 -0.0717
  539MPD2    C2 7998   4.102   4.287  11.173 -0.2359  0.2243 -0.1555
  539MPD2    C3 7999   4.075   4.420  11.213  0.7614 -0.0641 -0.0923
  539MPD2    C4 8000   3.981   4.453  11.311 -0.2108  0.4465  0.1050
  539MPD2    C5 8001   3.908   4.350  11.363  0.0396 -0.5138  0.8985
  539MPD2     H 8002   4.176   4.254  11.101 -0.2323  0.7637 -0.4034
  539MPD2    H1 8003   3.969   4.557  11.339  0.5482  0.6841 -0.4313
  539MPD2    H2 8004   3.864   4.140  11.356 -0.8141  0.2496 -0.3909
  539MPD2    H3 8005   3.836   4.364  11.443 -1.6676  0.8135 -0.8712
  539MPD2     N 8006   4.147   4.531  11.169 -0.1285  0.0542  0.1947
  539MPD2    H5 8007   4.129   4.623  11.207  0.5530  0.9127 -1.5180
  539MPD2    N1 8008   4.045   4.055  11.182 -0.0472  0.1281 -0.7084
  539MPD2    H7 8009   4.120   4.044  11.114  1.7059  1.2850  1.0052
  540TMC3    C1 8010   4.299   4.671  11.050 -0.4381  0.2789  1.0155
  540TMC3    C2 8011   4.269   0.008  10.930  0.6680  0.6097 -0.0193
  540TMC3    C3 8012   4.237   0.141  10.928  0.1192  0.2491  0.1882
  540TMC3    C4 8013   4.317   0.018  11.163  0.2386 -0.8641 -0.0751
  540TMC3    C5 8014   4.298   0.150  11.154 -0.3734  0.1528 -0.5150
  540TMC3    C6 8015   4.261   0.215  11.043 -0.2862 -0.1088 -0.2222
  540TMC3     C 8016   4.242   4.534  11.064  0.6076 -1.1278 -0.0133
  540TMC3     O 8017   4.236   4.467  10.962  0.4076  0.0164  0.1644
  540TMC3     H 8018   4.242   4.664  10.850 -3.9273 -0.3694  2.3981
  540TMC3    H1 8019   4.359   4.711  11.258  0.4797 -1.1289 -0.2695
  540TMC3    H2 8020   4.246   0.322  11.041 -0.1446 -0.0962 -0.6259
  540TMC3    C7 8021   4.288   0.217  11.279  0.0483  0.6617 -0.9261
  540TMC3    C8 8022   4.107   0.170  10.863 -0.0602 -0.3382 -0.3691
  540TMC3    O1 8023   4.249   0.148  11.372  0.3232 -0.6396  0.0210
  540TMC3    O2 8024   4.049   0.275  10.886  0.3368 -0.2768  0.5254
  541MPD2     C 8025   2.127   1.380  12.952  0.1324  0.5570  0.3762
  541MPD2    C1 8026   2.232   1.317  12.888 -0.2018 -0.4633 -0.5104
  541MPD2    C2 8027   2.266   1.354  12.760  0.0440  0.5784 -0.0590
  541MPD2    C3 8028   2.197   1.450  12.693 -0.0966 -0.6578  0.4030
  541MPD2    C4 8029   2.098   1.516  12.764 -0.2020 -0.1771 -0.0702
  541MPD2    C5 8030   2.062   1.480  12.889  0.0586 -0.0724  0.1776
  541MPD2     H 8031   2.349   1.306  12.710 -0.0544  1.5255 -1.1249
  541MPD2    H1 8032   2.032   1.594  12.728  0.0990  0.6499  1.1605
  541MPD2    H2 8033   2.093   1.347  13.049  0.3003 -0.3338  0.1297
  541MPD2    H3 8034   1.995   1.539  12.950  1.2048 -0.0745  1.4435
  541MPD2     N 8035   2.213   1.470  12.554  0.3186 -0.0477  0.1361
  541MPD2    H5 8036   2.153   1.542  12.517  1.1511 -1.0043 -3.0555
  541MPD2    N1 8037   2.302   1.225  12.975  0.1322 -0.0224  0.5491
  541MPD2    H7 8038   2.259   1.192  13.061  1.1378 -1.5370  0.4783
  542TMC3    C1 8039   2.282   1.454  12.334  0.2548  0.7812  0.8280
  542TMC3    C2 8040   2.306   1.368  12.233  0.7269 -0.5094 -0.3406
  542TMC3    C3 8041   2.316   1.429  12.108 -0.6566  0.2949 -0.7401
  542TMC3    C4 8042   2.266   1.590  12.322 -0.2434 -0.1595  0.9182
  542TMC3    C5 8043   2.251   1.639  12.196 -0.1391 -1.0986 -0.2311
  542TMC3    C6 8044   2.282   1.561  12.085 -0.2737  0.1911 -0.5575
  542TMC3     C 8045   2.298   1.400  12.466  0.1196 -0.2238 -0.1878
  542TMC3     O 8046   2.350   1.290  12.476 -0.4580 -0.5621 -0.3045
  542TMC3     H 8047   2.337   1.268  12.262  0.6950 -0.3756  0.1606
  542TMC3    H1 8048   2.281   1.645  12.414 -0.8950 -0.0472  0.9574
  542TMC3    H2 8049   2.295   1.607  11.988  1.3051  0.4193 -0.2209
  542TMC3    C7 8050   2.279   1.781  12.182  0.1129 -0.1596 -0.2936
  542TMC3    C8 8051   2.376   1.360  11.995 -0.5024  0.1994  0.2848
  542TMC3    O1 8052   2.329   1.820  12.076 -0.4592  0.0232 -0.5744
  542TMC3    O2 8053   2.349   1.406  11.886  0.4163 -0.2657  0.0587
  543TMC3    C1 8054   2.049   2.891  17.325 -0.5474 -0.0933  0.3257
  543TMC3    C2 8055   2.060   2.761  17.361  0.1534  0.4110  0.4606
  543TMC3    C3 8056   2.009   2.719  17.478  0.6770 -0.1938 -0.5697
  543TMC3    C4 8057   1.998   2.982  17.404 -0.2383  0.2058 -0.6986
  543TMC3    C5 8058   1.937   2.931  17.518  0.2498  0.8167  0.5202
  543TMC3    C6 8059   1.946   2.799  17.559  0.3129  0.5450  0.2055
  543TMC3     C 8060   2.126   2.932  17.210  0.4087 -0.3341  0.0053
  543TMC3     O 8061   2.213   2.862  17.173 -0.1586  0.4587 -0.2067
  543TMC3     H 8062   2.100   2.698  17.283  1.2996  0.9168  0.6369
  543TMC3    H1 8063   2.014   3.089  17.396  0.5927  0.0968 -0.5294
  543TMC3    H2 8064   1.901   2.773  17.654  0.6365 -1.3931 -0.1601
  543TMC3    C7 8065   1.861   3.020  17.604  0.1473 -0.1995 -0.1333
  543TMC3    C8 8066   2.037   2.583  17.511  0.0495 -0.3806  0.1816
  543TMC3    O1 8067   1.830   2.972   0.017  0.2361 -0.0498  0.0988
  543TMC3    O2 8068   2.062   2.505  17.419 -0.1245 -0.3227  0.0864
  544MPD2     C 8069   2.064   2.180   0.128 -0.1249 -0.2797  0.1452
  544MPD2    C1 8070   2.078   2.185  17.687 -0.0987  0.2948 -0.3839
  544MPD2    C2 8071   2.068   2.305  17.624 -0.0911  0.3653 -0.0871
  544MPD2    C3 8072   2.057   2.421   0.003  0.0063 -0.8380 -0.5150
  544MPD2    C4 8073   2.045   2.410   0.138  0.3979 -0.0517  0.3109
  544MPD2    C5 8074   2.040   2.293   0.200  0.0253 -0.3546 -0.2540
  544MPD2     H 8075   2.048   2.303  17.517  2.2666 -1.0876 -0.4929
  544MPD2    H1 8076   2.011   2.501   0.186 -0.6890  0.4162 -1.3525
  544MPD2    H2 8077   2.086   2.087   0.180  0.2800 -0.3374 -0.1254
  544MPD2    H3 8078   2.020   2.290   0.306 -0.4393 -1.8213 -0.3820
  544MPD2     N 8079   2.030   2.547  17.643 -0.3045  0.2150  0.0895
  544MPD2    H5 8080   2.008   2.625   0.005  2.3079  1.3347 -0.4166
  544MPD2    N1 8081   2.101   2.057  17.620 -0.2770 -0.0412  0.0633
  544MPD2    H7 8082   2.090   1.977  17.681 -1.6805 -1.1358 -1.6159
  545TMC3    C1 8083   2.097   1.899  17.437  0.4990 -0.0142 -0.3062
  545TMC3    C2 8084   2.025   1.888  17.319  0.0984 -0.0084  0.1819
  545TMC3    C3 8085   2.027   1.758  17.274  0.3581 -0.3024 -0.6429
  545TMC3    C4 8086   2.151   1.795  17.511  0.2390 -0.3130  0.9062
  545TMC3    C5 8087   2.139   1.680  17.456  0.5233 -0.2162  0.1680
  545TMC3    C6 8088   2.064   1.650  17.347 -0.5177  0.0519 -0.8291
  545TMC3     C 8089   2.101   2.038  17.488  0.3257  0.3510 -0.0686
  545TMC3     O 8090   2.094   2.127  17.404  0.3754 -0.1399 -0.3489
  545TMC3     H 8091   2.009   1.965  17.245 -5.2711 -2.4427 -1.1789
  545TMC3    H1 8092   2.189   1.807  17.611  3.2351 -2.0999 -0.0124
  545TMC3    H2 8093   2.047   1.548  17.313  0.9336 -0.0941 -1.1526
  545TMC3    C7 8094   2.211   1.576  17.515 -0.0124 -0.0428  0.0467
  545TMC3    C8 8095   1.957   1.733  17.155 -0.0612 -0.2195 -0.2871
  545TMC3    O1 8096   2.162   1.466  17.500 -0.2372  0.0990  0.6377
  545TMC3    O2 8097   1.890   1.828  17.118  0.2345 -0.1118  0.1259
  546MPD2     C 8098   3.562   2.925  17.620 -0.0720 -0.1779  0.2105
  546MPD2    C1 8099   3.534   2.880  17.489  0.8117  0.4334  0.4332
  546MPD2    C2 8100   3.587   2.965  17.385 -0.2265  0.4100 -0.5376
  546MPD2    C3 8101   3.667   3.079  17.417  0.4296 -0.5411 -0.0941
  546MPD2    C4 8102   3.683   3.112  17.549 -0.5075 -0.9300 -0.0914
  546MPD2    C5 8103   3.623   3.041  17.644  0.5861 -0.9304  0.0578
  546MPD2     H 8104   3.563   2.948  17.281  0.1954  1.9689 -0.8885
  546MPD2    H1 8105   3.738   3.201  17.579  1.1677 -2.0452  0.1280
  546MPD2    H2 8106   3.508   2.869  17.697 -3.0768  0.6863 -1.2767
  546MPD2    H3 8107   3.641   3.080   0.046 -0.8596  2.1147 -0.8519
  546MPD2     N 8108   3.708   3.170  17.320  0.1475 -0.4777  0.4320
  546MPD2    H5 8109   3.755   3.254  17.352  0.9786 -0.6280 -0.3831
  546MPD2    N1 8110   3.439   2.780  17.469  0.6212 -0.2836  0.4976
  546MPD2    H7 8111   3.388   2.757  17.553 -0.0899  1.4542  0.5422
  547TMC3    C1 8112   3.278   2.651  17.369  0.3808  0.0107  0.3515
  547TMC3    C2 8113   3.199   2.640  17.257 -0.3144  0.0634  0.1396
  547TMC3    C3 8114   3.097   2.545  17.241  0.2595  0.5150 -0.2556
  547TMC3    C4 8115   3.249   2.568  17.472  0.1060  0.5424  0.3506
  547TMC3    C5 8116   3.150   2.474  17.452  0.5539 -0.1920 -0.6589
  547TMC3    C6 8117   3.074   2.456  17.340  0.3254 -0.4392  0.4445
  547TMC3     C 8118   3.396   2.732  17.349  0.2678  0.2370  0.5393
  547TMC3     O 8119   3.457   2.727  17.245 -0.4915  0.7335  0.2645
  547TMC3     H 8120   3.220   2.704  17.172  0.0206  1.9849  1.6596
  547TMC3    H1 8121   3.300   2.564  17.568  0.5659  1.8064  0.1552
  547TMC3    H2 8122   2.994   2.386  17.321 -0.0456  0.3222 -0.8584
  547TMC3    C7 8123   3.128   2.370  17.552 -0.3991  0.3613  0.3369
  547TMC3    C8 8124   3.025   2.543  17.112 -0.0544 -0.4315 -0.6025
  547TMC3    O1 8125   3.173   2.393  17.663  0.1066  0.2354 -0.5249
  547TMC3    O2 8126   3.041   2.651  17.057 -0.0946 -0.2489 -0.7037
  548MPD2     C 8127   3.476   3.261  12.687 -0.3578  0.0143  0.0320
  548MPD2    C1 8128   3.403   3.161  12.633 -0.1965 -0.1715  0.0422
  548MPD2    C2 8129   3.456   3.086  12.526  0.2758 -0.6857  0.5243
  548MPD2    C3 8130   3.579   3.116  12.484  0.4985  0.0235  0.0228
  548MPD2    C4 8131   3.649   3.223  12.531 -0.1173 -0.2164  0.6041
  548MPD2    C5 8132   3.599   3.298  12.636 -0.4315 -0.0674  0.7397
  548MPD2     H 8133   3.412   3.000  12.476  1.3350 -1.1524  0.4015
  548MPD2    H1 8134   3.752   3.244  12.502  0.5296 -0.6887  2.5468
  548MPD2    H2 8135   3.439   3.323  12.768  0.8713  0.0327  0.5898
  548MPD2    H3 8136   3.651   3.383  12.678  0.1076 -0.6466  1.2523
  548MPD2     N 8137   3.623   3.039  12.378 -0.0972  0.3513 -0.0162
  548MPD2    H5 8138   3.568   2.958  12.351 -0.3026  0.2484  0.7131
  548MPD2    N1 8139   3.273   3.140  12.686  0.5362 -0.3734  0.6326
  548MPD2    H7 8140   3.224   3.212  12.737  1.0457  0.6520 -0.3227
  549TMC3    C1 8141   3.070   3.032  12.719  0.8162 -0.3598  0.7784
  549TMC3    C2 8142   3.009   3.154  12.723 -0.5505  0.5704 -0.0156
  549TMC3    C3 8143   2.893   3.169  12.803  0.1870 -0.1009 -0.8017
  549TMC3    C4 8144   3.018   2.926  12.781  0.3794 -0.1782  0.2344
  549TMC3    C5 8145   2.907   2.942  12.853  0.3688  0.0109  0.9326
  549TMC3    C6 8146   2.842   3.056  12.866  0.2218  0.8824  0.3099
  549TMC3     C 8147   3.199   3.020  12.662  0.1986 -0.0955 -0.2006
  549TMC3     O 8148   3.249   2.911  12.640  0.3135  0.6720  0.1176
  549TMC3     H 8149   3.043   3.235  12.661  1.8820 -0.6113 -0.2349
  549TMC3    H1 8150   3.079   2.837  12.776  1.9994  0.9005  0.6978
  549TMC3    H2 8151   2.754   3.062  12.929 -1.0810  1.5319 -1.5929
  549TMC3    C7 8152   2.845   2.822  12.912 -1.0719  0.8136  0.1704
  549TMC3    C8 8153   2.822   3.296  12.807  0.0024 -0.3490  0.2218
  549TMC3    O1 8154   2.761   2.846  12.993 -0.0990 -0.4994 -0.2407
  549TMC3    O2 8155   2.705   3.300  12.838  0.8181 -0.4650 -0.2968
  550TMC3    C1 8156   1.606   0.973  12.482 -0.1069 -0.4827  0.1109
  550TMC3    C2 8157   1.596   1.008  12.616 -1.1827 -1.0215  0.2984
  550TMC3    C3 8158   1.493   1.080  12.661 -0.0318 -0.2083 -0.0657
  550TMC3    C4 8159   1.522   1.034  12.395 -0.4734  0.3570  0.2983
  550TMC3    C5 8160   1.423   1.124  12.439  0.3461  0.4355 -0.0717
  550TMC3    C6 8161   1.407   1.132  12.576  0.3437 -0.1059  0.3966
  550TMC3     C 8162   1.681   0.859  12.447 -1.0814 -0.2536  0.4343
  550TMC3     O 8163   1.685   0.766  12.527  0.4148 -0.0590  0.2843
  550TMC3     H 8164   1.669   0.960  12.680 -1.1186 -0.2504  0.7992
  550TMC3    H1 8165   1.522   0.997  12.293 -0.3394  0.7038  0.1714
  550TMC3    H2 8166   1.324   1.194  12.609 -2.0147 -2.4817 -1.1217
  550TMC3    C7 8167   1.364   1.221  12.344  0.4257 -0.0668 -0.1431
  550TMC3    C8 8168   1.487   1.144  12.791  0.0837 -0.1855 -0.4163
  550TMC3    O1 8169   1.274   1.286  12.393 -0.1816 -0.0116 -0.1463
  550TMC3    O2 8170   1.379   1.191  12.829  0.4304 -0.1435 -0.1568
  551TMC3    C1 8171   4.150   3.860  13.361  0.2416 -0.3378 -0.6456
  551TMC3    C2 8172   4.218   3.920  13.256  0.1753  0.0768 -0.4564
  551TMC3    C3 8173   4.309   4.011  13.290  0.7093 -0.1475  0.0302
  551TMC3    C4 8174   4.186   3.872  13.491  0.2768  0.5272 -0.7540
  551TMC3    C5 8175   4.291   3.956  13.514  0.0450  0.1117  0.5881
  551TMC3    C6 8176   4.350   4.027  13.417  0.1752  0.2192 -0.6020
  551TMC3     C 8177   4.060   3.748  13.322  0.0920 -0.1997  0.4835
  551TMC3     O 8178   4.077   3.705  13.212 -0.3703  0.4627  0.1268
  551TMC3     H 8179   4.197   3.908  13.151 -1.2903 -0.9565 -0.0332
  551TMC3    H1 8180   4.151   3.804  13.568  2.8798 -1.7651 -1.5732
  551TMC3    H2 8181   4.440   4.086  13.430 -0.3983  1.5029 -2.4652
  551TMC3    C7 8182   4.331   3.965  13.654 -0.2311  0.3198 -0.3420
  551TMC3    C8 8183   4.414   4.035  13.195  0.4280  0.1542  0.0909
  551TMC3    O1 8184   4.277   3.895  13.740  0.8189  0.1047  0.2708
  551TMC3    O2 8185   4.464   3.937  13.148  0.4520  0.3600 -0.3519
  552MPD2     C 8186   1.537   1.352  13.791  0.0319  1.0076  0.5664
  552MPD2    C1 8187   1.461   1.307  13.895 -0.2985  0.4124 -0.0821
  552MPD2    C2 8188   1.522   1.258  14.006  0.1192  0.0688 -0.1203
  552MPD2    C3 8189   1.668   1.252  14.009  0.4087 -0.5189  0.3418
  552MPD2    C4 8190   1.733   1.319  13.907 -0.5347  0.0125  0.3601
  552MPD2    C5 8191   1.669   1.367  13.797  0.6588  0.1281  0.0098
  552MPD2     H 8192   1.462   1.244  14.095  0.9003  1.7102  0.6741
  552MPD2    H1 8193   1.840   1.335  13.916  0.1399 -2.6683 -2.8826
  552MPD2    H2 8194   1.496   1.373  13.693 -0.5276 -1.6011  0.2470
  552MPD2    H3 8195   1.725   1.413  13.716  0.3629 -0.2660 -0.4178
  552MPD2     N 8196   1.753   1.199  14.108 -0.1534 -0.5577 -0.6554
  552MPD2    H5 8197   1.851   1.185  14.085 -0.1076  0.7027 -1.2472
  552MPD2    N1 8198   1.322   1.313  13.898 -0.2498 -0.3799 -0.0143
  552MPD2    H7 8199   1.265   1.277  13.973  2.1711  2.4690  3.2235
  553TMC3    C1 8200   1.105   1.319  13.793  0.2781 -0.4010  0.0274
  553TMC3    C2 8201   1.035   1.338  13.676  0.1586 -0.3400 -0.7551
  553TMC3    C3 8202   0.943   1.246  13.621 -0.1901 -0.2253  0.4741
  553TMC3    C4 8203   1.066   1.211  13.873 -0.2305  0.1623  0.7200
  553TMC3    C5 8204   0.974   1.122  13.825 -0.5325 -0.2780 -0.0646
  553TMC3    C6 8205   0.909   1.138  13.706 -0.0428  0.4331 -0.5921
  553TMC3     C 8206   1.246   1.359  13.791 -0.1529  0.1250 -0.1173
  553TMC3     O 8207   1.280   1.435  13.703  0.5970  0.4572 -0.1777
  553TMC3     H 8208   1.060   1.422  13.612 -2.8044 -0.9300 -2.7209
  553TMC3    H1 8209   1.135   1.179  13.952 -0.0515  0.2891  0.6151
  553TMC3    H2 8210   0.839   1.061  13.674  0.0413  0.2867 -0.4283
  553TMC3    C7 8211   0.994   0.981  13.865  0.2068 -0.1974 -0.0816
  553TMC3    C8 8212   0.958   1.201  13.477 -0.9645  0.0211  0.2388
  553TMC3    O1 8213   0.902   0.919  13.906 -0.1857 -0.8379 -0.4784
  553TMC3    O2 8214   1.049   1.244  13.412 -0.4411  0.3813  0.1868
  554TMC3    C1 8215   3.283   4.392  11.568 -0.2875  0.0701  0.1066
  554TMC3    C2 8216   3.208   4.393  11.448 -0.0288 -0.3824 -0.0311
  554TMC3    C3 8217   3.267   4.452  11.339 -0.3072  0.2499  0.1784
  554TMC3    C4 8218   3.406   4.464  11.577  0.3470 -0.9386 -0.2032
  554TMC3    C5 8219   3.455   4.525  11.463  0.1514 -0.3799 -0.5010
  554TMC3    C6 8220   3.392   4.510  11.340 -0.0312 -0.2002 -1.1969
  554TMC3     C 8221   3.236   4.323  11.686 -0.6414  0.8135  0.3148
  554TMC3     O 8222   3.120   4.281  11.678  0.0085  0.0806  0.4904
  554TMC3     H 8223   3.117   4.334  11.448 -0.0092 -0.4071  0.6742
  554TMC3    H1 8224   3.447   4.487  11.675  0.4740 -0.0769 -0.4563
  554TMC3    H2 8225   3.424   4.557  11.248  1.0142 -2.3954 -1.9344
  554TMC3    C7 8226   3.577   4.610  11.456  0.2951 -0.5710  0.1518
  554TMC3    C8 8227   3.199   4.450  11.210 -0.0423  0.2075  0.2986
  554TMC3    O1 8228   3.649   4.603  11.558 -0.3502  0.2548  0.2480
  554TMC3    O2 8229   3.267   4.496  11.118  0.2055  0.0457  0.0231
  555TMC3    C1 8230   2.257   4.553  15.489 -0.3672 -1.2961  0.7169
  555TMC3    C2 8231   2.206   4.627  15.593 -0.0810  0.9722 -0.2392
  555TMC3    C3 8232   2.197   4.563  15.708 -0.3533 -0.6587  0.1498
  555TMC3    C4 8233   2.317   4.433  15.496  0.4357  0.4785 -0.1972
  555TMC3    C5 8234   2.298   4.368  15.618  0.2397 -0.3161 -0.3112
  555TMC3    C6 8235   2.235   4.431  15.723  0.2482  0.0371  0.7141
  555TMC3     C 8236   2.294   4.639  15.377 -0.0833  0.3058  0.8535
  555TMC3     O 8237   2.304   0.036  15.397  0.2750 -0.5191  0.1914
  555TMC3     H 8238   2.160   4.722  15.569  0.6324  1.3949  0.0704
  555TMC3    H1 8239   2.338   4.377  15.406  0.9130  1.0991 -0.4690
  555TMC3    H2 8240   2.226   4.365  15.808 -0.4896 -0.1124  0.5208
  555TMC3    C7 8241   2.324   4.220  15.626 -0.0541  0.5865 -0.1564
  555TMC3    C8 8242   2.156   4.643  15.828  0.4627  0.2274  0.0740
  555TMC3    O1 8243   2.258   4.159  15.712 -0.0546  0.0563 -0.0537
  555TMC3    O2 8244   2.139   0.042  15.812  0.1218  0.2750  0.4391
  556MPD2     C 8245   0.255   1.236  10.645  0.5608 -0.4007  0.2168
  556MPD2    C1 8246   0.321   1.127  10.699 -0.7535  0.1029  0.5961
  556MPD2    C2 8247   0.353   1.020  10.618 -0.0128  0.3663  0.0638
  556MPD2    C3 8248   0.335   1.030  10.481 -0.5659 -0.8958 -0.5034
  556MPD2    C4 8249   0.274   1.143  10.426 -0.6593 -0.3319  0.2655
  556MPD2    C5 8250   0.236   1.242  10.503  0.4542 -0.3435 -0.4680
  556MPD2     H 8251   0.418   0.941  10.654 -0.3939  0.3718  0.7705
  556MPD2    H1 8252   0.274   1.160  10.319 -1.5533  2.5308  0.7147
  556MPD2    H2 8253   0.213   1.317  10.704  2.9151  1.3094 -0.4540
  556MPD2    H3 8254   0.192   1.331  10.459  0.7286 -0.3746 -0.8001
  556MPD2     N 8255   0.392   0.923  10.411  0.1083 -0.1926  0.1488
  556MPD2    H5 8256   0.435   0.845  10.460  4.0332  0.6832 -1.8855
  556MPD2    N1 8257   0.344   1.115  10.836 -0.3089 -0.1374 -0.5794
  556MPD2    H7 8258   0.393   1.032  10.866  1.3309  1.3113  0.8013
  557TMC3    C1 8259   0.437   0.783  10.223 -0.6185  0.1636 -0.1057
  557TMC3    C2 8260   0.425   0.745  10.099 -0.2137  0.8092  0.4673
  557TMC3    C3 8261   0.437   0.610  10.062 -0.0739 -0.2343 -0.2934
  557TMC3    C4 8262   0.465   0.692  10.322  0.2473  0.1162  0.2432
  557TMC3    C5 8263   0.479   0.558  10.286 -0.3316 -1.0071 -0.7146
  557TMC3    C6 8264   0.464   0.514  10.156 -0.0837 -0.6544 -0.1495
  557TMC3     C 8265   0.403   0.912  10.266 -0.2771  0.6790 -0.4496
  557TMC3     O 8266   0.379   1.001  10.183 -0.2685 -0.5111  0.2448
  557TMC3     H 8267   0.405   0.815  10.019 -1.9679 -0.4929 -0.2556
  557TMC3    H1 8268   0.495   0.721  10.423 -0.1817 -1.4200  0.7994
  557TMC3    H2 8269   0.462   0.407  10.137 -0.4276 -0.7960  0.6622
  557TMC3    C7 8270   0.435   0.472  10.392 -0.1670 -0.3143  0.0490
  557TMC3    C8 8271   0.409   0.585   9.921  0.5965 -0.0988  0.5503
  557TMC3    O1 8272   0.380   0.529  10.488  0.6400  0.0141  0.4426
  557TMC3    O2 8273   0.335   0.670   9.871  0.2024  0.0919  0.1593
  558TMC3    C1 8274   2.702   3.220   9.490 -0.2935  0.1919  0.3131
  558TMC3    C2 8275   2.651   3.199   9.619  0.0579  0.3796 -0.5753
  558TMC3    C3 8276   2.516   3.189   9.637 -0.0489 -0.0844  0.4563
  558TMC3    C4 8277   2.626   3.244   9.381 -0.2746  0.2605 -0.1617
  558TMC3    C5 8278   2.491   3.225   9.399 -0.8467 -0.5316  0.1781
  558TMC3    C6 8279   2.434   3.199   9.524  0.2593  0.7519 -0.6848
  558TMC3     C 8280   2.848   3.231   9.486 -0.1709 -0.0733 -0.2649
  558TMC3     O 8281   2.919   3.247   9.587  0.5095 -0.6633 -0.0669
  558TMC3     H 8282   2.720   3.178   9.701 -0.3558  1.8959  0.1816
  558TMC3    H1 8283   2.670   3.277   9.288 -0.7622  2.1653  0.2932
  558TMC3    H2 8284   2.326   3.210   9.522  0.0499 -1.5853 -2.3724
  558TMC3    C7 8285   2.406   3.306   9.305 -0.2999  0.2807  0.0238
  558TMC3    C8 8286   2.458   3.169   9.767 -0.2174 -0.3126 -0.4598
  558TMC3    O1 8287   2.466   3.369   9.218 -0.2354 -0.7924  0.3324
  558TMC3    O2 8288   2.337   3.174   9.781 -0.5016 -0.2967  0.0419
  559MPD2     C 8289   2.687   4.215  10.228  0.7416  0.9292  0.5972
  559MPD2    C1 8290   2.647   4.176  10.361 -0.4875 -0.4039 -0.1862
  559MPD2    C2 8291   2.748   4.137  10.450 -0.5235  0.5096 -0.4307
  559MPD2    C3 8292   2.872   4.122  10.409  0.1783  0.7614 -0.0231
  559MPD2    C4 8293   2.914   4.162  10.277  0.5162  0.1601  0.2126
  559MPD2    C5 8294   2.817   4.215  10.193  0.0015 -0.7082  0.1177
  559MPD2     H 8295   2.731   4.114  10.555 -0.3707 -1.8947 -0.9364
  559MPD2    H1 8296   3.019   4.162  10.248  0.1378  2.4585 -1.1439
  559MPD2    H2 8297   2.611   4.239  10.155 -0.2337 -2.0850  0.5727
  559MPD2    H3 8298   2.843   4.252  10.095 -0.0432 -2.4082 -0.5360
  559MPD2     N 8299   2.963   4.074  10.503 -0.4552  0.2538  0.0998
  559MPD2    H5 8300   2.913   4.056  10.590 -1.1506 -1.3996 -0.6470
  559MPD2    N1 8301   2.508   4.194  10.393  0.1693 -0.1437 -0.1992
  559MPD2    H7 8302   2.443   4.232  10.325 -0.7801 -1.7755 -0.2172
  560TMC3    C1 8303   3.162   4.076  10.641 -0.7187 -0.0093  0.3105
  560TMC3    C2 8304   3.166   3.941  10.666 -0.4845 -0.0878  1.0245
  560TMC3    C3 8305   3.250   3.894  10.764 -0.2094 -0.1931  0.6902
  560TMC3    C4 8306   3.242   4.167  10.697 -0.0577 -0.7100  0.3170
  560TMC3    C5 8307   3.319   4.120  10.802  0.4447 -0.3237 -0.1679
  560TMC3    C6 8308   3.313   3.990  10.837  0.1146 -0.2072  0.2824
  560TMC3     C 8309   3.088   4.114  10.516 -0.0684  0.2243 -0.6692
  560TMC3     O 8310   3.149   4.185  10.438  0.7730 -0.2568 -0.3339
  560TMC3     H 8311   3.107   3.871  10.607  0.3478  0.2410 -0.2195
  560TMC3    H1 8312   3.251   4.270  10.667  0.2342 -0.6953  0.4608
  560TMC3    H2 8313   3.387   3.959  10.910  1.5260 -0.1062 -1.0905
  560TMC3    C7 8314   3.406   4.213  10.868 -0.2725 -0.7830  0.5620
  560TMC3    C8 8315   3.263   3.750  10.794  0.1666  0.5315 -0.0843
  560TMC3    O1 8316   3.374   4.332  10.856  0.1028 -0.1089 -0.1758
  560TMC3    O2 8317   3.162   3.682  10.794  0.0097 -0.4321 -0.8372
  561TMC3    C1 8318   1.068   3.270  11.544  0.2782  0.1879 -0.0990
  561TMC3    C2 8319   1.011   3.229  11.661  0.1834  0.2285 -0.5098
  561TMC3    C3 8320   0.919   3.311  11.721  0.1353  0.8728  0.0203
  561TMC3    C4 8321   1.026   3.384  11.470 -0.2962  0.1869  0.4475
  561TMC3    C5 8322   0.930   3.458  11.535 -0.2477 -0.3344  0.4315
  561TMC3    C6 8323   0.878   3.428  11.664  0.0387 -0.0415 -0.3755
  561TMC3     C 8324   1.172   3.183  11.486  0.0206  0.0678  0.4672
  561TMC3     O 8325   1.180   3.062  11.511 -0.4542  0.1710  0.6996
  561TMC3     H 8326   1.048   3.136  11.703  2.7495 -0.3610 -4.1007
  561TMC3    H1 8327   1.038   3.387  11.362 -1.0606  0.5142  0.3735
  561TMC3    H2 8328   0.809   3.496  11.712  1.4371  3.5491 -3.4712
  561TMC3    C7 8329   0.859   3.560  11.466  0.0533 -0.6058  0.1884
  561TMC3    C8 8330   0.854   3.250  11.834 -0.0355  0.0863  0.2336
  561TMC3    O1 8331   0.744   3.572  11.514  0.5635 -0.4289 -0.4215
  561TMC3    O2 8332   0.883   3.141  11.878  0.3866 -0.5243 -0.3121
  562TMC3    C1 8333   1.767   0.141  16.213  0.6713  0.9133  0.0856
  562TMC3    C2 8334   1.663   0.220  16.159 -0.5420 -0.8500  0.1141
  562TMC3    C3 8335   1.620   0.192  16.026  0.0802  0.2441  0.4006
  562TMC3    C4 8336   1.811   0.030  16.142  0.4125 -0.3072  0.5241
  562TMC3    C5 8337   1.757   0.013  16.016  1.2165 -0.6578 -0.0676
  562TMC3    C6 8338   1.665   0.090  15.953  0.0090 -0.4323 -0.0849
  562TMC3     C 8339   1.775   0.161  16.358 -0.3208  0.7220  0.4567
  562TMC3     O 8340   1.712   0.254  16.412  0.2019 -0.2173 -0.4986
  562TMC3     H 8341   1.605   0.292  16.216  1.4103  0.3128  0.6669
  562TMC3    H1 8342   1.896   4.701  16.185  1.6308  0.5127 -0.8782
  562TMC3    H2 8343   1.629   0.071  15.852  2.8863 -1.1930 -0.9519
  562TMC3    C7 8344   1.799   4.622  15.940  0.2973  0.0416 -0.2862
  562TMC3    C8 8345   1.486   0.224  16.003 -0.2609 -0.6859 -0.3277
  562TMC3    O1 8346   1.767   4.624  15.822 -0.0825  0.0991 -0.2388
  562TMC3    O2 8347   1.407   0.183  16.091  0.6156 -0.2676  0.4949
  563MPD2     C 8348   4.268   1.278  15.553  0.3325  0.1848  0.5569
  563MPD2    C1 8349   4.313   1.400  15.598  0.1069  0.8420  0.0061
  563MPD2    C2 8350   4.435   1.410  15.665  0.2396  0.6623  0.3739
  563MPD2    C3 8351   4.494   1.295  15.714 -0.1431  0.5189 -0.6554
  563MPD2    C4 8352   4.440   1.170  15.682 -0.0381 -0.4523 -0.1283
  563MPD2    C5 8353   4.327   1.160  15.596 -0.4935 -0.2350 -0.0412
  563MPD2     H 8354   4.471   1.510  15.688 -0.0104  0.5771  1.1279
  563MPD2    H1 8355   4.490   1.077  15.708 -1.8845 -1.2763  0.4235
  563MPD2    H2 8356   4.185   1.271  15.484 -0.6014 -1.7161  1.8654
  563MPD2    H3 8357   4.275   1.072  15.560 -1.4184  0.6831 -0.9407
  563MPD2     N 8358   4.614   1.310  15.787  0.1277  0.3825  0.3134
  563MPD2    H5 8359   4.630   1.404  15.822  0.3934  0.1554  0.7966
  563MPD2    N1 8360   4.229   1.513  15.566 -0.3620  0.2792 -0.7809
  563MPD2    H7 8361   4.144   1.498  15.514 -0.7671 -0.5165  0.1186
  564TMC3    C1 8362   4.195   1.605  15.781 -0.1551 -0.3260 -0.6917
  564TMC3    C2 8363   4.069   1.552  15.789 -0.3376 -0.5692  0.0373
  564TMC3    C3 8364   4.020   1.492  15.907 -0.1236 -0.0774 -0.3155
  564TMC3    C4 8365   4.280   1.589  15.885 -0.7078  0.1767 -0.6135
  564TMC3    C5 8366   4.233   1.532  16.002 -0.1708 -0.6003  1.3528
  564TMC3    C6 8367   4.101   1.491  16.016 -0.2461  0.2491 -0.5125
  564TMC3     C 8368   4.235   1.632  15.639 -0.2357 -0.2729  0.1842
  564TMC3     O 8369   4.189   1.739  15.597  0.0413  0.3193 -0.1375
  564TMC3     H 8370   4.014   1.548  15.696 -0.2620 -2.0740  0.0531
  564TMC3    H1 8371   4.385   1.612  15.870 -0.2631 -1.1192  0.5198
  564TMC3    H2 8372   4.076   1.445  16.111  0.4822  0.8060 -0.0558
  564TMC3    C7 8373   4.317   1.425  16.053 -0.0143 -0.1229  0.6640
  564TMC3    C8 8374   3.949   1.365  15.897  0.0550 -0.2810  0.5043
  564TMC3    O1 8375   4.433   1.448  16.063  0.2351 -0.0352  0.0175
  564TMC3    O2 8376   3.956   1.312  16.004 -0.2019  0.5374  0.0072
  565TMC3    C1 8377   0.521   2.281  10.622 -0.3090 -0.0336 -0.4377
  565TMC3    C2 8378   0.502   2.212  10.739 -0.3595 -0.4438  0.2302
  565TMC3    C3 8379   0.398   2.118  10.739 -0.8353 -0.0163 -0.5006
  565TMC3    C4 8380   0.450   2.260  10.506 -0.0539 -0.6697  0.0391
  565TMC3    C5 8381   0.355   2.164  10.509 -0.1342 -0.1526 -0.2427
  565TMC3    C6 8382   0.321   2.096  10.629  0.6082 -1.1818  0.6114
  565TMC3     C 8383   0.623   2.382  10.619 -0.0506 -0.0150  0.0360
  565TMC3     O 8384   0.650   2.420  10.506 -0.1306  0.0507 -0.3309
  565TMC3     H 8385   0.570   2.218  10.823 -1.5760 -0.0929  1.1840
  565TMC3    H1 8386   0.478   2.319  10.420 -0.9755 -0.4797 -0.1264
  565TMC3    H2 8387   0.228   2.041  10.625 -1.0540  1.3520  4.4199
  565TMC3    C7 8388   0.297   2.124  10.382 -0.0196 -0.1174  0.0565
  565TMC3    C8 8389   0.371   2.053  10.865 -0.9726 -0.3510  0.5004
  565TMC3    O1 8390   0.194   2.060  10.386 -1.0016 -0.1436 -0.1332
  565TMC3    O2 8391   0.443   2.075  10.960 -0.6153 -0.7733 -0.0452
  566MPD2     C 8392   1.650   3.897  14.321 -0.6011 -1.1425 -0.5962
  566MPD2    C1 8393   1.700   4.004  14.241 -0.3219  1.0009  0.4148
  566MPD2    C2 8394   1.642   4.017  14.116  0.2896 -0.1913 -0.2949
  566MPD2    C3 8395   1.541   3.930  14.069  0.2058  0.0796 -0.6552
  566MPD2    C4 8396   1.495   3.831  14.145  0.8603  0.0817 -0.9962
  566MPD2    C5 8397   1.560   3.808  14.266  0.3968  0.6972 -0.1670
  566MPD2     H 8398   1.689   4.086  14.046  0.3741 -1.3254 -1.3654
  566MPD2    H1 8399   1.411   3.768  14.117  0.0340  0.5921  0.3062
  566MPD2    H2 8400   1.696   3.882  14.418  1.1050  0.3697 -1.1622
  566MPD2    H3 8401   1.524   3.728  14.330  0.9919 -0.1408 -0.8791
  566MPD2     N 8402   1.486   3.955  13.936 -0.0000 -0.4582  0.8063
  566MPD2    H5 8403   1.439   3.874  13.900 -1.7187  0.6251  0.6336
  566MPD2    N1 8404   1.816   4.072  14.282  0.2461 -0.8463  0.4847
  566MPD2    H7 8405   1.853   4.059  14.375 -0.1897 -2.0665  0.4834
  567TMC3    C1 8406   2.016   4.185  14.274  0.5837  0.4651 -0.1125
  567TMC3    C2 8407   2.103   4.256  14.195 -0.0009 -0.3947 -0.6187
  567TMC3    C3 8408   2.236   4.254  14.235 -0.1281 -0.5660  0.1586
  567TMC3    C4 8409   2.056   4.132  14.393  0.3911 -0.3945  0.0340
  567TMC3    C5 8410   2.189   4.134  14.427 -0.6240 -0.1114  0.5195
  567TMC3    C6 8411   2.279   4.186  14.345  0.4039 -0.9969  0.6768
  567TMC3     C 8412   1.883   4.170  14.215  0.1143  1.0904 -0.5173
  567TMC3     O 8413   1.854   4.212  14.100  0.5813  0.5268 -0.6089
  567TMC3     H 8414   2.080   4.303  14.100 -0.4372 -1.0827 -0.8536
  567TMC3    H1 8415   1.986   4.074  14.452 -0.1945  1.0504  0.7450
  567TMC3    H2 8416   2.376   4.206  14.388  0.1672  1.6501 -0.0025
  567TMC3    C7 8417   2.239   4.111  14.562  0.8480  0.2659  0.1051
  567TMC3    C8 8418   2.332   4.298  14.141 -0.2909 -0.5781 -0.0369
  567TMC3    O1 8419   2.339   4.169  14.599  0.4143  1.1104  0.2724
  567TMC3    O2 8420   2.293   4.392  14.076  0.2617  0.0261 -0.8347
  568MPD2     C 8421   4.347   0.201  16.566 -0.1634  1.0014 -0.8259
  568MPD2    C1 8422   4.344   0.327  16.624  0.0187  0.3442 -0.3113
  568MPD2    C2 8423   4.320   0.436  16.543 -0.2178  0.0457  0.8842
  568MPD2    C3 8424   4.290   0.420  16.412  0.2368 -0.5397  0.3289
  568MPD2    C4 8425   4.280   0.294  16.359  0.2288 -0.0953 -0.1210
  568MPD2    C5 8426   4.318   0.186  16.437 -0.2273 -0.0829 -0.7744
  568MPD2     H 8427   4.322   0.536  16.587 -3.7342  1.1779 -1.5415
  568MPD2    H1 8428   4.228   0.269  16.267  0.0595  0.8670 -0.2817
  568MPD2    H2 8429   4.364   0.107  16.617 -2.5649  0.6403 -0.6965
  568MPD2    H3 8430   4.301   0.087  16.395 -0.1461 -0.8344  0.9746
  568MPD2     N 8431   4.270   0.536  16.334  0.2443 -0.1602  0.4778
  568MPD2    H5 8432   4.263   0.631  16.371  1.0794 -0.3250  1.0419
  568MPD2    N1 8433   4.359   0.325  16.761  0.6885  0.2086  0.2076
  568MPD2    H7 8434   4.358   0.236  16.811 -2.1582  1.4180  2.3249
  569TMC3    C1 8435   4.197   0.648  16.130 -0.7398 -0.1882  0.0167
  569TMC3    C2 8436   4.150   0.745  16.222  0.2550  0.2576  0.4436
  569TMC3    C3 8437   4.032   0.803  16.188  0.2552  0.1574 -0.4101
  569TMC3    C4 8438   4.140   0.622  16.008 -0.7417 -0.4176 -0.1889
  569TMC3    C5 8439   4.018   0.668  15.994 -0.4732 -0.9933 -0.1884
  569TMC3    C6 8440   3.959   0.747  16.090 -0.0685 -0.7204 -0.3225
  569TMC3     C 8441   4.244   0.525  16.197  0.3459 -0.7656  0.1253
  569TMC3     O 8442   4.257   0.431  16.116  0.4803 -0.3146  0.2693
  569TMC3     H 8443   4.206   0.782  16.308  2.4150  0.0253 -0.8744
  569TMC3    H1 8444   4.182   0.567  15.924 -0.2760 -0.2653 -0.0553
  569TMC3    H2 8445   3.851   0.760  16.086  0.1753  1.7543  1.0747
  569TMC3    C7 8446   3.987   0.726  15.866 -0.2241 -0.2734 -0.2798
  569TMC3    C8 8447   4.003   0.937  16.217  0.1635  0.2561 -0.0666
  569TMC3    O1 8448   4.044   0.671  15.770  0.4217 -0.1481  0.2582
  569TMC3    O2 8449   3.926   0.989  16.137  0.0003 -0.3704 -0.1583
  570TMC3    C1 8450   3.488   3.494  16.220  0.0199  0.3008 -1.2133
  570TMC3    C2 8451   3.608   3.504  16.155 -0.4331 -0.2361  0.4462
  570TMC3    C3 8452   3.634   3.630  16.104 -0.0758 -0.3704  0.2347
  570TMC3    C4 8453   3.393   3.592  16.221  0.4516 -0.1471  0.9150
  570TMC3    C5 8454   3.427   3.709  16.160  0.6203  0.0676  0.5100
  570TMC3    C6 8455   3.554   3.735  16.111  0.0769 -0.1148  0.4273
  570TMC3     C 8456   3.452   3.371  16.280 -0.0728  1.3058  0.5630
  570TMC3     O 8457   3.505   3.263  16.261 -0.0311  0.3834  0.1009
  570TMC3     H 8458   3.683   3.427  16.169 -1.0987 -0.8937  0.4025
  570TMC3    H1 8459   3.294   3.568  16.256  0.4191  2.5490  2.7031
  570TMC3    H2 8460   3.580   3.837  16.085 -1.4060  1.1050  3.6704
  570TMC3    C7 8461   3.348   3.828  16.194 -0.1911  0.3239  0.2445
  570TMC3    C8 8462   3.759   3.667  16.049 -0.1556  0.0070  0.4157
  570TMC3    O1 8463   3.269   3.810  16.288  0.3550 -0.0031 -1.4504
  570TMC3    O2 8464   3.798   3.783  16.057  0.2766  0.3669 -0.1486
  571MPD2     C 8465   1.950   0.511  17.352 -0.4075  1.6151  0.4155
  571MPD2    C1 8466   1.822   0.523  17.398 -0.0904  0.4817 -0.1256
  571MPD2    C2 8467   1.789   0.583  17.513 -0.1242 -0.3383  0.0342
  571MPD2    C3 8468   1.886   0.633  17.591  0.7171  0.0035 -0.6023
  571MPD2    C4 8469   2.018   0.624  17.542  0.5948  0.2235 -0.0310
  571MPD2    C5 8470   2.052   0.558  17.428 -0.1089  0.8798 -1.2046
  571MPD2     H 8471   1.688   0.592  17.550  0.4682 -1.3429  1.9042
  571MPD2    H1 8472   2.100   0.669  17.597  1.2828 -2.3272  0.9848
  571MPD2    H2 8473   1.976   0.454  17.263 -0.2963  0.8016  0.9694
  571MPD2    H3 8474   2.155   0.557  17.395  0.0263  1.7222 -0.8091
  571MPD2     N 8475   1.850   0.698   0.015  0.4645  0.5905 -0.2470
  571MPD2    H5 8476   1.750   0.690   0.030  0.9688 -1.7602  1.8595
  571MPD2    N1 8477   1.716   0.468  17.310  0.2583 -0.2843 -0.2288
  571MPD2    H7 8478   1.746   0.440  17.218  1.0690 -0.2699  0.0253
  572TMC3    C1 8479   1.854   0.845   0.193 -1.4809 -0.4433  0.0182
  572TMC3    C2 8480   1.730   0.800   0.233  0.8158  0.0821  0.2305
  572TMC3    C3 8481   1.653   0.875   0.311  0.1860  0.4951 -0.0085
  572TMC3    C4 8482   1.892   0.970   0.220  0.3151 -0.2681 -0.4285
  572TMC3    C5 8483   1.800   1.048   0.285  0.3304  0.0442 -0.1863
  572TMC3    C6 8484   1.686   1.005   0.343  0.0254  0.7793  0.4699
  572TMC3     C 8485   1.928   0.768   0.100  0.3657  0.1099 -0.0418
  572TMC3     O 8486   2.044   0.802   0.081 -0.3655  0.2314 -0.3825
  572TMC3     H 8487   1.712   0.693   0.241 -4.8031  0.8353 -2.8317
  572TMC3    H1 8488   1.981   1.003   0.167  0.7548  1.0554  1.1504
  572TMC3    H2 8489   1.621   1.070   0.402 -0.5294  1.4564 -0.8907
  572TMC3    C7 8490   1.823   1.196   0.293  0.0513 -0.2940 -0.3930
  572TMC3    C8 8491   1.520   0.835   0.341 -0.5182 -0.3309 -0.0525
  572TMC3    O1 8492   1.721   1.262   0.314 -0.6366  0.0097  0.6370
  572TMC3    O2 8493   1.472   0.747   0.263 -0.3347  0.1568  0.5577
  573MPD2     C 8494   2.438   1.793   0.889  0.2928 -0.0472  0.2794
  573MPD2    C1 8495   2.556   1.731   0.920  0.1399  0.4336  0.0639
  573MPD2    C2 8496   2.653   1.738   0.820 -0.1915  0.0250  0.9603
  573MPD2    C3 8497   2.647   1.815   0.703  0.2464  0.0588 -0.0945
  573MPD2    C4 8498   2.533   1.884   0.690 -0.7987 -0.1936  0.1502
  573MPD2    C5 8499   2.431   1.879   0.779 -0.6250  0.0575 -0.6881
  573MPD2     H 8500   2.747   1.686   0.835 -1.7060 -2.5579  1.4133
  573MPD2    H1 8501   2.526   1.948   0.602  0.5425  0.1136  0.2570
  573MPD2    H2 8502   2.352   1.791   0.955  0.1243  0.7223  0.0752
  573MPD2    H3 8503   2.339   1.936   0.774 -0.2653  0.9302  2.5893
  573MPD2     N 8504   2.743   1.804   0.600 -0.4293  0.0053 -0.1192
  573MPD2    H5 8505   2.731   1.860   0.516 -0.4414  1.2614  0.7231
  573MPD2    N1 8506   2.580   1.672   1.046  1.0960 -0.1419  0.1626
  573MPD2    H7 8507   2.500   1.663   1.107 -0.4609 -2.1803 -2.1924
  574TMC3    C1 8508   2.940   1.749   0.481  0.0196  0.8397  0.0968
  574TMC3    C2 8509   2.866   1.736   0.364 -0.4644 -1.3055  0.1040
  574TMC3    C3 8510   2.919   1.668   0.258  0.4108 -0.7467  0.2074
  574TMC3    C4 8511   3.071   1.707   0.488 -0.9428 -0.3031  0.4842
  574TMC3    C5 8512   3.125   1.648   0.373  0.0820  0.7166 -0.3484
  574TMC3    C6 8513   3.049   1.624   0.262 -0.0365  0.2930 -0.0828
  574TMC3     C 8514   2.872   1.752   0.614  0.2900 -0.0339 -0.3445
  574TMC3     O 8515   2.945   1.751   0.711 -0.4935 -0.4111  0.9879
  574TMC3     H 8516   2.759   1.750   0.358 -0.0606  1.3518 -0.9256
  574TMC3    H1 8517   3.130   1.713   0.578 -1.3869 -2.4698  0.9200
  574TMC3    H2 8518   3.088   1.570   0.176 -0.4777  0.3621 -0.3303
  574TMC3    C7 8519   3.266   1.669   0.343 -0.2993 -0.6358  0.3098
  574TMC3    C8 8520   2.827   1.562   0.219  0.3463  0.0185 -0.9049
  574TMC3    O1 8521   3.289   1.690   0.227 -0.3524 -0.5009 -0.6476
  574TMC3    O2 8522   2.868   1.448   0.233  0.3265  0.3179  0.1750
  575TMC3    C1 8523   0.350   1.969  11.732  0.0533  0.1473 -0.3794
  575TMC3    C2 8524   0.280   1.881  11.796  0.0064 -0.1964  0.4419
  575TMC3    C3 8525   0.201   1.805  11.723 -0.2254 -1.1333 -0.4485
  575TMC3    C4 8526   0.348   2.000  11.593  0.0405 -0.0629  0.0135
  575TMC3    C5 8527   0.256   1.924  11.522 -0.4111  0.3190 -0.1577
  575TMC3    C6 8528   0.184   1.821  11.586 -0.8446 -0.1731 -0.2693
  575TMC3     C 8529   0.462   2.028  11.797  0.7464  0.0534 -0.0185
  575TMC3     O 8530   0.436   2.068  11.911  0.4055  0.5774 -0.2952
  575TMC3     H 8531   0.302   1.861  11.900 -1.2498  2.7985  1.2805
  575TMC3    H1 8532   0.407   2.079  11.547  0.8836 -0.6992  0.0064
  575TMC3    H2 8533   0.110   1.760  11.535 -0.3934 -0.2616 -0.8166
  575TMC3    C7 8534   0.284   1.913  11.373  0.3975  0.1741 -0.0032
  575TMC3    C8 8535   0.157   1.675  11.775 -0.3387 -0.3411  0.1612
  575TMC3    O1 8536   0.359   2.002  11.338 -0.2749  0.0871  0.3148
  575TMC3    O2 8537   0.128   1.588  11.692 -0.6500 -0.6553  0.1623
  576MPD2     C 8538   4.647   4.001  12.502 -0.4555  0.1907  0.0397
  576MPD2    C1 8539   4.579   4.003  12.379 -0.4021 -0.7892 -0.6563
  576MPD2    C2 8540   4.493   4.107  12.358 -0.2839 -0.5957 -0.2199
  576MPD2    C3 8541   4.482   4.219  12.446  0.1713  0.2742  0.7103
  576MPD2    C4 8542   4.556   4.218  12.566  0.2772  0.2746 -0.6675
  576MPD2    C5 8543   4.635   4.107  12.590  0.1120  0.3193  0.0865
  576MPD2     H 8544   4.436   4.120  12.267  2.2856  0.7309 -1.6399
  576MPD2    H1 8545   4.559   4.295  12.642 -0.5274  0.3677 -0.7332
  576MPD2    H2 8546   4.701   3.910  12.528 -2.1960 -0.3592  1.7109
  576MPD2    H3 8547   4.692   4.089  12.680  1.9102 -2.7946 -1.6880
  576MPD2     N 8548   4.398   4.326  12.407 -0.0779  0.2787  0.4072
  576MPD2    H5 8549   4.351   4.310  12.319 -1.0173 -2.3649  1.3909
  576MPD2    N1 8550   4.595   3.905  12.276 -0.0732 -0.2722 -0.0901
  576MPD2    H7 8551   4.566   3.942  12.186 -1.8446 -0.6316  0.3395
  577TMC3    C1 8552   4.695   3.719  12.162 -0.0973 -0.5625 -0.2272
  577TMC3    C2 8553   0.045   3.607  12.172  0.7492  0.5406  0.5098
  577TMC3    C3 8554   0.102   3.547  12.067  0.1819  0.0838 -0.1372
  577TMC3    C4 8555   4.674   3.770  12.032  0.4919 -0.1069  0.5593
  577TMC3    C5 8556   4.724   3.709  11.927  0.2651  0.4130  0.3552
  577TMC3    C6 8557   0.073   3.588  11.938  0.1492 -0.2460 -0.1396
  577TMC3     C 8558   4.666   3.787  12.289 -0.4335 -0.1714  0.1735
  577TMC3     O 8559   4.702   3.737  12.392  0.0429  0.4457  0.4846
  577TMC3     H 8560   0.064   3.574  12.274  1.7574  2.3486  0.8937
  577TMC3    H1 8561   4.615   3.861  12.022  1.1258  0.2162 -0.2401
  577TMC3    H2 8562   0.096   3.527  11.852 -1.9281  0.2177 -1.0344
  577TMC3    C7 8563   4.661   3.736  11.796 -0.2206  0.4548  0.4821
  577TMC3    C8 8564   0.197   3.440  12.088 -0.2152 -1.4543  0.3359
  577TMC3    O1 8565   4.547   3.779  11.797  0.1440 -0.0394  0.1360
  577TMC3    O2 8566   0.192   3.385  12.197 -0.0808  0.0911  0.3857
  578MPD2     C 8567   2.378   3.659   0.664  0.7715 -0.0292  0.1722
  578MPD2    C1 8568   2.510   3.624   0.682 -0.1341  0.9535  0.2707
  578MPD2    C2 8569   2.545   3.584   0.806  0.6986 -0.7025  0.2777
  578MPD2    C3 8570   2.458   3.563   0.905  0.3329  0.0955 -0.7528
  578MPD2    C4 8571   2.326   3.589   0.883  0.0219  1.0631 -0.4150
  578MPD2    C5 8572   2.289   3.648   0.766  0.5986  0.3811 -0.8485
  578MPD2     H 8573   2.641   3.537   0.820  0.3089 -1.4886  0.3559
  578MPD2    H1 8574   2.258   3.568   0.965  1.1393 -0.2780  0.1695
  578MPD2    H2 8575   2.352   3.692   0.564 -0.3528 -0.1376  0.4309
  578MPD2    H3 8576   2.183   3.670   0.759  0.0531 -2.4740 -1.6208
  578MPD2     N 8577   2.509   3.505   1.027 -0.1292  0.6700  0.9960
  578MPD2    H5 8578   2.605   3.474   1.029 -0.3224 -0.1211 -1.8412
  578MPD2    N1 8579   2.600   3.654   0.578  0.2292  0.0894  0.0565
  578MPD2    H7 8580   2.569   3.711   0.500 -0.2499 -2.7725 -1.8332
  579TMC3    C1 8581   2.549   3.485   1.264  0.4645  0.8637  0.0947
  579TMC3    C2 8582   2.557   3.586   1.352  0.5945 -0.4118 -0.9361
  579TMC3    C3 8583   2.674   3.607   1.408  0.2658  0.2041 -0.0957
  579TMC3    C4 8584   2.640   3.384   1.253 -0.1728 -0.3978 -0.3057
  579TMC3    C5 8585   2.756   3.404   1.324  0.3784 -0.2548 -0.4627
  579TMC3    C6 8586   2.776   3.515   1.392 -0.2566 -0.1729 -0.4107
  579TMC3     C 8587   2.450   3.503   1.150  0.6208 -1.2431  0.0277
  579TMC3     O 8588   2.336   3.555   1.177 -0.1173 -0.0775  0.3572
  579TMC3     H 8589   2.471   3.651   1.370  0.4998 -0.0250 -2.7561
  579TMC3    H1 8590   2.612   3.292   1.201  1.1617 -0.2089 -1.3566
  579TMC3    H2 8591   2.868   3.540   1.444  0.4072 -2.6649 -0.3984
  579TMC3    C7 8592   2.848   3.289   1.353 -0.3746  0.1553 -0.5667
  579TMC3    C8 8593   2.690   3.735   1.466 -0.1541  0.6801  0.5268
  579TMC3    O1 8594   2.948   3.309   1.416 -0.3454 -0.0488 -0.2132
  579TMC3    O2 8595   2.599   3.782   1.536 -0.6366 -0.5409 -0.2567
  580TMC3    C1 8596   2.519   2.552  11.782  0.1090 -0.3313  0.4393
  580TMC3    C2 8597   2.517   2.521  11.647 -0.1238 -1.1182 -0.2215
  580TMC3    C3 8598   2.527   2.388  11.606 -0.1078  0.3131  0.2941
  580TMC3    C4 8599   2.529   2.457  11.878 -0.2567  0.4448  0.1761
  580TMC3    C5 8600   2.539   2.330  11.832  0.0948  0.6812  0.4536
  580TMC3    C6 8601   2.534   2.293  11.700 -0.0971 -0.3814 -0.0182
  580TMC3     C 8602   2.495   2.690  11.818  0.3665 -0.2790 -0.0224
  580TMC3     O 8603   2.430   2.715  11.917 -0.5044 -0.0826 -0.5827
  580TMC3     H 8604   2.520   2.602  11.575  0.1952 -0.6534  0.3193
  580TMC3    H1 8605   2.519   2.482  11.983  0.1646  0.9190  0.1047
  580TMC3    H2 8606   2.574   2.195  11.675 -0.0726 -0.4714  0.3773
  580TMC3    C7 8607   2.583   2.241  11.932  0.1113  0.2636 -0.3393
  580TMC3    C8 8608   2.577   2.350  11.476 -0.3187 -0.2452 -0.2807
  580TMC3    O1 8609   2.648   2.288  12.021 -0.3469  0.1854 -0.6254
  580TMC3    O2 8610   2.573   2.234  11.436  0.6188 -0.4087 -0.0280
  581MPD2     C 8611   1.076   2.236  14.827 -0.3815 -0.1183 -0.4671
  581MPD2    C1 8612   0.952   2.241  14.896 -0.5766 -0.9420 -0.3094
  581MPD2    C2 8613   0.846   2.313  14.839 -0.2092  0.3846  0.0535
  581MPD2    C3 8614   0.858   2.364  14.711 -0.0004 -0.1261  1.2401
  581MPD2    C4 8615   0.965   2.329  14.635  0.6138  0.4804  0.5514
  581MPD2    C5 8616   1.079   2.279  14.700 -0.8934 -0.4966  0.2545
  581MPD2     H 8617   0.751   2.320  14.890  0.2465  1.1016  0.7983
  581MPD2    H1 8618   0.976   2.369  14.535  0.7536 -2.0268 -0.4460
  581MPD2    H2 8619   1.169   2.204  14.873  0.3904  2.3328 -0.3562
  581MPD2    H3 8620   1.176   2.264  14.654  0.1222 -0.0317  2.2459
  581MPD2     N 8621   0.757   2.452  14.670  0.7240  0.3520  0.4615
  581MPD2    H5 8622   0.688   2.471  14.742  0.0656  0.4946 -0.2097
  581MPD2    N1 8623   0.948   2.186  15.029 -0.4297 -0.1248  0.1212
  581MPD2    H7 8624   1.025   2.133  15.069 -1.6570  0.1142  2.7842
  582TMC3    C1 8625   0.853   2.110  15.231 -0.6926  0.2242  0.4076
  582TMC3    C2 8626   0.910   2.210  15.301 -0.4802 -0.7125  0.0160
  582TMC3    C3 8627   0.854   2.250  15.415  0.0811  0.5600 -0.2565
  582TMC3    C4 8628   0.735   2.055  15.274  0.2260 -0.5350  0.7610
  582TMC3    C5 8629   0.674   2.099  15.389 -0.1677 -0.0678 -0.2607
  582TMC3    C6 8630   0.728   2.209  15.451  0.1171  0.1407 -0.1348
  582TMC3     C 8631   0.834   2.165  15.098 -0.3185 -0.2458  0.2377
  582TMC3     O 8632   0.717   2.183  15.061  0.3532 -0.1420  0.0523
  582TMC3     H 8633   0.997   2.257  15.257 -2.3073  1.5264 -1.2142
  582TMC3    H1 8634   0.675   1.992  15.209  0.7187 -0.5844  0.3570
  582TMC3    H2 8635   0.675   2.247  15.538  1.0214  0.3162  0.3407
  582TMC3    C7 8636   0.533   2.086  15.390 -0.5801 -0.5606  0.1997
  582TMC3    C8 8637   0.879   2.382  15.471 -0.0211  0.5890 -0.5183
  582TMC3    O1 8638   0.481   1.981  15.355  0.0659  0.1216 -0.4411
  582TMC3    O2 8639   0.778   2.443  15.506  0.2644  0.3688 -0.3094
  583MPD2     C 8640   0.448   4.207  16.706 -0.2599 -0.1693  0.0692
  583MPD2    C1 8641   0.394   4.330  16.662  0.0818  0.3113  0.3919
  583MPD2    C2 8642   0.362   4.425  16.756  0.0510  0.7409  0.6644
  583MPD2    C3 8643   0.399   4.412  16.886  0.6066 -0.3589  0.3265
  583MPD2    C4 8644   0.448   4.289  16.933  0.4487  0.3784 -0.2602
  583MPD2    C5 8645   0.466   4.186  16.841  1.1020 -0.1256  0.2298
  583MPD2     H 8646   0.324   4.520  16.720  1.9647  0.7456 -1.3451
  583MPD2    H1 8647   0.472   4.272  17.037 -1.5430 -1.0442 -0.0339
  583MPD2    H2 8648   0.457   4.128  16.632 -0.1772  1.2551 -1.4217
  583MPD2    H3 8649   0.512   4.094  16.878  2.0804 -0.2019 -1.1874
  583MPD2     N 8650   0.393   4.532  16.965 -0.6925 -0.2171  0.1414
  583MPD2    H5 8651   0.359   4.614  16.917  1.0209 -0.4218 -1.4245
  583MPD2    N1 8652   0.384   4.371  16.527  0.2758  0.0516  0.8197
  583MPD2    H7 8653   0.338   4.459  16.508 -2.1628 -0.8864  2.3926
  584TMC3    C1 8654   0.426   4.668  17.165  0.7504 -0.1706  0.1352
  584TMC3    C2 8655   0.444   0.052  17.088 -0.0423 -0.0868  0.0094
  584TMC3    C3 8656   0.502   0.158  17.145  0.1817 -0.9603 -0.2038
  584TMC3    C4 8657   0.459   4.662  17.296  0.0400 -0.0632 -0.4899
  584TMC3    C5 8658   0.510   0.054  17.349  0.3751 -0.0433 -0.1559
  584TMC3    C6 8659   0.531   0.166  17.275 -0.8140  0.5094 -0.3508
  584TMC3     C 8660   0.427   4.534  17.102  0.0690 -0.8025  0.8069
  584TMC3     O 8661   0.452   4.446  17.183 -0.0592 -0.3742 -0.7958
  584TMC3     H 8662   0.416   0.045  16.983  0.5555  2.2550 -0.3162
  584TMC3    H1 8663   0.453   4.572  17.356  3.3835  1.3858  1.9942
  584TMC3    H2 8664   0.591   0.251  17.306 -0.3957 -0.3795  1.2579
  584TMC3    C7 8665   0.547   0.052  17.494 -0.2115 -0.8476  0.7154
  584TMC3    C8 8666   0.495   0.278  17.066  0.0378  0.0464 -0.0944
  584TMC3    O1 8667   0.569   4.664  17.535 -0.0074  0.2211 -0.4739
  584TMC3    O2 8668   0.516   0.261  16.950  0.3694 -0.0469  0.2102
  585MPD2     C 8669   3.627   3.757   0.345  0.0331 -0.2967 -0.1723
  585MPD2    C1 8670   3.742   3.800   0.289 -0.3459  0.2594 -0.6839
  585MPD2    C2 8671   3.822   3.709   0.227 -0.4850  0.8386 -0.1118
  585MPD2    C3 8672   3.788   3.572   0.228  0.0594  0.1830  1.2665
  585MPD2    C4 8673   3.668   3.531   0.286  0.5479 -0.0703 -0.0413
  585MPD2    C5 8674   3.591   3.625   0.341  0.3136 -0.1473  0.1369
  585MPD2     H 8675   3.911   3.741   0.174 -0.2792 -2.1761 -1.5914
  585MPD2    H1 8676   3.642   3.425   0.282 -1.9023  0.6532 -3.4181
  585MPD2    H2 8677   3.566   3.832   0.394 -1.6311 -1.7619  0.0137
  585MPD2    H3 8678   3.490   3.602   0.372  0.1591 -0.2266 -0.4293
  585MPD2     N 8679   3.873   3.468   0.174 -0.0708 -0.2300 -0.3621
  585MPD2    H5 8680   3.846   3.370   0.179 -1.4966  0.2300  0.8855
  585MPD2    N1 8681   3.768   3.937   0.285  0.0729 -0.7394 -0.4080
  585MPD2    H7 8682   3.697   4.003   0.314  1.2679  0.6018 -0.5144
  586TMC3    C1 8683   4.054   3.366   0.048 -0.5748 -0.0668 -0.8443
  586TMC3    C2 8684   4.183   3.374   0.013 -0.2767  0.0844  0.4180
  586TMC3    C3 8685   4.238   3.254  17.685  0.4206 -0.1130  0.0155
  586TMC3    C4 8686   3.986   3.250   0.080  0.3959 -0.0287 -0.9713
  586TMC3    C5 8687   4.056   3.134   0.068 -0.0883  0.2969 -0.6335
  586TMC3    C6 8688   4.177   3.137   0.013  0.5019 -1.1594  1.0064
  586TMC3     C 8689   3.997   3.492   0.107  0.0420  0.1691 -0.3246
  586TMC3     O 8690   4.053   3.596   0.088  0.0275 -0.2461  0.4805
  586TMC3     H 8691   4.220   3.475  17.695 -0.2526  0.3343  2.0465
  586TMC3    H1 8692   3.881   3.239   0.104 -0.1123  2.6107 -1.9727
  586TMC3    H2 8693   4.230   3.048  17.678  1.2181 -0.5467  0.4911
  586TMC3    C7 8694   3.984   3.030   0.010  0.9330 -0.1841  0.9204
  586TMC3    C8 8695   4.376   3.242  17.664  0.5413  0.4438  0.5948
  586TMC3    O1 8696   3.908   2.960   0.078  0.2845 -0.2891  0.0047
  586TMC3    O2 8697   4.438   3.154   0.024  0.3892 -0.5571  0.4832
  587TMC3    C1 8698   2.196   2.047  16.507 -0.9270 -1.0464  0.4386
  587TMC3    C2 8699   2.213   2.186  16.514  0.7381 -0.9372  0.5511
  587TMC3    C3 8700   2.306   2.237  16.592  0.8212  0.3656 -0.0648
  587TMC3    C4 8701   2.272   1.965  16.589 -0.1653 -0.0400 -0.3179
  587TMC3    C5 8702   2.360   2.024  16.675  1.0450  0.1264  0.0974
  587TMC3    C6 8703   2.384   2.158  16.672  0.5240 -0.3684  0.4878
  587TMC3     C 8704   2.102   1.997  16.403  0.1508  0.2746  0.0740
  587TMC3     O 8705   2.121   1.883  16.370 -0.2669 -0.1405 -0.6177
  587TMC3     H 8706   2.159   2.255  16.450  0.8749 -0.1464  1.2777
  587TMC3    H1 8707   2.264   1.857  16.591 -2.0533  0.1184  0.9806
  587TMC3    H2 8708   2.474   2.196  16.719  1.1339 -0.2419 -0.7732
  587TMC3    C7 8709   2.423   1.938  16.776 -0.1458 -0.0889  0.2080
  587TMC3    C8 8710   2.329   2.380  16.609 -0.0585  0.4937 -0.1053
  587TMC3    O1 8711   2.406   1.823  16.751 -0.2779 -0.0324 -0.2457
  587TMC3    O2 8712   2.437   2.414  16.655 -0.5619 -0.0568  0.3713
  588TMC3    C1 8713   4.589   4.146   9.936 -0.9482 -0.1685 -0.0177
  588TMC3    C2 8714   4.570   4.014   9.941  0.0418  0.7704  0.4281
  588TMC3    C3 8715   4.648   3.945  10.037 -0.5482  0.2242  0.1834
  588TMC3    C4 8716   4.690   4.208  10.008  0.8267 -0.2988 -0.2366
  588TMC3    C5 8717   0.046   4.137  10.090  0.0387 -0.0215 -0.2600
  588TMC3    C6 8718   0.022   4.004  10.115  0.2711  0.5049 -0.2873
  588TMC3     C 8719   4.510   4.227   9.842  0.6464 -1.0274  0.2756
  588TMC3     O 8720   4.399   4.188   9.811  0.4718 -0.0235  0.4834
  588TMC3     H 8721   4.476   3.968   9.913 -0.2634  0.4570  1.9365
  588TMC3    H1 8722   4.690   4.316  10.004 -1.7190 -0.2635  0.3006
  588TMC3    H2 8723   0.083   3.945  10.183  1.0019 -0.5115 -1.8251
  588TMC3    C7 8724   0.150   4.205  10.167 -0.1688 -0.0137 -0.9242
  588TMC3    C8 8725   4.618   3.802  10.055  0.4841 -0.1179 -0.2324
  588TMC3    O1 8726   0.186   4.156  10.271  0.5695 -0.0916 -0.0575
  588TMC3    O2 8727   4.497   3.774  10.040 -0.3600 -0.0429 -0.2454
  589TMC3    C1 8728   3.339   1.857   1.670  0.3539  0.3698  0.2369
  589TMC3    C2 8729   3.422   1.933   1.759 -0.3344  0.0244  0.7084
  589TMC3    C3 8730   3.554   1.920   1.748  1.0079 -0.3413 -0.2046
  589TMC3    C4 8731   3.402   1.769   1.583 -0.1111 -0.3263 -0.6074
  589TMC3    C5 8732   3.537   1.753   1.582 -0.6546  0.8576 -0.3219
  589TMC3    C6 8733   3.616   1.832   1.656 -0.3554 -0.1372  0.4016
  589TMC3     C 8734   3.220   1.922   1.627 -0.3070  0.0106 -0.0400
  589TMC3     O 8735   3.189   1.898   1.508  0.2811  0.2253  0.4013
  589TMC3     H 8736   3.384   2.009   1.827 -0.3768  0.7539 -0.1291
  589TMC3    H1 8737   3.350   1.725   1.499 -1.6136  2.1102 -0.9282
  589TMC3    H2 8738   3.723   1.816   1.651 -0.8326 -3.2140  0.2103
  589TMC3    C7 8739   3.588   1.657   1.486  0.0342 -0.0102 -0.1434
  589TMC3    C8 8740   3.633   2.021   1.808  0.3800  0.0100 -0.1493
  589TMC3    O1 8741   3.511   1.612   1.401 -0.1369  0.5763  0.3613
  589TMC3    O2 8742   3.605   2.055   1.923  0.0682 -0.2055 -0.1834
  590MPD2     C 8743   3.053   0.659  16.940  0.0906  0.3855  0.8738
  590MPD2    C1 8744   3.004   0.714  16.824 -0.7062  0.2939 -0.5759
  590MPD2    C2 8745   3.100   0.743  16.727 -0.6466 -0.4539  0.4005
  590MPD2    C3 8746   3.236   0.708  16.748 -0.0140  0.5092 -0.0134
  590MPD2    C4 8747   3.282   0.654  16.865 -0.3316  0.2031 -0.1507
  590MPD2    C5 8748   3.190   0.636  16.961  0.3926  0.6101 -0.1870
  590MPD2     H 8749   3.064   0.788  16.635 -0.9973  1.2047  1.3604
  590MPD2    H1 8750   3.386   0.634  16.884 -0.1459  0.4069 -0.9567
  590MPD2    H2 8751   2.993   0.639  17.029 -1.1251 -1.0369 -0.2621
  590MPD2    H3 8752   3.217   0.596  17.058 -1.1608  0.6383  0.2501
  590MPD2     N 8753   3.330   0.755  16.647  0.0097 -0.2654  0.5169
  590MPD2    H5 8754   3.281   0.802  16.571  2.6490 -1.1164 -1.6955
  590MPD2    N1 8755   2.861   0.751  16.815  0.0073  0.3826 -0.3315
  590MPD2    H7 8756   2.804   0.724  16.894  1.3308 -0.2539  0.4174
  591TMC3    C1 8757   3.532   0.820  16.551 -0.0836 -0.8529 -0.2488
  591TMC3    C2 8758   3.603   0.736  16.466 -0.2895  0.5649 -0.4755
  591TMC3    C3 8759   3.602   0.765  16.329  0.6420  0.3426 -0.4585
  591TMC3    C4 8760   3.452   0.920  16.502 -0.1620  0.8960 -0.0880
  591TMC3    C5 8761   3.472   0.957  16.369 -0.9670  0.2071  0.1118
  591TMC3    C6 8762   3.553   0.883  16.284 -0.4241 -0.4684  0.6944
  591TMC3     C 8763   3.466   0.747  16.652 -0.6708  0.0629  0.0058
  591TMC3     O 8764   3.530   0.673  16.724  0.0617 -0.0771 -0.4094
  591TMC3     H 8765   3.646   0.641  16.496 -0.8830  0.0220 -1.3228
  591TMC3    H1 8766   3.390   0.983  16.565 -1.1739 -0.1535 -0.0272
  591TMC3    H2 8767   3.567   0.908  16.179  0.0812  0.4650  0.9841
  591TMC3    C7 8768   3.399   1.074  16.320  0.1712  0.4179  0.4263
  591TMC3    C8 8769   3.621   0.651  16.241  0.3044  0.3565 -0.3591
  591TMC3    O1 8770   3.326   1.127  16.404  0.5740 -0.3857  0.2760
  591TMC3    O2 8771   3.691   0.558  16.282  0.2952  0.4624  0.4267
  592MPD2     C 8772   3.755   2.390  11.123  0.1525 -0.0395 -0.4818
  592MPD2    C1 8773   3.711   2.461  11.233  0.7011 -0.7343 -0.4013
  592MPD2    C2 8774   3.621   2.400  11.315  0.3915  0.5280  0.1336
  592MPD2    C3 8775   3.581   2.266  11.295 -0.6975 -0.4311 -0.7708
  592MPD2    C4 8776   3.633   2.199  11.185  0.9393 -0.3508  0.1179
  592MPD2    C5 8777   3.722   2.258  11.101  0.6478  0.3907  0.2205
  592MPD2     H 8778   3.578   2.445  11.404  0.7756  3.1688 -1.0189
  592MPD2    H1 8779   3.602   2.099  11.159  0.8939 -1.7576  5.5585
  592MPD2    H2 8780   3.820   2.437  11.051 -0.9667 -0.0754 -1.5082
  592MPD2    H3 8781   3.751   2.202  11.013 -0.0528  2.2525 -1.1829
  592MPD2     N 8782   3.490   2.202  11.384 -0.9428 -0.1162  0.3359
  592MPD2    H5 8783   3.465   2.251  11.469 -2.2433  1.0271 -0.7061
  592MPD2    N1 8784   3.762   2.594  11.245 -0.1653 -0.1104  0.6280
  592MPD2    H7 8785   3.844   2.608  11.186  0.1847 -2.4567  0.5382
  593TMC3    C1 8786   3.834   2.781  11.367  0.1410 -0.8193  0.6242
  593TMC3    C2 8787   3.841   2.844  11.490 -0.6999  0.6159 -0.1394
  593TMC3    C3 8788   3.883   2.971  11.498  0.1145  0.3682 -0.3024
  593TMC3    C4 8789   3.868   2.851  11.251 -0.1126 -0.1482  0.4520
  593TMC3    C5 8790   3.923   2.978  11.265  0.0496 -0.2819  0.3429
  593TMC3    C6 8791   3.923   3.042  11.386 -0.0650 -1.0590  0.0019
  593TMC3     C 8792   3.745   2.668  11.359  0.6218  0.2508  0.0384
  593TMC3     O 8793   3.661   2.654  11.446 -0.2669  0.5585 -0.9266
  593TMC3     H 8794   3.812   2.786  11.577  0.2548 -0.8909 -0.8202
  593TMC3    H1 8795   3.857   2.796  11.158 -1.0658 -0.5478  0.8011
  593TMC3    H2 8796   3.951   3.146  11.397  2.5023 -1.8464  1.0032
  593TMC3    C7 8797   3.940   3.067  11.150  0.3048 -0.5300  0.8162
  593TMC3    C8 8798   3.842   3.047  11.615 -0.3967  0.1571  0.1107
  593TMC3    O1 8799   3.901   3.184  11.167  0.0925  0.0733  0.2519
  593TMC3    O2 8800   3.727   3.030  11.659 -0.9721  0.2252 -0.2231
  594MPD2     C 8801   2.423   1.003  14.309  0.1466  0.0654 -0.2323
  594MPD2    C1 8802   2.329   1.068  14.230 -0.4257 -0.7883  0.2667
  594MPD2    C2 8803   2.374   1.159  14.140  0.3125  0.5355 -0.0053
  594MPD2    C3 8804   2.513   1.193  14.125 -0.0611  0.5011  0.1131
  594MPD2    C4 8805   2.595   1.124  14.209  0.4147  0.1674  0.7424
  594MPD2    C5 8806   2.555   1.038  14.299  0.8153 -0.3959 -0.2352
  594MPD2     H 8807   2.296   1.210  14.085 -1.3793  1.0758  2.8911
  594MPD2    H1 8808   2.702   1.134  14.196  0.2022  0.8052 -0.5223
  594MPD2    H2 8809   2.395   0.933  14.387  0.9211 -1.6442 -1.4737
  594MPD2    H3 8810   2.626   0.989  14.364 -2.1796 -2.2092  1.6496
  594MPD2     N 8811   2.551   1.292  14.030 -0.0313 -0.2206 -0.1355
  594MPD2    H5 8812   2.474   1.315  13.968  0.2718 -0.5706 -0.6457
  594MPD2    N1 8813   2.191   1.048  14.234  0.1164 -0.4732 -0.7733
  594MPD2    H7 8814   2.127   1.113  14.190 -0.9562 -2.9220 -2.8332
  595TMC3    C1 8815   2.823   1.647  13.894  0.5106  0.7886 -0.3881
  595TMC3    C2 8816   2.807   1.509  13.906  0.3978 -0.4381  0.0598
  595TMC3    C3 8817   2.679   1.463  13.940  0.6585 -0.3262  0.6845
  595TMC3    C4 8818   2.726   1.728  13.934 -0.7079 -0.4288 -0.3271
  595TMC3    C5 8819   2.604   1.684  13.970  0.6660  0.6749 -0.5225
  595TMC3    C6 8820   2.575   1.552  13.970 -0.1994 -0.3186  0.6547
  595TMC3     C 8821   2.951   1.695  13.936 -0.1178  0.2707  0.0653
  595TMC3     O 8822   2.959   1.758  14.040 -0.2306  0.0233 -0.1069
  595TMC3     H 8823   2.882   1.439  13.870  0.8540 -0.4529  1.0318
  595TMC3    H1 8824   2.734   1.836  13.939  1.6290 -0.5552 -1.4239
  595TMC3    H2 8825   2.483   1.518  14.017 -1.9224 -1.8055 -3.8475
  595TMC3    C7 8826   2.552   1.751  14.078  0.5181 -0.4092  0.6060
  595TMC3    C8 8827   2.680   1.337  14.013 -0.0343 -0.2771  0.1236
  595TMC3    O1 8828   2.433   1.731  14.102  0.0472 -0.2893 -0.1928
  595TMC3    O2 8829   2.786   1.308  14.069 -0.2228  0.0545  0.8273
  596MPD2     C 8830   1.287   4.125  16.716 -0.5814 -0.7214 -0.0206
  596MPD2    C1 8831   1.256   4.227  16.638  0.3135  0.2827 -0.0806
  596MPD2    C2 8832   1.248   4.209  16.498 -0.4996 -0.0083  0.5982
  596MPD2    C3 8833   1.273   4.088  16.441  0.1924  0.3120  0.6324
  596MPD2    C4 8834   1.299   3.987  16.525  0.2846 -0.2619 -0.0835
  596MPD2    C5 8835   1.302   4.007  16.656 -0.0331 -0.9219  0.6160
  596MPD2     H 8836   1.202   4.286  16.438 -1.4152 -0.7786  0.3092
  596MPD2    H1 8837   1.321   3.889  16.484  0.8981  0.5584 -1.7519
  596MPD2    H2 8838   1.289   4.128  16.824  0.2820 -0.9782 -0.0348
  596MPD2    H3 8839   1.320   3.915  16.711  0.2391 -0.5905  1.0902
  596MPD2     N 8840   1.282   4.061  16.304 -0.1343  1.1308  0.2393
  596MPD2    H5 8841   1.283   3.967  16.268 -3.2530  0.4212  1.9575
  596MPD2    N1 8842   1.216   4.358  16.677 -0.0049 -0.6693  0.0827
  596MPD2    H7 8843   1.222   4.425  16.601  0.4925  0.0953  0.8062
  597TMC3    C1 8844   1.201   4.552  16.811  0.0563  0.0296 -0.6342
  597TMC3    C2 8845   1.193   4.625  16.696 -0.2524 -0.6225 -0.2997
  597TMC3    C3 8846   1.153   0.029  16.714 -0.1718  0.5178  0.7977
  597TMC3    C4 8847   1.163   4.607  16.928 -0.0522  0.5386 -0.3172
  597TMC3    C5 8848   1.123   0.013  16.939  0.2933 -0.2413 -0.0146
  597TMC3    C6 8849   1.118   0.084  16.828  0.2304 -0.2198 -0.0597
  597TMC3     C 8850   1.201   4.409  16.804 -0.1738 -0.4844  0.5024
  597TMC3     O 8851   1.170   4.340  16.899 -0.5785  0.4135  0.1817
  597TMC3     H 8852   1.223   4.597  16.596  2.8505 -0.0782  0.4891
  597TMC3    H1 8853   1.170   4.551  17.021  0.0652 -0.0222 -0.6617
  597TMC3    H2 8854   1.080   0.186  16.829  1.1733  0.1406 -0.7888
  597TMC3    C7 8855   1.105   0.070  17.072 -0.0669  0.0079 -0.2584
  597TMC3    C8 8856   1.200   0.117  16.608  0.5001 -0.3591 -0.0720
  597TMC3    O1 8857   1.128   4.714  17.161  0.0251 -0.5597  0.1825
  597TMC3    O2 8858   1.294   0.080  16.536 -0.4341 -0.2020  0.8995
  598TMC3    C1 8859   4.483   1.035  15.208  0.5593  0.0687  0.3941
  598TMC3    C2 8860   4.404   1.022  15.095 -0.8074 -0.6831 -0.0465
  598TMC3    C3 8861   4.452   1.093  14.985 -0.2570 -0.2343  0.2991
  598TMC3    C4 8862   4.597   1.102  15.215  0.5311  0.3506  0.3628
  598TMC3    C5 8863   4.639   1.175  15.103  0.8062 -0.4094  0.1520
  598TMC3    C6 8864   4.567   1.172  14.988 -0.1861  0.2526 -0.7917
  598TMC3     C 8865   4.426   0.982  15.326  0.9583 -0.3028 -0.2660
  598TMC3     O 8866   4.303   0.986  15.325 -0.3681  0.0974 -0.2117
  598TMC3     H 8867   4.322   0.952  15.088 -0.9185 -0.6228  0.6563
  598TMC3    H1 8868   4.660   1.091  15.302  2.6433 -2.1222 -1.4746
  598TMC3    H2 8869   4.606   1.230  14.905 -0.5952  0.0027 -1.1558
  598TMC3    C7 8870   0.054   1.212  15.099  0.2078  0.6769  0.1515
  598TMC3    C8 8871   4.439   1.030  14.856  1.2811  0.6653  0.4860
  598TMC3    O1 8872   0.130   1.126  15.145 -0.3278 -0.1077 -0.2238
  598TMC3    O2 8873   4.524   1.068  14.780  0.2833  0.0778  0.0800
  599MPD2     C 8874   4.509   3.644  16.191 -0.1880 -0.4255 -0.0190
  599MPD2    C1 8875   4.438   3.530  16.172  0.4793 -0.0615 -0.1180
  599MPD2    C2 8876   4.301   3.532  16.206  0.2984  0.4391 -0.4283
  599MPD2    C3 8877   4.242   3.636  16.275 -0.4322  0.3756  0.2104
  599MPD2    C4 8878   4.312   3.752  16.292 -0.5531  0.0015  0.3158
  599MPD2    C5 8879   4.447   3.751  16.247 -0.1611 -0.2721 -0.0725
  599MPD2     H 8880   4.235   3.450  16.178 -1.4919  0.9185  2.3843
  599MPD2    H1 8881   4.266   3.834  16.347  0.1760  1.1591 -0.7857
  599MPD2    H2 8882   4.609   3.649  16.149  0.0151  1.4634  0.7204
  599MPD2    H3 8883   4.503   3.844  16.253  1.5053 -1.2632 -0.2476
  599MPD2     N 8884   4.112   3.646  16.326  0.2184  0.0759  0.2994
  599MPD2    H5 8885   4.077   3.737  16.352 -1.8701 -0.9322  1.0831
  599MPD2    N1 8886   4.518   3.428  16.118  0.5766 -0.2072 -0.0465
  599MPD2    H7 8887   4.616   3.453  16.116  0.3340  0.6417 -1.7153
  600TMC3    C1 8888   3.902   3.580  16.412 -1.1078 -1.0554 -0.6948
  600TMC3    C2 8889   3.837   3.479  16.477 -0.0422  0.0495 -0.3688
  600TMC3    C3 8890   3.733   3.522  16.560  0.3857 -1.0857 -0.7267
  600TMC3    C4 8891   3.860   3.712  16.423 -0.4556 -0.3432 -0.2615
  600TMC3    C5 8892   3.768   3.744  16.515  0.6985 -0.2436  0.1007
  600TMC3    C6 8893   3.692   3.646  16.582 -0.6418 -0.0201 -0.6746
  600TMC3     C 8894   4.020   3.541  16.332  0.1443  0.1130  0.1801
  600TMC3     O 8895   4.041   3.422  16.309  0.1688 -0.7109  0.5467
  600TMC3     H 8896   3.865   3.375  16.468  1.4108  0.2382  2.1001
  600TMC3    H1 8897   3.919   3.789  16.375  0.8524 -1.8454 -1.0848
  600TMC3    H2 8898   3.609   3.681  16.643  0.5949  1.1028  0.3614
  600TMC3    C7 8899   3.720   3.882  16.529  0.5298  0.2311 -0.4592
  600TMC3    C8 8900   3.664   3.418  16.634  0.5027 -0.2999 -0.0075
  600TMC3    O1 8901   3.610   3.902  16.578 -0.2192 -0.3291 -0.1237
  600TMC3    O2 8902   3.660   3.309  16.580 -0.0487  1.0013  0.1770
  601MPD2     C 8903   2.058   1.630   0.204  0.8534  0.0680 -0.0712
  601MPD2    C1 8904   1.927   1.590   0.183  0.2260  0.2783  0.1869
  601MPD2    C2 8905   1.896   1.456   0.193  0.2722  0.8492  0.3084
  601MPD2    C3 8906   1.992   1.362   0.233 -0.3641 -0.7063  0.6348
  601MPD2    C4 8907   2.121   1.398   0.243  0.3484 -0.0052  0.1367
  601MPD2    C5 8908   2.154   1.528   0.230  0.5928 -0.1675 -0.1245
  601MPD2     H 8909   1.792   1.431   0.176  0.7346 -0.2098 -0.9452
  601MPD2    H1 8910   2.206   1.332   0.260 -0.3825 -0.7173  1.0229
  601MPD2    H2 8911   2.095   1.731   0.217  0.0855  0.2213  0.9264
  601MPD2    H3 8912   2.260   1.549   0.237  0.7788 -1.5068  1.1114
  601MPD2     N 8913   1.955   1.231   0.284  0.4970 -0.5091  0.6475
  601MPD2    H5 8914   2.035   1.175   0.312 -0.6282 -1.6959  1.5327
  601MPD2    N1 8915   1.829   1.689   0.168  0.5751  0.0420  0.1584
  601MPD2    H7 8916   1.735   1.653   0.172  1.3708 -1.8407  1.6305
  602TMC3    C1 8917   1.716   1.888   0.140  0.1723 -0.1742  0.0815
  602TMC3    C2 8918   1.710   2.021   0.098  0.2543  0.7084  0.5759
  602TMC3    C3 8919   1.593   2.065   0.056 -0.1568  0.3659  0.2577
  602TMC3    C4 8920   1.604   1.810   0.146  1.3390  0.3184  0.4462
  602TMC3    C5 8921   1.483   1.863   0.111  0.4135 -0.4084  0.6565
  602TMC3    C6 8922   1.477   1.993   0.064  0.3191 -0.7716 -0.1770
  602TMC3     C 8923   1.848   1.823   0.142  0.2250 -0.4849  0.0309
  602TMC3     O 8924   1.952   1.876   0.109 -0.0430  0.0167  0.7136
  602TMC3     H 8925   1.794   2.089   0.111 -1.3833  2.7768  0.2139
  602TMC3    H1 8926   1.591   1.706   0.175 -0.8256  0.2467 -0.7401
  602TMC3    H2 8927   1.382   2.041   0.041 -0.9520 -2.5455  1.3959
  602TMC3    C7 8928   1.373   1.764   0.081 -0.3792  0.5997  0.0467
  602TMC3    C8 8929   1.581   2.209   0.021 -0.3305  0.7002 -0.0055
  602TMC3    O1 8930   1.378   1.649   0.118  0.4391 -0.4473  0.5416
  602TMC3    O2 8931   1.649   2.287   0.087 -0.0829 -0.0006  0.3425
  603TMC3    C1 8932   4.542   1.846  11.121 -0.2502 -0.0312  0.8273
  603TMC3    C2 8933   4.521   1.841  11.258 -0.6401  0.0767  0.2176
  603TMC3    C3 8934   4.575   1.932  11.342  0.0193 -0.2771  0.4576
  603TMC3    C4 8935   4.615   1.947  11.072  0.2743 -0.5724 -0.1242
  603TMC3    C5 8936   4.676   2.036  11.170  0.3453 -0.4089 -0.2439
  603TMC3    C6 8937   4.662   2.031  11.304  0.5208 -0.2075 -0.2842
  603TMC3     C 8938   4.480   1.745  11.037  0.1786 -0.3326 -0.2330
  603TMC3     O 8939   4.410   1.668  11.100 -0.0014 -0.3094  0.0107
  603TMC3     H 8940   4.451   1.766  11.295 -3.5324  2.0189 -1.2693
  603TMC3    H1 8941   4.625   1.967  10.966  0.6376 -1.6642 -0.2937
  603TMC3    H2 8942   0.005   2.086  11.369  0.5300 -0.1574 -0.3364
  603TMC3    C7 8943   0.027   2.150  11.120 -0.4551 -0.1876  0.0323
  603TMC3    C8 8944   4.562   1.894  11.480 -0.7464 -0.7193  0.0464
  603TMC3    O1 8945   0.088   2.214  11.205 -0.1381  0.7693 -0.1810
  603TMC3    O2 8946   4.538   1.776  11.502  0.0011 -0.1225  0.1822
  604MPD2     C 8947   0.180   0.484  16.076 -0.5130  0.2554  0.5115
  604MPD2    C1 8948   0.269   0.586  16.068 -1.3656 -0.3665 -0.6160
  604MPD2    C2 8949   0.364   0.581  15.971  0.1092  0.0959  0.5910
  604MPD2    C3 8950   0.366   0.481  15.870 -0.5551  0.4413  0.3537
  604MPD2    C4 8951   0.270   0.383  15.879 -0.4409  0.4308  0.6093
  604MPD2    C5 8952   0.185   0.377  15.986  0.2324  0.7226  0.2642
  604MPD2     H 8953   0.449   0.649  15.961 -0.8324  1.0384 -1.0854
  604MPD2    H1 8954   0.274   0.304  15.806 -2.1103 -0.2741  1.2937
  604MPD2    H2 8955   0.110   0.496  16.158 -0.6492  2.8787  0.0141
  604MPD2    H3 8956   0.111   0.300  15.999 -1.5603  2.5393  0.7522
  604MPD2     N 8957   0.452   0.497  15.762  0.6614  0.0381  0.3925
  604MPD2    H5 8958   0.518   0.575  15.767  2.2489 -1.3345  0.7950
  604MPD2    N1 8959   0.252   0.694  16.155 -0.0819  0.7169 -0.0282
  604MPD2    H7 8960   0.175   0.702  16.221  1.3943 -1.6043  2.0084
  605TMC3    C1 8961   0.272   0.909  16.253 -0.2010  0.7260  0.0841
  605TMC3    C2 8962   0.349   0.996  16.329  0.3430 -0.8021  0.5615
  605TMC3    C3 8963   0.289   1.099  16.393 -0.2639  0.6174 -0.3309
  605TMC3    C4 8964   0.138   0.937  16.232  0.0053 -0.5140 -0.1086
  605TMC3    C5 8965   0.074   1.041  16.309  0.2323 -0.0781 -0.2640
  605TMC3    C6 8966   0.152   1.124  16.385  0.6695 -0.0565 -0.3486
  605TMC3     C 8967   0.337   0.803  16.177  0.0359  0.2284  0.4837
  605TMC3     O 8968   0.456   0.816  16.152  0.4862  0.1344 -0.4234
  605TMC3     H 8969   0.457   0.986  16.330  0.3967 -0.1496  1.3105
  605TMC3    H1 8970   0.096   0.902  16.139 -1.3117  2.2609 -0.5539
  605TMC3    H2 8971   0.107   1.197  16.452  0.4612 -0.3464 -0.1701
  605TMC3    C7 8972   4.662   1.082  16.279 -0.8634  0.1029  0.3747
  605TMC3    C8 8973   0.377   1.194  16.463 -0.2899 -0.2983 -0.1720
  605TMC3    O1 8974   4.616   1.176  16.343 -0.4136  0.3117  0.3817
  605TMC3    O2 8975   0.490   1.152  16.483  0.7900  0.4566  0.1093
  606TMC3    C1 8976   1.129   4.021   0.910  0.7777  0.1259 -0.1001
  606TMC3    C2 8977   1.262   4.045   0.919 -0.0397  0.1026  0.0854
  606TMC3    C3 8978   1.349   3.943   0.894  0.5019 -0.6964 -0.3772
  606TMC3    C4 8979   1.089   3.892   0.889 -0.2622  0.9271  0.6483
  606TMC3    C5 8980   1.176   3.790   0.866  0.2646 -0.4408  0.3524
  606TMC3    C6 8981   1.305   3.818   0.876  0.4579 -0.1904 -0.2546
  606TMC3     C 8982   1.037   4.122   0.957  0.2571 -0.3600 -0.2890
  606TMC3     O 8983   1.080   4.226   1.010  0.0687  0.4968 -0.1232
  606TMC3     H 8984   1.294   4.142   0.956  3.0657 -0.7065 -0.5015
  606TMC3    H1 8985   0.983   3.870   0.883 -0.1841  0.9651 -0.9000
  606TMC3    H2 8986   1.372   3.742   0.838 -2.3945 -2.1825 -1.2018
  606TMC3    C7 8987   1.138   3.689   0.765 -0.1079 -0.0116 -0.3777
  606TMC3    C8 8988   1.476   3.979   0.820  0.2956 -0.7153  0.0992
  606TMC3    O1 8989   1.157   3.570   0.787  0.2720  0.0993  0.0262
  606TMC3    O2 8990   1.549   3.890   0.774  0.0367 -0.1517 -0.0039
  607MPD2     C 8991   3.627   1.961  11.717  0.1559  0.3007  0.4199
  607MPD2    C1 8992   3.640   2.044  11.826 -0.3127  0.1572 -0.3462
  607MPD2    C2 8993   3.592   1.989  11.945 -0.3884 -0.2961  0.1360
  607MPD2    C3 8994   3.530   1.866  11.961  0.1612  0.5317  1.0502
  607MPD2    C4 8995   3.517   1.790  11.851 -0.3375 -0.4967  0.1363
  607MPD2    C5 8996   3.568   1.836  11.735 -0.6253 -0.0441  0.4354
  607MPD2     H 8997   3.609   2.054  12.030 -0.6202  1.2531 -0.9969
  607MPD2    H1 8998   3.481   1.687  11.851  0.4525 -0.7762  1.7667
  607MPD2    H2 8999   3.673   1.980  11.621 -0.3868 -0.3139  0.0384
  607MPD2    H3 9000   3.571   1.770  11.650  1.5153  1.0155 -0.3186
  607MPD2     N 9001   3.493   1.838  12.097  0.5652 -0.1324  0.5567
  607MPD2    H5 9002   3.526   1.905  12.166  1.5984  0.2864 -0.3385
  607MPD2    N1 9003   3.695   2.173  11.834  0.4570  0.0607  0.2530
  607MPD2    H7 9004   3.695   2.220  11.924  0.3721 -0.1185  0.3466
  608TMC3    C1 9005   3.804   2.365  11.767 -0.7704 -0.3270  0.2580
  608TMC3    C2 9006   3.794   2.394  11.902  0.0730  0.6569 -0.2652
  608TMC3    C3 9007   3.891   2.479  11.960 -0.0392  0.2565 -0.4497
  608TMC3    C4 9008   3.896   2.431  11.686  0.0640  0.3574  0.1863
  608TMC3    C5 9009   3.989   2.515  11.750  0.3109 -0.0709 -0.0102
  608TMC3    C6 9010   3.985   2.545  11.880 -0.3135 -0.3318 -0.4976
  608TMC3     C 9011   3.758   2.237  11.732  1.2660 -0.2682 -1.2832
  608TMC3     O 9012   3.781   2.197  11.617 -0.3605  0.3008  0.4482
  608TMC3     H 9013   3.709   2.359  11.959  0.7418  0.0744  0.3845
  608TMC3    H1 9014   3.908   2.408  11.581 -0.4664  0.9462  0.0006
  608TMC3    H2 9015   4.050   2.622  11.921  0.4150 -0.5376 -1.2724
  608TMC3    C7 9016   4.119   2.521  11.685  0.0460  0.4954  0.4495
  608TMC3    C8 9017   3.888   2.489  12.105  0.3550  0.0083  0.0493
  608TMC3    O1 9018   4.110   2.509  11.562 -0.4842  0.7183 -0.1163
  608TMC3    O2 9019   3.930   2.584  12.166 -0.0439  0.0427  0.2079
  609TMC3    C1 9020   1.606   0.753   8.777  0.1442  0.1440  0.3911
  609TMC3    C2 9021   1.494   0.674   8.762 -0.6783 -0.1628  0.4585
  609TMC3    C3 9022   1.513   0.542   8.727  0.7023  1.1907 -0.6731
  609TMC3    C4 9023   1.723   0.708   8.722 -0.3606  0.0121 -0.9267
  609TMC3    C5 9024   1.737   0.579   8.672 -0.2421 -0.6213  0.1323
  609TMC3    C6 9025   1.637   0.490   8.690  0.0407 -0.0401  0.3273
  609TMC3     C 9026   1.612   0.850   8.893 -0.0014 -0.4330  0.6287
  609TMC3     O 9027   1.507   0.882   8.950 -0.4044 -0.6660  0.2979
  609TMC3     H 9028   1.398   0.710   8.795 -1.4754 -0.0198 -2.0424
  609TMC3    H1 9029   1.802   0.781   8.709 -0.0503  0.1567  1.8023
  609TMC3    H2 9030   1.661   0.384   8.684 -0.0621 -0.0058 -0.7446
  609TMC3    C7 9031   1.871   0.524   8.658 -0.1375  0.1775 -0.7921
  609TMC3    C8 9032   1.389   0.466   8.715  0.2596 -0.8849 -0.0449
  609TMC3    O1 9033   1.954   0.610   8.688  0.1251 -0.1671  0.3106
  609TMC3    O2 9034   1.285   0.496   8.772 -0.4130  0.0143 -0.1124
  610TMC3    C1 9035   3.942   2.094  12.822  0.5864 -0.6050  0.3329
  610TMC3    C2 9036   3.970   2.101  12.685 -0.1127  0.5190 -0.4704
  610TMC3    C3 9037   3.981   1.983  12.609 -0.6738  0.2935 -0.6519
  610TMC3    C4 9038   3.935   1.969  12.881 -0.1352 -0.9026 -0.2066
  610TMC3    C5 9039   3.951   1.854  12.802 -0.1941 -0.0505 -0.4942
  610TMC3    C6 9040   3.967   1.863  12.664 -0.3779  0.2091 -0.6528
  610TMC3     C 9041   3.928   2.215  12.910  0.3100 -0.3834  0.5469
  610TMC3     O 9042   3.910   2.193  13.031  0.0202 -0.0320 -0.1320
  610TMC3     H 9043   3.983   2.198  12.638 -2.8865  0.9450 -0.3274
  610TMC3    H1 9044   3.926   1.959  12.989  1.5337 -2.2223 -0.1801
  610TMC3    H2 9045   3.991   1.776  12.605  0.5978  0.5498 -0.7758
  610TMC3    C7 9046   3.982   1.730  12.886 -0.1219  0.4025  0.0289
  610TMC3    C8 9047   4.021   2.004  12.470 -0.0693 -0.6804 -0.1372
  610TMC3    O1 9048   3.948   1.742  13.003  0.2135 -0.2406  0.7152
  610TMC3    O2 9049   4.097   2.101  12.450  0.6130 -0.5361  0.4706
  611MPD2     C 9050   4.068   2.299   9.870 -0.0469  0.4534  0.2246
  611MPD2    C1 9051   4.125   2.200   9.943  0.1707  0.4432  0.3840
  611MPD2    C2 9052   4.259   2.220   9.990 -0.2663 -0.1881 -0.3072
  611MPD2    C3 9053   4.329   2.339   9.962  1.1965  0.1880 -0.3762
  611MPD2    C4 9054   4.268   2.432   9.878 -0.3846 -0.7148  0.1287
  611MPD2    C5 9055   4.143   2.411   9.834 -0.5445  0.0891 -0.2513
  611MPD2     H 9056   4.293   2.154  10.069 -2.0657 -0.5267  0.1760
  611MPD2    H1 9057   4.311   2.527   9.850 -1.0350  0.3945  2.9448
  611MPD2    H2 9058   3.968   2.287   9.831  0.3535  0.7099 -0.8757
  611MPD2    H3 9059   4.113   2.489   9.765  0.1021 -0.6063 -1.3308
  611MPD2     N 9060   4.457   2.361  10.011 -0.3375  0.9845 -0.0796
  611MPD2    H5 9061   4.505   2.447   9.985 -1.1625  0.8734 -1.9800
  611MPD2    N1 9062   4.050   2.077   9.950 -0.1342  0.3404 -0.0218
  611MPD2    H7 9063   3.957   2.086   9.911 -1.3400 -0.9096  2.5529
  612TMC3    C1 9064   4.645   2.355  10.144  0.7411 -0.2964 -0.1996
  612TMC3    C2 9065   4.672   2.363  10.275  0.9120 -0.3913 -0.1006
  612TMC3    C3 9066   0.070   2.428  10.313 -0.2102  0.4408  0.2517
  612TMC3    C4 9067   4.724   2.412  10.042 -0.5464 -0.5300 -0.3352
  612TMC3    C5 9068   0.112   2.477  10.084  0.2320  0.3187 -0.1682
  612TMC3    C6 9069   0.149   2.485  10.214 -0.4484  0.3457 -0.0231
  612TMC3     C 9070   4.516   2.290  10.108 -0.0701 -0.1557  0.1789
  612TMC3     O 9071   4.480   2.199  10.181 -0.2093  0.5335 -0.5198
  612TMC3     H 9072   4.602   2.325  10.349  0.6525  0.0430 -0.1169
  612TMC3    H1 9073   4.717   2.387   9.937  0.4334 -1.2684 -0.2151
  612TMC3    H2 9074   0.232   2.545  10.249 -0.0324 -1.2365  1.7231
  612TMC3    C7 9075   0.180   2.563   9.988 -0.0614  0.5005  0.7676
  612TMC3    C8 9076   0.126   2.447  10.456 -0.4702  0.0072 -0.0938
  612TMC3    O1 9077   0.107   2.607   9.902  0.1956 -0.4693 -0.6491
  612TMC3    O2 9078   0.223   2.528  10.470  0.5013  0.4387 -0.0553
  613MPD2     C 9079   2.340   3.938  17.033 -0.0328  0.7264  0.0104
  613MPD2    C1 9080   2.331   4.041  16.939  0.0652  0.3144 -0.0330
  613MPD2    C2 9081   2.280   4.013  16.809 -0.4412 -0.9651  0.6463
  613MPD2    C3 9082   2.240   3.879  16.779 -0.2010 -0.2886 -0.0232
  613MPD2    C4 9083   2.269   3.779  16.865  0.1053 -0.2044  0.1287
  613MPD2    C5 9084   2.316   3.807  16.991  0.0064 -0.0269  0.0470
  613MPD2     H 9085   2.256   4.093  16.741  0.9826 -0.4256  0.7821
  613MPD2    H1 9086   2.273   3.678  16.827 -1.2483 -0.4174  0.5586
  613MPD2    H2 9087   2.374   3.958  17.134  1.8965 -0.5087 -0.4134
  613MPD2    H3 9088   2.335   3.728  17.063 -1.9650  1.2379  1.9461
  613MPD2     N 9089   2.196   3.843  16.652  0.6141  0.6579  0.1039
  613MPD2    H5 9090   2.197   3.743  16.631 -0.6346  0.8348 -0.8012
  613MPD2    N1 9091   2.401   4.162  16.978 -0.5071 -0.1915  0.2052
  613MPD2    H7 9092   2.416   4.168  17.078  2.7655  2.6650 -0.4960
  614TMC3    C1 9093   2.448   4.275  16.764 -0.0109  0.0246 -0.2717
  614TMC3    C2 9094   2.489   4.176  16.680  0.0309  0.5113  0.2155
  614TMC3    C3 9095   2.494   4.194  16.545  0.4854 -0.2857  0.3027
  614TMC3    C4 9096   2.395   4.392  16.709  0.1916  0.4148 -0.0928
  614TMC3    C5 9097   2.373   4.400  16.578  0.2838  0.1960 -0.6685
  614TMC3    C6 9098   2.432   4.311  16.487 -0.2459 -0.7296  0.1185
  614TMC3     C 9099   2.439   4.275  16.906  0.6372  0.3535 -0.4773
  614TMC3     O 9100   2.494   4.373  16.955  0.5781  0.6504 -0.6197
  614TMC3     H 9101   2.529   4.082  16.717  1.0185  1.3593  1.3025
  614TMC3    H1 9102   2.344   4.463  16.773 -1.7556 -0.6213 -0.4874
  614TMC3    H2 9103   2.442   4.338  16.383 -1.0207  2.7560  0.9498
  614TMC3    C7 9104   2.292   4.506  16.530 -0.3348 -0.4093 -0.3696
  614TMC3    C8 9105   2.519   4.072  16.463  0.1167  0.4518  0.3864
  614TMC3    O1 9106   2.290   4.607  16.595  0.6433 -0.3266 -0.4315
  614TMC3    O2 9107   2.520   3.966  16.519  0.8343  0.7142 -0.0392
  615MPD2     C 9108   2.000   0.527  16.574 -0.0053  0.7418 -0.5186
  615MPD2    C1 9109   1.915   0.625  16.532 -0.2629  0.1262 -0.7895
  615MPD2    C2 9110   1.865   0.621  16.408 -0.0814  0.9613  0.3552
  615MPD2    C3 9111   1.910   0.518  16.325 -0.5808 -0.3612  0.3103
  615MPD2    C4 9112   1.996   0.422  16.361 -0.6321 -0.3694  0.4079
  615MPD2    C5 9113   2.054   0.432  16.488  0.1181  0.8497  0.1593
  615MPD2     H 9114   1.784   0.690  16.390 -0.0161  0.4135 -2.0791
  615MPD2    H1 9115   2.031   0.348  16.290 -0.9467  1.7098 -1.9217
  615MPD2    H2 9116   2.029   0.528  16.678 -1.8635 -1.1994  0.0311
  615MPD2    H3 9117   2.127   0.360  16.525  2.2570  2.4628 -0.9589
  615MPD2     N 9118   1.868   0.517  16.187  0.1948  0.4454  0.3455
  615MPD2    H5 9119   1.896   0.435  16.133 -0.1398  1.1527 -0.9186
  615MPD2    N1 9120   1.868   0.731  16.620 -0.3995 -0.2538  0.2118
  615MPD2    H7 9121   1.788   0.783  16.586 -1.7443 -1.8169  0.9804
  616TMC3    C1 9122   1.855   0.881  16.803 -0.4519  0.1961  0.0419
  616TMC3    C2 9123   1.919   0.930  16.911  0.3682 -0.7408  0.0220
  616TMC3    C3 9124   1.871   1.048  16.963 -0.3429  0.6942  0.5075
  616TMC3    C4 9125   1.737   0.937  16.757  0.2918  0.2791  0.0197
  616TMC3    C5 9126   1.688   1.052  16.818  0.8803 -0.0623 -1.0052
  616TMC3    C6 9127   1.754   1.100  16.925  0.0011 -0.0052 -0.0483
  616TMC3     C 9128   1.913   0.761  16.743  0.2557  0.4337 -0.5881
  616TMC3     O 9129   2.001   0.704  16.809  0.2031 -0.2598 -0.2834
  616TMC3     H 9130   2.018   0.892  16.936  0.7082  0.7464  0.9430
  616TMC3    H1 9131   1.698   0.899  16.664  2.5343  0.3772 -0.9667
  616TMC3    H2 9132   1.721   1.189  16.978 -1.1826  0.9265 -2.3583
  616TMC3    C7 9133   1.597   1.142  16.749 -0.0858  0.2439  0.0954
  616TMC3    C8 9134   1.970   1.137  17.040 -0.5222  0.0332  0.8783
  616TMC3    O1 9135   1.579   1.123  16.630 -0.3701 -0.1887 -0.0479
  616TMC3    O2 9136   1.932   1.218  17.126  0.1286  0.0560  0.2079
  617MPD2     C 9137   0.070   3.786  14.090 -0.5957  0.4019 -0.0236
  617MPD2    C1 9138   0.160   3.696  14.149 -0.2359  0.3866  0.3547
  617MPD2    C2 9139   0.099   3.606  14.235 -0.4935  0.1805  0.1559
  617MPD2    C3 9140   4.683   3.604  14.257  0.0352  0.3195  0.2154
  617MPD2    C4 9141   4.602   3.689  14.188  0.2673  0.4883 -0.0541
  617MPD2    C5 9142   4.663   3.776  14.107  0.3701 -0.0303 -0.3193
  617MPD2     H 9143   0.156   3.532  14.290 -0.0075  2.2391  2.4419
  617MPD2    H1 9144   4.495   3.670  14.187  0.3489  0.0453  0.0471
  617MPD2    H2 9145   0.112   3.852  14.015  0.1142 -1.0975 -0.9554
  617MPD2    H3 9146   4.610   3.845  14.043 -0.0958 -0.1061 -0.0174
  617MPD2     N 9147   4.616   3.504  14.334  0.0585 -0.0564 -0.3047
  617MPD2    H5 9148   4.514   3.511  14.337  0.1413  0.9588 -0.1324
  617MPD2    N1 9149   0.299   3.697  14.114  0.3773 -0.1903 -0.5984
  617MPD2    H7 9150   0.330   3.782  14.069 -1.6255  1.1257  0.5151
  618TMC3    C1 9151   0.501   3.605  14.068 -0.7805 -0.5720  0.5903
  618TMC3    C2 9152   0.552   3.502  13.995  0.0543 -0.3896 -0.3836
  618TMC3    C3 9153   0.672   3.525  13.928  0.0084 -0.9069 -0.0647
  618TMC3    C4 9154   0.570   3.725  14.079 -0.8843  0.4980 -0.1704
  618TMC3    C5 9155   0.687   3.740  14.005  0.0293 -0.0975 -0.6325
  618TMC3    C6 9156   0.746   3.634  13.933 -0.3586  0.0860  0.8523
  618TMC3     C 9157   0.375   3.583  14.129  0.2309  0.4468  0.2186
  618TMC3     O 9158   0.332   3.472  14.152 -0.3895  0.3205 -0.6280
  618TMC3     H 9159   0.497   3.409  13.995 -1.3926  0.4680 -0.0617
  618TMC3    H1 9160   0.515   3.806  14.126 -2.7720 -1.2778  0.6709
  618TMC3    H2 9161   0.846   3.633  13.892  0.3610 -1.0285  2.6094
  618TMC3    C7 9162   0.693   3.871  13.938  0.0706 -0.5804  0.1340
  618TMC3    C8 9163   0.657   3.451  13.804  0.1001  0.1282 -0.5456
  618TMC3    O1 9164   0.590   3.941  13.944  0.3322 -0.7703  0.3343
  618TMC3    O2 9165   0.542   3.405  13.777  0.2539  0.3785  0.1358
  619MPD2     C 9166   1.461   0.293  13.345 -0.4712  0.6676 -0.7410
  619MPD2    C1 9167   1.413   0.424  13.361  0.3371 -0.0244  0.6945
  619MPD2    C2 9168   1.319   0.450  13.460 -0.5823 -0.4417 -0.4766
  619MPD2    C3 9169   1.270   0.350  13.549  0.0566 -1.0651  0.4680
  619MPD2    C4 9170   1.323   0.220  13.529  0.4265  0.1200  1.1172
  619MPD2    C5 9171   1.418   0.195  13.432 -0.1324 -0.3031 -0.6944
  619MPD2     H 9172   1.288   0.553  13.473  0.9193  0.1762 -1.7046
  619MPD2    H1 9173   1.287   0.134  13.585 -1.5140  0.9873  1.1702
  619MPD2    H2 9174   1.532   0.266  13.268  0.8358  1.8459  0.0395
  619MPD2    H3 9175   1.452   0.093  13.416 -0.4873 -0.6782  0.9522
  619MPD2     N 9176   1.153   0.373  13.625  0.1531  0.2049 -0.1484
  619MPD2    H5 9177   1.128   0.296  13.686 -0.0965  1.9837  1.9855
  619MPD2    N1 9178   1.438   0.531  13.279 -0.4203  0.2068  0.3079
  619MPD2    H7 9179   1.380   0.612  13.298  0.7094  2.0342 -3.9548
  620TMC3    C1 9180   1.554   0.679  13.139  0.4429  0.3629  0.2635
  620TMC3    C2 9181   1.426   0.734  13.123 -0.2815 -0.0863 -0.5042
  620TMC3    C3 9182   1.419   0.865  13.086  0.7585 -0.1814 -0.3370
  620TMC3    C4 9183   1.665   0.760  13.142  0.3326 -0.7416 -0.4308
  620TMC3    C5 9184   1.651   0.890  13.110 -0.4960 -0.6272  0.3485
  620TMC3    C6 9185   1.529   0.944  13.083 -0.9934 -0.2147  0.3407
  620TMC3     C 9186   1.557   0.548  13.208  0.4055 -0.5326 -0.0003
  620TMC3     O 9187   1.659   0.488  13.228  0.2077  0.4096 -0.1646
  620TMC3     H 9188   1.341   0.666  13.123 -0.6182  0.3560 -3.0262
  620TMC3    H1 9189   1.763   0.716  13.155  1.0742  0.6250 -1.3750
  620TMC3    H2 9190   1.510   1.047  13.054  0.4475 -0.5860 -1.9141
  620TMC3    C7 9191   1.730   0.979  13.188  0.9571 -0.3035  0.3457
  620TMC3    C8 9192   1.294   0.932  13.123  0.5139  1.1235 -0.3525
  620TMC3    O1 9193   1.852   0.974  13.185 -0.9230  0.1693  0.7964
  620TMC3    O2 9194   1.306   1.041  13.178  0.1962  0.5007 -0.0941
  621MPD2     C 9195   1.937   0.353  10.097 -0.2657  0.2024 -0.2648
  621MPD2    C1 9196   2.019   0.261  10.158 -0.3883  0.4114 -0.7271
  621MPD2    C2 9197   2.150   0.256  10.125 -0.3728 -0.2725 -0.3142
  621MPD2    C3 9198   2.209   0.340  10.032  0.6974  0.0758 -0.2357
  621MPD2    C4 9199   2.131   0.434   9.970 -0.8319  0.2563 -0.0738
  621MPD2    C5 9200   1.992   0.440  10.002  0.2835 -0.4208 -0.1430
  621MPD2     H 9201   2.206   0.187  10.188 -2.2205  0.8182  2.5367
  621MPD2    H1 9202   2.180   0.493   9.893  0.1665  0.0847  0.4250
  621MPD2    H2 9203   1.835   0.368  10.131 -0.5633 -0.6037 -0.8146
  621MPD2    H3 9204   1.933   0.512   9.946 -0.0196  0.9212  1.8802
  621MPD2     N 9205   2.351   0.343   9.999 -0.0024  0.5907  0.2102
  621MPD2    H5 9206   2.383   0.427   9.952  3.5766  0.2136  2.0293
  621MPD2    N1 9207   1.967   0.169  10.255 -0.2157 -0.5781 -0.4932
  621MPD2    H7 9208   2.032   0.102  10.294  0.6248  0.9589  0.7092
  622TMC3    C1 9209   1.809   0.040  10.353  0.2335  0.3450 -0.1240
  622TMC3    C2 9210   1.687   0.038  10.411 -0.2969 -0.0435 -0.3929
  622TMC3    C3 9211   1.627   4.637  10.425  0.1293  0.2996  0.3163
  622TMC3    C4 9212   1.854   4.659  10.284  0.7082 -0.4424 -0.3318
  622TMC3    C5 9213   1.778   4.548  10.261  0.0744 -0.2769  0.1377
  622TMC3    C6 9214   1.668   4.538  10.346 -0.0174  0.6007 -0.4220
  622TMC3     C 9215   1.840   0.176  10.305  0.4393 -0.5387 -0.1191
  622TMC3     O 9216   1.746   0.257  10.305 -0.3466 -0.2728  0.0770
  622TMC3     H 9217   1.682   0.117  10.485  0.2389 -1.1830  0.8619
  622TMC3    H1 9218   1.960   4.652  10.264  0.4694 -0.4871 -1.5954
  622TMC3    H2 9219   1.617   4.443  10.353  0.7718  0.2059  0.0094
  622TMC3    C7 9220   1.746   4.515  10.124  0.2505 -0.1323 -0.6385
  622TMC3    C8 9221   1.504   4.621  10.493  0.5744 -0.1111 -0.0746
  622TMC3    O1 9222   1.630   4.475  10.108  0.5833  0.1248  0.2484
  622TMC3    O2 9223   1.444   4.518  10.488  0.3099 -0.1490  0.3140
  623MPD2     C 9224   0.698   1.123  16.066 -0.5212  0.2388  0.2161
  623MPD2    C1 9225   0.635   1.215  16.142 -0.2259 -0.2038 -0.6113
  623MPD2    C2 9226   0.715   1.283  16.237  0.6425 -0.1035  1.1045
  623MPD2    C3 9227   0.846   1.253  16.262  0.9846  0.4152  0.0499
  623MPD2    C4 9228   0.910   1.163  16.179  0.7909  0.1006 -0.0455
  623MPD2    C5 9229   0.842   1.101  16.080  0.8288  0.4751  0.7161
  623MPD2     H 9230   0.677   1.364  16.298  0.7080  2.0348 -1.7012
  623MPD2    H1 9231   1.017   1.147  16.192  1.3202  1.5401 -2.6341
  623MPD2    H2 9232   0.653   1.083  15.976 -1.8253 -0.0074  0.9855
  623MPD2    H3 9233   0.892   1.023  16.024 -1.6200  0.1789 -1.0746
  623MPD2     N 9234   0.908   1.327  16.369 -0.1772  0.2072 -0.7110
  623MPD2    H5 9235   0.852   1.397  16.416  0.2455 -0.2540  0.4638
  623MPD2    N1 9236   0.499   1.253  16.122 -0.4750  0.3649  0.0917
  623MPD2    H7 9237   0.469   1.337  16.171 -1.7797  0.0136 -0.1043
  624TMC3    C1 9238   1.079   1.240  16.787 -0.7865  1.2085 -0.0871
  624TMC3    C2 9239   0.970   1.304  16.838 -0.3709  0.1605 -0.1709
  624TMC3    C3 9240   0.903   1.397  16.754  0.6238 -0.1342 -0.2527
  624TMC3    C4 9241   1.114   1.259  16.653 -0.0384 -0.0842  0.3026
  624TMC3    C5 9242   1.039   1.341  16.570  0.6530 -0.6349 -0.4054
  624TMC3    C6 9243   0.935   1.415  16.624 -1.0762  0.0980 -0.5003
  624TMC3     C 9244   1.148   1.151  16.880  0.0392  0.0113 -0.1794
  624TMC3     O 9245   1.121   1.164  17.001  0.2387  0.8274  0.0934
  624TMC3     H 9246   0.928   1.298  16.938  1.8565  1.7127  0.8624
  624TMC3    H1 9247   1.200   1.208  16.612 -0.7927 -2.6392  1.8805
  624TMC3    H2 9248   0.871   1.483  16.571  1.6757  1.9234 -1.4765
  624TMC3    C7 9249   1.027   1.291  16.431 -0.5464  0.0488 -0.1860
  624TMC3    C8 9250   0.757   1.401  16.772  0.0522 -0.1064  0.5917
  624TMC3    O1 9251   1.110   1.212  16.393  0.0167  0.0302 -0.2476
  624TMC3    O2 9252   0.704   1.302  16.818  0.3889  0.5185 -0.2788
  625MPD2     C 9253   1.212   2.155   0.689  0.1266  1.0808 -0.9589
  625MPD2    C1 9254   1.258   2.278   0.718 -0.0200 -0.2956  0.4211
  625MPD2    C2 9255   1.378   2.299   0.789 -0.4349 -0.0877 -0.1482
  625MPD2    C3 9256   1.451   2.186   0.831  0.0277  0.1718  0.8018
  625MPD2    C4 9257   1.395   2.063   0.806  0.0561 -0.4594 -0.3295
  625MPD2    C5 9258   1.284   2.049   0.734  0.7041  0.2974 -0.1978
  625MPD2     H 9259   1.411   2.398   0.815  0.3830 -0.4154  0.0461
  625MPD2    H1 9260   1.443   1.971   0.837  0.4443 -1.4828 -4.0360
  625MPD2    H2 9261   1.125   2.129   0.630 -0.3965 -0.5416  0.5176
  625MPD2    H3 9262   1.248   1.954   0.696 -0.5144  0.7429 -0.1672
  625MPD2     N 9263   1.590   2.201   0.870  0.0810 -0.3635  0.2169
  625MPD2    H5 9264   1.628   2.295   0.868 -0.6326 -0.0971 -0.8758
  625MPD2    N1 9265   1.193   2.390   0.669 -0.5093 -0.4596  0.0286
  625MPD2    H7 9266   1.230   2.478   0.702 -1.8309  0.5896 -1.2752
  626TMC3    C1 9267   1.024   2.519   0.565  0.2003 -0.2398 -0.5225
  626TMC3    C2 9268   0.960   2.535   0.452  0.1836  0.1230 -0.4814
  626TMC3    C3 9269   0.847   2.613   0.437 -0.6834  0.5775  0.0177
  626TMC3    C4 9270   0.973   2.578   0.680 -0.6438 -0.2152  0.2243
  626TMC3    C5 9271   0.862   2.653   0.671 -0.2535  0.5535  0.6088
  626TMC3    C6 9272   0.793   2.671   0.551 -1.1271 -0.3953 -0.3181
  626TMC3     C 9273   1.087   2.389   0.575  0.5257 -0.4063  0.1526
  626TMC3     O 9274   1.039   2.302   0.502  0.5382  0.2067 -0.5236
  626TMC3     H 9275   0.997   2.490   0.360  2.8367 -2.0589  1.6538
  626TMC3    H1 9276   1.024   2.565   0.775  2.0122 -2.6083 -1.5014
  626TMC3    H2 9277   0.710   2.740   0.541  0.0787  1.4121  2.0996
  626TMC3    C7 9278   0.853   2.757   0.774  0.5940 -0.3324 -0.3630
  626TMC3    C8 9279   0.795   2.652   0.307  0.1605 -0.3971  0.3949
  626TMC3    O1 9280   0.930   2.759   0.869 -0.2921  0.1019  0.4252
  626TMC3    O2 9281   0.884   2.668   0.225 -0.6197  0.5309  0.1771
  627MPD2     C 9282   0.164   2.475  14.127 -0.3654  0.2376 -0.5172
  627MPD2    C1 9283   0.143   2.456  14.260  0.2280  0.4888 -0.3568
  627MPD2    C2 9284   0.051   2.362  14.295  0.4906  0.0329 -0.1339
  627MPD2    C3 9285   4.693   2.296  14.210  0.6731 -0.2102  0.2856
  627MPD2    C4 9286   4.699   2.334  14.079  0.0955  0.1615 -0.7216
  627MPD2    C5 9287   0.078   2.413  14.038 -0.4398 -0.0263 -0.1658
  627MPD2     H 9288   0.049   2.341  14.402 -0.7157 -0.3370 -0.2295
  627MPD2    H1 9289   4.636   2.288  14.004  0.7296 -2.0374  0.0986
  627MPD2    H2 9290   0.237   2.545  14.087 -0.1609 -0.6218 -1.6510
  627MPD2    H3 9291   0.083   2.437  13.932  0.8427  0.8802  0.1104
  627MPD2     N 9292   4.612   2.193  14.265  0.4674  0.0847  0.1518
  627MPD2    H5 9293   4.616   2.172  14.364  0.9364 -0.2276  0.0671
  627MPD2    N1 9294   0.221   2.519  14.357 -0.3846  0.1935 -0.8344
  627MPD2    H7 9295   0.188   2.505  14.451 -2.8156 -0.6004 -1.8240
  628TMC3    C1 9296   0.411   2.636  14.445  0.5445  0.4996  0.3292
  628TMC3    C2 9297   0.547   2.613  14.440  0.5485 -0.9424 -0.5478
  628TMC3    C3 9298   0.622   2.610  14.559 -0.1167 -0.1221  0.5974
  628TMC3    C4 9299   0.349   2.621  14.564  0.0916 -0.6320 -0.0036
  628TMC3    C5 9300   0.421   2.621  14.679  0.8047 -0.8343 -0.3204
  628TMC3    C6 9301   0.557   2.608  14.680  0.3091 -0.7355  0.1188
  628TMC3     C 9302   0.333   2.599  14.331  0.1322 -0.2433  0.2434
  628TMC3     O 9303   0.402   2.605  14.229  0.5958  0.4695 -0.2590
  628TMC3     H 9304   0.604   2.596  14.349  1.1032  0.9742 -0.5638
  628TMC3    H1 9305   0.241   2.631  14.569  0.4056  2.2080  0.9928
  628TMC3    H2 9306   0.606   2.654  14.765 -0.5726 -0.6925  0.6079
  628TMC3    C7 9307   0.379   2.705  14.798 -0.3066 -0.8759  0.0425
  628TMC3    C8 9308   0.750   2.533  14.555 -0.7259 -0.5404 -0.4678
  628TMC3    O1 9309   0.456   2.727  14.890 -0.0829 -0.2677  0.2374
  628TMC3    O2 9310   0.819   2.537  14.452  0.4922 -0.1897  0.0344
  629MPD2     C 9311   2.456   1.296  17.130 -0.2689  0.3366  0.1116
  629MPD2    C1 9312   2.452   1.245  17.003 -0.0434  0.2795 -0.3677
  629MPD2    C2 9313   2.332   1.193  16.959 -0.1927 -0.0241 -0.3982
  629MPD2    C3 9314   2.219   1.186  17.033  0.2253  0.1176 -0.6731
  629MPD2    C4 9315   2.226   1.239  17.159 -0.6144  0.7197 -0.0517
  629MPD2    C5 9316   2.347   1.285  17.209  0.1390  0.5836  0.1877
  629MPD2     H 9317   2.329   1.165  16.854 -0.7291  1.3051 -0.7406
  629MPD2    H1 9318   2.137   1.235  17.221 -1.6137  0.3414 -1.4984
  629MPD2    H2 9319   2.544   1.352  17.162 -0.3838  1.0349 -0.7788
  629MPD2    H3 9320   2.344   1.328  17.308 -1.7562 -1.1050  0.8874
  629MPD2     N 9321   2.099   1.126  16.987 -0.3201 -0.6974  0.3850
  629MPD2    H5 9322   2.107   1.074  16.900 -1.1365 -1.2233  0.6275
  629MPD2    N1 9323   2.565   1.254  16.924  0.0678  0.4964 -0.9226
  629MPD2    H7 9324   2.648   1.298  16.962  1.3640 -1.3608 -1.5755
  630TMC3    C1 9325   2.715   1.217  16.737  0.0614  0.7636  0.6331
  630TMC3    C2 9326   2.743   1.261  16.612  0.1167 -0.2889  0.2427
  630TMC3    C3 9327   2.868   1.217  16.564 -0.3717 -0.0774  0.2000
  630TMC3    C4 9328   2.803   1.141  16.811  0.3791 -0.1118  1.0453
  630TMC3    C5 9329   2.931   1.121  16.766 -0.1019 -0.5705  0.5654
  630TMC3    C6 9330   2.965   1.157  16.640  0.3742  0.1263  0.5544
  630TMC3     C 9331   2.577   1.232  16.786  0.6453  0.2945  0.3590
  630TMC3     O 9332   2.487   1.224  16.702 -0.3643  0.1181 -0.5577
  630TMC3     H 9333   2.666   1.309  16.552  0.5991  1.7919  1.3036
  630TMC3    H1 9334   2.781   1.128  16.916 -1.6090 -2.3944  0.3219
  630TMC3    H2 9335   3.058   1.124  16.595  1.5120  2.4134  1.2023
  630TMC3    C7 9336   3.020   1.061  16.859  0.2353 -0.1760  0.2044
  630TMC3    C8 9337   2.933   1.310  16.481  0.5866 -0.4907 -0.0931
  630TMC3    O1 9338   2.981   1.007  16.961  0.0373  0.3216  0.9363
  630TMC3    O2 9339   3.053   1.323  16.499  0.2812  0.2050 -0.2998
  631MPD2     C 9340   1.241   0.961  15.444 -1.0211  0.0335  0.1272
  631MPD2    C1 9341   1.373   0.960  15.395  0.3759 -0.0624  0.8671
  631MPD2    C2 9342   1.464   0.876  15.458 -0.4620 -0.0627 -0.1171
  631MPD2    C3 9343   1.427   0.787  15.562 -0.0662  0.5248  0.1975
  631MPD2    C4 9344   1.298   0.792  15.609 -0.0592  0.1562  0.9853
  631MPD2    C5 9345   1.209   0.878  15.547  0.5555 -0.2698 -0.1148
  631MPD2     H 9346   1.567   0.887  15.426 -0.3474 -1.0911 -0.1049
  631MPD2    H1 9347   1.258   0.718  15.677  1.8151 -1.8806 -0.1515
  631MPD2    H2 9348   1.163   1.025  15.407  0.1931  0.9208 -0.9044
  631MPD2    H3 9349   1.105   0.873  15.578  0.5136 -0.3896 -0.2723
  631MPD2     N 9350   1.529   0.710  15.621  0.1210  0.2600  0.3139
  631MPD2    H5 9351   1.611   0.701  15.563 -0.5720 -0.6741 -0.5091
  631MPD2    N1 9352   1.400   1.048  15.287 -0.5439 -0.3085  0.1514
  631MPD2    H7 9353   1.326   1.112  15.259  0.6942  1.2676  0.4678
  632TMC3    C1 9354   1.496   1.194  15.148  0.4311 -0.6027  0.1192
  632TMC3    C2 9355   1.413   1.301  15.190 -0.3668  0.3014  0.0701
  632TMC3    C3 9356   1.362   1.384  15.095  0.0718 -0.1332  0.0553
  632TMC3    C4 9357   1.546   1.186  15.017  0.0344 -0.0766 -0.3621
  632TMC3    C5 9358   1.496   1.276  14.932 -0.6206  0.9362  0.6141
  632TMC3    C6 9359   1.403   1.370  14.965  0.1081  0.5307  1.7537
  632TMC3     C 9360   1.518   1.072  15.226 -0.4642 -0.0380  0.8151
  632TMC3     O 9361   1.630   1.021  15.228 -0.4184  0.4360  0.2869
  632TMC3     H 9362   1.374   1.309  15.291  0.8363  2.6739  0.3345
  632TMC3    H1 9363   1.614   1.108  14.987 -0.2453  0.0477 -1.3262
  632TMC3    H2 9364   1.381   1.439  14.884 -0.5935 -2.4581 -0.5888
  632TMC3    C7 9365   1.564   1.309  14.808  0.0145 -0.3123 -0.2527
  632TMC3    C8 9366   1.247   1.459  15.129  0.2929 -0.2107  0.0843
  632TMC3    O1 9367   1.511   1.384  14.728 -0.2733  0.1165 -0.3986
  632TMC3    O2 9368   1.236   1.485  15.250 -0.0349  0.2830  0.5971
  633MPD2     C 9369   0.882   4.624  17.304  0.7170 -0.0336 -0.2650
  633MPD2    C1 9370   0.823   4.517  17.238 -0.9127 -0.1063  0.8801
  633MPD2    C2 9371   0.815   4.400  17.310 -0.1143 -0.0888 -0.1301
  633MPD2    C3 9372   0.869   4.383  17.437 -0.2018  0.1437 -0.2268
  633MPD2    C4 9373   0.934   4.488  17.494 -0.0568  0.4107 -0.9914
  633MPD2    C5 9374   0.940   4.608  17.428  0.0975  0.0142  0.0498
  633MPD2     H 9375   0.768   4.316  17.259  2.2412 -1.8205  0.5489
  633MPD2    H1 9376   0.971   4.470  17.595 -1.0853 -0.3890 -0.7469
  633MPD2    H2 9377   0.895   4.709  17.238  0.2535  1.3708  1.4601
  633MPD2    H3 9378   1.001   4.691  17.462  0.1053  0.4297 -0.9901
  633MPD2     N 9379   0.872   4.262  17.501 -0.4374 -0.3027 -0.1015
  633MPD2    H5 9380   0.928   4.266  17.585 -1.0906  3.0443  0.1898
  633MPD2    N1 9381   0.781   4.522  17.109 -0.5613  0.4034 -0.3255
  633MPD2    H7 9382   0.764   4.434  17.060  1.2992  0.4128 -1.0132
  634TMC3    C1 9383   0.735   4.590  16.893 -0.5418 -0.0555 -0.6913
  634TMC3    C2 9384   0.800   4.484  16.845 -0.4183 -0.6847 -0.2026
  634TMC3    C3 9385   0.778   4.449  16.713 -0.3265 -0.0219  0.1786
  634TMC3    C4 9386   0.663   4.680  16.822  0.5504  0.0204 -0.2888
  634TMC3    C5 9387   0.636   4.636  16.697 -0.5355 -0.4145 -0.7316
  634TMC3    C6 9388   0.694   4.520  16.642 -0.2456 -0.3866  0.0480
  634TMC3     C 9389   0.770   4.631  17.031  0.3100 -0.3016  0.8136
  634TMC3     O 9390   0.769   0.028  17.056  0.8158 -0.2595 -0.0126
  634TMC3     H 9391   0.866   4.422  16.904  2.3842  0.8176 -1.7197
  634TMC3    H1 9392   0.615   0.041  16.870  2.6285  0.0730  1.7001
  634TMC3    H2 9393   0.668   4.492  16.540 -1.8365 -1.4586  0.7480
  634TMC3    C7 9394   0.562   4.724  16.607  0.3646  0.4448  0.7993
  634TMC3    C8 9395   0.803   4.310  16.688 -0.9010  0.1191 -0.2815
  634TMC3    O1 9396   0.556   4.682  16.491  0.2831  0.4374  0.5284
  634TMC3    O2 9397   0.814   4.227  16.774 -0.0233  0.4931  0.2607
  635TMC3    C1 9398   1.516   0.411  17.223 -0.1846  0.1114 -0.0722
  635TMC3    C2 9399   1.562   0.289  17.182 -0.7085  0.3467 -1.0485
  635TMC3    C3 9400   1.495   0.228  17.073 -0.5816 -0.4902  0.6514
  635TMC3    C4 9401   1.417   0.474  17.159  0.2385 -0.2596 -0.8109
  635TMC3    C5 9402   1.352   0.407  17.063 -0.4953  0.1382 -0.3870
  635TMC3    C6 9403   1.393   0.287  17.010 -0.1535 -0.5697 -0.0304
  635TMC3     C 9404   1.585   0.471  17.331  0.4654 -0.1752  0.5798
  635TMC3     O 9405   1.517   0.519  17.420  0.2600 -0.0299  0.1249
  635TMC3     H 9406   1.636   0.243  17.247 -0.1898  2.7292  0.0604
  635TMC3    H1 9407   1.395   0.568  17.210  1.6788 -0.3441 -0.0054
  635TMC3    H2 9408   1.352   0.242  16.920 -1.2489  0.6666 -0.1664
  635TMC3    C7 9409   1.234   0.458  16.997  0.0321  0.2897 -0.4732
  635TMC3    C8 9410   1.519   0.087  17.039  0.4455 -0.2290  0.2575
  635TMC3    O1 9411   1.173   0.389  16.918 -0.5881 -0.4122  0.0080
  635TMC3    O2 9412   1.432   0.038  16.969  0.1120 -0.0249  0.7685
  636MPD2     C 9413   1.911   4.369  15.838 -0.2656 -0.6376  0.3337
  636MPD2    C1 9414   1.885   4.393  15.969 -0.1064 -1.0771  0.5985
  636MPD2    C2 9415   1.911   4.288  16.059  0.0703  0.0111  0.4033
  636MPD2    C3 9416   1.958   4.165  16.019  0.0113  0.7426  0.4924
  636MPD2    C4 9417   1.996   4.153  15.887  0.0491 -0.4989 -0.5195
  636MPD2    C5 9418   1.963   4.249  15.793  0.2407  0.3451 -0.0682
  636MPD2     H 9419   1.888   4.303  16.163 -1.0579  1.2037 -0.0171
  636MPD2    H1 9420   2.051   4.065  15.853  1.8339  0.4888 -0.1837
  636MPD2    H2 9421   1.901   4.448  15.764 -0.8012  0.1944  1.3059
  636MPD2    H3 9422   2.013   4.240  15.697 -0.1763  0.2964 -0.2817
  636MPD2     N 9423   1.987   4.065  16.113  0.1173  0.0838  0.1114
  636MPD2    H5 9424   1.984   4.095  16.210  2.1523  1.1372 -0.1411
  636MPD2    N1 9425   1.851   4.524  16.019  0.8241 -0.2513  0.6783
  636MPD2    H7 9426   1.839   4.527  16.120 -1.4635 -0.3415  0.4081
  637TMC3    C1 9427   2.089   3.883  16.196 -0.3449 -0.1844  0.0434
  637TMC3    C2 9428   2.076   3.925  16.328 -0.3958 -0.6619  0.5026
  637TMC3    C3 9429   2.139   3.852  16.419 -0.4702  0.0401  0.4838
  637TMC3    C4 9430   2.167   3.780  16.158 -0.1718  0.3080  0.8363
  637TMC3    C5 9431   2.230   3.707  16.254  0.1227  0.9227  0.2277
  637TMC3    C6 9432   2.209   3.742  16.387  0.5415 -0.4014 -0.5396
  637TMC3     C 9433   2.017   3.936  16.083 -0.5225  0.2750  0.1028
  637TMC3     O 9434   2.001   3.882  15.977  0.0348  0.5285 -0.1916
  637TMC3     H 9435   2.022   4.015  16.354 -2.2739 -1.1469 -1.7668
  637TMC3    H1 9436   2.172   3.754  16.053 -2.0088 -0.0300  0.8283
  637TMC3    H2 9437   2.271   3.692  16.461  0.1181 -1.0166 -0.5929
  637TMC3    C7 9438   2.333   3.613  16.216 -0.2648 -0.6495  0.6877
  637TMC3    C8 9439   2.167   3.924  16.541  0.0932  0.8444 -0.1071
  637TMC3    O1 9440   2.296   3.497  16.227  0.2492  0.1267 -0.0580
  637TMC3    O2 9441   2.162   4.049  16.537  0.1211  0.5821 -0.2578
  638MPD2     C 9442   2.188   3.312  14.908  0.0570 -0.2833 -0.0985
  638MPD2    C1 9443   2.176   3.204  14.822  0.1895  0.2251 -0.0165
  638MPD2    C2 9444   2.118   3.085  14.867 -0.2557 -0.0571  0.4931
  638MPD2    C3 9445   2.061   3.072  14.988 -0.5467 -0.3627 -0.0913
  638MPD2    C4 9446   2.063   3.186  15.070  0.2377  0.4447  0.5258
  638MPD2    C5 9447   2.123   3.303  15.023 -0.2328  0.0667  1.0492
  638MPD2     H 9448   2.113   2.996  14.806 -1.3415 -0.5128  1.2524
  638MPD2    H1 9449   2.020   3.201  15.168  0.2165  0.5557  0.4999
  638MPD2    H2 9450   2.222   3.410  14.879 -1.2488  0.3851  0.6049
  638MPD2    H3 9451   2.130   3.390  15.087 -0.3908  2.8897 -2.7637
  638MPD2     N 9452   1.998   2.952  15.025 -0.4381 -0.7129  0.1042
  638MPD2    H5 9453   1.988   2.886  14.949  2.8374 -0.7951 -0.2519
  638MPD2    N1 9454   2.247   3.199  14.700 -0.2249 -0.3000 -0.0797
  638MPD2    H7 9455   2.316   3.270  14.677 -0.6551  0.4008  0.7588
  639TMC3    C1 9456   1.961   2.765  15.156 -0.0758  0.3684  0.4839
  639TMC3    C2 9457   1.914   2.707  15.040  0.3455  0.2554 -0.9087
  639TMC3    C3 9458   1.954   2.585  14.998  0.7794 -0.2027  0.7859
  639TMC3    C4 9459   2.041   2.691  15.242  0.2749 -0.1027 -0.1039
  639TMC3    C5 9460   2.081   2.569  15.193 -0.2958 -0.3226 -0.0750
  639TMC3    C6 9461   2.039   2.513  15.078 -0.3620 -0.0741 -0.1766
  639TMC3     C 9462   1.982   2.909  15.157 -0.8031  0.3015 -0.2988
  639TMC3     O 9463   2.018   2.964  15.258  0.5029  0.3067 -0.1114
  639TMC3     H 9464   1.822   2.742  14.994  0.1663 -0.6771 -1.2548
  639TMC3    H1 9465   2.077   2.737  15.333 -1.0388  2.4335 -0.8640
  639TMC3    H2 9466   2.058   2.412  15.043 -2.5206 -0.5741  0.0963
  639TMC3    C7 9467   2.184   2.505  15.266 -0.5297  0.5596 -0.1310
  639TMC3    C8 9468   1.877   2.524  14.896 -0.1104 -0.0305  0.0152
  639TMC3    O1 9469   2.185   2.528  15.386  0.4317 -0.2157 -0.2512
  639TMC3    O2 9470   1.932   2.505  14.789  0.4334 -0.1990  0.4412
  640MPD2     C 9471   1.577   1.620   9.351  0.1745  0.5943 -0.7148
  640MPD2    C1 9472   1.712   1.592   9.376  0.0074  0.5412  0.0132
  640MPD2    C2 9473   1.756   1.593   9.505 -0.7908  0.0243  0.5232
  640MPD2    C3 9474   1.670   1.635   9.604 -0.1757  0.8834  0.0202
  640MPD2    C4 9475   1.544   1.685   9.573 -0.1718 -0.2239  0.1067
  640MPD2    C5 9476   1.497   1.665   9.451  0.2463 -0.0052  0.3575
  640MPD2     H 9477   1.857   1.556   9.514 -0.6429  0.3806  0.3184
  640MPD2    H1 9478   1.480   1.731   9.649 -0.3351 -1.5295  0.7634
  640MPD2    H2 9479   1.539   1.628   9.250  1.5911 -2.1846 -1.4824
  640MPD2    H3 9480   1.397   1.705   9.438  1.0997  1.3589 -2.1010
  640MPD2     N 9481   1.711   1.653   9.738  0.0552 -0.2475 -0.1843
  640MPD2    H5 9482   1.631   1.682   9.793 -1.4803 -3.5009 -0.6902
  640MPD2    N1 9483   1.778   1.538   9.264  0.7787 -0.3124  0.5789
  640MPD2    H7 9484   1.724   1.544   9.179  2.4137  1.1117 -0.3493
  641TMC3    C1 9485   1.931   1.418   9.139 -0.1715  0.4992 -0.1877
  641TMC3    C2 9486   2.064   1.374   9.124  0.3656 -0.4754  0.7807
  641TMC3    C3 9487   2.099   1.310   9.010 -0.3448  0.6407  0.0192
  641TMC3    C4 9488   1.836   1.388   9.044  0.4035  0.5178 -1.0886
  641TMC3    C5 9489   1.881   1.333   8.925  0.3492  0.3162 -1.4653
  641TMC3    C6 9490   2.011   1.299   8.901  0.3559 -0.2699  0.2216
  641TMC3     C 9491   1.896   1.466   9.270 -0.4283 -0.7722  0.3624
  641TMC3     O 9492   1.980   1.455   9.360  1.0982 -0.3524 -0.1063
  641TMC3     H 9493   2.146   1.389   9.194 -0.5693 -1.0109  1.9805
  641TMC3    H1 9494   1.729   1.399   9.058  0.6650 -0.1884  1.4997
  641TMC3    H2 9495   2.054   1.253   8.813 -0.4824 -1.3611  0.3717
  641TMC3    C7 9496   1.784   1.259   8.846  0.0975 -0.2091  0.4309
  641TMC3    C8 9497   2.207   1.212   9.006 -0.4917  0.6607 -0.0602
  641TMC3    O1 9498   1.671   1.297   8.868  0.0599 -0.0507 -0.3188
  641TMC3    O2 9499   2.207   1.139   8.910 -0.0357 -0.0906 -0.3819
  642TMC3    C1 9500   3.763   2.944  12.208 -0.1593  0.4516  0.6454
  642TMC3    C2 9501   3.881   2.958  12.144  0.3935 -0.3476 -0.6585
  642TMC3    C3 9502   3.893   2.917  12.016 -0.1484  0.3144  0.2353
  642TMC3    C4 9503   3.652   2.885  12.145 -0.5517 -0.2351  0.3257
  642TMC3    C5 9504   3.665   2.844  12.018 -0.2138  0.2928  0.0267
  642TMC3    C6 9505   3.787   2.863  11.958 -0.3787  0.3713 -0.3279
  642TMC3     C 9506   3.741   3.052  12.305 -0.8120  0.3917  0.2875
  642TMC3     O 9507   3.805   3.154  12.291 -0.2108 -0.2425 -0.2494
  642TMC3     H 9508   3.960   3.019  12.187 -0.5180 -0.6000  1.3721
  642TMC3    H1 9509   3.551   2.880  12.185  0.3978 -1.3331  2.5748
  642TMC3    H2 9510   3.808   2.820  11.861 -0.4337 -0.5422  0.0588
  642TMC3    C7 9511   3.599   2.723  11.983 -0.2042  0.8204 -0.3946
  642TMC3    C8 9512   4.026   2.887  11.965  0.4681 -0.4504  0.6873
  642TMC3    O1 9513   3.598   2.698  11.864 -0.9530 -0.0162  0.5075
  642TMC3    O2 9514   4.050   2.875  11.844 -0.6615  0.5540 -0.0000
  643TMC3    C1 9515   3.040   2.359   0.402 -0.2645  0.9694  0.2833
  643TMC3    C2 9516   2.933   2.385   0.319  0.2995  0.8220  0.0970
  643TMC3    C3 9517   2.885   2.297   0.227  0.1243 -0.1630  0.2141
  643TMC3    C4 9518   3.097   2.234   0.392  0.4467  0.8810  0.3981
  643TMC3    C5 9519   3.057   2.148   0.292 -0.3755  0.7041  0.2438
  643TMC3    C6 9520   2.947   2.177   0.208 -0.6863 -0.4175  0.9603
  643TMC3     C 9521   3.069   2.455   0.505  0.5658  0.2787 -0.4581
  643TMC3     O 9522   3.041   2.574   0.479 -0.6071  0.5733  0.1209
  643TMC3     H 9523   2.891   2.485   0.316  1.6014  1.3204 -1.2288
  643TMC3    H1 9524   3.191   2.227   0.444  1.0296 -0.3144 -0.8021
  643TMC3    H2 9525   2.907   2.112   0.131 -1.9132  2.5538 -0.9234
  643TMC3    C7 9526   3.147   2.033   0.284 -0.3231  0.2398 -0.2938
  643TMC3    C8 9527   2.826   2.353   0.104 -0.6976  0.5854  0.3705
  643TMC3    O1 9528   3.193   2.004   0.394 -0.0417 -0.2516  0.3983
  643TMC3    O2 9529   2.799   2.280   0.012 -0.1576  0.5873 -0.2774
  644MPD2     C 9530   3.074   1.832   9.573 -1.0511 -0.0464  0.5215
  644MPD2    C1 9531   2.964   1.824   9.490 -0.8512 -0.2821  0.7877
  644MPD2    C2 9532   2.908   1.937   9.437 -0.0168  0.2869  0.1923
  644MPD2    C3 9533   2.960   2.066   9.444  0.3704  1.1330 -0.3931
  644MPD2    C4 9534   3.074   2.075   9.522  0.6837  0.1742 -0.1471
  644MPD2    C5 9535   3.124   1.960   9.590  0.4040 -0.0235 -0.2864
  644MPD2     H 9536   2.820   1.936   9.374 -0.4086 -3.4529  0.8421
  644MPD2    H1 9537   3.135   2.163   9.534  1.6000 -0.3684 -0.8148
  644MPD2    H2 9538   3.120   1.747   9.622  2.0692  1.3923  0.1096
  644MPD2    H3 9539   3.216   1.979   9.644 -1.0291  0.2154  2.0470
  644MPD2     N 9540   2.899   2.171   9.383  0.3991 -0.3266 -0.9522
  644MPD2    H5 9541   2.831   2.147   9.312  1.1820 -0.4213 -1.6759
  644MPD2    N1 9542   2.926   1.699   9.433 -0.1756 -0.2508 -0.5187
  644MPD2    H7 9543   2.975   1.617   9.469  2.9786  1.8707 -0.0344
  645TMC3    C1 9544   2.861   2.392   9.320 -0.0635 -0.0713  0.5832
  645TMC3    C2 9545   2.737   2.358   9.277  0.1268 -0.4886  0.4512
  645TMC3    C3 9546   2.670   2.451   9.198 -0.5537 -0.1239 -0.7753
  645TMC3    C4 9547   2.926   2.513   9.293 -0.2826 -0.7253 -0.3908
  645TMC3    C5 9548   2.855   2.600   9.217 -0.6565 -0.1714  0.2199
  645TMC3    C6 9549   2.726   2.577   9.168 -0.0637  0.2820 -0.0950
  645TMC3     C 9550   2.936   2.305   9.401  0.0423 -0.5340 -0.4093
  645TMC3     O 9551   3.009   2.359   9.484 -0.7492  0.0496  0.1621
  645TMC3     H 9552   2.686   2.269   9.310 -0.4786 -0.1727  0.3781
  645TMC3    H1 9553   3.025   2.531   9.335 -0.1505 -2.2135 -0.0582
  645TMC3    H2 9554   2.664   2.660   9.135 -0.2212 -0.0167 -0.5510
  645TMC3    C7 9555   2.911   2.730   9.189 -0.0402  0.1462  0.1655
  645TMC3    C8 9556   2.537   2.436   9.147  0.4972  0.0665 -0.2850
  645TMC3    O1 9557   2.842   2.817   9.134 -0.2190  1.2359 -0.4105
  645TMC3    O2 9558   2.500   2.500   9.050  0.1963 -0.6945 -0.3109
  646MPD2     C 9559   2.136   1.786  14.204  0.2559  0.0818  0.4368
  646MPD2    C1 9560   2.068   1.812  14.324  0.3389  0.1396 -0.3884
  646MPD2    C2 9561   1.952   1.893  14.321 -0.5912  0.0206  0.3897
  646MPD2    C3 9562   1.931   1.972  14.216 -0.0449 -0.7213 -0.0368
  646MPD2    C4 9563   2.005   1.947  14.097 -0.6183 -0.1100 -0.8877
  646MPD2    C5 9564   2.101   1.853  14.091  0.1474  1.0061 -0.2378
  646MPD2     H 9565   1.889   1.892  14.410 -0.9913  2.5948  0.1351
  646MPD2    H1 9566   1.977   1.999  14.006  0.0093  2.1911  0.2575
  646MPD2    H2 9567   2.215   1.714  14.191 -1.4011 -1.9286  1.3786
  646MPD2    H3 9568   2.145   1.829  13.995  1.5770  1.9950  0.1691
  646MPD2     N 9569   1.823   2.067  14.226 -0.1364  0.0436  0.2206
  646MPD2    H5 9570   1.747   2.048  14.290  2.8695 -0.6158  3.5631
  646MPD2    N1 9571   2.131   1.774  14.447  0.3894 -0.3058  0.0859
  646MPD2    H7 9572   2.212   1.713  14.444  0.1233 -0.6659  0.2007
  647TMC3    C1 9573   2.152   1.717  14.667  0.3610 -0.7585  0.5495
  647TMC3    C2 9574   2.075   1.654  14.762 -0.3875  0.2090 -0.7180
  647TMC3    C3 9575   2.116   1.531  14.803  0.1211  0.0220 -0.3512
  647TMC3    C4 9576   2.281   1.680  14.638  0.0788  0.3508 -0.3566
  647TMC3    C5 9577   2.324   1.559  14.691 -0.0713  0.3290 -0.6055
  647TMC3    C6 9578   2.244   1.478  14.770  0.4854 -0.2120  0.1238
  647TMC3     C 9579   2.078   1.798  14.569  0.6094 -0.3532  0.5614
  647TMC3     O 9580   1.969   1.840  14.600  0.3321  0.0771 -0.0050
  647TMC3     H 9581   1.975   1.693  14.781 -0.9439 -1.9071  0.7365
  647TMC3    H1 9582   2.340   1.741  14.571 -0.1339  0.0287 -0.8392
  647TMC3    H2 9583   2.264   1.375  14.794 -0.5732 -0.3482  0.4080
  647TMC3    C7 9584   2.449   1.501  14.668 -1.1582  0.4401  0.0604
  647TMC3    C8 9585   2.034   1.458  14.905  0.1069 -0.3178 -0.5552
  647TMC3    O1 9586   2.481   1.413  14.748  0.4202  0.4913 -0.6030
  647TMC3    O2 9587   2.086   1.355  14.947  0.2511  0.6014 -0.2758
  648TMC3    C1 9588   1.278   4.116  16.069 -0.0988  0.3509 -0.3163
  648TMC3    C2 9589   1.355   4.010  16.028 -1.1961 -0.6820  0.0840
  648TMC3    C3 9590   1.345   3.979  15.896  0.1242  0.4588 -1.1791
  648TMC3    C4 9591   1.212   4.206  15.985 -0.4593 -0.2478  0.5344
  648TMC3    C5 9592   1.224   4.174  15.849 -0.0876  0.3471  0.3139
  648TMC3    C6 9593   1.282   4.054  15.806  0.6633 -0.5798  0.3977
  648TMC3     C 9594   1.291   4.159  16.204  0.4737 -0.2309 -0.3874
  648TMC3     O 9595   1.286   4.281  16.212 -0.2428 -0.2050  0.2058
  648TMC3     H 9596   1.406   3.948  16.101  0.1104  0.0810 -0.1744
  648TMC3    H1 9597   1.147   4.285  16.022  1.0269  1.8024 -1.2237
  648TMC3    H2 9598   1.284   4.019  15.703  2.0891 -0.3445  0.3506
  648TMC3    C7 9599   1.137   4.224  15.751  0.1775 -0.1014 -0.4432
  648TMC3    C8 9600   1.388   3.849  15.849 -0.1943 -0.1464  1.2944
  648TMC3    O1 9601   1.134   4.179  15.639 -0.3126 -0.5630 -0.5384
  648TMC3    O2 9602   1.332   3.799  15.755 -0.4353 -0.0480 -0.4862
  649TMC3    C1 9603   0.442   0.299  12.820 -0.3919 -0.2519 -0.4809
  649TMC3    C2 9604   0.573   0.309  12.793 -0.2881  0.3473  0.1424
  649TMC3    C3 9605   0.661   0.245  12.876 -0.2496  0.4118  0.0787
  649TMC3    C4 9606   0.398   0.233  12.933 -0.4656  0.2996  0.2266
  649TMC3    C5 9607   0.491   0.190  13.029  0.2462 -0.4258  0.1087
  649TMC3    C6 9608   0.625   0.182  12.990  0.0921 -0.0293  0.0814
  649TMC3     C 9609   0.338   0.354  12.733  0.6763  0.1802 -0.0640
  649TMC3     O 9610   0.225   0.362  12.772 -0.3948  0.2762 -0.5665
  649TMC3     H 9611   0.600   0.365  12.704  0.3606  2.4123  1.6686
  649TMC3    H1 9612   0.292   0.227  12.956 -0.6616 -0.7684 -0.9950
  649TMC3    H2 9613   0.704   0.144  13.054 -1.2495 -2.6144  0.1955
  649TMC3    C7 9614   0.437   0.113  13.143  0.0741 -0.3044  0.2053
  649TMC3    C8 9615   0.804   0.249  12.849  0.2550  0.4287 -0.0912
  649TMC3    O1 9616   0.322   0.075  13.129  0.2353 -0.3072  0.2032
  649TMC3    O2 9617   0.877   0.172  12.914 -0.3242  0.3052 -0.1704
  650TMC3    C1 9618   3.110   1.918  12.651 -0.8348  0.2904 -0.6204
  650TMC3    C2 9619   3.045   2.020  12.720 -0.1060 -0.1814 -0.2316
  650TMC3    C3 9620   2.934   2.080  12.672  0.3101 -0.6598 -0.1221
  650TMC3    C4 9621   3.074   1.879  12.528 -0.5709  0.3246  0.0428
  650TMC3    C5 9622   2.955   1.940  12.483  0.7163 -0.1194  0.3544
  650TMC3    C6 9623   2.892   2.037  12.553  0.4885 -0.2252  0.0263
  650TMC3     C 9624   3.231   1.871  12.710  0.0433 -0.4775 -0.4914
  650TMC3     O 9625   3.298   1.953  12.781  0.1126  0.0301  0.6020
  650TMC3     H 9626   3.081   2.053  12.817  0.2254 -0.9609 -0.0908
  650TMC3    H1 9627   3.116   1.787  12.490 -0.1455  0.6630 -0.3032
  650TMC3    H2 9628   2.798   2.078  12.519  0.8947  0.6110 -0.0997
  650TMC3    C7 9629   2.878   1.875  12.376  0.1001 -0.4361  0.5459
  650TMC3    C8 9630   2.903   2.217  12.709  0.3239  0.4265  0.0308
  650TMC3    O1 9631   2.915   1.756  12.360 -0.3856 -0.3130  0.0051
  650TMC3    O2 9632   2.892   2.298  12.616 -0.3514  0.1411 -0.2287
  651MPD2     C 9633   1.584   4.130  10.454  0.0465 -0.0365 -0.4274
  651MPD2    C1 9634   1.607   4.198  10.566 -0.1000  0.0688 -0.1381
  651MPD2    C2 9635   1.718   4.274  10.583 -0.4661 -0.2779 -0.0951
  651MPD2    C3 9636   1.813   4.283  10.479 -0.0711  0.1135  0.8008
  651MPD2    C4 9637   1.792   4.206  10.363 -0.1231 -0.4948  0.1925
  651MPD2    C5 9638   1.674   4.131  10.350 -0.1849  0.0306  0.0634
  651MPD2     H 9639   1.738   4.315  10.681  1.4986  1.6621 -1.2944
  651MPD2    H1 9640   1.855   4.204  10.276 -1.2388  1.1120 -0.6657
  651MPD2    H2 9641   1.499   4.069  10.425 -0.8280  1.0127 -0.1107
  651MPD2    H3 9642   1.661   4.080  10.256 -0.5406  3.0198 -1.5010
  651MPD2     N 9643   1.934   4.347  10.503 -0.0315  0.4462  0.0794
  651MPD2    H5 9644   1.945   4.397  10.590  0.0551  1.1423 -0.3332
  651MPD2    N1 9645   1.511   4.195  10.667  0.3330 -0.4492  0.1151
  651MPD2    H7 9646   1.523   4.269  10.735  0.0343 -0.1460 -0.1671
  652TMC3    C1 9647   2.342   4.252  10.552 -0.0686  0.3084  0.4823
  652TMC3    C2 9648   2.264   4.296  10.449  0.0965  0.1876  0.4145
  652TMC3    C3 9649   2.165   4.390  10.480 -0.5219 -0.7227 -0.2200
  652TMC3    C4 9650   2.346   4.316  10.674 -0.2150 -0.4008  0.1937
  652TMC3    C5 9651   2.249   4.411  10.696  0.9149 -0.7658  0.8488
  652TMC3    C6 9652   2.152   4.442  10.608  0.0285  0.8020 -0.3342
  652TMC3     C 9653   2.458   4.177  10.520  0.4219  0.5068  0.5213
  652TMC3     O 9654   2.504   4.116  10.618  0.2596  0.9492 -0.5588
  652TMC3     H 9655   2.273   4.243  10.354  0.3366 -0.2810  0.6999
  652TMC3    H1 9656   2.418   4.296  10.752  0.2444 -0.0397 -0.1306
  652TMC3    H2 9657   2.077   4.515  10.638  0.6229  1.6886 -1.0308
  652TMC3    C7 9658   2.279   4.516  10.784  0.1666 -0.1103  0.5970
  652TMC3    C8 9659   2.040   4.346  10.420  0.8657  0.0278  0.1484
  652TMC3    O1 9660   2.188   4.559  10.855  0.5366 -0.0641  0.5294
  652TMC3    O2 9661   2.056   4.281  10.319  0.5024  0.6495  0.7510
  653MPD2     C 9662   0.694   4.267   0.154 -0.9995  0.8153 -0.1566
  653MPD2    C1 9663   0.668   4.371   0.071 -0.8026  0.1037  0.0321
  653MPD2    C2 9664   0.594   4.350  17.651  0.3692 -0.4346 -0.0724
  653MPD2    C3 9665   0.534   4.226  17.634  0.6884 -0.0148 -0.7008
  653MPD2    C4 9666   0.558   4.126   0.022  0.3760  0.7653  0.1368
  653MPD2    C5 9667   0.635   4.151   0.132 -0.5406  0.4186 -0.1670
  653MPD2     H 9668   0.571   4.426  17.578 -1.1548 -0.9519 -0.1190
  653MPD2    H1 9669   0.516   4.026   0.015 -2.0978  1.8026  0.0145
  653MPD2    H2 9670   0.742   4.272   0.251 -1.1923  0.4697 -0.0429
  653MPD2    H3 9671   0.648   4.067   0.199 -0.3388  1.9664  1.7245
  653MPD2     N 9672   0.453   4.213  17.519  0.5365 -0.1047  0.7673
  653MPD2    H5 9673   0.443   4.293  17.457  0.6525  0.3370  1.3177
  653MPD2    N1 9674   0.737   4.497   0.085  0.2810  0.7896  0.5662
  653MPD2    H7 9675   0.712   4.567   0.016 -1.3749  0.3445  0.7085
  654TMC3    C1 9676   0.330   4.099  17.356 -0.2401  0.6248 -0.0261
  654TMC3    C2 9677   0.275   4.220  17.321  0.1243 -0.3440 -0.4993
  654TMC3    C3 9678   0.202   4.218  17.200 -0.3637  0.5646 -0.1088
  654TMC3    C4 9679   0.315   3.979  17.283 -0.7572  0.3115  0.0500
  654TMC3    C5 9680   0.249   3.993  17.159 -0.5462 -0.3189 -1.0674
  654TMC3    C6 9681   0.194   4.108  17.118  0.7327 -0.1193  0.4737
  654TMC3     C 9682   0.397   4.089  17.481 -0.4836 -1.0744 -0.4354
  654TMC3     O 9683   0.411   3.977  17.533  0.4095  0.4264 -0.4566
  654TMC3     H 9684   0.276   4.308  17.385 -0.9858 -0.4079 -0.3857
  654TMC3    H1 9685   0.359   3.885  17.315 -1.0445  0.1843  0.0678
  654TMC3    H2 9686   0.133   4.106  17.029  0.3534 -1.0640  0.7622
  654TMC3    C7 9687   0.225   3.871  17.072 -0.4653 -0.1085 -0.2090
  654TMC3    C8 9688   0.124   4.341  17.176  0.5745  0.5567 -0.2411
  654TMC3    O1 9689   0.164   3.887  16.972 -0.1808  0.3078 -0.5606
  654TMC3    O2 9690   0.116   4.425  17.268  0.1625 -0.0207  0.2841
  655MPD2     C 9691   1.679   4.120  15.775  0.4112 -0.3188  0.3415
  655MPD2    C1 9692   1.612   4.199  15.683 -0.0131  0.4762  0.5742
  655MPD2    C2 9693   1.601   4.154  15.552  0.4152 -0.0603  0.2915
  655MPD2    C3 9694   1.657   4.032  15.512  0.0616  0.6179 -0.6200
  655MPD2    C4 9695   1.724   3.959  15.609  0.1666  0.5492  0.5160
  655MPD2    C5 9696   1.738   4.004  15.737 -0.4565  0.4552 -0.8935
  655MPD2     H 9697   1.558   4.225  15.482  1.0679  0.0128 -0.0432
  655MPD2    H1 9698   1.756   3.858  15.584 -1.0790  0.7494 -1.8924
  655MPD2    H2 9699   1.690   4.164  15.874  1.0827 -3.0577  1.4705
  655MPD2    H3 9700   1.807   3.941  15.791  0.5618  2.4607  0.1416
  655MPD2     N 9701   1.627   3.984  15.384  0.7502 -0.3411  0.4916
  655MPD2    H5 9702   1.669   3.894  15.360  2.1333  0.8319 -1.4619
  655MPD2    N1 9703   1.566   4.331  15.707 -0.1652  0.0253 -0.0122
  655MPD2    H7 9704   1.520   4.378  15.631  0.1775  1.9550  0.9753
  656TMC3    C1 9705   1.482   4.511  15.820 -0.5054 -0.2324  0.5966
  656TMC3    C2 9706   1.402   4.542  15.924  1.4297 -0.6875 -1.2142
  656TMC3    C3 9707   1.309   4.642  15.904  0.3492  0.5549  0.8246
  656TMC3    C4 9708   1.477   4.577  15.697  0.1223 -0.2165 -0.0001
  656TMC3    C5 9709   1.376   4.677  15.683  0.4137 -0.2646 -0.3278
  656TMC3    C6 9710   1.283   4.703  15.784  0.3362  0.0913  0.5558
  656TMC3     C 9711   1.549   4.385  15.832 -0.8136 -0.4014 -0.8823
  656TMC3     O 9712   1.558   4.347  15.945 -0.5500  0.4049 -0.2366
  656TMC3     H 9713   1.420   4.509  16.026  0.8702  1.7100 -0.3503
  656TMC3    H1 9714   1.542   4.552  15.614  0.1981  2.0799 -0.6320
  656TMC3    H2 9715   1.204   0.053  15.774  0.6906  0.2345 -1.2206
  656TMC3    C7 9716   1.355   0.003  15.544  0.0216  0.0783 -0.2973
  656TMC3    C8 9717   1.190   4.635  15.989 -0.3947 -0.2208 -0.2791
  656TMC3    O1 9718   1.441   4.718  15.455  0.2721  0.3172 -0.1293
  656TMC3    O2 9719   1.143   4.527  16.008 -0.4533 -0.5897 -0.7220
  657TMC3    C1 9720   0.668   3.469  14.947 -0.0865 -0.5832  0.0776
  657TMC3    C2 9721   0.707   3.493  15.072 -0.0967 -0.2751  0.2255
  657TMC3    C3 9722   0.636   3.597  15.133 -0.0752  0.1734  0.4750
  657TMC3    C4 9723   0.573   3.535  14.880 -0.0095 -0.8162 -0.3865
  657TMC3    C5 9724   0.500   3.632  14.940  0.2099 -0.2777  0.2076
  657TMC3    C6 9725   0.533   3.668  15.068 -0.1285 -0.4136 -0.4306
  657TMC3     C 9726   0.742   3.374  14.860 -0.1397 -0.7135  0.7049
  657TMC3     O 9727   0.690   3.340  14.752  0.0711 -0.1906  0.4634
  657TMC3     H 9728   0.765   3.417  15.123  1.9823  0.7208 -0.6270
  657TMC3    H1 9729   0.531   3.504  14.785  0.5626  1.3243 -1.3457
  657TMC3    H2 9730   0.507   3.768  15.099 -0.0475 -0.5611  0.1169
  657TMC3    C7 9731   0.412   3.712  14.851  0.5845  0.3593  0.3681
  657TMC3    C8 9732   0.690   3.660  15.258 -0.5797  0.1415 -0.0878
  657TMC3    O1 9733   0.409   3.684  14.728  0.2918  0.4387 -0.2503
  657TMC3    O2 9734   0.602   3.739  15.295  0.1435  0.4546  0.0188
  658MPD2     C 9735   2.109   4.007  15.042 -0.3864  0.4073 -0.4809
  658MPD2    C1 9736   2.010   3.959  14.957 -0.0835  0.1565  0.1594
  658MPD2    C2 9737   2.036   3.959  14.822  0.5842 -0.2886  0.4848
  658MPD2    C3 9738   2.145   4.021  14.773  0.2342  0.2418 -0.5807
  658MPD2    C4 9739   2.244   4.079  14.858  0.0807 -0.2825 -0.5614
  658MPD2    C5 9740   2.230   4.056  14.993 -0.1782 -0.0500 -0.2342
  658MPD2     H 9741   1.966   3.914  14.751 -0.2419  0.4325  0.8381
  658MPD2    H1 9742   2.324   4.138  14.816  0.2399 -1.1111 -1.4301
  658MPD2    H2 9743   2.090   3.990  15.148  0.1496  1.1340 -0.2693
  658MPD2    H3 9744   2.303   4.096  15.062  0.3797  1.4777 -1.7078
  658MPD2     N 9745   2.144   4.037  14.631  0.4826 -0.3914 -0.3919
  658MPD2    H5 9746   2.068   3.990  14.582 -0.0139 -1.2563  1.2046
  658MPD2    N1 9747   1.886   3.915  15.003  0.1163  0.0918  0.0277
  658MPD2    H7 9748   1.865   3.941  15.099 -2.7216  0.7136 -0.7664
  659TMC3    C1 9749   1.650   3.861  15.005  0.7442 -0.0275  0.0120
  659TMC3    C2 9750   1.655   3.910  15.131  0.5536 -0.1948  0.3715
  659TMC3    C3 9751   1.536   3.968  15.177 -0.2843 -0.6661 -0.2134
  659TMC3    C4 9752   1.533   3.849  14.934 -0.2355 -0.4988 -0.2041
  659TMC3    C5 9753   1.427   3.920  14.978  0.3194 -0.2725 -0.1087
  659TMC3    C6 9754   1.429   3.988  15.094  0.1591 -0.3948 -0.3955
  659TMC3     C 9755   1.774   3.865  14.929 -0.0732 -0.0040 -0.2220
  659TMC3     O 9756   1.764   3.842  14.809  0.4938 -0.0424 -0.2672
  659TMC3     H 9757   1.748   3.921  15.186  0.7034 -0.5416  0.1946
  659TMC3    H1 9758   1.536   3.809  14.834 -0.8166  1.4746 -1.0140
  659TMC3    H2 9759   1.335   4.032  15.124  0.7143 -0.3945  1.3023
  659TMC3    C7 9760   1.301   3.900  14.911 -1.3003  0.0414  0.3631
  659TMC3    C8 9761   1.539   4.042  15.302  0.0268  0.3062  0.3331
  659TMC3    O1 9762   1.232   4.001  14.900  0.3067  0.1187  0.2010
  659TMC3    O2 9763   1.444   4.120  15.320 -0.0585  0.2441  0.0805
  660MPD2     C 9764   4.598   3.286  12.750 -0.0941 -0.0279 -0.0149
  660MPD2    C1 9765   4.509   3.192  12.704  0.4605 -0.1001 -0.3657
  660MPD2    C2 9766   4.409   3.140  12.796 -0.9946  0.6379  0.1805
  660MPD2    C3 9767   4.417   3.182  12.928 -0.1162 -0.2215 -0.4206
  660MPD2    C4 9768   4.504   3.281  12.966  0.3525 -0.3560  0.0016
  660MPD2    C5 9769   4.594   3.332  12.879 -0.3611 -0.5443 -0.4975
  660MPD2     H 9770   4.334   3.074  12.755  3.4723 -3.1374 -1.8209
  660MPD2    H1 9771   4.510   3.324  13.066  0.3625 -1.1441  0.3359
  660MPD2    H2 9772   4.676   3.329  12.688  0.4575  0.1722  0.8158
  660MPD2    H3 9773   4.657   3.413  12.913  2.2538 -1.4213 -3.2365
  660MPD2     N 9774   4.329   3.130  13.027  0.0944 -0.0444  0.1361
  660MPD2    H5 9775   4.334   3.168  13.121 -1.4654 -4.1386  1.9008
  660MPD2    N1 9776   4.505   3.145  12.570  0.2329 -0.6835  0.1623
  660MPD2    H7 9777   4.431   3.085  12.535  0.3706 -1.0372  0.4753
  661TMC3    C1 9778   4.569   3.178  12.341  0.3657  0.8538  0.1679
  661TMC3    C2 9779   4.662   3.137  12.248  0.0515 -0.3161  0.2351
  661TMC3    C3 9780   4.625   3.145  12.115  0.5256 -0.2310 -0.2629
  661TMC3    C4 9781   4.438   3.199  12.311 -0.2046 -0.5737  0.6254
  661TMC3    C5 9782   4.405   3.205  12.181  0.2592 -0.7440 -0.7802
  661TMC3    C6 9783   4.490   3.177  12.079 -0.6523  0.4109  0.1830
  661TMC3     C 9784   4.610   3.170  12.479 -0.2069  0.4710  0.4072
  661TMC3     O 9785   0.002   3.204  12.509 -0.1771  0.1542 -0.2989
  661TMC3     H 9786   0.036   3.120  12.289 -0.2139 -1.7366  0.2732
  661TMC3    H1 9787   4.364   3.243  12.377  1.0518  2.4836  0.0202
  661TMC3    H2 9788   4.471   3.205  11.976  0.7734  0.3624 -0.0860
  661TMC3    C7 9789   4.261   3.230  12.158 -0.4468  0.1462  0.3199
  661TMC3    C8 9790   4.713   3.108  12.007  0.0318  0.1472 -0.2400
  661TMC3    O1 9791   4.183   3.200  12.246 -0.2614 -0.0404 -0.2896
  661TMC3    O2 9792   0.077   3.029  12.031 -0.4006 -0.1212 -0.1345
  662MPD2     C 9793   4.697   3.283  17.269 -1.2549 -0.8617 -0.1514
  662MPD2    C1 9794   4.704   3.199  17.377  0.6830 -0.1508  0.1625
  662MPD2    C2 9795   4.626   3.229  17.487 -1.0859 -0.0768 -0.4807
  662MPD2    C3 9796   4.523   3.322  17.478 -0.1775  0.3320  0.6888
  662MPD2    C4 9797   4.526   3.410  17.371 -0.4387  0.0859  0.9646
  662MPD2    C5 9798   4.613   3.394  17.271 -0.0352 -0.1691 -0.1136
  662MPD2     H 9799   4.634   3.167  17.575  0.6050 -0.1654 -0.6892
  662MPD2    H1 9800   4.452   3.488  17.358 -0.5161  0.0407  1.1354
  662MPD2    H2 9801   0.031   3.271  17.178  0.0140 -1.9405  0.8050
  662MPD2    H3 9802   4.615   3.471  17.194  1.0340 -2.0164 -1.9516
  662MPD2     N 9803   4.413   3.332  17.568 -0.3566  0.2270 -0.7011
  662MPD2    H5 9804   4.339   3.393  17.535  0.8570  0.9853 -2.0369
  662MPD2    N1 9805   0.058   3.081  17.375 -0.0673 -0.3315  0.0119
  662MPD2    H7 9806   0.075   3.037  17.465 -1.6526 -0.1952  0.3834
  663TMC3    C1 9807   0.083   2.865  17.307  0.0298  0.8816  0.0735
  663TMC3    C2 9808   4.712   2.828  17.402  0.5312  0.1067  0.9365
  663TMC3    C3 9809   4.710   2.692  17.437 -0.5721 -0.4560  1.0343
  663TMC3    C4 9810   0.153   2.773  17.229  0.3788  0.3726 -0.0651
  663TMC3    C5 9811   0.138   2.641  17.263 -0.6019 -0.8244 -0.1485
  663TMC3    C6 9812   0.053   2.595  17.359  0.6588  0.0466  0.3280
  663TMC3     C 9813   0.092   3.001  17.266 -0.2252 -0.2836  0.3141
  663TMC3     O 9814   0.090   3.028  17.147  0.3383 -0.3227  0.2200
  663TMC3     H 9815   4.666   2.896  17.472  2.4878  0.3710  1.9632
  663TMC3    H1 9816   0.232   2.810  17.164  1.2759 -3.9806 -1.4798
  663TMC3    H2 9817   0.043   2.492  17.392  1.1975  0.5211  1.9484
  663TMC3    C7 9818   0.217   2.550  17.185 -0.3946 -0.1725 -0.1607
  663TMC3    C8 9819   4.575   2.648  17.470  0.1007  0.4681 -0.2767
  663TMC3    O1 9820   0.265   2.591  17.079 -0.5497  0.0024 -0.1381
  663TMC3    O2 9821   4.532   2.555  17.405  0.0056 -0.3040  0.5291
  664MPD2     C 9822   2.763   0.891  17.695 -0.4131  0.3676 -0.2038
  664MPD2    C1 9823   2.875   0.941   0.063 -0.5450  0.1441  0.0550
  664MPD2    C2 9824   2.863   1.024   0.168  1.1099  0.4683 -1.2060
  664MPD2    C3 9825   2.735   1.057   0.217 -0.1625 -0.4116  0.5842
  664MPD2    C4 9826   2.625   0.998   0.161 -0.2332  0.3300  0.8615
  664MPD2    C5 9827   2.639   0.919   0.049  0.6781  0.2683 -0.1366
  664MPD2     H 9828   2.951   1.064   0.217  1.4790 -1.5373 -0.2480
  664MPD2    H1 9829   2.528   1.022   0.201 -1.0703 -0.9381 -0.4090
  664MPD2    H2 9830   2.768   0.819  17.613  0.7510  2.5498 -2.0465
  664MPD2    H3 9831   2.546   0.883   0.008 -0.4193 -1.2185  3.5888
  664MPD2     N 9832   2.724   1.127   0.339 -0.1391 -0.2433  0.4322
  664MPD2    H5 9833   2.808   1.182   0.353  0.2342 -0.6335 -0.2703
  664MPD2    N1 9834   3.005   0.920   0.019 -0.1880 -0.2395  0.5659
  664MPD2    H7 9835   3.071   0.969   0.079  0.5249 -2.3761  1.5592
  665TMC3    C1 9836   2.643   1.264   0.511  0.1361 -0.2052  0.2526
  665TMC3    C2 9837   2.545   1.280   0.603 -0.0655  0.3682  0.1091
  665TMC3    C3 9838   2.583   1.333   0.718 -1.1843  0.0580  0.8422
  665TMC3    C4 9839   2.772   1.316   0.518  0.0179 -0.4889  0.5284
  665TMC3    C5 9840   2.805   1.382   0.636 -0.0791  0.1067  0.2533
  665TMC3    C6 9841   2.713   1.389   0.744  0.4788 -0.2132 -0.9145
  665TMC3     C 9842   2.613   1.164   0.414 -0.4892 -0.1922 -0.4630
  665TMC3     O 9843   2.497   1.144   0.394  0.3399 -0.2207 -0.1713
  665TMC3     H 9844   2.444   1.242   0.595 -0.7767  2.4399 -0.7708
  665TMC3    H1 9845   2.855   1.295   0.452  0.4128  1.2271  0.5031
  665TMC3    H2 9846   2.725   1.445   0.835 -0.2220  0.8972 -1.5089
  665TMC3    C7 9847   2.943   1.387   0.667  0.9919 -0.0815 -0.8279
  665TMC3    C8 9848   2.482   1.362   0.815 -0.0943 -0.5774  0.4979
  665TMC3    O1 9849   3.015   1.406   0.565  0.6551 -0.0119  0.1411
  665TMC3    O2 9850   2.376   1.392   0.760  0.5685 -1.0313  0.4566
  666TMC3    C1 9851   2.569   0.260   9.986  0.1883 -0.2677  0.1166
  666TMC3    C2 9852   2.668   0.210  10.065 -0.4471  0.1650  0.0169
  666TMC3    C3 9853   2.804   0.234  10.035  0.4426 -0.1652 -0.6680
  666TMC3    C4 9854   2.594   0.350   9.890 -0.9230 -0.8833 -0.0499
  666TMC3    C5 9855   2.722   0.391   9.876  0.0521 -0.0738  0.6763
  666TMC3    C6 9856   2.830   0.331   9.938  0.4883  0.2986  0.0613
  666TMC3     C 9857   2.438   0.241  10.038  0.1716  0.3318 -0.3790
  666TMC3     O 9858   2.411   0.139  10.099 -0.3007 -0.2751  0.0397
  666TMC3     H 9859   2.645   0.165  10.160  1.4874 -1.3971 -0.2487
  666TMC3    H1 9860   2.520   0.402   9.830 -2.2528 -2.2921  0.3714
  666TMC3    H2 9861   2.928   0.376   9.934  1.2253 -1.2349  0.7653
  666TMC3    C7 9862   2.734   0.535   9.877 -0.4109 -0.3933  0.3986
  666TMC3    C8 9863   2.904   0.221  10.145  0.6154 -0.2300 -0.7136
  666TMC3    O1 9864   2.634   0.599   9.863 -0.1389 -0.0949 -0.5019
  666TMC3    O2 9865   2.864   0.161  10.244  0.1326  0.0307  0.0146
  667MPD2     C 9866   3.182   0.941  14.667  0.0584  0.7872  0.1607
  667MPD2    C1 9867   3.281   0.846  14.687 -0.5998  0.3375  0.3260
  667MPD2    C2 9868   3.254   0.707  14.652  0.0766  0.9412  1.1519
  667MPD2    C3 9869   3.134   0.669  14.609  0.1673 -0.3953  0.2185
  667MPD2    C4 9870   3.037   0.764  14.589 -0.1498 -0.6214 -0.0197
  667MPD2    C5 9871   3.063   0.894  14.613  0.0758 -0.3502 -0.7455
  667MPD2     H 9872   3.333   0.633  14.661 -0.1362  0.5565 -0.2261
  667MPD2    H1 9873   2.942   0.732  14.548 -0.7565 -0.6261  1.3885
  667MPD2    H2 9874   3.198   1.047  14.681  1.8878  0.3859  1.1054
  667MPD2    H3 9875   2.998   0.972  14.575 -2.1293 -1.6225  0.3647
  667MPD2     N 9876   3.093   0.542  14.568 -0.3090 -0.5316  0.0930
  667MPD2    H5 9877   2.997   0.542  14.536  1.5693 -1.3569 -5.3842
  667MPD2    N1 9878   3.398   0.877  14.756  0.1171  0.2854  0.2820
  667MPD2    H7 9879   3.454   0.795  14.774 -0.1544  0.2348  0.8765
  668TMC3    C1 9880   3.523   0.958  14.915 -0.5774 -0.1954 -0.6952
  668TMC3    C2 9881   3.629   1.036  14.934 -0.5657 -0.1196  0.0423
  668TMC3    C3 9882   3.696   1.022  15.045  0.1925 -0.1381  0.3198
  668TMC3    C4 9883   3.479   0.863  15.007 -0.0581  0.1191  0.0926
  668TMC3    C5 9884   3.550   0.860  15.126  0.3716  0.1506 -0.5964
  668TMC3    C6 9885   3.661   0.937  15.146 -0.1698  0.2152  0.4734
  668TMC3     C 9886   3.433   0.992  14.813 -0.5584  0.2505 -0.3103
  668TMC3     O 9887   3.403   1.111  14.793 -0.1105  0.5101  0.1978
  668TMC3     H 9888   3.645   1.117  14.864  0.8501 -0.2093  0.2630
  668TMC3    H1 9889   3.398   0.793  14.994  0.7035 -0.8203  0.4421
  668TMC3    H2 9890   3.703   0.937  15.246  0.2638 -0.2591  0.2909
  668TMC3    C7 9891   3.507   0.774  15.236  0.4801 -0.4176 -0.8062
  668TMC3    C8 9892   3.815   1.105  15.065 -0.0311 -0.6103 -0.6375
  668TMC3    O1 9893   3.592   0.741  15.321  0.1046  0.0098  0.5524
  668TMC3    O2 9894   3.843   1.136  15.180 -0.1411  0.3389  0.2869
  669TMC3    C1 9895   1.832   0.932  14.496  0.3836 -0.4716  0.5077
  669TMC3    C2 9896   1.749   1.019  14.428 -0.8105 -0.5715 -0.0381
  669TMC3    C3 9897   1.795   1.074  14.309 -0.1514  0.0643 -0.3597
  669TMC3    C4 9898   1.957   0.902  14.454 -0.7402 -0.3524 -0.0518
  669TMC3    C5 9899   2.001   0.960  14.336  0.2020  0.4160 -0.9697
  669TMC3    C6 9900   1.924   1.052  14.265  0.2967 -0.3487  0.2482
  669TMC3     C 9901   1.780   0.884  14.621 -0.2356  0.4104 -0.1052
  669TMC3     O 9902   1.662   0.897  14.651  0.5013  0.0655 -0.1842
  669TMC3     H 9903   1.647   1.044  14.457 -0.7437 -1.2962  0.8291
  669TMC3    H1 9904   2.016   0.830  14.509 -1.3489 -1.1395 -0.4293
  669TMC3    H2 9905   1.966   1.099  14.176  1.8139 -2.8225 -0.3663
  669TMC3    C7 9906   2.139   0.937  14.295  0.3651 -0.8654 -0.1400
  669TMC3    C8 9907   1.702   1.154  14.229  0.4070 -0.8128 -0.6243
  669TMC3    O1 9908   2.195   0.833  14.332  0.0041  0.3984 -0.0782
  669TMC3    O2 9909   1.585   1.145  14.258 -0.3833  0.3615  0.9828
  670MPD2     C 9910   4.543   3.602  13.801  0.4784  0.6138  0.1918
  670MPD2    C1 9911   4.673   3.577  13.778  0.2664 -0.4587  0.4511
  670MPD2    C2 9912   0.018   3.486  13.858 -0.3178  0.6630  0.7217
  670MPD2    C3 9913   4.679   3.406  13.948 -0.2592  0.0856 -0.5293
  670MPD2    C4 9914   4.537   3.420  13.964  0.0408 -0.1933  0.2004
  670MPD2    C5 9915   4.478   3.523  13.897 -0.1611  0.5333  0.6004
  670MPD2     H 9916   0.123   3.466  13.838 -1.0418 -1.4313 -1.0562
  670MPD2    H1 9917   4.492   3.366  14.047  1.9617 -0.4641  1.0638
  670MPD2    H2 9918   4.474   3.669  13.750  0.5331  0.1755 -0.4521
  670MPD2    H3 9919   4.373   3.539  13.918 -0.4658 -0.7237  0.0356
  670MPD2     N 9920   0.038   3.317  14.025 -0.5711  0.0216 -0.1690
  670MPD2    H5 9921   0.139   3.327  14.027 -0.7079  0.7647  2.7322
  670MPD2    N1 9922   0.022   3.636  13.679  0.0011 -0.5773 -0.3081
  670MPD2    H7 9923   0.124   3.632  13.682 -0.1087 -1.9265  1.8116
  671TMC3    C1 9924   0.082   3.132  14.168  0.5236  0.0483 -0.2307
  671TMC3    C2 9925   0.209   3.177  14.187  0.3869 -0.4508  0.5687
  671TMC3    C3 9926   0.281   3.103  14.275  0.0417 -0.2436 -0.6543
  671TMC3    C4 9927   0.017   3.033  14.235 -0.0192 -0.6648  0.0449
  671TMC3    C5 9928   0.090   2.974  14.328  0.0074  1.0873  0.0707
  671TMC3    C6 9929   0.223   3.001  14.344 -0.4816 -0.2518  0.1675
  671TMC3     C 9930   4.709   3.210  14.089  0.2494  0.0335  0.0371
  671TMC3     O 9931   4.595   3.170  14.072 -0.8856 -0.2311 -0.5601
  671TMC3     H 9932   0.264   3.227  14.108 -2.4075 -0.4925 -1.3819
  671TMC3    H1 9933   4.637   3.007  14.218  0.3981 -0.9891 -1.9718
  671TMC3    H2 9934   0.270   2.933  14.414  1.7344 -0.2834 -1.3470
  671TMC3    C7 9935   0.047   2.854  14.391 -0.5511  0.3532 -0.7465
  671TMC3    C8 9936   0.405   3.062  14.209 -0.0259  0.4291 -0.3982
  671TMC3    O1 9937   0.114   2.806  14.486 -0.0951 -0.6248 -0.4277
  671TMC3    O2 9938   0.419   2.943  14.185 -0.1315 -0.0669 -0.2566
  672MPD2     C 9939   0.414   3.583   1.105  0.1918  0.8164  0.1791
  672MPD2    C1 9940   0.534   3.581   1.028  0.2638  0.1418 -0.5538
  672MPD2    C2 9941   0.644   3.649   1.083 -0.5992 -0.3721 -0.1303
  672MPD2    C3 9942   0.633   3.733   1.194 -0.0487  0.4863 -0.7778
  672MPD2    C4 9943   0.511   3.748   1.250 -0.4679  0.6093 -0.2482
  672MPD2    C5 9944   0.408   3.664   1.210 -0.0531  0.3675  0.6956
  672MPD2     H 9945   0.737   3.631   1.031  0.3913  2.3333  0.7462
  672MPD2    H1 9946   0.504   3.809   1.339  0.5252 -0.0597  0.2850
  672MPD2    H2 9947   0.322   3.530   1.084  2.1327 -2.5915  0.2483
  672MPD2    H3 9948   0.309   3.679   1.252 -0.8877  0.1851 -1.2065
  672MPD2     N 9949   0.735   3.818   1.245 -0.2623 -0.4466  0.4035
  672MPD2    H5 9950   0.718   3.879   1.325  0.5488  2.0037 -1.3051
  672MPD2    N1 9951   0.535   3.521   0.898 -0.5443  0.0324 -0.3837
  672MPD2    H7 9952   0.626   3.517   0.854  0.4477  0.0307  1.6863
  673TMC3    C1 9953   0.456   3.424   0.694  0.3233 -0.3865 -0.7069
  673TMC3    C2 9954   0.576   3.361   0.667  0.1627 -0.1552  0.6136
  673TMC3    C3 9955   0.609   3.353   0.534 -0.3624  0.7586  0.8163
  673TMC3    C4 9956   0.375   3.470   0.596  0.3678 -0.3514  0.2497
  673TMC3    C5 9957   0.409   3.447   0.458  0.0991  0.6103 -0.2148
  673TMC3    C6 9958   0.523   3.383   0.433 -0.2323 -0.6782 -0.3381
  673TMC3     C 9959   0.419   3.473   0.826  0.3497  0.2200 -0.1726
  673TMC3     O 9960   0.303   3.494   0.857 -0.4732 -0.3127  0.5659
  673TMC3     H 9961   0.640   3.321   0.745  0.7179  0.0835  0.2788
  673TMC3    H1 9962   0.292   3.537   0.617 -1.0199 -1.9052 -0.2209
  673TMC3    H2 9963   0.554   3.377   0.329  1.0696  0.1301  0.0103
  673TMC3    C7 9964   0.382   3.542   0.358  0.5171 -0.0527  0.6136
  673TMC3    C8 9965   0.706   3.251   0.500  0.1831 -0.1061 -0.1461
  673TMC3    O1 9966   0.395   3.502   0.242  0.3404  0.0731 -0.0707
  673TMC3    O2 9967   0.657   3.180   0.411 -0.7657 -0.5197 -0.1651
  674MPD2     C 9968   4.513   4.244  17.469 -0.1976  0.7315  0.1367
  674MPD2    C1 9969   4.493   4.153  17.576  0.3738 -0.6730  0.3283
  674MPD2    C2 9970   4.389   4.171  17.662 -0.2265 -0.1039  0.2638
  674MPD2    C3 9971   4.304   4.280  17.649  0.9174 -0.1767  0.6016
  674MPD2    C4 9972   4.320   4.371  17.541  0.9164  0.3182 -0.1684
  674MPD2    C5 9973   4.425   4.347  17.450  0.0141  0.6732 -0.3590
  674MPD2     H 9974   4.374   4.100   0.044 -0.8479 -2.0964 -1.6199
  674MPD2    H1 9975   4.259   4.460  17.540  0.8425  0.2540 -1.6286
  674MPD2    H2 9976   4.580   4.230  17.386 -1.0312  1.3507 -0.6412
  674MPD2    H3 9977   4.437   4.420  17.371 -1.6241  2.3399  0.9225
  674MPD2     N 9978   4.196   4.288   0.045 -0.4398  0.0766  0.5379
  674MPD2    H5 9979   4.209   4.210   0.108 -2.9996 -1.3959 -0.7940
  674MPD2    N1 9980   4.565   4.032  17.595 -0.6620 -0.9349 -0.7977
  674MPD2    H7 9981   4.528   3.985  17.677 -2.3048  2.1708  0.2343
  675TMC3    C1 9982   4.675   3.841  17.537 -0.2247 -0.1632 -0.9479
  675TMC3    C2 9983   4.576   3.774  17.607 -0.6754 -0.0717  0.1292
  675TMC3    C3 9984   4.616   3.657  17.661 -0.5252 -0.0184  0.1517
  675TMC3    C4 9985   0.082   3.801  17.529  0.4942  0.3312 -0.8337
  675TMC3    C5 9986   0.112   3.674  17.577 -0.9102  0.6967 -0.3190
  675TMC3    C6 9987   0.020   3.599  17.650 -0.0258 -0.7344  0.0307
  675TMC3     C 9988   4.665   3.978  17.518 -0.3127  0.4930  0.2795
  675TMC3     O 9989   0.013   4.037  17.440 -0.2237  0.2693 -0.4005
  675TMC3     H 9990   4.473   3.809  17.613 -0.7176 -0.3313  0.9592
  675TMC3    H1 9991   0.161   3.851  17.474 -0.3443 -0.4373 -2.7403
  675TMC3    H2 9992   0.035   3.504   0.001 -0.1996  0.3564  2.2049
  675TMC3    C7 9993   0.237   3.606  17.541 -0.2015  0.7043  0.4894
  675TMC3    C8 9994   4.520   3.602   0.064  0.4518 -0.3219 -0.3112
  675TMC3    O1 9995   0.301   3.664  17.455  0.7912 -0.4381 -0.2044
  675TMC3    O2 9996   4.403   3.646   0.056  0.0923  0.6374  0.0447
  676MPD2     C 9997   2.965   1.889  10.823 -0.0392  0.1078  0.3578
  676MPD2    C1 9998   2.941   1.796  10.920 -0.0939 -0.0083 -0.5602
  676MPD2    C2 9999   2.976   1.668  10.897  0.7409  0.3681  0.3559
  676MPD2    C310000   3.035   1.626  10.778 -0.0313  0.3612 -0.2409
  676MPD2    C410001   3.061   1.717  10.682 -0.0257 -0.0154 -0.0193
  676MPD2    C510002   3.015   1.848  10.704  0.6206 -0.1417 -0.3425
  676MPD2     H10003   2.962   1.596  10.976 -0.8608  2.6391  2.1361
  676MPD2    H110004   3.092   1.697  10.581  1.0523  2.3008 -0.1484
  676MPD2    H210005   2.940   1.993  10.837  0.6128  0.2760  0.2798
  676MPD2    H310006   3.017   1.918  10.621 -1.1372  1.0334  0.6046
  676MPD2     N10007   3.077   1.490  10.748  0.2256 -0.0083  0.2498
  676MPD2    H510008   3.116   1.477  10.655  1.2250  2.7811  0.2845
  676MPD2    N110009   2.880   1.831  11.041  0.1281  0.1255 -0.0674
  676MPD2    H710010   2.840   1.761  11.103  1.4815 -0.3374  0.2764
  677TMC3    C110011   2.803   1.967  11.215  0.3163 -0.1200  0.3037
  677TMC3    C210012   2.698   1.883  11.230 -0.8379 -0.0254  0.4980
  677TMC3    C310013   2.648   1.872  11.361 -0.2614 -0.7700 -0.6850
  677TMC3    C410014   2.860   2.037  11.314  0.0653 -0.2859 -0.2173
  677TMC3    C510015   2.808   2.035  11.442 -0.5538  0.1556  0.1507
  677TMC3    C610016   2.701   1.947  11.467 -0.0072  1.4034  0.6478
  677TMC3     C10017   2.875   1.961  11.092 -0.3548  0.3705 -0.6538
  677TMC3     O10018   2.948   2.049  11.058 -0.0028 -0.5386 -0.4158
  677TMC3     H10019   2.645   1.836  11.147 -0.5437  0.3540  0.0961
  677TMC3    H110020   2.944   2.101  11.292 -1.2163  1.8574  1.1467
  677TMC3    H210021   2.660   1.946  11.567  0.4710  1.4904  0.8407
  677TMC3    C710022   2.853   2.126  11.546  0.1713 -0.3473 -0.3265
  677TMC3    C810023   2.549   1.766  11.389  0.5788  0.2842 -0.2052
  677TMC3    O110024   2.796   2.123  11.658  0.0910 -0.0409 -0.1927
  677TMC3    O210025   2.460   1.759  11.305 -0.2268 -0.0282 -0.3439
  678MPD2     C10026   3.979   2.389   1.769 -1.1936 -0.0948  0.6164
  678MPD2    C110027   3.981   2.312   1.654  0.0082  0.2653 -0.5602
  678MPD2    C210028   3.884   2.213   1.641 -0.6982  0.5676  0.3401
  678MPD2    C310029   3.793   2.187   1.743 -0.3326 -1.3524 -0.1837
  678MPD2    C410030   3.793   2.265   1.863 -0.3646  0.3062  1.1697
  678MPD2    C510031   3.884   2.368   1.868 -0.3434 -0.8906  0.3199
  678MPD2     H10032   3.893   2.144   1.558 -0.3777 -0.1397  0.9564
  678MPD2    H110033   3.733   2.242   1.951  1.0215  0.4340  2.1466
  678MPD2    H210034   4.040   2.477   1.785  0.7251 -1.2629 -0.2482
  678MPD2    H310035   3.879   2.430   1.956 -0.1959 -0.0393 -0.2789
  678MPD2     N10036   3.719   2.070   1.717  0.2500  0.2568  0.0379
  678MPD2    H510037   3.726   2.040   1.620 -0.6034  1.5032 -0.3941
  678MPD2    N110038   4.075   2.327   1.546  0.4917 -0.0491 -0.0787
  678MPD2    H710039   4.061   2.269   1.463 -0.4494 -1.7496  1.2736
  679TMC3    C110040   4.391   2.273   1.269 -0.2996 -0.4562 -1.1229
  679TMC3    C210041   4.292   2.279   1.365  0.1560  0.7867 -0.2986
  679TMC3    C310042   4.267   2.404   1.415  0.3027 -1.0700 -0.6324
  679TMC3    C410043   4.468   2.376   1.227  0.0077  0.6085  1.2215
  679TMC3    C510044   4.433   2.496   1.280  0.4402  0.0320  0.1981
  679TMC3    C610045   4.341   2.512   1.379 -0.2575  0.4962  0.4522
  679TMC3     C10046   4.413   2.152   1.208  0.3476 -0.7666 -0.0616
  679TMC3     O10047   4.503   2.143   1.126  0.6490  0.2561  0.0613
  679TMC3     H10048   4.229   2.204   1.411  0.1658  1.1334  0.2787
  679TMC3    H110049   4.547   2.364   1.154 -0.6700 -1.9296  0.8948
  679TMC3    H210050   4.321   2.613   1.414 -1.3488  1.1745 -2.1231
  679TMC3    C710051   4.446   2.614   1.196  0.6147  0.2601 -0.7319
  679TMC3    C810052   4.184   2.413   1.536  0.0138 -0.3436 -0.3640
  679TMC3    O110053   4.355   2.701   1.196  0.1320 -0.0574  0.1709
  679TMC3    O210054   4.208   2.507   1.613  0.9666  0.1007  0.0861
  680MPD2     C10055   4.341   4.667  13.325  0.0988 -0.0617 -0.0623
  680MPD2    C110056   4.454   4.655  13.406  0.2814 -0.3581  0.2474
  680MPD2    C210057   4.473   0.027  13.506  0.3257  0.5213  0.0057
  680MPD2    C310058   4.382   0.128  13.533  0.2834  0.4663 -0.1173
  680MPD2    C410059   4.272   0.138  13.453  0.1632 -0.8583 -0.1402
  680MPD2    C510060   4.256   0.052  13.348 -0.2270 -0.7366 -1.3859
  680MPD2     H10061   4.554   0.018  13.577  1.5322 -1.4627 -1.6135
  680MPD2    H110062   4.204   0.222  13.461  1.1072 -0.1497  0.5427
  680MPD2    H210063   4.316   4.603  13.241 -1.9265 -3.1710  2.8937
  680MPD2    H310064   4.176   0.073  13.279  0.1231  2.1527 -0.9385
  680MPD2     N10065   4.401   0.230  13.628  0.0111 -0.1203  1.3730
  680MPD2    H510066   4.336   0.307  13.618 -0.0006 -0.0888  1.6964
  680MPD2    N110067   4.548   4.545  13.402  0.5166 -0.1357  0.3809
  680MPD2    H710068   4.626   4.577  13.457  0.6773 -1.4687  0.9320
  681TMC3    C110069   4.590   4.379  13.515 -0.2414  0.0662 -0.3948
  681TMC3    C210070   4.511   4.362  13.623  0.5830 -0.2836 -0.4120
  681TMC3    C310071   4.562   4.407  13.742 -0.0290 -0.6302  0.2334
  681TMC3    C410072   4.716   4.425  13.517 -0.1134 -0.1754 -0.2830
  681TMC3    C510073   0.044   4.465  13.642  1.1271  0.3024 -0.0700
  681TMC3    C610074   4.690   4.453  13.753 -0.0997 -0.1835  0.4080
  681TMC3     C10075   4.511   4.415  13.400 -0.4979  0.2407  0.0909
  681TMC3     O10076   4.400   4.373  13.388  0.3687 -0.0942 -0.1225
  681TMC3     H10077   4.417   4.311  13.611 -0.3061  1.1024  0.6797
  681TMC3    H110078   0.048   4.424  13.425  0.4014 -1.5517  0.0570
  681TMC3    H210079   0.012   4.476  13.848  1.9313 -1.6570 -0.2482
  681TMC3    C710080   0.167   4.536  13.660 -0.2009  0.0466 -0.7144
  681TMC3    C810081   4.461   4.450  13.833  0.0655  0.4985 -0.4262
  681TMC3    O110082   0.208   4.547  13.773  0.1776 -0.0130 -0.3260
  681TMC3    O210083   4.345   4.412  13.814  0.0877 -0.0235 -0.2321
  682MPD2     C10084   2.388   1.720  10.507  0.3153  0.2858 -0.2539
  682MPD2    C110085   2.337   1.593  10.553  0.7950  0.1005  0.1740
  682MPD2    C210086   2.248   1.583  10.661 -0.1493 -1.0986 -0.2500
  682MPD2    C310087   2.193   1.697  10.723  0.0166  0.1493  0.0622
  682MPD2    C410088   2.247   1.820  10.689 -1.0847 -0.0344  0.0584
  682MPD2    C510089   2.331   1.825  10.575  0.0687  0.2396 -0.7491
  682MPD2     H10090   2.230   1.491  10.716 -0.2506 -0.4261  0.8517
  682MPD2    H110091   2.231   1.915  10.738 -0.5723 -0.5764  1.2577
  682MPD2    H210092   2.467   1.736  10.435  0.9858  1.5799  0.7864
  682MPD2    H310093   2.368   1.924  10.552  0.1368  0.5801  0.8850
  682MPD2     N10094   2.100   1.693  10.827  0.1656  0.0741  0.8703
  682MPD2    H510095   2.075   1.785  10.862 -4.3353 -0.9767  0.4564
  682MPD2    N110096   2.382   1.473  10.497 -0.7843 -0.1756  0.0079
  682MPD2    H710097   2.340   1.393  10.544 -0.3855 -0.0152  0.6374
  683TMC3    C110098   1.827   1.765  11.114 -0.4926 -0.3210 -0.3948
  683TMC3    C210099   1.707   1.698  11.109  0.0450 -0.3615  0.4100
  683TMC3    C310100   1.702   1.582  11.039 -0.1259  0.8217  0.8292
  683TMC3    C410101   1.936   1.733  11.039 -0.1171 -0.6452 -0.1529
  683TMC3    C510102   1.926   1.622  10.961  0.7355 -0.2093 -0.8935
  683TMC3    C610103   1.814   1.541  10.969 -0.1181  0.2724  0.3786
  683TMC3     C10104   1.825   1.884  11.197 -0.1727 -0.1043 -0.5182
  683TMC3     O10105   1.758   1.876  11.302 -0.0489 -0.2124  0.1836
  683TMC3     H10106   1.626   1.716  11.179 -1.2698 -1.7456 -0.7514
  683TMC3    H110107   2.024   1.796  11.036 -0.4513 -0.2498 -1.5833
  683TMC3    H210108   1.816   1.455  10.903 -0.2355  1.1225 -0.7388
  683TMC3    C710109   2.031   1.585  10.864  1.5935 -0.0610  0.7773
  683TMC3    C810110   1.614   1.482  11.091 -0.2449 -0.2597  0.1654
  683TMC3    O110111   2.027   1.473  10.814  0.0316 -0.1697  0.0843
  683TMC3    O210112   1.510   1.521  11.146 -0.4513 -0.2152 -0.8161
  684MPD2     C10113   4.510   1.689  16.271  0.0000 -0.3605  0.5624
  684MPD2    C110114   4.640   1.650  16.281  0.0965 -0.1572  0.5189
  684MPD2    C210115   0.007   1.734  16.340  0.5438 -0.0798 -0.7666
  684MPD2    C310116   4.693   1.861  16.387  0.3114  0.0133 -0.1314
  684MPD2    C410117   4.566   1.892  16.386  0.5061 -0.4211  0.4966
  684MPD2    C510118   4.471   1.813  16.326 -0.1274  0.4895  0.8199
  684MPD2     H10119   0.110   1.700  16.348  0.4264 -0.0374  0.9094
  684MPD2    H110120   4.534   1.984  16.435 -0.1536 -0.7540  0.7000
  684MPD2    H210121   4.435   1.630  16.220  0.7870 -0.4225 -0.5047
  684MPD2    H310122   4.367   1.841  16.335 -0.7456 -2.7651  3.6011
  684MPD2     N10123   0.059   1.966  16.425  0.4691 -0.5834 -0.2320
  684MPD2    H510124   0.020   2.059  16.435 -0.9277 -1.2742  0.7072
  684MPD2    N110125   4.673   1.530  16.221 -0.4327  0.0990  0.1853
  684MPD2    H710126   4.609   1.478  16.162 -1.6057  2.0631 -0.2466
  685TMC3    C110127   0.108   1.385  16.127 -0.1372  0.3481  0.6277
  685TMC3    C210128   0.025   1.359  16.015 -0.0965  1.2853  0.1979
  685TMC3    C310129   0.073   1.271  15.922 -0.3600  0.1945  0.0018
  685TMC3    C410130   0.231   1.326  16.134 -0.1747  0.1418  0.4941
  685TMC3    C510131   0.268   1.235  16.043  0.1024  0.6147 -0.2606
  685TMC3    C610132   0.186   1.201  15.944  0.2824  0.3416 -0.2516
  685TMC3     C10133   0.071   1.474  16.240  0.6017 -0.2892  0.2502
  685TMC3     O10134   0.136   1.463  16.346 -0.5365 -0.0490 -0.9031
  685TMC3     H10135   4.654   1.410  16.009 -1.0507 -0.2442  2.3545
  685TMC3    H110136   0.296   1.367  16.210 -1.3313 -0.2371  1.6911
  685TMC3    H210137   0.215   1.128  15.869  1.9881 -1.5061  2.2034
  685TMC3    C710138   0.408   1.185  16.040  0.0910 -0.4230  0.6050
  685TMC3    C810139   4.705   1.214  15.822 -0.6371  0.2299 -0.1357
  685TMC3    O110140   0.421   1.092  15.958 -0.5018  0.1488 -0.7710
  685TMC3    O210141   4.723   1.105  15.773  0.0869 -0.2011  0.0198
  686MPD2     C10142   1.853   0.986  15.461 -0.3632 -0.8969 -0.5354
  686MPD2    C110143   1.826   0.949  15.592 -0.4649 -0.4258  0.4075
  686MPD2    C210144   1.892   0.840  15.650  0.4431  0.3882  0.3340
  686MPD2    C310145   1.960   0.756  15.561  0.3619 -0.3550  0.2184
  686MPD2    C410146   1.987   0.794  15.428 -0.3687  0.2407  0.3951
  686MPD2    C510147   1.930   0.908  15.379  0.0328  0.6573 -0.0063
  686MPD2     H10148   1.878   0.819  15.755  1.3132  2.4505  0.8683
  686MPD2    H110149   2.035   0.730  15.355  0.2788 -0.9390  1.8625
  686MPD2    H210150   1.812   1.080  15.426  0.7615  0.1690  1.0081
  686MPD2    H310151   1.943   0.933  15.274 -0.2706  1.3083  0.1073
  686MPD2     N10152   2.007   0.629  15.604 -0.2658  0.2978 -0.3778
  686MPD2    H510153   2.074   0.592  15.537  0.4433  2.6991 -1.0282
  686MPD2    N110154   1.740   1.034  15.661  0.1175 -0.7583 -0.4082
  686MPD2    H710155   1.698   1.111  15.610  2.3247  0.4104 -0.4503
  687TMC3    C110156   1.867   0.573  15.787 -0.3275  0.4806 -0.6900
  687TMC3    C210157   1.748   0.589  15.722 -0.1307  0.6367  0.5377
  687TMC3    C310158   1.629   0.583  15.795 -1.0141 -0.1740 -0.0037
  687TMC3    C410159   1.870   0.584  15.919  0.6018  0.2041 -0.0689
  687TMC3    C510160   1.754   0.574  15.993  0.1551 -0.2833  0.1128
  687TMC3    C610161   1.634   0.576  15.929 -0.2739 -0.2445  0.2968
  687TMC3     C10162   2.001   0.565  15.726 -0.1049 -0.1199 -0.6652
  687TMC3     O10163   2.087   0.495  15.775  0.5221 -0.2644  0.0712
  687TMC3     H10164   1.742   0.585  15.614 -1.3937  2.1441  0.5596
  687TMC3    H110165   1.968   0.596  15.963 -0.7259  2.2792  2.3099
  687TMC3    H210166   1.543   0.573  15.988 -0.5339 -1.2204 -0.1574
  687TMC3    C710167   1.771   0.598  16.134 -0.4827 -0.1169 -0.3723
  687TMC3    C810168   1.518   0.659  15.746 -0.1105  0.3983 -0.7850
  687TMC3    O110169   1.698   0.675  16.186  0.0732 -0.0022  0.8321
  687TMC3    O210170   1.441   0.690  15.836  0.1563 -0.0609  0.3529
  688MPD2     C10171   0.863   0.360  17.419 -0.7375  0.5909 -0.3834
  688MPD2    C110172   0.950   0.254  17.433  0.3974 -0.0482 -0.3462
  688MPD2    C210173   1.022   0.210  17.326  0.1491  0.5380 -0.2403
  688MPD2    C310174   0.993   0.253  17.197 -0.2292 -0.0950 -0.6562
  688MPD2    C410175   0.906   0.358  17.183  0.5886 -0.3166 -0.1789
  688MPD2    C510176   0.848   0.407  17.296  0.3839  0.0816  0.0652
  688MPD2     H10177   1.090   0.125  17.335  0.6894  1.0401  0.5209
  688MPD2    H110178   0.890   0.411  17.090  2.6862  0.1043 -0.2966
  688MPD2    H210179   0.799   0.399  17.498 -1.6964 -1.9981  0.1246
  688MPD2    H310180   0.765   0.476  17.288 -1.4632 -1.8265  2.8290
  688MPD2     N10181   1.045   0.198  17.080  0.3505  0.2137  0.6491
  688MPD2    H510182   1.021   0.243  16.992  0.9224  1.0183  0.9089
  688MPD2    N110183   0.950   0.190  17.561 -0.3987  0.4409 -0.3819
  688MPD2    H710184   0.994   0.100  17.574  1.4040  1.0657 -2.0486
  689TMC3    C110185   0.894   0.161   0.082 -0.0617 -0.6854 -0.5191
  689TMC3    C210186   0.926   0.212   0.209  0.2854  0.8320  0.6370
  689TMC3    C310187   0.928   0.129   0.319  0.9127  0.0472 -0.2696
  689TMC3    C410188   0.860   0.027   0.064 -0.1451 -0.8000 -0.3909
  689TMC3    C510189   0.865   4.678   0.180  0.6984 -0.4222  1.1301
  689TMC3    C610190   0.901   4.721   0.298  0.3127  0.8649  0.0630
  689TMC3     C10191   0.894   0.251  17.671  0.3107 -0.2246 -0.0513
  689TMC3     O10192   0.897   0.369  17.697 -0.1140  0.0209  0.1787
  689TMC3     H10193   0.977   0.308   0.209  0.5613  0.6957 -3.8429
  689TMC3    H110194   0.833   4.713  17.665 -0.3837 -1.9171  0.1060
  689TMC3    H210195   0.915   4.647   0.375  1.0238  0.3288 -0.5842
  689TMC3    C710196   0.820   4.537   0.192  0.1812 -0.5142  0.6006
  689TMC3    C810197   0.893   0.184   0.448  0.2675 -0.5369  0.0343
  689TMC3    O110198   0.865   4.470   0.283 -0.2238  0.2739 -0.2569
  689TMC3    O210199   0.871   0.103   0.539  0.8336 -0.1647 -0.2189
  690MPD2     C10200   3.221   1.711  15.929  0.4251 -0.3327  0.2079
  690MPD2    C110201   3.242   1.715  15.793  0.7864 -0.2468 -0.1333
  690MPD2    C210202   3.369   1.738  15.743  0.6625  0.3240  0.1087
  690MPD2    C310203   3.477   1.738  15.827  0.2390  0.7895 -0.8919
  690MPD2    C410204   3.456   1.715  15.961  0.1542  0.5868  0.1034
  690MPD2    C510205   3.335   1.713  16.012  0.8462 -0.5765 -0.1870
  690MPD2     H10206   3.381   1.758  15.637  1.1649  0.5112  0.1989
  690MPD2    H110207   3.538   1.707  16.031  0.8602 -1.1984 -0.9189
  690MPD2    H210208   3.122   1.705  15.972  0.1089  1.8998 -0.2352
  690MPD2    H310209   3.318   1.703  16.119  0.6462 -0.2002 -0.1813
  690MPD2     N10210   3.612   1.775  15.784  0.4019 -0.8259 -0.6237
  690MPD2    H510211   3.620   1.820  15.693  3.3293 -2.2151 -1.0500
  690MPD2    N110212   3.136   1.699  15.699  0.6392  0.1615 -0.0924
  690MPD2    H710213   3.160   1.707  15.601 -0.1548  2.5127 -0.0917
  691TMC3    C110214   2.928   1.667  15.602  0.3513 -0.4476  0.1456
  691TMC3    C210215   2.806   1.729  15.585  0.1330  0.6614 -0.3097
  691TMC3    C310216   2.757   1.735  15.459 -0.0649 -0.5847  0.8356
  691TMC3    C410217   2.988   1.604  15.502  0.4979  0.2010  1.0391
  691TMC3    C510218   2.926   1.587  15.383 -0.4625  0.4096  0.1040
  691TMC3    C610219   2.818   1.668  15.359  0.6064  0.5102  0.3583
  691TMC3     C10220   2.999   1.681  15.727  0.0746  0.0182 -0.4034
  691TMC3     O10221   2.935   1.678  15.832  0.8048  0.1225  0.6586
  691TMC3     H10222   2.757   1.777  15.669  3.2334  0.4352  1.6144
  691TMC3    H110223   3.074   1.543  15.524 -0.3195 -1.8712 -1.5929
  691TMC3    H210224   2.772   1.656  15.262  0.5700  1.6881  0.2340
  691TMC3    C710225   2.904   1.449  15.359 -0.0085  0.5857 -0.1989
  691TMC3    C810226   2.620   1.726  15.433 -0.6095 -0.5411 -0.3246
  691TMC3    O110227   3.003   1.377  15.359 -0.6685  0.9340  0.3935
  691TMC3    O210228   2.583   1.639  15.355 -0.5013 -0.3939  0.5104
  692TMC3    C110229   4.593   3.200  16.084 -0.6403 -0.2753 -0.3650
  692TMC3    C210230   4.703   3.222  16.162  0.0280 -0.5652  0.1631
  692TMC3    C310231   0.097   3.154  16.146 -0.5031 -0.4747  0.5381
  692TMC3    C410232   4.592   3.100  16.004  0.5967 -0.0013  0.0026
  692TMC3    C510233   4.706   3.033  15.982 -0.4455 -0.2938  0.2959
  692TMC3    C610234   0.100   3.061  16.045 -0.1837  0.1833 -0.5753
  692TMC3     C10235   4.478   3.297  16.090 -0.1448  0.3702  0.2868
  692TMC3     O10236   4.365   3.260  16.052  0.0123  0.0539 -0.5639
  692TMC3     H10237   4.702   3.308  16.228 -0.4658 -1.2289  1.0057
  692TMC3    H110238   4.502   3.066  15.952  0.2704  1.8762 -0.6621
  692TMC3    H210239   0.191   3.016  16.008  0.3105 -0.7726  1.8449
  692TMC3    C710240   4.711   2.914  15.902  0.0933 -0.5330 -0.2507
  692TMC3    C810241   0.132   3.078  16.261  0.0115 -0.0750  0.1964
  692TMC3    O110242   4.640   2.912  15.803  0.1408  0.5855  0.1538
  692TMC3    O210243   0.167   2.960  16.235  0.3773 -0.0895  0.2277
  693MPD2     C10244   4.318   0.587  10.588 -0.5150 -0.0183 -0.0897
  693MPD2    C110245   4.269   0.543  10.707 -0.1200 -0.0924  0.3881
  693MPD2    C210246   4.363   0.486  10.794  1.1148  0.6607 -0.8033
  693MPD2    C310247   4.496   0.465  10.753  0.0040  0.3186  0.0625
  693MPD2    C410248   4.538   0.516  10.630 -0.2322 -0.1617  0.4449
  693MPD2    C510249   4.454   0.584  10.553 -0.4306 -0.3571 -0.5139
  693MPD2     H10250   4.325   0.442  10.885 -0.5831  1.6057 -1.0625
  693MPD2    H110251   4.641   0.502  10.599 -0.3786  0.1437 -0.1663
  693MPD2    H210252   4.259   0.658  10.531  2.2667  0.4551 -2.3802
  693MPD2    H310253   4.479   0.618  10.453 -0.2174  0.0134 -0.3380
  693MPD2     N10254   4.592   0.391  10.832  0.7835  0.1363  0.4100
  693MPD2    H510255   4.685   0.388  10.792  1.3489  0.5988  1.6736
  693MPD2    N110256   4.133   0.552  10.744 -0.1908 -0.6749  0.0263
  693MPD2    H710257   4.108   0.515  10.835  0.1340  0.6880  0.6679
  694TMC3    C110258   3.911   0.565  10.719 -0.2034 -0.3080 -0.1255
  694TMC3    C210259   3.810   0.510  10.648  0.6040 -0.9922  0.5434
  694TMC3    C310260   3.709   0.447  10.708 -0.1628 -0.0146 -0.5510
  694TMC3    C410261   3.911   0.557  10.854  0.5615  0.2548 -0.2101
  694TMC3    C510262   3.807   0.489  10.920 -0.1772 -0.4678 -0.4202
  694TMC3    C610263   3.707   0.434  10.845 -0.4519 -0.4944  0.8112
  694TMC3     C10264   4.037   0.594  10.659 -0.4945  0.4057 -0.1511
  694TMC3     O10265   4.043   0.607  10.537  0.1656 -0.0261 -0.7750
  694TMC3     H10266   3.804   0.519  10.540 -2.4330  0.2501  0.8184
  694TMC3    H110267   3.985   0.609  10.913 -0.8871  3.3142 -1.1150
  694TMC3    H210268   3.620   0.380  10.880 -0.8081 -0.2168  0.3595
  694TMC3    C710269   3.837   0.435  11.046  0.0199  0.4635 -0.9036
  694TMC3    C810270   3.639   0.346  10.632 -0.1849 -0.7038  0.8466
  694TMC3    O110271   3.932   0.487  11.104  0.6292  0.4539  0.2035
  694TMC3    O210272   3.534   0.307  10.681 -0.8026 -0.1739  0.2063
  695MPD2     C10273   0.288   2.279  13.563 -0.0939  0.5338 -0.3898
  695MPD2    C110274   0.272   2.407  13.608  0.4190 -0.0538  0.0073
  695MPD2    C210275   0.149   2.445  13.662 -0.4162 -0.3626 -0.4015
  695MPD2    C310276   0.041   2.358  13.659 -0.2618 -0.1280 -0.1785
  695MPD2    C410277   0.057   2.234  13.608 -0.1901 -0.8376 -0.2337
  695MPD2    C510278   0.183   2.193  13.569 -0.3143 -0.0171  0.4531
  695MPD2     H10279   0.137   2.546  13.701 -1.8955  0.0236 -1.8443
  695MPD2    H110280   4.705   2.157  13.613 -1.4172  0.2720 -1.9029
  695MPD2    H210281   0.378   2.228  13.531  0.5799  1.6648 -0.2965
  695MPD2    H310282   0.197   2.090  13.538 -1.0497 -0.1113  0.4450
  695MPD2     N10283   4.649   2.398  13.723 -0.0142  1.1912 -0.4572
  695MPD2    H510284   4.643   2.499  13.737  0.4518  1.3727 -1.5411
  695MPD2    N110285   0.377   2.498  13.615  0.2915 -0.2588  0.4445
  695MPD2    H710286   0.365   2.586  13.663 -0.9423 -0.2054  0.0657
  696TMC3    C110287   4.430   2.418  13.802 -0.2218 -0.0043 -0.4268
  696TMC3    C210288   4.360   2.378  13.912 -0.1656 -0.0691 -0.6319
  696TMC3    C310289   4.262   2.460  13.961  0.6704 -0.0811  0.0420
  696TMC3    C410290   4.392   2.531  13.722 -1.0626 -0.6427  0.0302
  696TMC3    C510291   4.281   2.592  13.769  0.3931 -0.4736 -0.1533
  696TMC3    C610292   4.208   2.552  13.876  0.3860  0.3390 -0.5493
  696TMC3     C10293   4.537   2.323  13.756 -0.2678 -0.0030 -0.2477
  696TMC3     O10294   4.528   2.202  13.769  0.4182 -0.6604  0.0145
  696TMC3     H10295   4.401   2.289  13.957  1.4958  0.3384 -1.3420
  696TMC3    H110296   4.455   2.568  13.641 -1.3441  3.1159  1.5239
  696TMC3    H210297   4.126   2.612  13.913 -1.0339 -0.3542 -2.5771
  696TMC3    C710298   4.283   2.738  13.741 -0.1782  0.4921 -0.7947
  696TMC3    C810299   4.312   2.536  14.079  0.2332  0.6019 -0.0183
  696TMC3    O110300   4.295   2.789  13.630  0.0595 -0.4868  0.3983
  696TMC3    O210301   4.290   2.649  14.086 -0.6633  0.2313  0.5266
  697MPD2     C10302   4.369   4.639  16.033  0.1373  1.3284  0.1942
  697MPD2    C110303   4.398   4.589  15.905 -0.0465 -0.9369 -0.3924
  697MPD2    C210304   4.440   4.672  15.807  0.0591  0.4209  0.0013
  697MPD2    C310305   4.477   0.076  15.833 -0.1947 -0.2949 -0.1664
  697MPD2    C410306   4.444   0.135  15.952  0.1705  0.4298 -0.1131
  697MPD2    C510307   4.383   0.051  16.047 -0.1049  0.1013 -0.1795
  697MPD2     H10308   4.454   4.628  15.709  0.6107 -1.0965  0.7554
  697MPD2    H110309   4.462   0.241  15.967 -0.1010  0.2925  1.1753
  697MPD2    H210310   4.329   4.582  16.115  0.6892  0.1406 -0.3676
  697MPD2    H310311   4.366   0.101  16.142  0.1838 -1.5564  0.7519
  697MPD2     N10312   4.524   0.148  15.723 -0.4090  0.6795  0.4658
  697MPD2    H510313   4.537   0.087  15.643 -1.3551  1.4549 -0.2717
  697MPD2    N110314   4.385   4.455  15.871 -0.1600  0.2947 -0.7008
  697MPD2    H710315   4.406   4.420  15.778 -1.2110 -0.9500 -0.4620
  698TMC3    C110316   4.677   0.289  15.613 -0.0616  0.2160 -0.0576
  698TMC3    C210317   0.054   0.382  15.606  0.7831  0.1316 -0.3006
  698TMC3    C310318   0.103   0.412  15.486 -0.5276  0.4515  0.0247
  698TMC3    C410319   4.636   0.230  15.500  0.2284  0.2926  0.0419
  698TMC3    C510320   4.695   0.257  15.382 -0.1396 -0.2466 -0.1245
  698TMC3    C610321   0.070   0.348  15.369  0.7084  0.4075 -0.4843
  698TMC3     C10322   4.579   0.275  15.723 -0.1633 -0.6044 -0.2144
  698TMC3     O10323   4.591   0.357  15.815  0.2217 -0.2046 -0.1805
  698TMC3     H10324   0.083   0.444  15.690 -2.8489  0.2846  0.8622
  698TMC3    H110325   4.544   0.173  15.501  1.4661 -1.7061  0.2234
  698TMC3    H210326   0.073   0.399  15.273  0.8459  1.5097  0.1011
  698TMC3    C710327   4.653   0.179  15.267  0.2763 -0.0231  0.7022
  698TMC3    C810328   0.175   0.537  15.480 -0.6276  0.0625 -0.1661
  698TMC3    O110329   4.543   0.125  15.267 -0.3364 -0.2150 -0.4241
  698TMC3    O210330   0.176   0.610  15.576 -0.0546 -0.2085  0.0114
  699TMC3    C110331   4.238   2.956  13.152  0.2621 -0.4030  0.5370
  699TMC3    C210332   4.246   2.822  13.167 -0.3706  0.1495  0.9084
  699TMC3    C310333   4.180   2.764  13.270 -0.1231  0.4580 -0.3351
  699TMC3    C410334   4.170   3.040  13.242  1.0026 -0.5438  0.9784
  699TMC3    C510335   4.107   2.976  13.344 -0.5507 -0.2293  0.0600
  699TMC3    C610336   4.108   2.840  13.356  0.3300  0.2114  0.5110
  699TMC3     C10337   4.274   3.004  13.021  0.1819 -0.4348 -0.1284
  699TMC3     O10338   4.251   2.927  12.924 -0.0596 -0.3548 -0.1054
  699TMC3     H10339   4.312   2.768  13.099 -0.4309  0.1995  0.8096
  699TMC3    H110340   4.150   3.146  13.225  0.8927 -0.7307 -0.1046
  699TMC3    H210341   4.057   2.798  13.442 -0.2984 -1.6243 -0.7656
  699TMC3    C710342   4.045   3.045  13.461 -0.2785  0.5675 -0.1504
  699TMC3    C810343   4.207   2.627  13.311 -0.7794  0.9312  0.0431
  699TMC3    O110344   3.991   2.983  13.554 -0.4127  0.0101 -0.4579
  699TMC3    O210345   4.110   2.567  13.357 -0.2458 -0.0201  0.1288
  700TMC3    C110346   3.728   0.712  17.668  0.0572  0.3448 -0.4845
  700TMC3    C210347   3.859   0.676  17.686 -0.0283  1.4582  0.1358
  700TMC3    C310348   3.922   0.714   0.102 -0.4011  0.2093  0.3860
  700TMC3    C410349   3.655   0.767   0.073  0.2792  0.2423  0.0519
  700TMC3    C510350   3.720   0.796   0.191  1.5076 -0.1631 -0.3676
  700TMC3    C610351   3.859   0.780   0.202  0.2008 -0.1135  0.4533
  700TMC3     C10352   3.660   0.678  17.544 -0.1318  0.1518 -0.1927
  700TMC3     O10353   3.550   0.628  17.552 -0.1767 -0.0502  0.2204
  700TMC3     H10354   3.917   0.640  17.601 -0.5092  0.5090  0.2207
  700TMC3    H110355   3.549   0.783   0.062 -0.2921 -3.5310  0.0386
  700TMC3    H210356   3.916   0.809   0.290 -0.4931 -2.2337  1.6082
  700TMC3    C710357   3.669   0.903   0.267  0.3653 -0.6685 -0.1987
  700TMC3    C810358   4.073   0.703   0.107 -0.9939  0.7394  0.0762
  700TMC3    O110359   3.710   0.917   0.382  0.2734 -0.4738 -0.7712
  700TMC3    O210360   4.123   0.775   0.189 -0.4193  0.5428  0.0151
  701TMC3    C110361   3.615   3.801  15.683 -0.6682 -0.2683 -0.2936
  701TMC3    C210362   3.651   3.761  15.558 -0.1042 -0.1799 -0.2844
  701TMC3    C310363   3.773   3.809  15.508  0.3612  0.2597  0.0009
  701TMC3    C410364   3.704   3.862  15.765  0.1069  1.0095 -0.7079
  701TMC3    C510365   3.826   3.902  15.714  0.5466  0.3034  0.0517
  701TMC3    C610366   3.857   3.883  15.586 -0.2673  0.2010  0.4831
  701TMC3     C10367   3.481   3.780  15.731 -0.2894 -0.2826  0.0894
  701TMC3     O10368   3.440   3.868  15.808  0.7751 -0.1757 -0.4717
  701TMC3     H10369   3.575   3.709  15.501  0.2604  1.8718 -2.6211
  701TMC3    H110370   3.678   3.871  15.870  2.0887 -2.1037  0.0719
  701TMC3    H210371   3.935   3.942  15.538  0.1371  1.8410  3.1370
  701TMC3    C710372   3.904   4.003  15.781 -0.2931 -0.5391  0.4049
  701TMC3    C810373   3.810   3.797  15.370  0.7041  0.1887  0.2026
  701TMC3    O110374   3.962   4.078  15.704 -0.1102  0.3211 -0.0112
  701TMC3    O210375   3.895   3.872  15.330  0.4967  0.3659 -0.0302
  702MPD2     C10376   3.580   1.175  10.310 -0.0201  0.0060  0.4177
  702MPD2    C110377   3.509   1.279  10.367  0.4374 -0.2033 -0.6422
  702MPD2    C210378   3.567   1.405  10.349  0.3361 -0.3625  0.2522
  702MPD2    C310379   3.693   1.428  10.304 -0.0385  0.0643  0.0796
  702MPD2    C410380   3.764   1.317  10.275 -0.2192 -0.2147 -0.5006
  702MPD2    C510381   3.706   1.193  10.262 -0.3421  0.3915 -0.1649
  702MPD2     H10382   3.511   1.492  10.381  0.1823 -0.0201 -0.9330
  702MPD2    H110383   3.864   1.320  10.233  0.4449 -3.0930  0.8356
  702MPD2    H210384   3.538   1.076  10.321  2.5155 -1.1162 -0.0773
  702MPD2    H310385   3.764   1.105  10.238  1.0474  1.1527  0.3468
  702MPD2     N10386   3.742   1.559  10.296 -0.7948 -0.7068  0.0030
  702MPD2    H510387   3.682   1.637  10.321 -0.2660  0.0473 -1.1147
  702MPD2    N110388   3.385   1.269  10.442  0.0996  0.6399  0.1469
  702MPD2    H710389   3.331   1.354  10.452 -0.5363  0.3765 -1.1729
  703TMC3    C110390   3.850   1.743  10.203 -0.1266 -0.6657  0.0246
  703TMC3    C210391   3.727   1.798  10.186  0.3622  0.6779  0.3004
  703TMC3    C310392   3.714   1.918  10.115  0.3690 -0.6705 -0.0819
  703TMC3    C410393   3.964   1.790  10.147 -0.5553  0.2318  0.2782
  703TMC3    C510394   3.947   1.907  10.080  0.3457  0.3311 -0.0427
  703TMC3    C610395   3.825   1.971  10.059 -0.8119  0.5819  0.3866
  703TMC3     C10396   3.855   1.601  10.228  0.4336  0.1192 -0.1358
  703TMC3     O10397   3.956   1.541  10.187 -0.1278 -0.3507  0.2539
  703TMC3     H10398   3.641   1.768  10.245  0.5635 -1.5467 -0.5625
  703TMC3    H110399   4.062   1.744  10.148 -1.7479 -2.2588  1.4704
  703TMC3    H210400   3.814   2.062  10.001 -0.3465  1.9506  2.4356
  703TMC3    C710401   4.073   1.968  10.030  0.6240  0.1108 -0.3060
  703TMC3    C810402   3.600   2.003  10.119  0.0827 -0.3969  0.5102
  703TMC3    O110403   4.178   1.932  10.079 -0.4623 -0.4596  0.8712
  703TMC3    O210404   3.620   2.122  10.096  0.2744 -0.3280  0.4202
  704TMC3    C110405   0.573   4.503  12.166 -0.0445  0.3689 -0.4395
  704TMC3    C210406   0.693   4.501  12.234 -1.0366  0.7734 -0.4017
  704TMC3    C310407   0.730   4.396  12.317 -0.1943  0.3759  0.0682
  704TMC3    C410408   0.487   4.403  12.192 -0.1034  0.5286  0.4479
  704TMC3    C510409   0.528   4.293  12.266 -0.6597 -0.8628 -0.8927
  704TMC3    C610410   0.654   4.283  12.324  0.3185 -0.7062  0.1466
  704TMC3     C10411   0.567   4.537  12.027  0.5748  0.5477 -0.6411
  704TMC3     O10412   0.461   4.553  11.972 -0.1438  0.0932  0.5251
  704TMC3     H10413   0.765   4.576  12.203  2.0664 -1.7197  0.6925
  704TMC3    H110414   0.391   4.399  12.141 -1.1108 -0.9772  2.4611
  704TMC3    H210415   0.687   4.204  12.390 -1.5993 -3.7907 -2.6126
  704TMC3    C710416   0.446   4.174  12.282 -0.5179  0.1753  0.1833
  704TMC3    C810417   0.875   4.392  12.337  0.4386 -0.2740  0.4439
  704TMC3    O110418   0.328   4.183  12.274  0.3499  0.1981 -0.3249
  704TMC3    O210419   0.936   4.430  12.238 -0.1550 -0.3596 -0.2305
  705MPD2     C10420   0.661   2.696  16.698 -0.0753  0.4410 -0.3140
  705MPD2    C110421   0.585   2.666  16.586  0.3185 -0.2165 -0.0990
  705MPD2    C210422   0.458   2.613  16.601 -0.7366  0.0010 -0.6827
  705MPD2    C310423   0.409   2.590  16.735 -0.1352 -0.1864 -0.4522
  705MPD2    C410424   0.500   2.605  16.847  0.1047 -0.0512  0.2913
  705MPD2    C510425   0.630   2.651  16.822  0.0912 -0.5787  0.4240
  705MPD2     H10426   0.395   2.584  16.517  0.6651 -3.1111 -0.6479
  705MPD2    H110427   0.470   2.594  16.950  1.5251  2.1166  0.9222
  705MPD2    H210428   0.759   2.740  16.682 -0.4966  1.4628 -0.0628
  705MPD2    H310429   0.696   2.674  16.904 -0.6092  0.8484  0.5828
  705MPD2     N10430   0.275   2.554  16.772  0.3176  0.0379  0.1450
  705MPD2    H510431   0.260   2.553  16.872 -0.0872 -3.7468  0.0519
  705MPD2    N110432   0.631   2.697  16.456 -0.1124 -0.1846  0.1479
  705MPD2    H710433   0.566   2.691  16.377  0.7572  1.9370 -0.7177
  706TMC3    C110434   0.876   2.791  16.092 -0.3226 -0.4028 -0.0858
  706TMC3    C210435   0.782   2.874  16.038  0.5477  0.0156 -0.0131
  706TMC3    C310436   0.675   2.905  16.117  0.4086 -0.4294  0.4446
  706TMC3    C410437   0.873   2.742  16.213 -0.4177  0.0230  0.2944
  706TMC3    C510438   0.763   2.772  16.285 -0.4233  0.7738  0.3085
  706TMC3    C610439   0.664   2.855  16.242  0.1056 -1.1117  0.6837
  706TMC3     C10440   0.988   2.747  16.013 -1.0311  0.5402 -0.4251
  706TMC3     O10441   1.094   2.735  16.073  0.1319  0.1252  0.6034
  706TMC3     H10442   0.793   2.912  15.937  2.6624 -0.8215 -0.0986
  706TMC3    H110443   0.957   2.680  16.243  1.1376  1.1564 -1.7564
  706TMC3    H210444   0.575   2.879  16.300 -0.2739 -0.7852 -0.0256
  706TMC3    C710445   0.758   2.744  16.424 -0.5720  0.3584  0.2842
  706TMC3    C810446   0.596   3.023  16.077  0.0768  0.2056 -0.1377
  706TMC3    O110447   0.870   2.743  16.476 -0.1892  0.2393  0.5138
  706TMC3    O210448   0.606   3.068  15.963 -0.7316 -0.3448 -0.1707
  707TMC3    C110449   2.393   1.794   2.143  0.2073  0.0293 -0.6039
  707TMC3    C210450   2.488   1.721   2.199  0.1947 -0.1611 -0.7080
  707TMC3    C310451   2.467   1.686   2.328 -0.3682 -0.4057 -0.4131
  707TMC3    C410452   2.271   1.827   2.200  0.5174  0.3866 -0.3007
  707TMC3    C510453   2.260   1.797   2.329  1.5193  0.5276  0.1564
  707TMC3    C610454   2.361   1.731   2.397 -0.2878  0.1381  0.4722
  707TMC3     C10455   2.388   1.767   2.002  0.1635  1.1272 -0.0504
  707TMC3     O10456   2.438   1.660   1.974  0.2234 -0.4751  0.6254
  707TMC3     H10457   2.582   1.702   2.149  0.4551 -0.1560 -0.2190
  707TMC3    H110458   2.208   1.899   2.149 -0.7095 -0.5648 -0.1463
  707TMC3    H210459   2.360   1.692   2.498 -1.0970  0.3998  0.5630
  707TMC3    C710460   2.138   1.812   2.409 -0.0935  0.3863  0.1438
  707TMC3    C810461   2.504   1.552   2.364 -0.3901  0.2194 -0.3670
  707TMC3    O110462   2.132   1.767   2.524 -0.1893  0.1078 -0.2753
  707TMC3    O210463   2.516   1.520   2.482 -0.6550  0.4701 -0.1349
  708MPD2     C10464   3.664   0.563  14.116  0.4164 -0.0048  0.3518
  708MPD2    C110465   3.580   0.656  14.061  0.0034 -0.2031 -0.3680
  708MPD2    C210466   3.535   0.763  14.143  0.1661  0.3004  0.5034
  708MPD2    C310467   3.572   0.773  14.273 -0.7537 -0.0451  0.2600
  708MPD2    C410468   3.657   0.686  14.329  0.2244 -0.4131  0.0578
  708MPD2    C510469   3.699   0.579  14.248 -0.1928 -0.4505 -0.4448
  708MPD2     H10470   3.468   0.840  14.107 -1.2359 -1.2206 -0.1625
  708MPD2    H110471   3.697   0.698  14.429 -0.8676  1.4527  0.2872
  708MPD2    H210472   3.691   0.479  14.053  0.9834  0.3768  0.0940
  708MPD2    H310473   3.764   0.506  14.296 -0.3436  2.0602  3.5382
  708MPD2     N10474   3.510   0.879  14.342 -0.0157  0.5444  0.5228
  708MPD2    H510475   3.433   0.920  14.290 -1.3262  1.1993  2.9655
  708MPD2    N110476   3.530   0.667  13.925 -0.4619  0.1305 -0.1345
  708MPD2    H710477   3.482   0.752  13.898  0.1361  0.7700  0.8200
  709TMC3    C110478   3.454   0.597  13.717 -0.6687 -0.1289  0.6206
  709TMC3    C210479   3.477   0.533  13.597  0.0789  0.3262  0.1368
  709TMC3    C310480   3.399   0.577  13.490  0.6366  0.5711 -0.2497
  709TMC3    C410481   3.364   0.697  13.733 -0.0203 -0.3261 -0.3805
  709TMC3    C510482   3.292   0.735  13.621 -0.0234  0.5355 -0.2465
  709TMC3    C610483   3.300   0.675  13.500 -0.0944  0.5171  0.1573
  709TMC3     C10484   3.539   0.570  13.836 -1.0594 -0.3563  0.2430
  709TMC3     O10485   3.609   0.471  13.837  0.1101  0.0547 -0.4974
  709TMC3     H10486   3.559   0.463  13.586  0.3756  0.6667  0.2015
  709TMC3    H110487   3.330   0.733  13.830  1.7421  1.2572 -0.3507
  709TMC3    H210488   3.231   0.706  13.423  1.5453  0.9269 -1.1321
  709TMC3    C710489   3.199   0.850  13.635 -0.5914 -0.9773 -0.3860
  709TMC3    C810490   3.431   0.515  13.360  0.0758  0.2335  0.4691
  709TMC3    O110491   3.113   0.863  13.551  0.0663 -0.2692  0.4474
  709TMC3    O210492   3.496   0.409  13.364  0.1669  0.4990  0.4713
  710TMC3    C110493   4.118   3.045   0.575  0.3837 -0.3543  0.1391
  710TMC3    C210494   4.155   2.981   0.458  0.8154  0.2059 -0.3372
  710TMC3    C310495   4.281   2.933   0.449  0.4442  0.3290 -0.5254
  710TMC3    C410496   4.214   3.056   0.675 -0.1532  0.4418 -0.5936
  710TMC3    C510497   4.342   3.010   0.659  0.8753  0.5061  0.2723
  710TMC3    C610498   4.376   2.943   0.546  0.4709 -0.0031 -0.2691
  710TMC3     C10499   4.011   3.140   0.568  0.1965 -0.1205 -0.2468
  710TMC3     O10500   3.920   3.111   0.490  0.2076 -0.1318 -0.2492
  710TMC3     H10501   4.079   2.963   0.384  2.1473 -2.6015 -0.9953
  710TMC3    H110502   4.174   3.094   0.768 -2.5321  1.1869 -1.9037
  710TMC3    H210503   4.472   2.893   0.543 -0.1115 -0.9516 -3.2368
  710TMC3    C710504   4.402   2.961   0.784  0.1414  0.1446  0.2422
  710TMC3    C810505   4.316   2.869   0.333 -0.0199  0.3867 -0.3914
  710TMC3    O110506   4.332   2.954   0.881 -0.0488 -0.0876 -0.4231
  710TMC3    O210507   4.437   2.867   0.317  0.2174 -0.3450  0.2364
  711TMC3    C110508   4.159   3.509  14.726 -0.8559 -0.8652 -0.0983
  711TMC3    C210509   4.168   3.620  14.804 -0.4743 -0.5020  0.2671
  711TMC3    C310510   4.287   3.641  14.878 -0.2143  0.0157 -0.5969
  711TMC3    C410511   4.267   3.429  14.708  0.0473 -1.4529  0.4165
  711TMC3    C510512   4.374   3.448  14.788  0.1513  0.3926  0.0836
  711TMC3    C610513   4.392   3.561  14.864  0.0914  0.1071 -0.3535
  711TMC3     C10514   4.050   3.427  14.775 -0.3692 -0.4713 -0.5219
  711TMC3     O10515   4.056   3.310  14.748  0.1467 -0.0327 -0.0268
  711TMC3     H10516   4.089   3.695  14.802 -0.1542 -0.1811 -0.3511
  711TMC3    H110517   4.262   3.333  14.658  0.3529 -0.9373 -0.5954
  711TMC3    H210518   4.478   3.557  14.930  0.1832  1.2163 -0.4030
  711TMC3    C710519   4.409   3.331  14.873 -0.1735  0.1916  0.0650
  711TMC3    C810520   4.249   3.681  15.009  0.2993  0.2638  0.6301
  711TMC3    O110521   4.523   3.329  14.921  0.3404  0.2475  0.2115
  711TMC3    O210522   4.133   3.714  15.016  0.0516  0.0863  0.4446
  712MPD2     C10523   1.031   4.465  14.032  0.1098  0.1243  0.8276
  712MPD2    C110524   0.938   4.488  13.932 -0.2275  0.4036 -0.3983
  712MPD2    C210525   0.908   4.621  13.891  0.1015 -0.2185  0.0392
  712MPD2    C310526   0.968   0.006  13.951 -0.1155 -0.4984  0.5102
  712MPD2    C410527   1.053   4.703  14.055 -0.4616  0.8347  0.1241
  712MPD2    C510528   1.079   4.573  14.099  0.4626 -0.5341  0.3404
  712MPD2     H10529   0.842   4.631  13.805  0.8625 -0.6622 -0.5975
  712MPD2    H110530   1.109   0.060  14.099  0.6034  0.5827 -0.7809
  712MPD2    H210531   1.046   4.366  14.073  0.9320 -0.3280 -0.5321
  712MPD2    H310532   1.146   4.564  14.183 -0.1612 -2.1443  0.6725
  712MPD2     N10533   0.946   0.139  13.913 -0.1318  0.2268  0.2234
  712MPD2    H510534   1.008   0.212  13.946 -0.6056  0.0323  1.5643
  712MPD2    N110535   0.874   4.380  13.869  0.3642 -0.1656 -0.1499
  712MPD2    H710536   0.877   4.285  13.906 -1.1181 -0.7247 -1.4597
  713TMC3    C110537   0.833   0.320  13.819  0.1649 -0.3609  0.3871
  713TMC3    C210538   0.957   0.381  13.802 -0.0025 -0.4885  0.4655
  713TMC3    C310539   0.969   0.485  13.724  0.5033 -0.1804  0.5578
  713TMC3    C410540   0.729   0.369  13.749 -0.3450 -0.5201 -0.4649
  713TMC3    C510541   0.745   0.479  13.667 -0.5549 -0.3342 -0.6460
  713TMC3    C610542   0.863   0.540  13.664 -0.1863 -0.5151  0.2714
  713TMC3     C10543   0.836   0.179  13.840 -0.0498 -0.7404 -0.3301
  713TMC3     O10544   0.729   0.116  13.831  0.0060 -0.2744 -0.4240
  713TMC3     H10545   1.041   0.338  13.856  2.8658  2.1888 -1.8703
  713TMC3    H110546   0.631   0.323  13.743 -0.7735  0.2526  0.5453
  713TMC3    H210547   0.868   0.631  13.605  0.4658  0.2279  1.4703
  713TMC3    C710548   0.702   0.467  13.531 -0.2930  0.1137  0.3481
  713TMC3    C810549   1.083   0.492  13.636 -0.0249  0.2544 -0.0480
  713TMC3    O110550   0.785   0.462  13.439  0.5049  0.1570  0.5300
  713TMC3    O210551   1.104   0.602  13.591 -0.1733 -0.8116 -0.9587
  714MPD2     C10552   2.285   3.195   1.387  0.6491 -0.2182  0.2361
  714MPD2    C110553   2.364   3.079   1.383 -0.9747 -0.8082 -1.1481
  714MPD2    C210554   2.416   3.038   1.262 -1.0357  0.2651 -0.1830
  714MPD2    C310555   2.387   3.111   1.147 -0.1183  0.1061  0.9161
  714MPD2    C410556   2.294   3.210   1.149 -0.6345 -0.4153 -0.2011
  714MPD2    C510557   2.254   3.256   1.270  0.5103  0.4428  0.7605
  714MPD2     H10558   2.489   2.959   1.248 -0.4416  0.8755 -0.5536
  714MPD2    H110559   2.260   3.270   1.065 -0.4942  0.6494  0.5006
  714MPD2    H210560   2.244   3.231   1.481  0.8063 -0.8330  0.5460
  714MPD2    H310561   2.185   3.340   1.263 -0.5010 -0.2937  1.8273
  714MPD2     N10562   2.440   3.062   1.023 -0.7574  0.1429 -0.0808
  714MPD2    H510563   2.499   2.979   1.026  0.7782  1.1801 -1.3324
  714MPD2    N110564   2.400   3.010   1.507  0.3293  0.4655 -0.3329
  714MPD2    H710565   2.377   3.054   1.595  2.0067  0.4153  0.1237
  715TMC3    C110566   2.544   2.878   1.626  0.4705  0.7711  0.3164
  715TMC3    C210567   2.621   2.770   1.638 -0.4954  0.6573  0.9074
  715TMC3    C310568   2.727   2.762   1.727  0.5394  0.5388  0.2001
  715TMC3    C410569   2.581   2.989   1.699  0.2303  0.2292  0.2492
  715TMC3    C510570   2.688   2.992   1.780 -0.5269 -0.4638 -0.0075
  715TMC3    C610571   2.767   2.880   1.789 -0.1964 -0.1483  0.1916
  715TMC3     C10572   2.463   2.887   1.508  0.6926  0.2428  1.0821
  715TMC3     O10573   2.478   2.804   1.414  0.0093 -0.2400 -0.3311
  715TMC3     H10574   2.584   2.673   1.607 -0.1937 -0.0877  2.9109
  715TMC3    H110575   2.532   3.083   1.675  1.2543  0.4705 -0.8811
  715TMC3    H210576   2.851   2.897   1.855 -0.7442  0.4502  0.7411
  715TMC3    C710577   2.759   3.123   1.782 -0.7474 -0.6132 -0.3623
  715TMC3    C810578   2.812   2.647   1.718  0.3108  1.2608  0.2471
  715TMC3    O110579   2.878   3.109   1.761  0.7325 -0.4203  0.2179
  715TMC3    O210580   2.778   2.558   1.646  0.0049  0.0492  0.8173
  716MPD2     C10581   2.478   1.167   9.254 -0.2425 -0.1574  0.4806
  716MPD2    C110582   2.403   1.135   9.146 -0.4190 -0.0338 -0.8150
  716MPD2    C210583   2.427   1.029   9.058 -0.8018 -0.5798 -0.4193
  716MPD2    C310584   2.532   0.942   9.087  0.3807  0.2320 -0.7042
  716MPD2    C410585   2.613   0.974   9.199  0.4619 -0.3470  0.1518
  716MPD2    C510586   2.586   1.080   9.282  0.3304  0.0857  0.4779
  716MPD2     H10587   2.368   1.020   8.968  1.6284  2.3405 -2.2854
  716MPD2    H110588   2.699   0.921   9.238  0.2911  0.3020  1.4276
  716MPD2    H210589   2.453   1.256   9.309  1.3566  0.6098 -0.0179
  716MPD2    H310590   2.640   1.099   9.375 -0.8167  1.1104  0.9403
  716MPD2     N10591   2.562   0.827   9.014  0.3796 -0.6001 -0.0273
  716MPD2    H510592   2.501   0.803   8.936  1.0801  2.9813 -1.6883
  716MPD2    N110593   2.291   1.220   9.123 -0.4778  1.0636  0.5015
  716MPD2    H710594   2.268   1.289   9.193  1.6715  1.2188  1.0639
  717TMC3    C110595   2.642   0.602   8.987  0.1906  0.5944 -0.2805
  717TMC3    C210596   2.511   0.563   8.952 -0.1529  0.0161  0.2172
  717TMC3    C310597   2.500   0.444   8.884  0.3811  0.1422 -0.8469
  717TMC3    C410598   2.752   0.536   8.943 -0.0251  0.2280 -0.1370
  717TMC3    C510599   2.736   0.422   8.877  0.0860  0.3659  0.3823
  717TMC3    C610600   2.608   0.372   8.848 -0.2509  0.1848  0.9822
  717TMC3     C10601   2.664   0.734   9.046 -0.1055  0.4235  0.1310
  717TMC3     O10602   2.769   0.730   9.122  0.1896  0.7049  0.4527
  717TMC3     H10603   2.423   0.609   8.996 -2.1467 -0.1348 -3.6388
  717TMC3    H110604   2.847   0.576   8.975  0.3298  1.2422 -2.4647
  717TMC3    H210605   2.593   0.275   8.802  3.4395 -0.5643  1.3167
  717TMC3    C710606   2.833   0.314   8.892  0.1773  0.4053  0.0633
  717TMC3    C810607   2.365   0.419   8.826 -0.0647 -0.2015  0.0052
  717TMC3    O110608   2.818   0.200   8.844 -0.0508  0.2797 -0.1450
  717TMC3    O210609   2.272   0.479   8.878 -0.0498 -0.4465  0.1491
  718MPD2     C10610   2.870   0.286  12.793  0.4120 -0.0585  0.2543
  718MPD2    C110611   2.783   0.347  12.707 -0.5085 -0.0440  0.1274
  718MPD2    C210612   2.660   0.285  12.693 -0.0000 -0.5161 -0.4104
  718MPD2    C310613   2.619   0.174  12.769  0.1551 -0.0630  0.4422
  718MPD2    C410614   2.705   0.114  12.853 -0.1149 -0.2749  0.2155
  718MPD2    C510615   2.829   0.176  12.867  1.0634  0.0720 -0.1893
  718MPD2     H10616   2.582   0.321  12.627  0.7164  1.2311 -0.3159
  718MPD2    H110617   2.688   0.026  12.915 -2.1102 -0.3194 -0.3750
  718MPD2    H210618   2.967   0.328  12.814  0.4755 -1.1805  2.1496
  718MPD2    H310619   2.895   0.128  12.938  2.2023  2.0461  0.0708
  718MPD2     N10620   2.482   0.135  12.743  0.2044  0.0669  0.0016
  718MPD2    H510621   2.432   0.191  12.675  2.4376  2.5239  0.3819
  718MPD2    N110622   2.813   0.474  12.649  0.2612 -0.0797  0.6289
  718MPD2    H710623   2.902   0.510  12.681 -0.3444 -0.2875  2.5065
  719TMC3    C110624   2.785   0.668  12.520  0.0918 -0.0120  1.1127
  719TMC3    C210625   2.685   0.742  12.462  0.1233 -0.5006  0.2792
  719TMC3    C310626   2.690   0.787  12.330 -0.7436  0.6172  0.1231
  719TMC3    C410627   2.897   0.636  12.443  0.0647 -0.1216  0.1388
  719TMC3    C510628   2.910   0.690  12.315  0.1752  0.1399 -0.8287
  719TMC3    C610629   2.809   0.768  12.257  0.3379 -0.2007  0.2360
  719TMC3     C10630   2.727   0.551  12.578 -0.2578 -0.8667  0.6639
  719TMC3     O10631   2.607   0.540  12.565  0.1286 -0.7945  0.6754
  719TMC3     H10632   2.598   0.768  12.521  0.3145 -1.0930  0.8290
  719TMC3    H110633   2.983   0.582  12.481  1.5603  1.8399 -0.4358
  719TMC3    H210634   2.812   0.786  12.150 -0.7865  1.0456  0.4066
  719TMC3    C710635   3.035   0.681  12.242 -0.7104  0.8645  0.4076
  719TMC3    C810636   2.566   0.745  12.262 -0.1326  0.4009 -0.2702
  719TMC3    O110637   3.121   0.607  12.285 -0.0571 -0.6646  0.2213
  719TMC3    O210638   2.559   0.778  12.144 -0.0272 -0.1161  0.3523
  720MPD2     C10639   0.964   1.814  14.078  0.3825  0.8953  0.0992
  720MPD2    C110640   1.031   1.814  13.955 -0.2831  0.3182 -0.6485
  720MPD2    C210641   1.163   1.766  13.950  0.2378  0.7084  0.4035
  720MPD2    C310642   1.225   1.734  14.065  0.1361  0.8198 -0.7723
  720MPD2    C410643   1.160   1.737  14.187 -0.6368  1.2934 -0.1888
  720MPD2    C510644   1.031   1.776  14.192 -0.3463  0.0202 -0.5935
  720MPD2     H10645   1.215   1.766  13.855  1.0181  2.1889  0.8208
  720MPD2    H110646   1.208   1.707  14.279  0.6237 -1.7788 -1.8228
  720MPD2    H210647   0.864   1.851  14.099  0.4729  0.2365  1.7195
  720MPD2    H310648   0.989   1.774  14.292  1.9962 -1.4573  0.3580
  720MPD2     N10649   1.365   1.703  14.064  0.3944  0.6818 -0.2392
  720MPD2    H510650   1.399   1.709  13.969  1.3846  0.4915  0.1021
  720MPD2    N110651   0.962   1.868  13.841 -0.5022  0.3027 -0.0034
  720MPD2    H710652   1.022   1.875  13.759 -2.6920 -0.3100 -1.6263
  721TMC3    C110653   1.583   1.617  14.124  0.7342  0.0744  0.3784
  721TMC3    C210654   1.652   1.552  14.218 -0.0759 -0.1542  0.0014
  721TMC3    C310655   1.787   1.535  14.196  0.9222 -0.2373  0.6323
  721TMC3    C410656   1.640   1.674  14.010  1.0062 -0.2265 -0.0948
  721TMC3    C510657   1.775   1.657  13.995 -0.0057  0.0293 -0.0143
  721TMC3    C610658   1.852   1.585  14.082 -0.1522 -0.5757 -0.0222
  721TMC3     C10659   1.450   1.663  14.166  0.2998 -0.1712  0.7527
  721TMC3     O10660   1.439   1.666  14.286  0.2644  0.8435 -0.0097
  721TMC3     H10661   1.605   1.515  14.309  1.7887 -1.4172  0.4513
  721TMC3    H110662   1.587   1.748  13.952  1.5364 -0.6079 -1.0610
  721TMC3    H210663   1.954   1.560  14.057  0.6004  0.4392  2.0693
  721TMC3    C710664   1.834   1.665  13.861 -0.1690 -0.6074  0.2003
  721TMC3    C810665   1.874   1.459  14.285 -0.3567 -0.8425 -0.3075
  721TMC3    O110666   1.916   1.580  13.831  0.8822 -0.0981  0.3110
  721TMC3    O210667   1.986   1.435  14.241 -0.0841 -0.0717  0.0334
  722MPD2     C10668   4.047   0.438  13.524 -0.2974  0.6219  0.4836
  722MPD2    C110669   4.120   0.449  13.405 -0.3286  0.1004  0.0545
  722MPD2    C210670   4.074   0.401  13.284 -0.8210  0.4164 -0.5252
  722MPD2    C310671   3.965   0.325  13.278  0.5835  0.3494 -0.6868
  722MPD2    C410672   3.896   0.312  13.396 -0.2408  0.3397  0.4545
  722MPD2    C510673   3.934   0.361  13.516  0.2195  0.2765 -0.7070
  722MPD2     H10674   4.116   0.418  13.186 -1.8653  0.1033 -1.0272
  722MPD2    H110675   3.808   0.249  13.399  0.1958 -0.4453 -2.3218
  722MPD2    H210676   4.084   0.478  13.617 -1.7498  1.3795  0.7321
  722MPD2    H310677   3.866   0.349  13.600  0.0877  1.2919 -0.6731
  722MPD2     N10678   3.945   0.263  13.154  0.0859 -0.4136  0.0621
  722MPD2    H510679   4.005   0.299  13.081  0.0081 -0.3228  0.0438
  722MPD2    N110680   4.244   0.520  13.401 -0.6497 -0.1059  0.2470
  722MPD2    H710681   4.269   0.545  13.306 -0.7720 -0.8051  0.0348
  723TMC3    C110682   3.804   0.186  12.984  0.3364  0.0995  0.0387
  723TMC3    C210683   3.710   0.101  12.944 -0.2884 -0.4946  0.0424
  723TMC3    C310684   3.672   0.105  12.814 -0.6172 -0.4794  0.5280
  723TMC3    C410685   3.857   0.286  12.899  0.0342  0.7467 -0.6228
  723TMC3    C510686   3.806   0.288  12.768  0.0367  0.3857 -0.4347
  723TMC3    C610687   3.727   0.192  12.720 -0.2053 -0.6109  0.0173
  723TMC3     C10688   3.844   0.181  13.125 -0.0279 -0.5031 -0.5296
  723TMC3     O10689   3.758   0.143  13.197  0.8361 -0.8613  0.6373
  723TMC3     H10690   3.669   0.029  13.013 -1.8749  0.1652 -0.2299
  723TMC3    H110691   3.944   0.346  12.920 -0.0906  0.5894  0.3291
  723TMC3    H210692   3.701   0.190  12.615  1.2089 -0.6583 -0.3316
  723TMC3    C710693   3.799   0.420  12.703 -0.6316  0.4388  0.9184
  723TMC3    C810694   3.600   4.714  12.761  0.0469 -0.0466 -0.2055
  723TMC3    O110695   3.751   0.423  12.592 -0.4437  0.6339  0.1490
  723TMC3    O210696   3.536   0.021  12.659 -0.1240  0.1257  0.3742
  724TMC3    C110697   0.312   3.040   9.930  0.2037 -0.1468 -0.2031
  724TMC3    C210698   0.197   3.112   9.899  0.3274 -0.7189 -0.1086
  724TMC3    C310699   0.206   3.195   9.796  0.1531  0.1501  0.7484
  724TMC3    C410700   0.421   3.045   9.849  0.1217 -0.3644 -0.2486
  724TMC3    C510701   0.413   3.120   9.733  0.1045  0.5780 -0.0076
  724TMC3    C610702   0.310   3.204   9.707  0.1924 -0.4863 -0.9301
  724TMC3     C10703   0.333   2.992  10.067  0.1983  0.2223 -0.5338
  724TMC3     O10704   0.232   2.990  10.139  0.7186 -0.8452 -0.1783
  724TMC3     H10705   0.116   3.134   9.968  0.4546  2.9307 -1.1042
  724TMC3    H110706   0.501   2.973   9.860 -0.1754 -0.5208  0.9397
  724TMC3    H210707   0.298   3.270   9.622  0.6823 -0.1127 -0.7036
  724TMC3    C710708   0.523   3.116   9.642  0.2858  0.5812  0.0316
  724TMC3    C810709   0.109   3.310   9.793 -0.1785  1.0726 -0.2279
  724TMC3    O110710   0.633   3.101   9.694  0.3184  0.0262  0.4970
  724TMC3    O210711   4.714   3.286   9.810  0.2188 -0.0778  0.0521
  725TMC3    C110712   1.535   1.981  12.826  0.4044 -0.4044  0.1628
  725TMC3    C210713   1.478   1.982  12.701  0.2607  0.5623 -0.2043
  725TMC3    C310714   1.389   1.887  12.667 -0.2757 -0.3759  0.7856
  725TMC3    C410715   1.513   1.878  12.909 -0.5440  0.4941  0.6749
  725TMC3    C510716   1.425   1.782  12.872 -0.2398 -0.8006  0.1941
  725TMC3    C610717   1.357   1.787  12.750 -0.8667  0.1796 -0.5049
  725TMC3     C10718   1.580   2.109  12.874 -0.3792  0.7767 -0.0758
  725TMC3     O10719   1.607   2.182  12.779  0.0967 -0.2298  0.4507
  725TMC3     H10720   1.519   2.058  12.634  1.0739  1.6503  1.5102
  725TMC3    H110721   1.573   1.879  13.000 -0.8396  0.8605  0.8655
  725TMC3    H210722   1.287   1.712  12.715  0.3886  0.4170 -3.5379
  725TMC3    C710723   1.430   1.644  12.923 -0.5002  0.0891  0.4567
  725TMC3    C810724   1.376   1.853  12.527 -0.1815 -0.4274  0.3114
  725TMC3    O110725   1.332   1.573  12.893  0.2418  0.6060  0.0333
  725TMC3    O210726   1.363   1.737  12.490 -0.1022  0.2522 -0.3547
  726MPD2     C10727   4.482   3.117  10.370 -0.5387  0.5366  1.1834
  726MPD2    C110728   4.429   3.240  10.411 -0.1932 -0.0171 -0.0323
  726MPD2    C210729   4.292   3.261  10.402  0.2460  0.2024 -0.2180
  726MPD2    C310730   4.211   3.175  10.334 -0.2352  0.0332  0.3619
  726MPD2    C410731   4.264   3.062  10.294  0.1058 -0.1076  1.4087
  726MPD2    C510732   4.394   3.023  10.317  0.0159 -0.7151  0.6976
  726MPD2     H10733   4.252   3.360  10.420 -1.4567 -0.6053  0.4370
  726MPD2    H110734   4.193   2.994  10.248  1.2982 -1.0202  0.9318
  726MPD2    H210735   4.588   3.099  10.376 -0.7398 -0.1225  2.6839
  726MPD2    H310736   4.446   2.935  10.282 -0.9862 -1.3082  0.7058
  726MPD2     N10737   4.079   3.197  10.302 -0.1626  0.4874 -0.5418
  726MPD2    H510738   4.035   3.129  10.241 -1.2480  2.0911 -1.5576
  726MPD2    N110739   4.513   3.341  10.471  0.3564  0.3287  0.1684
  726MPD2    H710740   4.462   3.427  10.492  0.3083  0.4412 -0.3818
  727TMC3    C110741   4.718   3.464  10.514  0.1160  0.1626 -0.1286
  727TMC3    C210742   0.112   3.449  10.582  0.6761 -0.0681 -0.6283
  727TMC3    C310743   0.204   3.553  10.579  0.8616  0.3013 -0.1604
  727TMC3    C410744   4.684   3.584  10.459 -0.3446 -0.3048  0.1504
  727TMC3    C510745   0.050   3.689  10.462  0.3547  0.7200 -0.0855
  727TMC3    C610746   0.168   3.669  10.518 -0.2642  0.0616  1.0403
  727TMC3     C10747   4.653   3.340  10.473  0.2792  0.0823  0.3866
  727TMC3     O10748   0.001   3.240  10.480 -0.0951 -0.3037 -0.6201
  727TMC3     H10749   0.127   3.362  10.645  0.8909  0.3681 -0.0681
  727TMC3    H110750   4.597   3.596  10.396  1.6011 -1.9380 -2.8716
  727TMC3    H210751   0.243   3.748  10.518  2.8516 -2.8700  1.8825
  727TMC3    C710752   0.006   3.829  10.448 -0.0620 -0.3571  0.5396
  727TMC3    C810753   0.348   3.532  10.598  0.4961 -0.1776 -0.5903
  727TMC3    O110754   0.084   3.921  10.473  0.5949 -0.3542 -0.3271
  727TMC3    O210755   0.426   3.615  10.553 -0.1880  0.1219  0.4786
  728TMC3    C110756   3.850   1.805  15.778  0.0873 -0.3357 -0.0087
  728TMC3    C210757   3.947   1.855  15.860 -0.0593 -0.0034  0.1545
  728TMC3    C310758   4.039   1.936  15.801 -0.2567  0.3871 -0.1450
  728TMC3    C410759   3.834   1.822  15.646  0.0725  0.4971 -0.2209
  728TMC3    C510760   3.927   1.915  15.598 -0.0379 -0.4541 -0.7754
  728TMC3    C610761   4.032   1.972  15.668 -0.8252 -0.4706  0.3173
  728TMC3     C10762   3.728   1.766  15.856 -0.3627 -0.8624 -0.6634
  728TMC3     O10763   3.744   1.737  15.974  0.2023 -0.3267 -0.3616
  728TMC3     H10764   3.954   1.824  15.964 -3.9871  0.9411  0.7018
  728TMC3    H110765   3.746   1.786  15.595  0.9583 -1.1193 -0.5828
  728TMC3    H210766   4.086   2.047  15.611 -2.0016 -0.9259 -1.3870
  728TMC3    C710767   3.924   1.928  15.456  0.6757  0.1729 -0.6451
  728TMC3    C810768   4.173   1.936  15.864  0.3536 -0.0461  0.4666
  728TMC3    O110769   3.902   1.824  15.394  0.0686 -0.5144  1.1644
  728TMC3    O210770   4.178   1.896  15.978  0.2288  0.3639 -0.4108
  729MPD2     C10771   0.951   3.261  17.152  0.1480  0.6514  0.4502
  729MPD2    C110772   0.946   3.389  17.110  0.0871  0.2807 -0.6708
  729MPD2    C210773   0.922   3.497  17.198 -0.2078  0.3645  0.8546
  729MPD2    C310774   0.909   3.469  17.335  0.8152  0.1195  0.2443
  729MPD2    C410775   0.917   3.334  17.380  0.2245 -0.8737  0.7520
  729MPD2    C510776   0.941   3.238  17.289 -0.1042 -0.7833  0.2081
  729MPD2     H10777   0.915   3.598  17.160 -3.3697  0.1431  0.8262
  729MPD2    H110778   0.912   3.314  17.486  2.3005 -2.1956  0.5951
  729MPD2    H210779   0.960   3.180  17.080 -1.0950  1.4756 -0.6432
  729MPD2    H310780   0.948   3.135  17.323 -1.1505 -0.6314  0.8721
  729MPD2     N10781   0.894   3.568  17.429  0.5674  0.3645 -0.4800
  729MPD2    H510782   0.893   3.542  17.527  0.9857  3.6978  0.4126
  729MPD2    N110783   0.978   3.409  16.974  0.2222 -0.4646 -0.5123
  729MPD2    H710784   1.006   3.327  16.920  0.3242  0.4007 -1.7672
  730TMC3    C110785   0.852   3.790  17.510 -0.6234  0.0204  0.6994
  730TMC3    C210786   0.947   3.774  17.615 -0.3821  0.1170 -0.1994
  730TMC3    C310787   0.965   3.892  17.687 -0.1981 -0.9739  0.6111
  730TMC3    C410788   0.790   3.911  17.482  0.8830  0.0499  0.2807
  730TMC3    C510789   0.832   4.026  17.544 -0.8391  0.0607  0.0466
  730TMC3    C610790   0.918   4.020  17.653 -0.5772 -0.3160 -0.3360
  730TMC3     C10791   0.851   3.695  17.402  0.1305 -0.4677  0.8493
  730TMC3     O10792   0.823   3.748  17.294  0.3617  0.2956  0.0153
  730TMC3     H10793   0.979   3.673  17.642 -0.6811 -0.0790 -0.5751
  730TMC3    H110794   0.697   3.898  17.427  1.8244 -0.4374 -1.1999
  730TMC3    H210795   0.946   4.109   0.009  0.3128  0.4859 -2.1368
  730TMC3    C710796   0.823   4.142  17.455  0.8233  0.2316  0.2472
  730TMC3    C810797   1.017   3.879   0.124 -0.3053 -0.5841  0.6722
  730TMC3    O110798   0.783   4.110  17.342  0.0695 -0.4281  1.0601
  730TMC3    O210799   1.038   3.975   0.198  0.0179  1.1604  0.2118
  731MPD2     C10800   0.828   1.598  12.595 -0.6476  0.3629 -0.4769
  731MPD2    C110801   0.713   1.542  12.542  0.0240  0.2080  0.6294
  731MPD2    C210802   0.605   1.508  12.622 -0.1431  0.0022 -0.4699
  731MPD2    C310803   0.617   1.529  12.760 -0.0539 -0.2481 -0.3303
  731MPD2    C410804   0.723   1.597  12.807 -0.1031 -0.3513  0.2026
  731MPD2    C510805   0.834   1.621  12.734  0.5873 -0.3750  0.4289
  731MPD2     H10806   0.518   1.459  12.580 -0.1217 -0.8794  0.5245
  731MPD2    H110807   0.733   1.617  12.913 -0.8032  1.4477 -0.0566
  731MPD2    H210808   0.910   1.625  12.529  2.9566 -0.1488  3.8396
  731MPD2    H310809   0.922   1.665  12.780  0.3159  0.9851 -0.3404
  731MPD2     N10810   0.498   1.505  12.841 -0.5260  0.3907  0.0695
  731MPD2    H510811   0.422   1.462  12.789 -0.0247  1.5041 -1.5997
  731MPD2    N110812   0.716   1.519  12.402  0.3357 -0.6612  0.8274
  731MPD2    H710813   0.793   1.563  12.351 -0.9906  1.6905  0.8415
  732TMC3    C110814   0.616   1.455  12.192 -0.4429  0.1694  0.0968
  732TMC3    C210815   0.506   1.387  12.134 -0.1593  0.1754 -1.3055
  732TMC3    C310816   0.513   1.320  12.017  0.0814 -0.1130 -0.7026
  732TMC3    C410817   0.735   1.453  12.129 -0.3332  0.6042 -0.3820
  732TMC3    C510818   0.738   1.386  12.006  0.0499 -0.5242  0.6195
  732TMC3    C610819   0.635   1.317  11.953  0.4584 -0.1410 -1.2263
  732TMC3     C10820   0.616   1.453  12.338  0.4362 -0.1418  0.5432
  732TMC3     O10821   0.522   1.384  12.374  0.3208 -0.3412  0.3712
  732TMC3     H10822   0.409   1.417  12.170  0.2715 -1.1707  0.9959
  732TMC3    H110823   0.821   1.508  12.164 -0.1007 -2.0196  3.1723
  732TMC3    H210824   0.645   1.268  11.857 -2.8862  1.5649 -2.4496
  732TMC3    C710825   0.865   1.363  11.945 -0.1944  0.3655  0.3641
  732TMC3    C810826   0.468   1.186  12.042 -0.4033  0.3004 -0.4432
  732TMC3    O110827   0.865   1.326  11.827  0.1315 -0.7133 -0.5718
  732TMC3    O210828   0.458   1.110  11.947 -0.0003 -0.6126  0.0998
  733TMC3    C110829   2.075   4.677  12.664  0.2952  0.1432  0.1569
  733TMC3    C210830   2.187   4.674  12.743 -0.5156 -0.5915  0.5427
  733TMC3    C310831   2.299   0.013  12.692  0.2319  0.0213  0.3346
  733TMC3    C410832   2.079   0.001  12.533  0.1757  0.2149  0.0640
  733TMC3    C510833   2.200   0.040  12.481 -0.4344  0.5265  0.2454
  733TMC3    C610834   2.300   0.064  12.569 -0.2594  0.3588 -0.0489
  733TMC3     C10835   1.951   4.653  12.734  0.0211 -0.1183 -0.2286
  733TMC3     O10836   1.854   4.720  12.702 -0.2870 -0.0287 -0.8756
  733TMC3     H10837   2.176   4.646  12.848 -1.3450 -0.8581  0.3860
  733TMC3    H110838   1.991   0.005  12.469 -0.6347 -1.6502  1.0827
  733TMC3    H210839   2.390   0.109  12.528 -0.3666 -2.0196 -2.9459
  733TMC3    C710840   2.199   0.131  12.373  0.0158 -0.4208  0.6069
  733TMC3    C810841   2.420   0.019  12.774 -0.0296  0.0371 -0.2737
  733TMC3    O110842   2.129   0.110  12.275 -0.4103  0.0598 -0.5554
  733TMC3    O210843   2.447   4.657  12.862  0.2292  0.5892 -0.0424
  734MPD2     C10844   3.713   2.313  12.545 -0.4186  0.3252  0.5174
  734MPD2    C110845   3.704   2.209  12.452 -0.3125  0.0138  0.3845
  734MPD2    C210846   3.756   2.236  12.329  0.5456  0.9462  0.6900
  734MPD2    C310847   3.811   2.358  12.295 -0.7896 -0.2310 -0.2057
  734MPD2    C410848   3.813   2.461  12.384 -0.5845  0.2554  0.8504
  734MPD2    C510849   3.771   2.430  12.515  0.3538 -0.1469  0.0507
  734MPD2     H10850   3.762   2.157  12.256 -2.1807  0.9271  0.4761
  734MPD2    H110851   3.846   2.563  12.370  0.7404 -0.4883 -1.4305
  734MPD2    H210852   3.678   2.298  12.646 -0.8933 -1.1992  0.1334
  734MPD2    H310853   3.782   2.507  12.590 -0.4427 -0.6048  0.6358
  734MPD2     N10854   3.847   2.375  12.159  0.1725  0.7390  0.4794
  734MPD2    H510855   3.856   2.291  12.103 -0.3992  1.2126 -0.3236
  734MPD2    N110856   3.624   2.099  12.485 -0.3492  0.0587  0.5072
  734MPD2    H710857   3.604   2.073  12.581 -3.7537 -2.5626 -0.8916
  735TMC3    C110858   3.512   1.894  12.429 -0.1675 -0.4072  0.5037
  735TMC3    C210859   3.427   1.859  12.335  0.2867  0.0773 -0.7944
  735TMC3    C310860   3.422   1.731  12.294 -0.4767 -0.1373  0.0950
  735TMC3    C410861   3.611   1.813  12.478  0.2028 -0.8198  0.1620
  735TMC3    C510862   3.603   1.683  12.438 -0.4310 -0.0934  0.5308
  735TMC3    C610863   3.513   1.640  12.342 -0.1324  0.3627  0.4946
  735TMC3     C10864   3.572   2.020  12.385  0.0834 -0.3655  0.3343
  735TMC3     O10865   3.568   2.040  12.262  0.2758 -0.0127 -0.0333
  735TMC3     H10866   3.374   1.939  12.285  0.9824  1.2896  0.4087
  735TMC3    H110867   3.700   1.852  12.526 -0.2334 -2.4494  2.2989
  735TMC3    H210868   3.532   1.555  12.278 -1.9125  0.7967 -0.5997
  735TMC3    C710869   3.722   1.610  12.451  0.7407 -0.2010 -0.0452
  735TMC3    C810870   3.430   1.728  12.143  0.2331 -0.6760  0.4497
  735TMC3    O110871   3.825   1.678  12.461  0.4474  0.4282  0.9375
  735TMC3    O210872   3.379   1.639  12.077 -0.3589  0.4518 -0.1690
  736MPD2     C10873   3.785   1.252  12.426  0.0743 -0.0881  0.0613
  736MPD2    C110874   3.814   1.383  12.411 -0.0442 -0.4610 -0.2927
  736MPD2    C210875   3.946   1.415  12.392  0.0918 -0.3635  0.1373
  736MPD2    C310876   4.047   1.315  12.370  0.2168 -0.2506 -0.9842
  736MPD2    C410877   4.017   1.189  12.399 -0.1538  0.4873 -0.1594
  736MPD2    C510878   3.886   1.158  12.431  1.0163  0.6823  0.7814
  736MPD2     H10879   3.963   1.521  12.378 -2.5733  0.3028  1.9441
  736MPD2    H110880   4.088   1.108  12.387 -0.5610  0.1287 -0.1553
  736MPD2    H210881   3.683   1.220  12.442 -0.0328 -0.6423 -1.7317
  736MPD2    H310882   3.855   1.054  12.433 -0.7374  1.1234 -3.0106
  736MPD2     N10883   4.177   1.336  12.326  0.1746 -0.2577  0.0470
  736MPD2    H510884   4.237   1.254  12.325 -1.0008 -1.1696  3.1460
  736MPD2    N110885   3.711   1.473  12.423 -0.0783 -0.2811  0.1179
  736MPD2    H710886   3.616   1.437  12.433 -0.9010  1.9924  0.4303
  737TMC3    C110887   4.358   1.438  12.228 -0.0534  0.2586  0.0075
  737TMC3    C210888   4.432   1.550  12.225  0.6291  0.7746  0.3950
  737TMC3    C310889   4.527   1.561  12.126  0.0210  0.4985 -0.1705
  737TMC3    C410890   4.365   1.348  12.133  0.1841 -0.2174  0.2633
  737TMC3    C510891   4.456   1.363  12.029 -0.0208 -0.9881 -0.2154
  737TMC3    C610892   4.536   1.473  12.016  0.1053  0.9150  0.2123
  737TMC3     C10893   4.234   1.455  12.298  0.3061 -0.8584  0.2969
  737TMC3     O10894   4.206   1.570  12.330  0.3406  0.6827  0.7768
  737TMC3     H10895   4.428   1.620  12.308  1.5584  0.0294  1.0769
  737TMC3    H110896   4.316   1.252  12.135  1.5216 -0.8680  1.7449
  737TMC3    H210897   4.618   1.481  11.946  0.4823  2.4322  0.8192
  737TMC3    C710898   4.501   1.247  11.964  0.5175 -0.0929  0.1454
  737TMC3    C810899   4.573   1.700  12.113 -0.6662 -0.2853 -0.0741
  737TMC3    O110900   4.482   1.141  12.021  0.0784 -0.5260  0.2041
  737TMC3    O210901   4.588   1.770  12.212 -0.6579  0.7951 -0.2597
  738MPD2     C10902   0.283   0.784  15.366 -0.8793 -0.5931 -0.8219
  738MPD2    C110903   0.295   0.663  15.301 -0.9801 -0.3896 -0.1030
  738MPD2    C210904   0.345   0.657  15.174  0.0621 -0.0647 -0.5288
  738MPD2    C310905   0.407   0.771  15.123  1.1847 -0.6591  0.2946
  738MPD2    C410906   0.404   0.896  15.192 -0.1196 -0.1953 -0.7964
  738MPD2    C510907   0.326   0.902  15.306 -0.1447  1.0695  0.0756
  738MPD2     H10908   0.341   0.564  15.119  0.6451 -0.2294 -0.2964
  738MPD2    H110909   0.444   0.986  15.148  0.8503 -0.1829  0.1008
  738MPD2    H210910   0.232   0.795  15.462 -0.0878 -0.1114 -0.4550
  738MPD2    H310911   0.320   0.988  15.371  2.3781  1.4675 -0.2021
  738MPD2     N10912   0.478   0.779  15.004 -0.0204 -0.1505  0.1822
  738MPD2    H510913   0.508   0.873  14.981  0.5779  0.4936  3.6374
  738MPD2    N110914   0.237   0.543  15.359  0.7218 -0.1068 -0.2974
  738MPD2    H710915   0.236   0.467  15.292  1.4125  1.7454 -2.4166
  739TMC3    C110916   0.502   0.733  14.781  0.0700 -0.5840 -0.5587
  739TMC3    C210917   0.429   0.655  14.698  0.0243 -0.4750 -0.1546
  739TMC3    C310918   0.337   0.716  14.617  0.3308 -0.0618  0.3330
  739TMC3    C410919   0.497   0.868  14.777 -0.0126  0.0319 -0.8869
  739TMC3    C510920   0.396   0.923  14.703 -0.0062  0.4249 -0.3604
  739TMC3    C610921   0.309   0.854  14.622 -0.6138  0.6482  0.1509
  739TMC3     C10922   0.484   0.679  14.912 -0.5256 -0.2295  0.2656
  739TMC3     O10923   0.457   0.561  14.927 -0.1872 -0.0810 -0.1741
  739TMC3     H10924   0.460   0.551  14.694  1.3692 -0.1643  2.2692
  739TMC3    H110925   0.557   0.937  14.836  0.4017 -2.2840  1.4215
  739TMC3    H210926   0.235   0.897  14.556  0.4025 -0.9994 -2.0706
  739TMC3    C710927   0.377   1.072  14.701 -0.0530 -0.4463 -0.1635
  739TMC3    C810928   0.263   0.638  14.524  0.0855  0.0394 -0.6206
  739TMC3    O110929   0.477   1.141  14.723 -0.2947  0.3588 -0.5751
  739TMC3    O210930   0.152   0.686  14.513 -0.1811  0.0942 -0.7023
  740TMC3    C110931   1.025   2.124  14.265 -0.7726  0.6404 -0.1476
  740TMC3    C210932   1.091   2.108  14.388 -0.5343  0.6190  0.2178
  740TMC3    C310933   1.217   2.072  14.387  0.4575  0.1157 -0.2545
  740TMC3    C410934   1.088   2.120  14.143 -1.2467  0.2654  0.6840
  740TMC3    C510935   1.222   2.105  14.150 -0.2208  0.0840 -0.6035
  740TMC3    C610936   1.291   2.080  14.265  0.5990 -0.4944  0.7564
  740TMC3     C10937   0.880   2.153  14.267  0.8698 -0.5031  0.1125
  740TMC3     O10938   0.835   2.189  14.159 -0.0886  0.2190  0.9218
  740TMC3     H10939   1.031   2.120  14.477  1.5736  0.0248  1.7318
  740TMC3    H110940   1.037   2.118  14.047 -1.0510  0.1803  0.5821
  740TMC3    H210941   1.393   2.043  14.271  0.1110 -1.9415  0.2680
  740TMC3    C710942   1.299   2.071  14.030 -0.2460 -1.3177  0.2168
  740TMC3    C810943   1.289   2.035  14.503 -0.7718  0.1559  0.0123
  740TMC3    O110944   1.408   2.018  14.046 -0.8146  0.0976  0.4219
  740TMC3    O210945   1.408   2.061  14.494  0.1593 -0.0592 -0.5087
  741TMC3    C110946   0.261   1.513  13.982 -0.1551  0.6495  0.0714
  741TMC3    C210947   0.153   1.437  14.010  0.4639  0.1294  0.1210
  741TMC3    C310948   0.180   1.301  14.026 -0.5574 -0.6200 -0.2116
  741TMC3    C410949   0.391   1.465  13.981  0.1456  0.3478 -0.3610
  741TMC3    C510950   0.412   1.330  13.986  0.0384  0.0734  0.5245
  741TMC3    C610951   0.305   1.248  14.006 -0.1885 -0.4510  0.1794
  741TMC3     C10952   0.240   1.649  13.944 -1.1984  0.1875  0.5242
  741TMC3     O10953   0.126   1.673  13.903 -0.1203  0.4319 -0.5470
  741TMC3     H10954   0.054   1.481  14.008  1.3625  2.1799  0.4065
  741TMC3    H110955   0.472   1.517  13.932  1.5786 -0.5242  1.0718
  741TMC3    H210956   0.315   1.140  14.017 -2.7034 -0.6115  1.0078
  741TMC3    C710957   0.542   1.278  14.016 -0.1752 -0.6910 -0.5329
  741TMC3    C810958   0.060   1.217  14.011 -0.2392 -0.6885 -0.1022
  741TMC3    O110959   0.550   1.155  14.019  0.7724  0.6622 -0.3343
  741TMC3    O210960   4.675   1.263  14.046 -0.1713 -0.0624  0.9140
  742TMC3    C110961   0.025   4.591  15.347  0.1434 -0.2495 -0.0265
  742TMC3    C210962   4.642   4.548  15.271 -0.1850  0.0744  0.3019
  742TMC3    C310963   4.688   4.484  15.155 -0.3343  0.7036 -0.4461
  742TMC3    C410964   0.157   4.604  15.304 -0.5184 -0.9377 -0.1182
  742TMC3    C510965   0.187   4.539  15.184  0.3322  0.5247  0.6926
  742TMC3    C610966   0.091   4.486  15.109 -0.0576  0.3140 -0.3289
  742TMC3     C10967   4.716   4.630  15.486 -0.2922  0.5176  1.0183
  742TMC3     O10968   4.603   4.624  15.531 -0.1608  0.1958 -0.4627
  742TMC3     H10969   4.550   4.523  15.323 -0.5038  0.5362 -0.0486
  742TMC3    H110970   0.239   4.628  15.370 -2.1367  1.9651  0.8343
  742TMC3    H210971   0.109   4.470  15.004  1.4850 -0.2099  0.0234
  742TMC3    C710972   0.324   4.508  15.139 -0.2685 -0.6522 -0.3566
  742TMC3    C810973   4.591   4.442  15.055  0.5177  0.2381 -0.4621
  742TMC3    O110974   0.330   4.426  15.048  0.5719  0.2737 -0.0988
  742TMC3    O210975   4.630   4.369  14.963 -0.4540 -0.1087  0.0457
  743MPD2     C10976   2.583   0.458   1.953 -0.0269 -0.0656 -0.1160
  743MPD2    C110977   2.616   0.503   1.829 -0.5110 -0.1836 -0.5317
  743MPD2    C210978   2.706   0.431   1.750 -0.6250 -0.0704  0.2646
  743MPD2    C310979   2.751   0.309   1.791  0.1985  0.3430  0.3514
  743MPD2    C410980   2.711   0.252   1.915 -0.2983 -0.6669 -0.0786
  743MPD2    C510981   2.630   0.334   1.984  0.9127 -0.2499 -0.3931
  743MPD2     H10982   2.745   0.469   1.657 -1.0658 -1.0473 -0.3127
  743MPD2    H110983   2.731   0.154   1.958 -0.5508  0.4471  2.5372
  743MPD2    H210984   2.517   0.516   2.016 -1.3929 -0.3140 -1.3155
  743MPD2    H310985   2.595   0.295   2.079 -0.1148  0.5032 -0.4614
  743MPD2     N10986   2.840   0.240   1.701 -0.2021 -0.7373 -1.4465
  743MPD2    H510987   2.884   0.304   1.635 -0.3345  2.5428  1.6342
  743MPD2    N110988   2.566   0.638   1.793  0.2630 -0.3957 -0.2347
  743MPD2    H710989   2.508   0.678   1.867  0.7009 -1.6509  0.7908
  744TMC3    C110990   2.558   0.832   1.661  0.8344  0.1389 -0.5618
  744TMC3    C210991   2.537   0.908   1.772  0.9832 -0.4798  0.2098
  744TMC3    C310992   2.509   1.046   1.759 -0.0346 -0.1134  0.8847
  744TMC3    C410993   2.544   0.892   1.534  0.4317  0.0134 -0.7547
  744TMC3    C510994   2.500   1.018   1.528  0.2742 -0.5504  0.0562
  744TMC3    C610995   2.474   1.098   1.637 -0.1159 -0.2401 -0.0680
  744TMC3     C10996   2.583   0.691   1.671 -0.0365 -0.3219 -1.3053
  744TMC3     O10997   2.604   0.628   1.572 -0.3411 -0.0554  0.4416
  744TMC3     H10998   2.570   0.862   1.865 -2.1162 -1.3441  0.8825
  744TMC3    H110999   2.557   0.829   1.447  0.2080 -1.1054  0.0229
  744TMC3    H211000   2.450   1.203   1.628 -0.3927 -0.4861 -2.1736
  744TMC3    C711001   2.488   1.082   1.398  0.4179 -0.5179  0.4113
  744TMC3    C811002   2.525   1.142   1.872 -0.7172  0.3889  0.0978
  744TMC3    O111003   2.554   1.028   1.309 -0.0952  0.5230 -0.0511
  744TMC3    O211004   2.506   1.259   1.841  0.1292 -0.0390 -0.2708
  745TMC3    C111005   0.747   4.264  13.705  0.9299 -0.6427  0.1936
  745TMC3    C211006   0.641   4.235  13.796  0.5028  1.0212 -0.1473
  745TMC3    C311007   0.518   4.222  13.743 -0.2337 -0.2348 -0.5834
  745TMC3    C411008   0.728   4.261  13.572  0.0695  0.9507 -0.5961
  745TMC3    C511009   0.603   4.247  13.524 -0.6630 -0.0551 -0.7312
  745TMC3    C611010   0.494   4.233  13.612 -0.0581  0.0311 -0.6182
  745TMC3     C11011   0.822   4.384  13.736  0.2375  1.0398 -0.8170
  745TMC3     O11012   0.837   4.469  13.648 -0.3148  0.3443 -0.1366
  745TMC3     H11013   0.646   4.270  13.898 -1.3359  2.5459 -0.5767
  745TMC3    H111014   0.817   4.250  13.510  0.3345 -2.8434  0.4659
  745TMC3    H211015   0.391   4.216  13.582 -0.8334 -0.2947  2.2958
  745TMC3    C711016   0.575   4.326  13.404 -0.0582 -0.4666 -0.8609
  745TMC3    C811017   0.406   4.214  13.825 -0.4930  0.1043 -0.0682
  745TMC3    O111018   0.464   4.316  13.355  1.0718  0.3119  0.2768
  745TMC3    O211019   0.303   4.255  13.775  0.6103  0.4645 -0.1877
  746TMC3    C111020   3.111   1.264  10.765  0.8523  0.2045  0.1489
  746TMC3    C211021   3.200   1.273  10.660  0.1861 -0.2835  0.6239
  746TMC3    C311022   3.215   1.165  10.579  0.2714  0.6766  0.1700
  746TMC3    C411023   3.044   1.151  10.783 -0.0264 -0.9446  0.1345
  746TMC3    C511024   3.072   1.042  10.707  0.5152  0.2154 -0.7515
  746TMC3    C611025   3.148   1.052  10.599  0.9112 -0.2395  0.5355
  746TMC3     C11026   3.069   1.384  10.828  0.2692 -0.1695 -0.2905
  746TMC3     O11027   3.029   1.368  10.942  1.2156  0.0367  1.1208
  746TMC3     H11028   3.262   1.361  10.651  0.4208 -0.5776 -0.7014
  746TMC3    H111029   2.966   1.157  10.857  0.8159 -1.0299  1.0270
  746TMC3    H211030   3.158   0.974  10.525 -1.7970 -0.8769  0.8519
  746TMC3    C711031   2.995   0.918  10.716 -0.2559  0.0961  0.1135
  746TMC3    C811032   3.334   1.152  10.502  0.3155  0.0821  0.3069
  746TMC3    O111033   2.952   0.865  10.615 -0.0630  0.4444  0.3710
  746TMC3    O211034   3.381   1.038  10.500 -0.4361 -0.4544 -0.0788
  747TMC3    C111035   0.318   1.155  11.060  0.4934 -0.3464 -0.2134
  747TMC3    C211036   0.203   1.145  11.135  0.0379  0.6434  0.3633
  747TMC3    C311037   0.206   1.185  11.262  0.5149  0.2634 -1.0307
  747TMC3    C411038   0.434   1.205  11.112 -0.6177 -0.4814 -0.2158
  747TMC3    C511039   0.437   1.225  11.245 -1.0261  0.4399 -0.2328
  747TMC3    C611040   0.320   1.229  11.319 -0.4509  0.1823 -0.2052
  747TMC3     C11041   0.288   1.201  10.926  0.6869  0.0741 -0.9932
  747TMC3     O11042   0.185   1.267  10.925 -0.4173  0.0899  0.5071
  747TMC3     H11043   0.109   1.133  11.083 -0.4753  1.1039  1.1914
  747TMC3    H111044   0.522   1.216  11.049  0.2816  1.1056  1.3087
  747TMC3    H211045   0.325   1.240  11.427 -0.9745  1.3348 -0.2904
  747TMC3    C711046   0.566   1.270  11.295  0.1657  0.7176  0.1991
  747TMC3    C811047   0.145   1.102  11.357  0.1455 -0.5017  0.1500
  747TMC3    O111048   0.584   1.366  11.377 -0.2643 -0.0978  0.3190
  747TMC3    O211049   0.135   0.982  11.331 -0.3119 -0.5461  0.5435
  748MPD2     C11050   1.754   2.374   1.920  0.0067  0.0776  0.1098
  748MPD2    C111051   1.837   2.474   1.865  0.8301 -0.2544 -0.7565
  748MPD2    C211052   1.971   2.460   1.876 -0.2083 -0.0999 -0.0646
  748MPD2    C311053   2.024   2.341   1.930 -0.1735 -0.4218 -0.2933
  748MPD2    C411054   1.933   2.252   1.990 -0.4171  0.0433 -0.0325
  748MPD2    C511055   1.800   2.270   1.986  0.0851  0.2948  0.2614
  748MPD2     H11056   2.035   2.537   1.835  0.1003 -1.3211 -1.8570
  748MPD2    H111057   1.957   2.158   2.037 -2.7755 -0.4418  0.2328
  748MPD2    H211058   1.647   2.386   1.907  0.6307  1.4767 -3.7863
  748MPD2    H311059   1.736   2.190   2.021 -0.7597 -0.3699 -2.8214
  748MPD2     N11060   2.165   2.313   1.925 -0.8423  1.2380  0.6419
  748MPD2    H511061   2.216   2.390   1.885  0.2804 -0.6348 -1.4996
  748MPD2    N111062   1.768   2.589   1.807 -0.3253  0.3264 -0.1908
  748MPD2    H711063   1.668   2.579   1.797  0.0197 -0.1401 -3.3140
  749TMC3    C111064   2.376   2.217   1.937  0.4647  0.0798  0.3878
  749TMC3    C211065   2.460   2.139   2.014  0.0205 -0.4674  0.2642
  749TMC3    C311066   2.557   2.070   1.954 -0.0039 -0.3336 -0.5007
  749TMC3    C411067   2.392   2.215   1.805  0.4359  0.7147 -0.6017
  749TMC3    C511068   2.493   2.131   1.749  0.4325 -0.1823  0.1113
  749TMC3    C611069   2.580   2.065   1.822 -0.1162  0.4079 -0.2145
  749TMC3     C11070   2.236   2.212   1.974 -1.0310  0.3713  0.4801
  749TMC3     O11071   2.202   2.107   2.030  0.0277 -0.0860 -0.1175
  749TMC3     H11072   2.443   2.126   2.121  1.4840  1.0854  0.6770
  749TMC3    H111073   2.320   2.265   1.741  0.2634  0.1340 -0.8520
  749TMC3    H211074   2.663   2.018   1.770  1.0988  1.6277  0.6186
  749TMC3    C711075   2.505   2.136   1.606 -0.2360 -0.2357 -0.0304
  749TMC3    C811076   2.647   1.996   2.046  0.6018 -0.0970  0.2530
  749TMC3    O111077   2.452   2.236   1.561 -0.1009  0.1697  0.8619
  749TMC3    O211078   2.632   2.003   2.168 -0.4225  0.4892 -0.5433
  750MPD2     C11079   3.222   3.231  11.046 -1.2035 -0.0291 -0.2177
  750MPD2    C111080   3.096   3.208  11.008  0.2594  0.4062 -0.3120
  750MPD2    C211081   3.064   3.101  10.926  0.4316 -0.0087 -0.1232
  750MPD2    C311082   3.162   3.033  10.864 -0.7602 -0.5023  0.1297
  750MPD2    C411083   3.292   3.063  10.900 -0.2065 -0.3762  0.5780
  750MPD2    C511084   3.322   3.154  10.992  0.3371  0.1500 -0.4202
  750MPD2     H11085   2.958   3.089  10.910  1.0874 -3.4714 -1.9475
  750MPD2    H111086   3.370   3.002  10.855 -2.2293 -2.3741 -0.2658
  750MPD2    H211087   3.259   3.296  11.124 -0.7361  1.6307 -1.8415
  750MPD2    H311088   3.428   3.164  11.013  0.4295  2.0124 -1.7540
  750MPD2     N11089   3.145   2.925  10.777  0.4282 -0.1332 -0.1696
  750MPD2    H511090   3.220   2.857  10.772  1.1081  0.6514 -0.5317
  750MPD2    N111091   3.004   3.299  11.060 -0.6184 -0.6743  0.1902
  750MPD2    H711092   3.040   3.381  11.108 -1.2431 -1.2573  1.6362
  751TMC3    C111093   3.039   2.740  10.668  0.7243  0.0262 -0.8890
  751TMC3    C211094   2.930   2.656  10.656 -0.4343  0.0234 -0.2928
  751TMC3    C311095   2.925   2.541  10.587  0.4510 -0.2027  0.6223
  751TMC3    C411096   3.160   2.693  10.624 -0.7494  0.7097 -0.5276
  751TMC3    C511097   3.156   2.568  10.571  0.0266 -0.1222  0.7462
  751TMC3    C611098   3.041   2.495  10.536 -0.1474  0.3021  0.3998
  751TMC3     C11099   3.023   2.881  10.725 -0.2631 -0.5071  0.3249
  751TMC3     O11100   2.910   2.924  10.742  0.0248 -0.0890 -0.1514
  751TMC3     H11101   2.837   2.692  10.697 -0.6894 -0.1088 -0.7574
  751TMC3    H111102   3.257   2.742  10.627 -0.8357  0.8230  0.4534
  751TMC3    H211103   3.044   2.405  10.475  0.5808 -0.2010  1.1632
  751TMC3    C711104   3.289   2.505  10.537 -0.5030  0.0119  0.0243
  751TMC3    C811105   2.811   2.461  10.568  1.4339 -0.6903 -0.3879
  751TMC3    O111106   3.393   2.570  10.523  0.4521  0.1011  0.2340
  751TMC3    O211107   2.809   2.394  10.465 -0.3894 -0.1931  0.3545
  752TMC3    C111108   1.707   2.903  17.187  0.1750 -0.1988  0.3336
  752TMC3    C211109   1.725   2.772  17.219 -0.3684  0.4337  0.2028
  752TMC3    C311110   1.663   2.733  17.330 -0.4190  0.2401 -0.2025
  752TMC3    C411111   1.641   2.997  17.267  0.7432  0.2590  0.3585
  752TMC3    C511112   1.585   2.945  17.379  0.1384  0.2934 -0.3288
  752TMC3    C611113   1.589   2.812  17.411  0.1069  0.5191  1.5126
  752TMC3     C11114   1.734   2.948  17.051  0.3198  0.3022 -0.4618
  752TMC3     O11115   1.819   2.893  16.987 -0.3710 -0.0271  0.0601
  752TMC3     H11116   1.780   2.719  17.142 -2.1430 -1.5119  0.2823
  752TMC3    H111117   1.642   3.104  17.251  1.6500  0.3476  0.9803
  752TMC3    H211118   1.543   2.763  17.496 -2.0513 -0.0685 -0.0129
  752TMC3    C711119   1.499   3.037  17.449 -0.5920  0.3314 -0.2636
  752TMC3    C811120   1.699   2.603  17.380  0.7297  0.3924  0.5391
  752TMC3    O111121   1.479   3.141  17.386 -0.7347 -0.1007  0.0890
  752TMC3    O211122   1.709   2.589  17.499  0.1701 -0.0609 -0.3934
  753TMC3    C111123   4.080   4.470  13.472 -0.2308  0.4133  0.0027
  753TMC3    C211124   4.130   4.403  13.582  0.3789 -0.1259 -0.2376
  753TMC3    C311125   4.105   4.269  13.595 -0.4172  0.3089 -0.5728
  753TMC3    C411126   4.007   4.412  13.375 -0.1483  0.3803 -0.2333
  753TMC3    C511127   3.988   4.273  13.390  0.2768  0.0158 -0.3721
  753TMC3    C611128   4.035   4.198  13.499 -0.2038  0.1946 -0.5948
  753TMC3     C11129   3.992   4.577  13.521 -0.0450 -0.1474  0.3450
  753TMC3     O11130   3.883   4.586  13.466 -0.0255 -0.7431 -0.0054
  753TMC3     H11131   4.182   4.462  13.656 -2.0038 -0.7958  1.9584
  753TMC3    H111132   3.967   4.470  13.292 -1.3072  0.2290  0.2257
  753TMC3    H211133   4.022   4.092  13.515  0.8589  0.1837  0.2026
  753TMC3    C711134   3.869   4.228  13.321  0.1280 -0.1751  0.3879
  753TMC3    C811135   4.051   4.230  13.729  0.1857  0.3316  0.3297
  753TMC3    O111136   3.832   4.316  13.241  0.0598 -0.3946  0.2158
  753TMC3    O211137   3.943   4.173  13.720  0.5162  0.4072  0.1125
  754MPD2     C11138   2.673   2.963  12.570 -0.4502  0.0911  0.4620
  754MPD2    C111139   2.617   2.842  12.562  0.6964  0.4852 -0.5225
  754MPD2    C211140   2.484   2.828  12.602 -0.7895  0.1843 -0.5085
  754MPD2    C311141   2.416   2.932  12.672 -0.8297 -0.1281  0.9409
  754MPD2    C411142   2.474   3.054  12.674 -0.1521  0.3438 -0.3242
  754MPD2    C511143   2.603   3.071  12.624 -0.0029  0.5719  0.4241
  754MPD2     H11144   2.434   2.734  12.582 -3.1083  1.6228 -1.3774
  754MPD2    H111145   2.416   3.141  12.704  0.7155  0.2847  1.5117
  754MPD2    H211146   2.776   2.972  12.538 -0.7471 -0.1936 -0.5494
  754MPD2    H311147   2.647   3.170  12.614 -0.6653  0.6516 -1.5989
  754MPD2     N11148   2.289   2.918  12.736 -0.2040 -0.0128  0.2697
  754MPD2    H511149   2.241   3.002  12.767  0.0378 -0.4279  1.7717
  754MPD2    N111150   2.703   2.736  12.515 -0.2836  0.0074  0.9122
  754MPD2    H711151   2.786   2.769  12.466 -1.3510  0.1005 -0.8607
  755MPD2     C11152   1.800   3.554  13.069  0.0580 -0.7277 -0.6031
  755MPD2    C111153   1.710   3.457  13.034  0.1560 -0.0159  0.1248
  755MPD2    C211154   1.744   3.335  12.988  0.8474  0.4230  0.8501
  755MPD2    C311155   1.878   3.302  12.981 -0.2462 -0.1650  0.4267
  755MPD2    C411156   1.971   3.394  13.016  0.0137  0.2222  0.1244
  755MPD2    C511157   1.932   3.522  13.061 -0.5767  0.2023  0.7822
  755MPD2     H11158   1.661   3.270  12.964  1.2885  0.9319 -2.0074
  755MPD2    H111159   2.077   3.378  13.006 -0.2405 -1.2067 -0.2480
  755MPD2    H211160   1.761   3.649  13.105 -0.0985 -2.4628  3.7950
  755MPD2    H311161   2.002   3.602  13.085 -0.3966  0.5841 -0.9827
  755MPD2     N11162   1.921   3.169  12.942  0.3443 -0.5346 -0.2971
  755MPD2    H511163   2.020   3.150  12.960  0.2896 -1.8728 -1.3937
  755MPD2    N111164   1.569   3.480  13.041  0.2005 -0.1614  0.3713
  755MPD2    H711165   1.510   3.399  13.022 -1.6856  0.9562  1.4814
  756MPD2     C11166   2.195   3.479   9.188 -0.1310 -0.9002  0.0132
  756MPD2    C111167   2.170   3.363   9.257 -0.0582 -0.5640  0.1219
  756MPD2    C211168   2.038   3.328   9.296  0.9497 -0.0374 -0.9889
  756MPD2    C311169   1.936   3.417   9.279 -0.6592 -0.3548  0.6917
  756MPD2    C411170   1.958   3.529   9.201  0.0624  0.3579 -0.2994
  756MPD2    C511171   2.080   3.549   9.148  0.6351  0.3275 -0.0587
  756MPD2     H11172   2.023   3.236   9.352 -1.8974  0.3114 -1.1848
  756MPD2    H111173   1.884   3.604   9.178  0.1714  0.4214 -0.4391
  756MPD2    H211174   2.289   3.518   9.151 -1.1202  0.3075 -1.2421
  756MPD2    H311175   2.102   3.638   9.090  0.5798 -1.4078 -2.7411
  756MPD2     N11176   1.806   3.393   9.337  0.0175 -0.4659  0.2347
  756MPD2    H511177   1.800   3.311   9.398  0.6698 -0.6889 -0.0057
  756MPD2    N111178   2.273   3.282   9.309  0.2068  0.1530 -0.3109
  756MPD2    H711179   2.249   3.204   9.369  0.1256 -1.0867 -1.9425
  757MPD2     C11180   1.664   2.812   9.902  0.2916  0.3964 -0.3014
  757MPD2    C111181   1.745   2.832   9.789 -0.2639  0.1466 -0.1980
  757MPD2    C211182   1.720   2.943   9.716 -0.1117  0.1494 -0.2848
  757MPD2    C311183   1.617   3.035   9.761 -0.4021 -0.0693  0.3989
  757MPD2    C411184   1.549   3.021   9.882 -0.3897  0.0020 -0.1781
  757MPD2    C511185   1.570   2.905   9.953 -0.5009 -0.2227 -0.0410
  757MPD2     H11186   1.776   2.960   9.625  1.0963  0.3336  0.4996
  757MPD2    H111187   1.476   3.089   9.924  2.6535  2.9739  0.3040
  757MPD2    H211188   1.686   2.719   9.953  0.2010  0.8667  0.5985
  757MPD2    H311189   1.521   2.884  10.047 -3.4776  0.7939 -1.3797
  757MPD2     N11190   1.596   3.136   9.664 -0.0138 -0.0507 -0.2051
  757MPD2    H511191   1.657   3.141   9.583  0.4590 -1.3445  0.0666
  757MPD2    N111192   1.839   2.735   9.770  0.5031 -0.0799  0.4012
  757MPD2    H711193   1.841   2.661   9.839  0.1880 -0.3460  0.1263
  758MPD2     C11194   2.080   2.321  16.066  0.3362  0.0173  0.2020
  758MPD2    C111195   2.218   2.324  16.051  0.0128  0.8413  0.0820
  758MPD2    C211196   2.291   2.412  16.126  0.0318  0.4246  0.0478
  758MPD2    C311197   2.230   2.515  16.197  0.4023 -0.2561 -0.1626
  758MPD2    C411198   2.093   2.525  16.199  0.7367  0.0988 -0.6582
  758MPD2    C511199   2.017   2.429  16.134 -0.2870  0.1109 -0.1390
  758MPD2     H11200   2.397   2.397  16.136 -0.0671  1.9641  3.7786
  758MPD2    H111201   2.044   2.608  16.249 -0.9080 -1.0610 -0.3022
  758MPD2    H211202   2.021   2.249  16.010 -1.3907  1.3181  0.3175
  758MPD2    H311203   1.909   2.442  16.136 -0.1744  0.9978 -0.0977
  758MPD2     N11204   2.297   2.604  16.281  0.8908 -0.4920 -0.0248
  758MPD2    H511205   2.235   2.660  16.338 -0.1386 -1.0907 -0.5674
  758MPD2    N111206   2.282   2.213  15.988  0.1266  0.4603 -0.0985
  758MPD2    H711207   2.233   2.132  15.953  1.9209  0.5074 -2.7671
  759MPD2     C11208   1.282   1.223  10.313 -0.1571 -0.0860 -0.2599
  759MPD2    C111209   1.228   1.132  10.223  0.8471 -0.1323  0.0866
  759MPD2    C211210   1.237   1.161  10.091  0.0623 -0.1737  0.1090
  759MPD2    C311211   1.314   1.269  10.041 -0.0759  0.4171  0.3925
  759MPD2    C411212   1.369   1.361  10.134  0.6576 -0.7592  0.3928
  759MPD2    C511213   1.362   1.330  10.268 -1.1107 -0.0748 -0.2926
  759MPD2     H11214   1.209   1.084  10.019  1.1236 -1.9007  1.5314
  759MPD2    H111215   1.425   1.446  10.097 -1.0242 -0.5583 -1.7093
  759MPD2    H211216   1.275   1.211  10.421 -0.0775  0.9891 -0.1294
  759MPD2    H311217   1.404   1.402  10.337  0.9394 -1.8724  0.3265
  759MPD2     N11218   1.352   1.267   9.906  0.1763  0.3558 -0.5355
  759MPD2    H511219   1.304   1.204   9.843 -0.7286  0.3944  0.1300
  759MPD2    N111220   1.172   1.005  10.260 -0.5050  0.4635 -0.8201
  759MPD2    H711221   1.126   0.964  10.179  1.3839  1.5341 -2.4484
  760MPD2     C11222   1.201   3.110  11.941  0.2859 -0.1307  0.5956
  760MPD2    C111223   1.335   3.140  11.920 -0.2189  0.7103  0.0067
  760MPD2    C211224   1.430   3.045  11.940 -0.3551 -0.1987  0.4558
  760MPD2    C311225   1.395   2.922  11.982 -0.4584 -0.1408  0.2564
  760MPD2    C411226   1.266   2.895  12.015 -0.2785 -0.0974  0.7912
  760MPD2    C511227   1.169   2.989  11.998  0.6942  0.7494  0.1755
  760MPD2     H11228   1.531   3.070  11.912  0.1179 -2.2085  0.3631
  760MPD2    H111229   1.235   2.801  12.060 -1.8903  1.2801  2.5906
  760MPD2    H211230   1.124   3.185  11.925  0.7755  0.5048  1.1912
  760MPD2    H311231   1.070   2.973  12.040  1.2818 -1.4251  0.7353
  760MPD2     N11232   1.509   2.840  11.992  0.3480 -0.0798  0.0891
  760MPD2    H511233   1.587   2.874  11.937 -0.4404 -0.7801 -1.4575
  760MPD2    N111234   1.376   3.272  11.881 -0.2850  0.7779 -0.5626
  760MPD2    H711235   1.476   3.285  11.867 -0.5288  1.3821 -1.7292
  761MPD2     C11236   2.588   2.060  10.819 -0.7930  0.7708 -0.4530
  761MPD2    C111237   2.649   2.067  10.696  0.1551  0.0676  0.0707
  761MPD2    C211238   2.706   2.189  10.658  0.1350 -0.2580  0.3043
  761MPD2    C311239   2.691   2.309  10.729 -0.3836  0.3958  0.2547
  761MPD2    C411240   2.629   2.298  10.849  0.1628 -0.5768 -0.1775
  761MPD2    C511241   2.577   2.174  10.892  0.1256  0.0092 -0.2107
  761MPD2     H11242   2.751   2.192  10.559 -0.5572  1.8234  0.0624
  761MPD2    H111243   2.612   2.384  10.912 -0.2480  1.4569 -3.0834
  761MPD2    H211244   2.562   1.966  10.866  0.5638 -0.1656 -1.5868
  761MPD2    H311245   2.529   2.167  10.988  0.6860  0.3666  0.0987
  761MPD2     N11246   2.750   2.435  10.695  0.0313 -0.5124  0.6530
  761MPD2    H511247   2.762   2.505  10.767  2.4039  0.0184 -0.2376
  761MPD2    N111248   2.662   1.944  10.623 -0.0317  0.1019  0.5402
  761MPD2    H711249   2.600   1.870  10.654 -1.4417  1.9226  2.0363
  762MPD2     C11250   3.120   2.090  10.268  0.1399 -0.3863  0.1655
  762MPD2    C111251   3.127   1.961  10.226  0.2195  0.2855  0.1295
  762MPD2    C211252   3.242   1.908  10.176  0.5923 -0.4151 -0.0036
  762MPD2    C311253   3.356   1.984  10.162  0.0706 -0.1005 -0.1337
  762MPD2    C411254   3.346   2.119  10.192  0.3239 -0.1185  0.1273
  762MPD2    C511255   3.225   2.166  10.234  0.3563  0.0647  0.2427
  762MPD2     H11256   3.245   1.804  10.145 -2.8134 -0.4284 -0.2452
  762MPD2    H111257   3.429   2.188  10.192  1.0674 -1.0192 -0.4351
  762MPD2    H211258   3.041   2.134  10.328 -0.9230 -0.3682 -1.2331
  762MPD2    H311259   3.234   2.270  10.264 -0.8316  0.3694 -0.5035
  762MPD2     N11260   3.484   1.931  10.129  0.2231 -0.3843 -0.0899
  762MPD2    H511261   3.490   1.831  10.113  0.3377 -0.5902  1.2625
  762MPD2    N111262   3.012   1.888  10.254 -0.2193 -0.4159  0.1651
  762MPD2    H711263   2.949   1.932  10.321  3.0194  2.1188  1.5068
  763MPD2     C11264   4.576   2.586  16.235  0.0470  0.3637  0.3322
  763MPD2    C111265   4.504   2.692  16.175  0.0251  1.0059 -0.4422
  763MPD2    C211266   4.484   2.808  16.247 -0.8851 -0.4873  0.1793
  763MPD2    C311267   4.556   2.824  16.369  0.9144 -0.2764  0.0827
  763MPD2    C411268   4.632   2.721  16.417 -0.5409 -0.2767 -0.5534
  763MPD2    C511269   4.634   2.603  16.354  0.0621  0.0488  0.4143
  763MPD2     H11270   4.411   2.878  16.210 -0.2431  0.6309  1.0543
  763MPD2    H111271   4.681   2.735  16.513 -2.6690 -2.5189  0.8727
  763MPD2    H211272   4.605   2.498  16.180 -1.4631  2.4322 -3.7609
  763MPD2    H311273   4.712   2.533  16.382 -0.0080 -0.5242 -0.8346
  763MPD2     N11274   4.528   2.934  16.460  0.0905  0.2819 -0.1814
  763MPD2    H511275   4.586   2.941  16.543 -0.4628  1.9512  0.0682
  763MPD2    N111276   4.457   2.693  16.044  0.2529 -0.3420  0.5587
  763MPD2    H711277   4.426   2.778  16.000  4.8515  1.0367 -0.0327
  764MPD2     C11278   2.119   4.133  17.252  0.0469 -0.4332 -0.2838
  764MPD2    C111279   2.044   4.015  17.257  0.2080 -0.3592  0.6311
  764MPD2    C211280   2.018   3.957  17.379  0.3950 -0.0228  0.2707
  764MPD2    C311281   2.076   4.014  17.490  0.1267  0.8414  0.3258
  764MPD2    C411282   2.156   4.127  17.480  0.6046  0.8569  0.5892
  764MPD2    C511283   2.175   4.190  17.360  0.4446  0.4823  0.3252
  764MPD2     H11284   1.941   3.882  17.392 -1.3450  1.7780  0.3033
  764MPD2    H111285   2.215   4.168  17.562  2.0815 -2.3102  1.0925
  764MPD2    H211286   2.136   4.192  17.163 -1.4378  1.2143  0.5184
  764MPD2    H311287   2.230   4.282  17.354 -0.4669  1.1596  2.2055
  764MPD2     N11288   2.045   3.954  17.620  0.0821 -0.0457  1.1603
  764MPD2    H511289   2.002   3.863  17.622  0.3794 -0.2226 -0.8483
  764MPD2    N111290   1.971   3.961  17.152  0.1033 -0.1566 -0.1861
  764MPD2    H711291   1.912   3.880  17.159  0.1996 -0.0898  1.2435
  765MPD2     C11292   2.128   1.852  15.535 -0.7902 -0.3429 -0.1428
  765MPD2    C111293   2.213   1.951  15.577  0.3225 -0.4804 -0.2606
  765MPD2    C211294   2.350   1.939  15.558  0.6491 -0.4864  0.9856
  765MPD2    C311295   2.404   1.835  15.493  0.0609  0.3474 -0.3013
  765MPD2    C411296   2.321   1.729  15.454  0.1208 -0.3472 -0.5705
  765MPD2    C511297   2.184   1.738  15.474  0.6981  0.3262  0.3622
  765MPD2     H11298   2.418   2.020  15.582  0.6643  0.3388 -1.9115
  765MPD2    H111299   2.353   1.633  15.417 -0.8020 -0.5332 -0.8873
  765MPD2    H211300   2.025   1.858  15.568 -0.1845 -1.6691  2.0226
  765MPD2    H311301   2.122   1.653  15.448 -0.1171  0.6393  1.2880
  765MPD2     N11302   2.546   1.833  15.487 -0.1536  0.0980  0.4580
  765MPD2    H511303   2.602   1.905  15.531  0.8405  0.7281 -1.8388
  765MPD2    N111304   2.144   2.073  15.629 -0.2094 -0.5478 -0.3888
  765MPD2    H711305   2.043   2.068  15.643  0.1254 -2.3973  1.4608
  766MPD2     C11306   1.663   2.288  15.254 -0.1696  0.2174 -0.0524
  766MPD2    C111307   1.804   2.278  15.254 -0.9917 -0.3491 -0.1467
  766MPD2    C211308   1.859   2.234  15.135  0.6611  0.1900 -0.4706
  766MPD2    C311309   1.787   2.190  15.027 -0.1589 -0.9770  0.1330
  766MPD2    C411310   1.648   2.188  15.033 -0.3121 -0.7715  0.4150
  766MPD2    C511311   1.589   2.240  15.146  0.0877  0.3882  0.1652
  766MPD2     H11312   1.966   2.225  15.149  0.3526  0.4196  1.9778
  766MPD2    H111313   1.580   2.153  14.956  0.0364  0.8863 -0.6326
  766MPD2    H211314   1.604   2.313  15.342  0.9346  0.0549  0.7394
  766MPD2    H311315   1.482   2.225  15.160 -0.0755  0.3111 -1.2353
  766MPD2     N11316   1.847   2.151  14.909 -0.0848 -0.0251  0.3677
  766MPD2    H511317   1.788   2.135  14.827 -0.4528 -0.0771  0.6429
  766MPD2    N111318   1.884   2.329  15.356 -0.1003 -0.0961 -0.7822
  766MPD2    H711319   1.979   2.297  15.343 -0.3737 -0.5345 -1.7115
  767MPD2     C11320   1.514   2.481  14.910 -0.2070  0.0502 -0.3371
  767MPD2    C111321   1.640   2.474  14.857  0.1589 -0.6534 -0.2160
  767MPD2    C211322   1.655   2.434  14.728  0.4062  0.2976 -0.5881
  767MPD2    C311323   1.540   2.404  14.648  0.5022  0.9391  0.2730
  767MPD2    C411324   1.415   2.403  14.712  0.0544 -0.0548 -0.0293
  767MPD2    C511325   1.403   2.442  14.839  0.8026  0.4748 -0.1185
  767MPD2     H11326   1.747   2.453  14.673  0.8857 -1.5688 -0.4306
  767MPD2    H111327   1.327   2.377  14.655 -1.7213 -0.1990  2.8018
  767MPD2    H211328   1.490   2.499  15.014  0.7523  0.7681 -0.2455
  767MPD2    H311329   1.304   2.452  14.882  0.3255 -2.8540 -0.4896
  767MPD2     N11330   1.563   2.374  14.509 -0.2785  0.6055 -0.2460
  767MPD2    H511331   1.660   2.360  14.484 -1.0227  0.7114 -3.2646
  767MPD2    N111332   1.748   2.524  14.933  0.6016  0.0242 -0.4644
  767MPD2    H711333   1.722   2.548  15.028  2.6047  3.5005 -0.8245
  768MPD2     C11334   2.953   0.615  10.288 -0.0090  0.4846  0.7858
  768MPD2    C111335   2.940   0.538  10.401  0.2939  0.0266 -0.1003
  768MPD2    C211336   3.022   0.542  10.506 -0.4226  0.5825  0.6712
  768MPD2    C311337   3.137   0.621  10.497 -0.8961  0.2855  0.0970
  768MPD2    C411338   3.150   0.701  10.381 -0.1226 -0.1663 -0.1312
  768MPD2    C511339   3.060   0.701  10.276 -0.0266 -0.7604  0.5314
  768MPD2     H11340   3.004   0.477  10.591 -0.7515 -3.1675 -2.2375
  768MPD2    H111341   3.233   0.770  10.369  0.3280 -0.6234  0.3501
  768MPD2    H211342   2.891   0.589  10.202 -0.3321 -0.9800  1.4576
  768MPD2    H311343   3.065   0.762  10.187 -2.0236 -0.2203  0.7986
  768MPD2     N11344   3.227   0.635  10.603  0.2800 -0.5553  0.1219
  768MPD2    H511345   3.311   0.690  10.589  0.8199 -0.8268  2.2025
  768MPD2    N111346   2.838   0.445  10.417  0.2495 -0.9532  0.5272
  768MPD2    H711347   2.855   0.389  10.499  0.0519 -0.9567  0.5666
  769MPD2     C11348   3.701   3.637  14.899 -0.3492 -0.0223  0.2331
  769MPD2    C111349   3.632   3.557  14.987 -0.0630 -0.0205  0.0306
  769MPD2    C211350   3.642   3.582  15.121 -0.0896  0.2349 -0.4465
  769MPD2    C311351   3.722   3.691  15.167 -0.1424 -0.3720 -0.2355
  769MPD2    C411352   3.783   3.776  15.079  0.5646  0.4153 -0.6062
  769MPD2    C511353   3.769   3.744  14.948  0.6646  0.1898 -0.3901
  769MPD2     H11354   3.588   3.526  15.197  2.0001 -2.6914 -1.1184
  769MPD2    H111355   3.834   3.867  15.108 -0.0612  0.9394 -1.1657
  769MPD2    H211356   3.702   3.626  14.791  0.8445 -1.0651  0.3464
  769MPD2    H311357   3.822   3.811  14.881  0.2854  0.3625 -0.5151
  769MPD2     N11358   3.722   3.709  15.303  0.4911 -0.2641 -0.6210
  769MPD2    H511359   3.668   3.648  15.362  4.0413 -1.4523  1.4297
  769MPD2    N111360   3.568   3.445  14.932  0.2387 -0.0741  0.3394
  769MPD2    H711361   3.603   3.412  14.842 -0.5402  0.6823 -0.2355
  770MPD2     C11362   3.340   2.404  15.191  1.0556 -0.4533 -0.7163
  770MPD2    C111363   3.272   2.419  15.076  0.6347  0.9497  0.0456
  770MPD2    C211364   3.255   2.546  15.023 -0.7219 -0.1829  0.5021
  770MPD2    C311365   3.326   2.655  15.072 -0.0171  0.4516  0.1658
  770MPD2    C411366   3.403   2.638  15.185 -0.2177 -0.0808 -0.3098
  770MPD2    C511367   3.409   2.513  15.243  0.3219 -0.2851 -0.0548
  770MPD2     H11368   3.194   2.560  14.934 -0.8721 -0.7369  0.5170
  770MPD2    H111369   3.475   2.711  15.222  2.1840 -2.1436 -0.8723
  770MPD2    H211370   3.342   2.304  15.232  0.4250 -0.5558 -0.9473
  770MPD2    H311371   3.461   2.498  15.337  0.5892  1.2261  0.0407
  770MPD2     N11372   3.325   2.779  15.005 -0.0857  0.0473 -0.0195
  770MPD2    H511373   3.284   2.780  14.913 -0.8915  0.5887  0.3510
  770MPD2    N111374   3.203   2.305  15.036  0.1137  0.2814  0.0505
  770MPD2    H711375   3.222   2.223  15.093 -2.0858  0.6113  1.2420
  771MPD2     C11376   4.040   1.388  13.780  0.1854 -0.4146 -0.8767
  771MPD2    C111377   4.030   1.482  13.683 -0.5907 -0.1697  0.2662
  771MPD2    C211378   3.950   1.466  13.573 -0.4764  0.2522 -0.1811
  771MPD2    C311379   3.879   1.346  13.549 -0.0770 -0.8852  0.2129
  771MPD2    C411380   3.880   1.251  13.646  0.1653 -0.0152 -0.0788
  771MPD2    C511381   3.963   1.278  13.758 -0.9200 -0.3627  0.1929
  771MPD2     H11382   3.953   1.546  13.501 -3.0715  1.3342  0.9206
  771MPD2    H111383   3.834   1.153  13.646 -0.1949  0.1533 -0.4358
  771MPD2    H211384   4.107   1.393  13.865 -2.7673  0.5856  1.3777
  771MPD2    H311385   3.971   1.200  13.833 -2.3315  0.1533  0.8650
  771MPD2     N11386   3.827   1.322  13.424 -0.8595 -0.3539 -0.2201
  771MPD2    H511387   3.822   1.399  13.358  2.7515  1.7349  1.9554
  771MPD2    N111388   4.122   1.593  13.678 -0.3277 -0.2182  0.3118
  771MPD2    H711389   4.115   1.662  13.604 -1.7205  0.1579  0.7942
  772MPD2     C11390   3.774   2.084  14.001 -0.5536 -0.5735  0.1077
  772MPD2    C111391   3.812   1.988  13.912 -0.4039  0.1417 -0.6289
  772MPD2    C211392   3.710   1.910  13.859 -0.0541  0.8821 -0.4713
  772MPD2    C311393   3.577   1.937  13.878 -0.0822  0.1623  0.7811
  772MPD2    C411394   3.540   2.035  13.972 -1.1213  0.0737 -0.4081
  772MPD2    C511395   3.640   2.109  14.031 -0.0592 -0.1250  0.1127
  772MPD2     H11396   3.737   1.845  13.777 -1.1686  0.6232 -0.6279
  772MPD2    H111397   3.439   2.058  14.004 -0.7360  0.2244  0.7105
  772MPD2    H211398   3.846   2.143  14.057 -2.9370  2.6051 -0.1490
  772MPD2    H311399   3.611   2.189  14.098  0.6430 -0.2287  0.5459
  772MPD2     N11400   3.471   1.875  13.803  0.3380  0.2324 -0.9014
  772MPD2    H511401   3.376   1.895  13.834  0.0607 -1.8935 -0.3657
  772MPD2    N111402   3.941   1.956  13.884  0.1857  0.3852  0.7256
  772MPD2    H711403   3.954   1.889  13.809  0.3812  2.4790 -1.1283
  773MPD2     C11404   2.878   3.273   0.470 -0.5791 -0.9060 -0.0170
  773MPD2    C111405   2.939   3.199   0.379  0.0175 -0.2312 -0.5829
  773MPD2    C211406   3.021   3.095   0.413  0.3016  0.4765 -0.3878
  773MPD2    C311407   3.054   3.077   0.540  0.0908 -0.8963 -0.0761
  773MPD2    C411408   2.991   3.160   0.632 -0.0325 -0.1068 -0.4220
  773MPD2    C511409   2.902   3.259   0.600  0.3037 -0.2644  1.2269
  773MPD2     H11410   3.081   3.046   0.337 -0.0713 -0.9974  0.2625
  773MPD2    H111411   3.003   3.159   0.740  0.3117  1.4199 -0.4506
  773MPD2    H211412   2.796   3.343   0.460  2.0188  2.3164  0.8762
  773MPD2    H311413   2.872   3.325   0.681 -0.8628 -0.5002  0.9853
  773MPD2     N11414   3.153   2.985   0.576  0.3916  0.5273 -0.8218
  773MPD2    H511415   3.192   2.923   0.506 -1.2577 -0.5504 -0.7738
  773MPD2    N111416   2.923   3.223   0.239 -0.3881 -0.0917 -0.0210
  773MPD2    H711417   2.978   3.159   0.182 -1.7895 -1.3677  0.0488
  774MPD2     C11418   2.504   1.670  12.651 -0.5671  0.3990  0.2377
  774MPD2    C111419   2.444   1.730  12.759  0.3657 -0.0137 -0.4312
  774MPD2    C211420   2.432   1.871  12.747  0.2884 -0.6769  0.0548
  774MPD2    C311421   2.481   1.944  12.637  0.0254  0.1452  0.3401
  774MPD2    C411422   2.527   1.877  12.529 -0.2436 -0.0950 -0.0258
  774MPD2    C511423   2.541   1.737  12.535  0.2054 -0.3331 -0.3430
  774MPD2     H11424   2.395   1.922  12.835  0.6211 -1.0614  0.4172
  774MPD2    H111425   2.532   1.919  12.429  3.2532 -1.6590 -0.4931
  774MPD2    H211426   2.504   1.561  12.653  2.7495  0.3937 -0.6046
  774MPD2    H311427   2.553   1.682  12.443  0.6533 -0.3377 -0.2828
  774MPD2     N11428   2.462   2.079  12.636 -0.0419 -0.3824 -0.0886
  774MPD2    H511429   2.406   2.112  12.714 -0.9858 -0.6349 -0.6706
  774MPD2    N111430   2.419   1.660  12.878 -0.7310 -0.1110 -0.8561
  774MPD2    H711431   2.475   1.577  12.891 -0.4206  0.4713  1.5584
  775MPD2     C11432   4.009   3.427  15.931  0.4071 -0.3985  0.5717
  775MPD2    C111433   3.957   3.551  15.960  0.8645 -0.0343  0.7216
  775MPD2    C211434   4.045   3.661  15.959  0.0571 -0.5972  0.7265
  775MPD2    C311435   4.175   3.654  15.920  0.2587 -0.6883  0.8288
  775MPD2    C411436   4.223   3.537  15.868  0.0831  0.3478  0.0963
  775MPD2    C511437   4.139   3.425  15.873  0.3805  0.1002 -0.1319
  775MPD2     H11438   4.009   3.757  15.994  0.0247 -0.7694  1.1711
  775MPD2    H111439   4.327   3.530  15.838 -0.3087 -0.6124 -1.0350
  775MPD2    H211440   3.955   3.334  15.923  0.8515 -0.5353 -0.8973
  775MPD2    H311441   4.180   3.332  15.836 -1.4356 -1.7666  2.5609
  775MPD2     N11442   4.266   3.762  15.933  0.4227  0.6177  0.4514
  775MPD2    H511443   4.352   3.746  15.882  0.0626  0.0094  0.0302
  775MPD2    N111444   3.830   3.558  16.008  0.2698 -0.0852 -0.7402
  775MPD2    H711445   3.774   3.474  15.999 -2.8624  2.0248 -0.9566
  776MPD2     C11446   3.038   3.965  11.104  0.2717 -0.0085  0.1997
  776MPD2    C111447   3.066   3.872  11.210 -0.5693 -0.2075  0.8840
  776MPD2    C211448   3.176   3.901  11.287 -0.0163  0.5789 -0.1252
  776MPD2    C311449   3.257   4.015  11.271 -0.5159 -0.3043 -0.0912
  776MPD2    C411450   3.223   4.108  11.170 -0.4935 -0.3876  0.3155
  776MPD2    C511451   3.115   4.074  11.089 -0.0454  0.1440  0.0753
  776MPD2     H11452   3.210   3.824  11.356 -1.7532 -0.6604 -0.6301
  776MPD2    H111453   3.285   4.192  11.141 -2.1940  1.1994  1.2384
  776MPD2    H211454   2.948   3.956  11.045  1.5005 -0.6354 -1.5878
  776MPD2    H311455   3.084   4.150  11.018 -2.3995 -0.1448  0.7899
  776MPD2     N11456   3.386   4.024  11.332  0.2600  0.0413  0.0454
  776MPD2    H511457   3.444   4.104  11.307  1.4001 -0.8193 -0.0269
  776MPD2    N111458   2.975   3.768  11.230  0.3731  0.0672 -0.1530
  776MPD2    H711459   2.904   3.743  11.162 -1.2435  2.5056  0.6687
  777MPD2     C11460   3.347   1.410   0.982  0.2681 -0.0175  0.0407
  777MPD2    C111461   3.233   1.426   1.059 -0.4163  0.1185  0.4815
  777MPD2    C211462   3.110   1.423   0.995 -0.7582  0.4937 -0.0639
  777MPD2    C311463   3.102   1.411   0.861  0.3996  0.9023  0.4662
  777MPD2    C411464   3.218   1.400   0.786 -0.1675 -0.3391  0.9859
  777MPD2    C511465   3.337   1.403   0.848  0.9283 -0.0542 -0.3443
  777MPD2     H11466   3.023   1.418   1.059  0.2143 -0.6612  1.1881
  777MPD2    H111467   3.208   1.389   0.679 -0.7874  0.5864  0.9498
  777MPD2    H211468   3.446   1.413   1.025  0.8453  2.4924 -1.4376
  777MPD2    H311469   3.417   1.379   0.779  1.2649 -1.0499  0.3906
  777MPD2     N11470   2.971   1.394   0.805  0.8427  0.7832  0.5644
  777MPD2    H511471   2.889   1.399   0.865  0.8379  1.4218  0.5010
  777MPD2    N111472   3.260   1.443   1.194  0.0244 -0.2556  0.0556
  777MPD2    H711473   3.351   1.416   1.231 -0.5932 -1.2798  0.8402
  778MPD2     C11474   4.050   1.292  15.051  0.1250 -0.0617  1.1414
  778MPD2    C111475   4.000   1.220  14.942  0.0907 -0.2446 -0.3462
  778MPD2    C211476   4.081   1.222  14.828 -0.5968  0.3447 -0.0400
  778MPD2    C311477   4.205   1.295  14.820 -0.4251  0.0981  0.3036
  778MPD2    C411478   4.244   1.370  14.931 -0.2703  0.4734  0.2749
  778MPD2    C511479   4.168   1.367  15.045 -0.4142 -0.4701 -0.8748
  778MPD2     H11480   4.059   1.171  14.735 -2.2532  1.6087 -0.3526
  778MPD2    H111481   4.339   1.420  14.945  1.1612 -2.6852  1.8727
  778MPD2    H211482   3.992   1.307  15.141 -0.1171 -2.3188  1.3763
  778MPD2    H311483   4.191   1.415  15.140 -1.6453 -0.3318 -0.6380
  778MPD2     N11484   4.277   1.301  14.700 -0.3824  0.3962 -0.2237
  778MPD2    H511485   4.251   1.243  14.621 -0.4699  0.5292 -0.2913
  778MPD2    N111486   3.883   1.136  14.947 -0.1121 -0.2903 -0.2911
  778MPD2    H711487   3.849   1.085  14.866 -0.8422 -0.3563  0.0554
  779MPD2     C11488   3.989   0.401  14.634 -0.9121  0.3985 -0.1421
  779MPD2    C111489   4.035   0.358  14.510  0.3144  0.4342 -0.3054
  779MPD2    C211490   4.045   0.449  14.403 -0.2491  0.2093 -0.4605
  779MPD2    C311491   4.012   0.581  14.425 -0.2445 -0.2121 -0.1275
  779MPD2    C411492   3.968   0.620  14.551 -0.4588 -0.7102 -0.0580
  779MPD2    C511493   3.948   0.531  14.647 -0.2680  0.6841 -0.3774
  779MPD2     H11494   4.086   0.433  14.304 -1.8549 -2.8125 -0.6458
  779MPD2    H111495   3.934   0.721  14.570 -0.2747 -0.3756 -1.5105
  779MPD2    H211496   3.976   0.332  14.717 -1.8345 -0.0658 -0.6817
  779MPD2    H311497   3.893   0.562  14.735  1.7012  1.4016  0.5838
  779MPD2     N11498   4.005   0.677  14.319  0.0562 -0.2187 -0.1686
  779MPD2    H511499   4.023   0.637  14.227 -3.6446 -1.0268 -0.5544
  779MPD2    N111500   4.085   0.227  14.494  0.0828  0.0971 -0.3179
  779MPD2    H711501   4.136   0.214  14.406  0.9015 -0.7614  0.2771
  780MPD2     C11502   2.916   0.490   0.859  0.4610 -0.3697  0.0355
  780MPD2    C111503   2.905   0.406   0.759 -0.2665  0.3860 -0.4752
  780MPD2    C211504   3.001   0.397   0.668  0.1001 -0.2693 -0.0056
  780MPD2    C311505   3.117   0.480   0.662  0.1595 -1.0383  0.1134
  780MPD2    C411506   3.124   0.575   0.763  0.4822  0.7389 -0.0655
  780MPD2    C511507   3.031   0.568   0.863  0.3552  0.2937  0.2286
  780MPD2     H11508   2.998   0.312   0.600  0.5800 -0.7610  0.5861
  780MPD2    H111509   3.195   0.657   0.770  0.4300  0.9063 -1.3861
  780MPD2    H211510   2.839   0.500   0.936  1.6820 -3.1989  1.6506
  780MPD2    H311511   3.054   0.637   0.944 -0.8089  1.7735 -0.7110
  780MPD2     N11512   3.217   0.464   0.558  0.4716 -0.0004 -0.3291
  780MPD2    H511513   3.221   0.381   0.500  0.4024 -0.1841 -0.0677
  780MPD2    N111514   2.794   0.320   0.749 -0.0403  0.7460 -0.0785
  780MPD2    H711515   2.740   0.321   0.835 -0.8789 -0.0606 -0.5897
  781MPD2     C11516   0.536   1.699  11.977  0.8904  0.5148 -0.6102
  781MPD2    C111517   0.633   1.781  12.025  0.0984  0.5672 -0.3021
  781MPD2    C211518   0.752   1.798  11.957  0.0714 -0.2566  0.0260
  781MPD2    C311519   0.771   1.734  11.834  0.1156 -0.1977  0.2394
  781MPD2    C411520   0.670   1.666  11.778 -0.4264 -0.3952  0.2102
  781MPD2    C511521   0.558   1.651  11.846  0.6168 -0.0650  0.2136
  781MPD2     H11522   0.833   1.854  12.003 -0.3449  0.5315 -0.2135
  781MPD2    H111523   0.669   1.616  11.682  3.0254  1.2060 -0.6485
  781MPD2    H211524   0.437   1.678  12.015  0.0242  2.3906 -1.8314
  781MPD2    H311525   0.480   1.590  11.803  1.0439 -1.5840  1.5546
  781MPD2     N11526   0.897   1.733  11.768 -0.3346 -0.1550 -0.0602
  781MPD2    H511527   0.893   1.712  11.669 -1.5866 -0.8803  0.1422
  781MPD2    N111528   0.633   1.831  12.160 -0.2848  0.5575  0.2019
  781MPD2    H711529   0.709   1.893  12.184 -0.1787  0.7517 -0.6224
  782MPD2     C11530   3.699   2.650   9.879  0.3739  0.0019  0.0871
  782MPD2    C111531   3.771   2.660   9.997  0.3652  0.3523 -0.2996
  782MPD2    C211532   3.775   2.779  10.058  0.0401 -0.6169 -0.4100
  782MPD2    C311533   3.687   2.877  10.030 -0.1094 -0.1799  0.7850
  782MPD2    C411534   3.610   2.868   9.912 -0.1184 -0.1492 -0.1263
  782MPD2    C511535   3.618   2.752   9.838  0.6322  0.1631 -0.0176
  782MPD2     H11536   3.839   2.802  10.142 -1.1066 -1.1762  0.6224
  782MPD2    H111537   3.537   2.943   9.885 -1.3459  0.0138  3.6604
  782MPD2    H211538   3.694   2.558   9.821  0.8602  0.2476 -0.3402
  782MPD2    H311539   3.543   2.749   9.759  0.6077 -1.1650  0.0609
  782MPD2     N11540   3.686   2.972  10.128 -0.5577  0.4214  0.1207
  782MPD2    H511541   3.743   2.956  10.210  1.7200 -0.2620 -1.5895
  782MPD2    N111542   3.841   2.549  10.038  0.4772  0.1024  0.0797
  782MPD2    H711543   3.819   2.465   9.984 -2.6571  0.7541  0.3254
  783MPD2     C11544   3.355   2.149  10.559  0.0561 -0.1920 -1.0519
  783MPD2    C111545   3.383   2.275  10.519 -0.5151  0.2923 -1.3088
  783MPD2    C211546   3.504   2.309  10.466  0.3588 -0.2763 -0.8433
  783MPD2    C311547   3.601   2.212  10.467 -0.0635 -0.1872  0.7360
  783MPD2    C411548   3.573   2.082  10.510 -0.3085  0.2276  0.5363
  783MPD2    C511549   3.446   2.050  10.551  0.4944  0.3604  0.0224
  783MPD2     H11550   3.523   2.403  10.416 -3.1001  1.4728  1.1279
  783MPD2    H111551   3.657   2.015  10.525 -1.3160 -1.3240 -0.7598
  783MPD2    H211552   3.254   2.124  10.592  0.4767 -1.0364 -0.4276
  783MPD2    H311553   3.421   1.952  10.591 -2.1448  0.9920 -0.0890
  783MPD2     N11554   3.726   2.233  10.388 -0.4508 -0.2726 -0.4807
  783MPD2    H511555   3.735   2.323  10.344 -0.0258 -0.0328  0.0860
  783MPD2    N111556   3.272   2.365  10.540  0.2638  0.9033 -0.3396
  783MPD2    H711557   3.182   2.331  10.573  1.9509 -0.7218  2.5621
  784MPD2     C11558   1.118   2.944   0.579 -0.0737  0.6822 -0.3274
  784MPD2    C111559   1.115   3.058   0.655 -0.6636  0.0875  0.9304
  784MPD2    C211560   1.014   3.150   0.645 -0.2655  0.9354  0.0281
  784MPD2    C311561   0.909   3.136   0.559  0.1039 -0.5433 -0.6944
  784MPD2    C411562   0.914   3.026   0.474 -0.1181  0.0296  0.8164
  784MPD2    C511563   1.016   2.935   0.482 -0.2717  0.4600  0.3051
  784MPD2     H11564   1.026   3.235   0.712  1.6643  1.2597 -0.7069
  784MPD2    H111565   0.836   2.990   0.408 -2.3119  2.6961  1.9609
  784MPD2    H211566   1.190   2.863   0.578 -1.6856 -0.7528 -0.6283
  784MPD2    H311567   1.020   2.843   0.425  0.1045  0.6294  0.0588
  784MPD2     N11568   0.819   3.234   0.574 -0.2103  0.4508 -0.3501
  784MPD2    H511569   0.840   3.306   0.642  0.4968 -0.0285 -0.0650
  784MPD2    N111570   1.210   3.081   0.761  0.2310  0.3651 -0.1376
  784MPD2    H711571   1.205   3.177   0.794 -0.4619  0.5540 -0.7927
  785MPD2     C11572   1.212   1.416  11.013 -0.0135  0.2110 -0.0482
  785MPD2    C111573   1.161   1.502  11.114  0.0023  0.1317  0.0480
  785MPD2    C211574   1.018   1.517  11.122  0.1282  0.4231  0.2776
  785MPD2    C311575   0.936   1.435  11.046  0.0376 -0.2020  0.6021
  785MPD2    C411576   0.990   1.343  10.959  0.2278 -0.1550  0.4790
  785MPD2    C511577   1.126   1.340  10.943 -0.2987 -0.3513 -0.5763
  785MPD2     H11578   0.974   1.597  11.181 -0.3575 -0.8753  1.6805
  785MPD2    H111579   0.941   1.278  10.887 -1.1465  1.4678 -0.0638
  785MPD2    H211580   1.319   1.409  10.997 -0.1121 -2.7419  0.5350
  785MPD2    H311581   1.167   1.269  10.872  1.1735 -1.7166  1.6443
  785MPD2     N11582   0.801   1.465  11.046 -0.4041 -1.2111 -0.3923
  785MPD2    H511583   0.786   1.541  11.112 -0.2318 -1.0151 -0.5772
  785MPD2    N111584   1.253   1.580  11.193  0.2615 -0.5257 -0.0889
  785MPD2    H711585   1.351   1.563  11.174 -0.5417 -1.0249 -3.6552
  786MPD2     C11586   4.150   4.430  14.799 -0.5732  0.2413 -1.5145
  786MPD2    C111587   4.261   4.348  14.801  0.5129  0.4959  0.2176
  786MPD2    C211588   4.352   4.368  14.899  0.0595  1.1150 -0.2999
  786MPD2    C311589   4.346   4.465  14.991  0.6034  0.8706 -0.2278
  786MPD2    C411590   4.227   4.544  15.001  0.4876  0.3207  0.2735
  786MPD2    C511591   4.135   4.521  14.901 -0.3171 -0.4024  0.1024
  786MPD2     H11592   4.423   4.289  14.919  0.8365  1.5923 -1.1213
  786MPD2    H111593   4.206   4.617  15.078 -2.4697  1.6156 -1.7720
  786MPD2    H211594   4.073   4.415  14.724 -2.0442  1.4892 -0.2632
  786MPD2    H311595   4.042   4.577  14.900  0.0057  0.1384  0.5943
  786MPD2     N11596   4.458   4.496  15.074  0.7041 -0.1535 -0.0254
  786MPD2    H511597   4.443   4.559  15.152 -0.5247  0.4254 -0.7517
  786MPD2    N111598   4.276   4.234  14.712 -0.2360 -0.2906 -0.4522
  786MPD2    H711599   4.354   4.171  14.725  1.9134  2.0019 -2.3021
  787MPD2     C11600   4.627   3.818  14.917 -0.2012 -0.3935  0.4473
  787MPD2    C111601   4.620   3.784  14.784 -0.2286 -0.5338  0.6565
  787MPD2    C211602   4.681   3.666  14.736  0.3549 -0.4224  0.0399
  787MPD2    C311603   0.041   3.598  14.829 -0.3077 -0.7387 -0.2491
  787MPD2    C411604   0.051   3.631  14.963  0.0065  0.5170  0.1016
  787MPD2    C511605   4.700   3.740  15.004  0.1861  0.7650  0.3139
  787MPD2     H11606   4.679   3.648  14.629 -0.8150 -0.6118  0.0962
  787MPD2    H111607   0.107   3.573  15.037 -1.0527 -1.0486 -0.3205
  787MPD2    H211608   4.579   3.910  14.948  0.5696 -0.1688  0.9751
  787MPD2    H311609   4.702   3.749  15.112 -1.2143 -0.7193  0.4586
  787MPD2     N11610   0.111   3.485  14.780  0.7752  0.1966  0.6717
  787MPD2    H511611   0.101   3.464  14.681  1.5412  2.0050  0.2093
  787MPD2    N111612   4.536   3.867  14.713 -0.4647  0.1391  0.0733
  787MPD2    H711613   4.523   3.961  14.748  1.1814  1.2426 -2.3078
  788MPD2     C11614   2.086   2.740   0.997 -0.0835 -0.1880 -0.2267
  788MPD2    C111615   2.067   2.699   0.867 -0.2443  0.2508 -0.4728
  788MPD2    C211616   2.073   2.805   0.774 -0.2086 -0.1112 -0.1153
  788MPD2    C311617   2.096   2.938   0.799 -0.9279  0.3073 -0.2481
  788MPD2    C411618   2.116   2.968   0.935 -0.0333 -0.4711 -0.3228
  788MPD2    C511619   2.118   2.870   1.026 -0.6189 -0.7447  0.5954
  788MPD2     H11620   2.045   2.773   0.674  0.3508  0.0413 -0.3199
  788MPD2    H111621   2.117   3.071   0.967 -1.0299 -0.4183 -0.4464
  788MPD2    H211622   2.088   2.665   1.075 -0.0430 -0.7402 -0.7504
  788MPD2    H311623   2.131   2.895   1.130  0.8029 -1.7374  0.6588
  788MPD2     N11624   2.098   3.032   0.700 -0.9872  0.1355  0.2683
  788MPD2    H511625   2.074   3.128   0.725 -0.1116  0.2510  0.6755
  788MPD2    N111626   2.017   2.570   0.831 -0.3545 -0.2026 -0.3560
  788MPD2    H711627   2.003   2.551   0.732  1.2886  2.1670 -1.0433
  789MPD2     C11628   2.256   2.597  16.788 -0.5473 -0.1802 -0.0159
  789MPD2    C111629   2.177   2.558  16.688  0.9842 -0.9029 -0.2090
  789MPD2    C211630   2.052   2.607  16.668 -0.4542  0.2364 -0.0792
  789MPD2    C311631   1.997   2.699  16.758 -0.0048  0.0188  0.6077
  789MPD2    C411632   2.075   2.728  16.873  0.2849  0.1068  0.1279
  789MPD2    C511633   2.206   2.685  16.884 -0.3548  0.3921  0.8270
  789MPD2     H11634   1.994   2.578  16.582 -0.8724  1.5939 -0.2526
  789MPD2    H111635   2.042   2.797  16.950  0.1753 -1.1501  1.2006
  789MPD2    H211636   2.354   2.553  16.807 -0.6272 -0.8302 -1.0629
  789MPD2    H311637   2.263   2.719  16.970  0.7464 -0.6670  0.5071
  789MPD2     N11638   1.866   2.754  16.742 -0.5124 -0.3986 -0.0475
  789MPD2    H511639   1.827   2.809  16.819 -1.1474 -0.3098 -0.4264
  789MPD2    N111640   2.212   2.457  16.595  0.0085 -0.1141 -0.8399
  789MPD2    H711641   2.145   2.417  16.531 -1.1708  1.6231 -0.6849
  790MPD2     C11642   3.064   4.204  13.748  0.1488 -0.2354 -0.0047
  790MPD2    C111643   3.067   4.076  13.799 -0.1252  0.2064  0.1305
  790MPD2    C211644   3.049   3.970  13.710 -0.2002  0.6540 -0.1294
  790MPD2    C311645   3.033   3.995  13.577  0.7714 -0.6280  0.5216
  790MPD2    C411646   3.030   4.126  13.529  0.8745 -0.0788  0.2021
  790MPD2    C511647   3.051   4.233  13.615  0.3911  0.4175  0.1590
  790MPD2     H11648   3.036   3.867  13.741  0.0398  0.3784 -0.9542
  790MPD2    H111649   3.014   4.158  13.427  1.1053 -1.1277 -0.1727
  790MPD2    H211650   3.066   4.287  13.818  1.5840  0.9210 -1.4244
  790MPD2    H311651   3.042   4.337  13.584  0.1513  0.4706  0.4082
  790MPD2     N11652   2.995   3.887  13.492  0.1872  0.4646 -0.2906
  790MPD2    H511653   2.990   3.797  13.539 -0.7966  1.1681  0.9477
  790MPD2    N111654   3.065   4.064  13.940 -0.3614 -0.5767  0.4401
  790MPD2    H711655   3.061   4.151  13.992  1.5456 -1.3391  1.8562
  791MPD2     C11656   2.426   3.918  12.933 -0.2842  0.2548 -0.4069
  791MPD2    C111657   2.461   3.790  12.970 -0.3025 -0.1256  0.4950
  791MPD2    C211658   2.374   3.693  12.928  0.1122 -0.0916  0.0890
  791MPD2    C311659   2.256   3.721  12.856  0.0526  0.3146 -0.7077
  791MPD2    C411660   2.236   3.853  12.816 -0.4878  0.2989  0.6003
  791MPD2    C511661   2.325   3.947  12.848 -0.3786 -0.1347  0.1551
  791MPD2     H11662   2.400   3.589  12.948  2.4450  0.1086 -2.0096
  791MPD2    H111663   2.145   3.883  12.765  0.0169 -1.2664 -1.2420
  791MPD2    H211664   2.486   4.002  12.966  0.9571 -1.2607  1.2089
  791MPD2    H311665   2.307   4.050  12.818 -0.4089  0.5778  2.6737
  791MPD2     N11666   2.172   3.618  12.802  0.0330  0.4424 -0.1222
  791MPD2    H511667   2.200   3.521  12.812 -0.2313  0.3560 -0.2153
  791MPD2    N111668   2.576   3.767  13.041  0.0393  0.3137 -0.0303
  791MPD2    H711669   2.626   3.852  13.064  0.7595  0.5264 -2.3537
  792MPD2     C11670   3.543   3.523  10.881 -0.6222  0.6444 -0.4102
  792MPD2    C111671   3.428   3.569  10.820  0.1986  0.5259  0.4876
  792MPD2    C211672   3.356   3.479  10.740 -0.3716  0.7806  0.0953
  792MPD2    C311673   3.399   3.347  10.722 -0.4826 -0.2164  0.1244
  792MPD2    C411674   3.514   3.312  10.784  0.1193  0.2552 -0.7129
  792MPD2    C511675   3.577   3.392  10.873 -0.5012 -0.5168 -0.2647
  792MPD2     H11676   3.276   3.520  10.680  0.9873 -0.7829 -2.7726
  792MPD2    H111677   3.547   3.209  10.774  1.6043  0.4005  2.6551
  792MPD2    H211678   3.605   3.583  10.946  1.5268 -3.1829  1.0737
  792MPD2    H311679   3.669   3.359  10.919 -0.3411  1.6670  0.9775
  792MPD2     N11680   3.340   3.255  10.634 -0.4950  0.1725  0.7088
  792MPD2    H511681   3.389   3.169  10.614 -1.4648 -0.1691 -0.2098
  792MPD2    N111682   3.389   3.706  10.832  0.5209 -0.7675  0.8200
  792MPD2    H711683   3.457   3.773  10.867 -0.5773  0.2181  1.0413
  793MPD2     C11684   2.432   3.098  10.064  0.2786  0.1319 -0.4902
  793MPD2    C111685   2.555   3.119  10.001 -0.7064 -0.3888  0.5489
  793MPD2    C211686   2.668   3.117  10.072  0.1701 -0.3114  0.5779
  793MPD2    C311687   2.668   3.085  10.211  0.3278  0.0634 -0.6288
  793MPD2    C411688   2.551   3.059  10.272  0.3466 -0.1815 -0.2423
  793MPD2    C511689   2.436   3.072  10.201 -0.2428  0.1860  0.6186
  793MPD2     H11690   2.765   3.143  10.030 -0.6674 -0.0911 -1.1874
  793MPD2    H111691   2.544   3.034  10.377 -2.4376 -1.0476 -0.6419
  793MPD2    H211692   2.339   3.100  10.009  1.5133  1.6767 -2.5457
  793MPD2    H311693   2.344   3.055  10.255 -0.1457  0.8326  0.9812
  793MPD2     N11694   2.791   3.091  10.282 -0.2217 -0.1413 -0.2693
  793MPD2    H511695   2.875   3.111  10.228  0.4791 -0.8369  0.5719
  793MPD2    N111696   2.559   3.141   9.860 -0.1512  0.1853 -0.2360
  793MPD2    H711697   2.653   3.148   9.823 -1.0719  0.5089 -2.5427
  794MPD2     C11698   2.662   3.697  17.234 -0.0780 -0.6047  0.3934
  794MPD2    C111699   2.686   3.559  17.216  0.8422  0.3246  0.2683
  794MPD2    C211700   2.681   3.507  17.089  1.0178 -0.4094 -0.1394
  794MPD2    C311701   2.663   3.593  16.981  0.0792  0.0101  0.1495
  794MPD2    C411702   2.632   3.726  17.005 -0.1281 -0.3693 -1.2616
  794MPD2    C511703   2.648   3.781  17.130 -0.5440 -0.5580  0.4337
  794MPD2     H11704   2.671   3.402  17.066 -0.8608 -0.6322  1.7717
  794MPD2    H111705   2.604   3.795  16.926 -1.3202 -0.3502 -0.8197
  794MPD2    H211706   2.659   3.749  17.329  2.1332 -2.2128  1.3515
  794MPD2    H311707   2.616   3.883  17.147 -2.2173 -1.0567  0.2842
  794MPD2     N11708   2.653   3.542  16.849 -0.4862 -0.0675 -0.2064
  794MPD2    H511709   2.609   3.603  16.780 -1.7212  0.6576  1.2259
  794MPD2    N111710   2.704   3.469  17.321  0.5612 -0.1254 -0.2355
  794MPD2    H711711   2.699   3.371  17.294 -1.0296  0.3062 -1.4638
  795MPD2     C11712   0.324   0.544  13.194  0.2384  0.2022 -0.1716
  795MPD2    C111713   0.280   0.550  13.321  0.0483 -0.0555  0.2923
  795MPD2    C211714   0.355   0.528  13.429 -0.0511 -0.5330  0.3193
  795MPD2    C311715   0.494   0.494  13.408  0.4078 -0.2191 -1.0415
  795MPD2    C411716   0.539   0.470  13.279  0.4497  0.4801  0.4046
  795MPD2    C511717   0.451   0.496  13.174  0.5067  0.5973 -0.6136
  795MPD2     H11718   0.313   0.530  13.529 -0.7007  0.6201  0.0180
  795MPD2    H111719   0.639   0.431  13.263 -0.5576 -1.9394  0.0924
  795MPD2    H211720   0.260   0.550  13.107  1.2247 -2.5447 -1.1037
  795MPD2    H311721   0.484   0.496  13.070 -0.6310  1.2129 -0.9793
  795MPD2     N11722   0.570   0.485  13.523  0.2617  0.2041  0.5393
  795MPD2    H511723   0.516   0.506  13.606  1.2790  0.0976  1.2247
  795MPD2    N111724   0.140   0.583  13.328 -0.0848  0.6489 -0.4642
  795MPD2    H711725   0.087   0.615  13.248 -1.1576 -0.2961 -0.1360
  796MPD2     C11726   0.088   2.408  15.892  0.7219 -0.1494  0.0466
  796MPD2    C111727   0.135   2.453  16.015 -0.2058  0.0844  0.5111
  796MPD2    C211728   0.128   2.589  16.034  0.6607  0.0355 -0.4484
  796MPD2    C311729   0.069   2.678  15.943  0.1934  0.4206  0.3573
  796MPD2    C411730   0.030   2.625  15.821  0.5990 -0.1867 -0.3572
  796MPD2    C511731   0.039   2.491  15.799  0.3221  1.0739 -0.3813
  796MPD2     H11732   0.179   2.638  16.115  2.7013  0.7624 -2.1660
  796MPD2    H111733   4.697   2.686  15.751  0.6475  1.4266  1.0151
  796MPD2    H211734   0.081   2.302  15.870 -0.8328 -0.3510  1.4787
  796MPD2    H311735   4.721   2.442  15.711 -1.1650  2.0958 -0.2365
  796MPD2     N11736   0.048   2.812  15.974  0.0093  0.5149  1.0036
  796MPD2    H511737   0.072   2.839  16.068  1.7130  0.4958  0.5794
  796MPD2    N111738   0.184   2.359  16.108 -0.2651  0.3407 -0.0485
  796MPD2    H711739   0.169   2.264  16.073 -0.8541  0.5829 -0.4567
  797MPD2     C11740   1.137   1.620  17.644 -0.3237 -0.0019 -0.3062
  797MPD2    C111741   1.164   1.753  17.645 -0.4390 -0.1640  0.6436
  797MPD2    C211742   1.076   1.839  17.584 -0.4788  0.7746 -0.2400
  797MPD2    C311743   0.966   1.794  17.517  0.4317 -0.2713  0.4829
  797MPD2    C411744   0.944   1.657  17.512  0.0985  0.4286  0.3857
  797MPD2    C511745   1.022   1.574  17.586 -0.2556 -0.6420  0.6394
  797MPD2     H11746   1.101   1.944  17.591  0.5432  0.4583  0.8243
  797MPD2    H111747   0.850   1.623  17.471  0.3196 -1.3952  1.3989
  797MPD2    H211748   1.199   1.552   0.002  0.1328 -0.6686 -1.6218
  797MPD2    H311749   0.999   1.468  17.593  1.8566 -1.3133 -2.7289
  797MPD2     N11750   0.880   1.881  17.454 -0.2141  0.7672  0.3553
  797MPD2    H511751   0.793   1.840  17.421 -0.3729  0.9495  0.5508
  797MPD2    N111752   1.277   1.822   0.006 -1.1032  0.3553 -0.2705
  797MPD2    H711753   1.278   1.923   0.002  0.2856  0.2930 -1.3891
  798MPD2     C11754   1.208   2.524  17.535  0.0949  0.4964  0.0053
  798MPD2    C111755   1.189   2.393  17.499 -0.1611  0.2635  0.6685
  798MPD2    C211756   1.282   2.300  17.523  1.0373  0.3949 -0.1878
  798MPD2    C311757   1.399   2.324  17.594 -0.5173 -0.0650  0.9512
  798MPD2    C411758   1.422   2.460  17.622  1.1231  0.1681 -0.0698
  798MPD2    C511759   1.329   2.557  17.595 -0.1751  0.0481 -0.5459
  798MPD2     H11760   1.257   2.196  17.504 -2.2281  1.0052  0.8459
  798MPD2    H111761   1.507   2.498  17.678  0.9425 -0.2684  0.4978
  798MPD2    H211762   1.128   2.594  17.517  0.3095 -0.1142 -3.3296
  798MPD2    H311763   1.335   2.661  17.627  0.4091  0.5632 -2.3775
  798MPD2     N11764   1.480   2.216  17.624 -0.7169 -0.5469 -0.3786
  798MPD2    H511765   1.459   2.129  17.576  1.3383 -0.5081 -1.3225
  798MPD2    N111766   1.074   2.348  17.437  0.3206 -0.0814  0.7714
  798MPD2    H711767   1.060   2.248  17.424 -0.2033  0.0922 -0.0386
  799MPD2     C11768   0.250   2.903  14.982  0.4421  0.3474  0.0396
  799MPD2    C111769   0.201   2.852  14.866  0.5563  0.6978 -0.4339
  799MPD2    C211770   0.083   2.902  14.817  0.9130  0.4360  0.0966
  799MPD2    C311771   0.024   3.012  14.871  0.4853 -0.1147 -0.1760
  799MPD2    C411772   0.080   3.065  14.989 -0.2347  0.2232  0.5734
  799MPD2    C511773   0.183   3.001  15.047 -0.5214 -0.4338 -0.3827
  799MPD2     H11774   0.057   2.880  14.714 -0.5546 -0.6715  0.7195
  799MPD2    H111775   0.034   3.149  15.039 -0.5487  0.8272 -0.7388
  799MPD2    H211776   0.344   2.876  15.029 -0.0567 -3.4733 -1.1391
  799MPD2    H311777   0.231   3.040  15.136 -1.8913 -1.2966  0.7279
  799MPD2     N11778   4.649   3.079  14.806 -0.3209 -0.7538  0.2365
  799MPD2    H511779   4.624   3.169  14.845 -1.5021 -1.8055  1.9183
  799MPD2    N111780   0.250   2.750  14.783 -0.3674 -0.6725 -0.0749
  799MPD2    H711781   0.192   2.733  14.701  0.4905  0.7797 -0.9822
  800MPD2     C11782   0.340   4.352  14.296  0.2132  0.3360 -0.1078
  800MPD2    C111783   0.443   4.266  14.283  0.1452 -0.4413 -0.5709
  800MPD2    C211784   0.447   4.180  14.179 -0.2183 -0.8719  0.6033
  800MPD2    C311785   0.380   4.208  14.065 -0.1279  0.5889  0.4888
  800MPD2    C411786   0.287   4.312  14.071  0.7642 -0.0460  0.6827
  800MPD2    C511787   0.254   4.375  14.191  0.0997  0.0643 -0.7305
  800MPD2     H11788   0.532   4.112  14.171  0.4063  0.2095 -1.7591
  800MPD2    H111789   0.244   4.354  13.981 -0.0422 -3.6606 -0.6404
  800MPD2    H211790   0.337   4.416  14.383  0.6036  0.6893 -0.3521
  800MPD2    H311791   0.192   4.463  14.181 -1.3502 -0.6767  1.8496
  800MPD2     N11792   0.430   4.158  13.944 -0.4749  0.1919  0.7935
  800MPD2    H511793   0.517   4.106  13.947  0.7668  2.2705  0.7403
  800MPD2    N111794   0.548   4.289  14.373 -0.5120  0.5792 -0.2188
  800MPD2    H711795   0.530   4.351  14.451 -0.0854 -0.2869  0.5782
  801MPD2     C11796   0.644   0.179  14.729  0.4313 -1.0582 -0.3823
  801MPD2    C111797   0.590   0.108  14.624  0.8133  0.8948  0.6376
  801MPD2    C211798   0.464   0.129  14.587 -0.6275  0.0311 -0.0006
  801MPD2    C311799   0.389   0.208  14.668 -0.2340 -0.9470 -0.3484
  801MPD2    C411800   0.431   0.267  14.778 -0.5170 -0.5342 -0.4955
  801MPD2    C511801   0.564   0.257  14.805  0.1041 -0.4297  1.0886
  801MPD2     H11802   0.425   0.082  14.497 -2.4980 -0.5473  1.1073
  801MPD2    H111803   0.356   0.309  14.843  1.4666  0.5173  1.1034
  801MPD2    H211804   0.747   0.184  14.764  0.1346 -0.5190  0.4126
  801MPD2    H311805   0.612   0.305  14.889  4.3759 -1.5071 -0.7757
  801MPD2     N11806   0.254   0.246  14.638 -0.3378  0.3114 -0.0123
  801MPD2    H511807   0.203   0.316  14.692  2.4665  1.4882  1.1023
  801MPD2    N111808   0.649   0.002  14.562 -0.0034  0.1563 -0.3541
  801MPD2    H711809   0.589   4.675  14.497 -0.5587 -1.5795  1.5376
  802MPD2     C11810   0.133   0.265  17.670 -1.3949 -0.0833 -0.5300
  802MPD2    C111811   0.103   0.395  17.643  0.2079 -0.9410  0.4492
  802MPD2    C211812   0.123   0.435  17.510  0.1671  0.3211  0.0273
  802MPD2    C311813   0.158   0.351  17.408  0.3140 -0.1344 -0.5291
  802MPD2    C411814   0.177   0.217  17.436  0.2479 -0.4836 -0.3159
  802MPD2    C511815   0.163   0.178  17.566  0.1030 -0.0425 -0.4249
  802MPD2     H11816   0.099   0.537  17.481  0.2198 -0.4544 -2.7688
  802MPD2    H111817   0.204   0.140  17.365 -0.3300 -0.7023 -0.2976
  802MPD2    H211818   0.092   0.210   0.056  0.7842  0.2499  0.7454
  802MPD2    H311819   0.176   0.076  17.600  0.7296  0.0832 -0.2727
  802MPD2     N11820   0.156   0.405  17.278  0.2641 -0.4025 -0.1135
  802MPD2    H511821   0.139   0.505  17.267 -0.4001 -0.2665  2.0424
  802MPD2    N111822   0.055   0.485   0.041  0.3632 -0.0412 -0.4540
  802MPD2    H711823   0.076   0.584   0.027 -0.1160 -0.0984 -1.6102
  803MPD2     C11824   1.201   3.961  11.782 -0.4615  0.4818 -0.0174
  803MPD2    C111825   1.268   3.913  11.894 -0.2750  0.4642  0.4650
  803MPD2    C211826   1.208   3.805  11.963 -0.2738  0.2804 -0.5157
  803MPD2    C311827   1.094   3.745  11.913 -0.1624  0.2171  0.3022
  803MPD2    C411828   1.029   3.794  11.799 -0.6974  0.6781 -0.2346
  803MPD2    C511829   1.079   3.908  11.739 -0.4325  0.9096  0.6904
  803MPD2     H11830   1.251   3.766  12.054 -0.8634 -0.8606 -0.7207
  803MPD2    H111831   0.940   3.749  11.756  1.1774 -0.4228 -2.9600
  803MPD2    H211832   1.243   4.038  11.719 -0.6196 -1.3401 -2.3185
  803MPD2    H311833   1.033   3.945  11.648 -0.5400  1.9192  1.1636
  803MPD2     N11834   1.024   3.637  11.985  0.6940  0.6343 -0.1887
  803MPD2    H511835   0.934   3.609  11.946 -0.3401  1.1442  1.8299
  803MPD2    N111836   1.385   3.965  11.955 -0.1931  0.5439 -0.0425
  803MPD2    H711837   1.404   3.935  12.050  1.3789 -0.5395 -0.6976
  804MPD2     C11838   0.505   0.575  16.961 -0.3107 -0.3500 -0.6987
  804MPD2    C111839   0.497   0.532  17.093 -0.6028 -1.2605  1.4005
  804MPD2    C211840   0.500   0.629  17.192  0.2468  0.1616 -0.6472
  804MPD2    C311841   0.527   0.762  17.155  1.2294 -0.3050 -0.2286
  804MPD2    C411842   0.532   0.802  17.024 -0.6091  0.2097  0.1547
  804MPD2    C511843   0.519   0.708  16.926 -0.1139  0.0059  0.0336
  804MPD2     H11844   0.495   0.599  17.296  2.6607 -0.2786 -0.6558
  804MPD2    H111845   0.542   0.907  16.997  0.6795  0.1144  0.2696
  804MPD2    H211846   0.513   0.500  16.883  1.6611 -0.5563 -0.2850
  804MPD2    H311847   0.524   0.739  16.823 -0.9959 -0.0062 -0.0046
  804MPD2     N11848   0.542   0.859  17.259  0.4760  0.3283  0.0838
  804MPD2    H511849   0.556   0.818  17.351 -1.8160  1.9201  1.1309
  804MPD2    N111850   0.497   0.396  17.141  0.0933 -0.0755  0.1994
  804MPD2    H711851   0.499   0.392  17.242  2.2754  1.1221  0.1899
  805MPD2     C11852   4.230   3.731  15.298 -0.1087  0.7700  0.6455
  805MPD2    C111853   4.346   3.707  15.238  0.3382 -0.2887 -0.8753
  805MPD2    C211854   4.462   3.692  15.311 -0.0250  0.1643 -0.2157
  805MPD2    C311855   4.452   3.704  15.445 -0.5161  0.6696 -0.1749
  805MPD2    C411856   4.336   3.736  15.510 -0.0329 -1.0046  0.1815
  805MPD2    C511857   4.228   3.753  15.433  0.1197 -0.3729 -0.1078
  805MPD2     H11858   4.562   3.674  15.274 -0.3101 -1.1746 -0.3165
  805MPD2    H111859   4.326   3.752  15.617  1.8884  0.7801  0.0868
  805MPD2    H211860   4.140   3.757  15.245 -0.9075  0.5279  1.8954
  805MPD2    H311861   4.130   3.774  15.474  0.5371 -2.6378  2.1114
  805MPD2     N11862   4.573   3.674  15.516  0.4917 -0.3567 -0.1624
  805MPD2    H511863   4.655   3.664  15.456  1.8551 -2.0544  1.9856
  805MPD2    N111864   4.355   3.688  15.101  0.1635 -0.0638  1.2797
  805MPD2    H711865   4.444   3.657  15.066 -0.7338 -0.9872 -0.1824
  806MPD2     C11866   4.366   3.382   0.501  0.5698 -0.4855  0.0074
  806MPD2    C111867   4.503   3.389   0.499  0.3579 -0.2778 -0.4591
  806MPD2    C211868   4.575   3.438   0.388  0.8370  0.0889  0.4166
  806MPD2    C311869   4.503   3.487   0.284  0.5509 -0.2184  0.0590
  806MPD2    C411870   4.361   3.479   0.286 -0.1255  0.3273 -0.3516
  806MPD2    C511871   4.290   3.429   0.395 -0.1184  0.0737  0.2105
  806MPD2     H11872   4.684   3.434   0.386  0.8916  0.5664  1.9840
  806MPD2    H111873   4.304   3.507   0.198  0.2990  1.7326 -0.1684
  806MPD2    H211874   4.307   3.356   0.589 -0.6675  0.4627 -0.5400
  806MPD2    H311875   4.181   3.428   0.394 -0.1075 -0.7484  0.0119
  806MPD2     N11876   4.579   3.533   0.172 -0.3860 -0.1645  0.0661
  806MPD2    H511877   4.680   3.520   0.180  0.0728  2.9569 -0.6158
  806MPD2    N111878   4.563   3.359   0.623  0.0105 -0.1722 -0.1713
  806MPD2    H711879   4.503   3.343   0.704 -3.3695  3.1316 -1.9996
  807MPD2     C11880   4.405   3.106   1.312 -0.4538  0.6025 -0.2979
  807MPD2    C111881   4.523   3.039   1.271  0.6647 -1.1009 -0.0586
  807MPD2    C211882   4.575   2.935   1.349 -0.2297 -0.1437  0.2244
  807MPD2    C311883   4.506   2.902   1.458 -0.0306 -0.7281  1.1142
  807MPD2    C411884   4.388   2.963   1.499 -1.3602  0.3352 -0.3036
  807MPD2    C511885   4.338   3.063   1.425 -0.0925 -0.2603 -0.1119
  807MPD2     H11886   4.663   2.881   1.316 -0.4007 -0.3799  0.1571
  807MPD2    H111887   4.331   2.932   1.585 -1.3076  0.0125 -0.3838
  807MPD2    H211888   4.358   3.183   1.253  0.1749 -1.3895 -3.3905
  807MPD2    H311889   4.240   3.099   1.454 -0.5381 -1.4458 -0.1231
  807MPD2     N11890   4.556   2.796   1.535  0.1381 -0.7679  0.7719
  807MPD2    H511891   4.634   2.740   1.502 -0.2107 -1.0320  0.3781
  807MPD2    N111892   4.594   3.086   1.157  0.6543  0.4995 -0.2289
  807MPD2    H711893   4.679   3.034   1.143 -0.4205 -0.5884 -2.7368
  808MPD2     C11894   0.921   4.311   9.643 -0.1430  0.0737 -0.3407
  808MPD2    C111895   0.816   4.398   9.703 -0.0326  0.4800 -0.0767
  808MPD2    C211896   0.836   4.533   9.696 -0.2717  0.2419  0.0309
  808MPD2    C311897   0.950   4.588   9.635 -0.2190  0.4829  0.2450
  808MPD2    C411898   1.038   4.507   9.575  0.5984 -0.3446 -0.5005
  808MPD2    C511899   1.030   4.374   9.588  0.2568  0.7365 -0.1455
  808MPD2     H11900   0.777   4.598   9.760  2.4233  1.0576  1.6521
  808MPD2    H111901   1.123   4.535   9.513  1.1315 -2.6331 -0.7961
  808MPD2    H211902   0.923   4.203   9.659  0.8028  0.1341 -0.0324
  808MPD2    H311903   1.111   4.312   9.551  1.5414  2.1129  0.3548
  808MPD2     N11904   0.962   0.002   9.609 -0.1643 -0.0053 -0.1002
  808MPD2    H511905   1.038   0.032   9.549 -1.1376  2.3793 -0.1345
  808MPD2    N111906   0.706   4.356   9.771  0.3196 -0.1522 -0.2170
  808MPD2    H711907   0.638   4.425   9.799 -0.0419 -0.5911 -0.0083
  809MPD2     C11908   1.587   0.756   9.383  1.0487 -0.3032 -0.4544
  809MPD2    C111909   1.586   0.630   9.439 -0.6257  0.0148 -0.6691
  809MPD2    C211910   1.463   0.563   9.457 -0.1328 -0.1443 -0.8758
  809MPD2    C311911   1.342   0.623   9.416  0.1985 -0.6041 -0.0680
  809MPD2    C411912   1.344   0.750   9.368 -0.5145 -0.8181 -0.8630
  809MPD2    C511913   1.461   0.809   9.345 -0.1789 -0.5205  0.0243
  809MPD2     H11914   1.469   0.462   9.496  0.2370  0.5807  0.9706
  809MPD2    H111915   1.251   0.801   9.346 -0.2879 -1.1470 -2.5779
  809MPD2    H211916   1.674   0.819   9.369 -0.0599  1.1251 -0.7918
  809MPD2    H311917   1.466   0.910   9.305 -1.6669  0.0220  1.2178
  809MPD2     N11918   1.219   0.550   9.438  0.5989  1.0840  0.4832
  809MPD2    H511919   1.133   0.593   9.404  1.3122  1.1532 -1.2491
  809MPD2    N111920   1.705   0.563   9.470  0.1598  0.1180  0.5454
  809MPD2    H711921   1.701   0.465   9.495 -1.7298  0.1582  0.4025
  810MPD2     C11922   1.019   3.293  10.014 -0.1661 -0.5128 -0.4088
  810MPD2    C111923   0.988   3.296  10.147 -0.1189 -0.3503 -0.5972
  810MPD2    C211924   1.095   3.333  10.229  0.7936 -0.6378  0.1659
  810MPD2    C311925   1.232   3.348  10.178 -0.3623 -0.0391  0.2483
  810MPD2    C411926   1.246   3.321  10.048 -0.7795  0.0620  0.0138
  810MPD2    C511927   1.141   3.309   9.964 -0.0494 -0.6927 -0.0230
  810MPD2     H11928   1.080   3.340  10.336 -0.4025 -0.4782 -0.0107
  810MPD2    H111929   1.341   3.318   9.996  1.2525 -1.5831  3.8398
  810MPD2    H211930   0.938   3.272   9.945 -0.7445 -0.9818  0.4168
  810MPD2    H311931   1.158   3.287   9.860 -2.0382 -3.4445  0.2278
  810MPD2     N11932   1.344   3.350  10.256  0.7389 -0.2792  0.0612
  810MPD2    H511933   1.425   3.320  10.204  0.1436 -1.8788  0.0550
  810MPD2    N111934   0.859   3.262  10.194 -0.3143 -0.0346 -0.0639
  810MPD2    H711935   0.785   3.256  10.125  0.7555  1.5555 -1.3632
  811MPD2     C11936   0.009   3.311  10.148 -0.2207  0.6142 -0.7770
  811MPD2    C111937   0.123   3.382  10.151 -0.5351 -0.7655 -0.8348
  811MPD2    C211938   0.111   3.518  10.132 -0.7771  0.1103  0.1938
  811MPD2    C311939   4.718   3.583  10.108 -0.3614 -0.1791  0.7426
  811MPD2    C411940   4.607   3.514  10.114 -0.2706 -0.2621 -0.2213
  811MPD2    C511941   4.614   3.377  10.128  0.1782 -0.1384  0.1413
  811MPD2     H11942   0.198   3.582  10.140 -1.1489  0.7125 -0.5401
  811MPD2    H111943   4.504   3.547  10.108 -0.5891 -1.5779 -1.9064
  811MPD2    H211944   0.017   3.207  10.178  1.9516  0.4407 -1.9952
  811MPD2    H311945   4.522   3.323  10.146 -1.8385  2.4779 -2.4158
  811MPD2     N11946   0.001   3.722  10.084 -0.1498 -0.3610 -0.0809
  811MPD2    H511947   0.091   3.767  10.077 -0.1655 -0.1579  1.0716
  811MPD2    N111948   0.243   3.312  10.184 -0.0304  0.1122  0.1998
  811MPD2    H711949   0.240   3.212  10.203 -1.7085  0.2841  0.8127
  812MPD2     C11950   3.973   3.581  12.381  0.0238 -0.3170  0.2380
  812MPD2    C111951   3.900   3.626  12.491  0.7581  0.5621  0.3166
  812MPD2    C211952   3.888   3.551  12.612  0.5908  0.0133  0.4975
  812MPD2    C311953   3.950   3.430  12.612 -0.2240  0.8238 -0.5431
  812MPD2    C411954   4.025   3.382  12.501  0.3619  0.4191  0.4588
  812MPD2    C511955   4.040   3.461  12.391 -0.3236 -0.3367 -1.2300
  812MPD2     H11956   3.822   3.585  12.691 -0.1440 -1.7446  0.6415
  812MPD2    H111957   4.078   3.288  12.499 -1.5071 -0.6329  0.8769
  812MPD2    H211958   3.991   3.640  12.292 -0.4323 -2.2204 -1.1095
  812MPD2    H311959   4.107   3.438  12.308 -0.7131  0.6093 -1.8168
  812MPD2     N11960   3.922   3.341  12.722  0.1548 -0.0434  0.0086
  812MPD2    H511961   3.877   3.380  12.805 -0.0600  0.8617 -0.5378
  812MPD2    N111962   3.850   3.751  12.467 -0.0546 -0.3106 -0.7437
  812MPD2    H711963   3.885   3.795  12.383 -1.6480 -0.6759 -1.5873
  813MPD2     C11964   3.091   0.599  12.789  0.1246 -0.3143  0.4680
  813MPD2    C111965   3.066   0.721  12.733  0.1009  0.1638  0.1030
  813MPD2    C211966   2.988   0.809  12.804 -0.0369 -0.2603  0.0875
  813MPD2    C311967   2.922   0.771  12.922  0.3052  0.0374  0.8086
  813MPD2    C411968   2.944   0.646  12.968 -0.3121 -0.0133  0.2409
  813MPD2    C511969   3.028   0.565  12.904 -0.5003 -0.7755 -0.5871
  813MPD2     H11970   2.975   0.907  12.759 -0.7912 -0.7952 -0.8743
  813MPD2    H111971   2.885   0.602  13.048  0.0468 -1.6338 -0.3837
  813MPD2    H211972   3.167   0.532  12.751 -1.2773 -2.5066  1.5639
  813MPD2    H311973   3.042   0.462  12.935  0.7538 -0.3734  0.2050
  813MPD2     N11974   2.822   0.859  12.974  0.7407  0.0743 -0.4945
  813MPD2    H511975   2.814   0.945  12.920 -0.0876 -0.3824 -1.1104
  813MPD2    N111976   3.141   0.762  12.618 -0.0882  0.1071 -0.2849
  813MPD2    H711977   3.209   0.693  12.588 -0.5257 -0.5970  0.3734
  814MPD2     C11978   3.398   2.274  12.098  0.0114 -0.0837 -0.8046
  814MPD2    C111979   3.408   2.328  11.975  0.1693 -0.0055  0.0151
  814MPD2    C211980   3.477   2.454  11.963 -0.3985  0.0115  0.0192
  814MPD2    C311981   3.521   2.511  12.081 -0.3324  1.1914 -0.0366
  814MPD2    C411982   3.494   2.457  12.198  0.5028  0.8794  0.3215
  814MPD2    C511983   3.423   2.348  12.209 -0.2221 -0.5366  0.2577
  814MPD2     H11984   3.483   2.503  11.867  2.2181  0.9221  0.6644
  814MPD2    H111985   3.517   2.512  12.289  0.0151 -0.7007  1.4094
  814MPD2    H211986   3.360   2.174  12.117  1.4042 -0.7229 -1.3646
  814MPD2    H311987   3.406   2.301  12.306 -1.8281  1.1703  0.8011
  814MPD2     N11988   3.570   2.645  12.092 -0.4252  0.3131  0.0819
  814MPD2    H511989   3.586   2.685  12.184 -2.6918  2.3815 -0.4191
  814MPD2    N111990   3.356   2.277  11.856  0.5589  0.4158  0.5391
  814MPD2    H711991   3.378   2.316  11.765 -1.1373 -0.4393 -0.2452
  815MPD2     C11992   4.352   0.576  11.363  0.1942 -0.6688 -0.1719
  815MPD2    C111993   4.297   0.449  11.378  0.8218 -0.0726  0.0436
  815MPD2    C211994   4.215   0.431  11.485  0.0186 -0.8827  0.1856
  815MPD2    C311995   4.178   0.536  11.565 -0.4031 -0.2747 -0.3043
  815MPD2    C411996   4.238   0.662  11.552 -0.6434  0.0936  0.3465
  815MPD2    C511997   4.325   0.676  11.450 -0.3724 -0.2608 -0.5588
  815MPD2     H11998   4.169   0.333  11.495 -2.8132  0.4150 -0.3108
  815MPD2    H111999   4.213   0.746  11.616  0.8927  0.5360  0.3620
  815MPD2    H212000   4.401   0.598  11.270  3.2539 -0.8052  1.4184
  815MPD2    H312001   4.369   0.774  11.431  0.6193 -0.6671 -0.3789
  815MPD2     N12002   4.088   0.510  11.667  0.0454 -0.3151  0.1472
  815MPD2    H512003   4.051   0.417  11.681 -0.3161 -0.2723 -0.5217
  815MPD2    N112004   4.322   0.351  11.273 -0.2815  0.6227  0.3789
  815MPD2    H712005   4.371   0.378  11.188 -0.7043  1.3304  0.3607
  816MPD2     C12006   4.357   0.715   0.014 -0.0471  0.0846  0.2395
  816MPD2    C112007   4.275   0.607  17.682 -0.3897  0.4296  0.0683
  816MPD2    C212008   4.311   0.513  17.584 -0.1171 -0.4165 -0.3679
  816MPD2    C312009   4.427   0.520  17.519  0.5844 -0.3279 -0.3949
  816MPD2    C412010   4.518   0.619  17.561  0.0063  0.7040  0.1703
  816MPD2    C512011   4.479   0.716  17.652 -0.0241  0.8169  0.5555
  816MPD2     H12012   4.246   0.428  17.566 -0.6750  0.0445 -0.5187
  816MPD2    H112013   4.618   0.626  17.519 -0.1346 -1.0355 -0.4700
  816MPD2    H212014   4.321   0.794   0.079  0.8475  0.3578  0.4023
  816MPD2    H312015   4.549   0.796  17.674 -0.3127  1.2023  0.0600
  816MPD2     N12016   4.448   0.441  17.404 -0.9056  0.2966 -0.0764
  816MPD2    H512017   4.372   0.375  17.392  1.1610 -2.1688  0.5845
  816MPD2    N112018   4.131   0.613   0.018  0.0247 -0.1485  0.4270
  816MPD2    H712019   4.084   0.539  17.666 -0.2975  1.0252 -0.9939
  817MPD2     C12020   3.289   1.004   9.646  0.5377  0.1569  0.7202
  817MPD2    C112021   3.325   1.135   9.628  0.6429  0.3369 -0.2348
  817MPD2    C212022   3.245   1.216   9.550 -0.0219  0.0443 -0.0555
  817MPD2    C312023   3.135   1.160   9.495  0.0623  0.5246 -0.1395
  817MPD2    C412024   3.094   1.033   9.525  0.7170 -0.2567 -0.3959
  817MPD2    C512025   3.176   0.953   9.597 -0.1309 -0.0765 -0.3484
  817MPD2     H12026   3.271   1.321   9.543 -0.7528  0.1634 -0.9876
  817MPD2    H112027   3.005   0.983   9.487  0.2418  1.6418 -1.8417
  817MPD2    H212028   3.344   0.930   9.702  0.4675  0.2795  0.9518
  817MPD2    H312029   3.143   0.852   9.617  2.6360 -0.5300  1.9182
  817MPD2     N12030   3.063   1.240   9.409 -0.4568 -0.0984 -0.1700
  817MPD2    H512031   3.100   1.334   9.400 -0.1503 -0.1552  0.4796
  817MPD2    N112032   3.439   1.196   9.691 -0.3831 -0.4026 -0.2863
  817MPD2    H712033   3.448   1.297   9.682 -0.1521 -0.6022 -2.2802
  818MPD2     C12034   2.940   0.996   9.961 -0.1301  0.0622  0.6563
  818MPD2    C112035   2.812   0.946   9.996 -0.0294  0.2237  0.0906
  818MPD2    C212036   2.787   0.814   9.962  0.5094 -0.7537  0.6420
  818MPD2    C312037   2.880   0.730   9.895  1.0000  0.3508 -0.2995
  818MPD2    C412038   3.005   0.783   9.862  0.0362 -0.0684 -0.3142
  818MPD2    C512039   3.034   0.916   9.903 -0.2412 -0.6271 -0.3986
  818MPD2     H12040   2.690   0.779   9.995 -0.3065 -0.2972 -1.2642
  818MPD2    H112041   3.078   0.725   9.807  1.6316  2.4581 -0.8667
  818MPD2    H212042   2.973   1.095   9.989 -1.0532  0.2330  1.1423
  818MPD2    H312043   3.134   0.958   9.894  0.5445 -2.5912 -0.7764
  818MPD2     N12044   2.851   0.589   9.869  0.2767 -0.4387  0.6404
  818MPD2    H512045   2.934   0.533   9.850  0.1043 -0.5394  0.1844
  818MPD2    N112046   2.721   1.015  10.075 -0.1389 -0.5406  0.3309
  818MPD2    H712047   2.649   0.958  10.118 -0.7930  0.0867  0.0636
  819MPD2     C12048   0.415   3.324  15.506  0.2624  0.4935 -0.4071
  819MPD2    C112049   0.422   3.186  15.525  0.0266  0.3499 -0.4508
  819MPD2    C212050   0.548   3.133  15.550  0.4998 -1.6545  0.2714
  819MPD2    C312051   0.660   3.211  15.567  0.0448 -0.5218  0.0075
  819MPD2    C412052   0.649   3.348  15.550 -0.1255  0.1357  0.0046
  819MPD2    C512053   0.526   3.406  15.516  0.6600 -0.6147  0.3668
  819MPD2     H12054   0.547   3.026  15.570 -1.0567 -1.6186  0.3881
  819MPD2    H112055   0.731   3.419  15.548  1.4108 -1.5958  1.3492
  819MPD2    H212056   0.323   3.373  15.475 -0.5636  0.0030  1.2630
  819MPD2    H312057   0.517   3.514  15.511  2.1741 -0.5000  0.0538
  819MPD2     N12058   0.793   3.167  15.604 -0.2274  0.4124  0.0854
  819MPD2    H512059   0.863   3.236  15.629 -0.7780  1.5122 -1.4820
  819MPD2    N112060   0.297   3.116  15.517 -0.2627 -0.5075  0.2303
  819MPD2    H712061   0.216   3.175  15.502 -1.0664 -1.2878  1.5109
  820MPD2     C12062   4.201   3.039  14.958  0.0814  0.1578 -0.3022
  820MPD2    C112063   4.315   3.116  14.954 -0.7390 -0.7589 -0.5676
  820MPD2    C212064   4.412   3.082  15.052 -0.4096  0.9621  0.2402
  820MPD2    C312065   4.400   2.969  15.126  0.0853 -0.1252 -0.4237
  820MPD2    C412066   4.293   2.875  15.108  0.4276  0.4547  0.6421
  820MPD2    C512067   4.188   2.918  15.024  0.5516 -0.1501  0.3241
  820MPD2     H12068   4.488   3.156  15.076  0.2651 -0.1800  1.6040
  820MPD2    H112069   4.277   2.784  15.164  1.3518  0.6528  1.2368
  820MPD2    H212070   4.122   3.057  14.886  0.1937  2.2023  0.0803
  820MPD2    H312071   4.097   2.860  15.015  2.7607 -3.4524 -0.5247
  820MPD2     N12072   4.486   2.942  15.237 -0.1794 -0.4570  0.3837
  820MPD2    H512073   4.473   2.850  15.278 -1.8857  0.1665  1.2593
  820MPD2    N112074   4.309   3.231  14.873  0.6371 -0.1572 -0.0439
  820MPD2    H712075   4.228   3.247  14.814  0.4273  0.4029  0.3998
  821MPD2     C12076   0.609   4.461  13.145  0.0980  0.0984  0.1252
  821MPD2    C112077   0.696   4.466  13.250 -0.0866 -0.0964 -0.1276
  821MPD2    C212078   0.814   4.541  13.238 -0.4879 -0.7295  0.8739
  821MPD2    C312079   0.840   4.607  13.124  0.6102 -0.0564  0.1976
  821MPD2    C412080   0.754   4.597  13.018 -0.1453  0.7153 -0.0939
  821MPD2    C512081   0.634   4.528  13.034  0.7066  1.1318 -0.1709
  821MPD2     H12082   0.879   4.545  13.324  0.0407 -1.0043  0.4901
  821MPD2    H112083   0.762   4.647  12.922  1.2889 -1.1458 -0.9297
  821MPD2    H212084   0.516   4.407  13.157 -0.2116  0.4786 -0.5797
  821MPD2    H312085   0.548   4.528  12.968  1.0562  1.0486 -0.6201
  821MPD2     N12086   0.955   4.684  13.096 -0.1111 -0.1500 -0.8857
  821MPD2    H512087   0.954   0.012  13.009 -0.7159  0.0667 -0.7510
  821MPD2    N112088   0.680   4.402  13.377  0.2112 -0.3360 -0.1587
  821MPD2    H712089   0.751   4.405  13.450 -0.0609 -1.1679  0.1378
  822MPD2     C12090   1.010   4.430  15.575 -0.0578  0.3428  0.2756
  822MPD2    C112091   1.014   4.431  15.717  0.6245 -0.0773 -0.4461
  822MPD2    C212092   0.951   4.530  15.777  0.6031  0.3325  0.4021
  822MPD2    C312093   0.884   4.640  15.717  0.1645 -0.2276 -0.1774
  822MPD2    C412094   0.897   4.641  15.580 -0.1673 -0.5792  0.3639
  822MPD2    C512095   0.952   4.535  15.509 -0.1686  0.3661  0.2037
  822MPD2     H12096   0.949   4.517  15.885  1.0381 -1.4427  0.2093
  822MPD2    H112097   0.858   0.003  15.527 -0.3011 -0.9781 -0.1809
  822MPD2    H212098   1.061   4.353  15.517  0.2155  1.3636 -0.8417
  822MPD2    H312099   0.968   4.542  15.402  2.9988 -2.8897  0.4459
  822MPD2     N12100   0.829   0.023  15.800  0.4478  0.1283 -0.3453
  822MPD2    H512101   0.819   0.002  15.898 -2.5689 -0.0956 -0.6799
  822MPD2    N112102   1.084   4.337  15.799 -0.0585 -0.0185  0.2539
  822MPD2    H712103   1.093   4.362  15.897  0.9235  0.4783  0.0303
  823MPD2     C12104   0.451   0.471  16.445 -0.4658 -0.3224 -0.5130
  823MPD2    C112105   0.491   0.360  16.373 -0.0933 -0.1485 -0.1239
  823MPD2    C212106   0.499   0.237  16.441 -0.0747  0.4742  0.3635
  823MPD2    C312107   0.494   0.233  16.576  1.1589 -0.2179  0.2904
  823MPD2    C412108   0.446   0.343  16.643 -0.2999 -0.3240  0.7796
  823MPD2    C512109   0.427   0.458  16.577  0.0396  0.3570 -0.5645
  823MPD2     H12110   0.540   0.150  16.392 -0.7491  0.8209 -0.8142
  823MPD2    H112111   0.425   0.338  16.749  1.6833  3.2719  1.3618
  823MPD2    H212112   0.440   0.559  16.384 -1.9078 -1.2265 -1.5738
  823MPD2    H312113   0.411   0.550  16.632 -1.4298 -1.1013  1.4731
  823MPD2     N12114   0.526   0.119  16.650 -0.1168  0.0251 -0.4920
  823MPD2    H512115   0.515   0.137  16.749 -0.5413  0.6049 -0.6480
  823MPD2    N112116   0.518   0.372  16.234 -0.0510  0.0765  0.0017
  823MPD2    H712117   0.527   0.464  16.192 -3.4135  0.1682 -0.5567
  824MPD2     C12118   1.492   3.578  15.824  0.5079 -0.4144  0.4991
  824MPD2    C112119   1.550   3.678  15.900 -0.0517  0.0691 -0.0612
  824MPD2    C212120   1.674   3.660  15.953 -0.1636  0.0974  0.1674
  824MPD2    C312121   1.746   3.547  15.918 -0.1374 -0.2185  0.1652
  824MPD2    C412122   1.689   3.451  15.828  0.0675 -0.7212 -0.5787
  824MPD2    C512123   1.562   3.468  15.788 -0.0440  0.1270 -0.1993
  824MPD2     H12124   1.718   3.744  16.005  0.0962  0.6261 -0.8999
  824MPD2    H112125   1.743   3.366  15.787 -0.1838 -1.3326  0.3470
  824MPD2    H212126   1.390   3.580  15.787  0.4821  1.1567  0.6730
  824MPD2    H312127   1.522   3.383  15.736  2.6977 -1.6806  0.6206
  824MPD2     N12128   1.885   3.545  15.944  0.2633 -0.3134 -0.1157
  824MPD2    H512129   1.924   3.632  15.976 -0.7140  0.5739 -1.3304
  824MPD2    N112130   1.490   3.800  15.920  0.0386 -0.7823  0.5971
  824MPD2    H712131   1.530   3.867  15.986 -0.2977  0.6641 -0.6803
  825MPD2     C12132   2.625   3.800  15.593 -0.5707  0.6105 -0.5316
  825MPD2    C112133   2.510   3.817  15.665  0.4051  0.4570 -0.1270
  825MPD2    C212134   2.452   3.943  15.661 -0.9097  0.4358 -0.0762
  825MPD2    C312135   2.507   4.049  15.585  0.3057  0.2863 -0.2523
  825MPD2    C412136   2.621   4.023  15.513  0.6453 -0.2385  0.0969
  825MPD2    C512137   2.674   3.894  15.508  0.0611  0.2200 -0.1445
  825MPD2     H12138   2.376   3.976  15.732 -1.3413 -0.1264 -0.2757
  825MPD2    H112139   2.655   4.099  15.444  0.5722 -1.0317 -0.8067
  825MPD2    H212140   2.659   3.698  15.594  1.3134  1.2626  0.9412
  825MPD2    H312141   2.755   3.885  15.437 -1.9732 -1.0085 -2.3224
  825MPD2     N12142   2.445   4.182  15.568  0.5385  0.2221 -0.0421
  825MPD2    H512143   2.499   4.249  15.514 -1.5817  2.0478  0.1153
  825MPD2    N112144   2.455   3.709  15.731 -0.6628  0.5260  0.3243
  825MPD2    H712145   2.491   3.617  15.712 -0.9054  0.1531  1.6370
  826MPD2     C12146   1.631   3.332  13.414  0.0799  0.2618  0.9050
  826MPD2    C112147   1.742   3.416  13.420  0.1246 -0.4007 -0.6733
  826MPD2    C212148   1.724   3.540  13.465 -0.3230  0.4402  0.2230
  826MPD2    C312149   1.602   3.579  13.508  0.0435  0.0914 -0.0400
  826MPD2    C412150   1.493   3.492  13.517 -0.4604  0.3545  0.0004
  826MPD2    C512151   1.511   3.367  13.467  0.2164  0.5308  0.1431
  826MPD2     H12152   1.808   3.608  13.473 -1.6051  1.8812  1.2864
  826MPD2    H112153   1.407   3.521  13.576  0.4434 -0.5790  1.7470
  826MPD2    H212154   1.646   3.229  13.381 -3.2734 -0.2054  0.8836
  826MPD2    H312155   1.434   3.292  13.483 -0.4646  1.1951  0.0056
  826MPD2     N12156   1.580   3.704  13.559 -0.8684  0.5091 -0.5714
  826MPD2    H512157   1.492   3.731  13.601 -0.1409  0.7067  0.8365
  826MPD2    N112158   1.865   3.367  13.382  0.2900  0.0379 -0.0611
  826MPD2    H712159   1.864   3.265  13.377  1.5998  0.0163  0.1106
  827MPD2     C12160   3.014   0.022   9.849  0.1856  1.0648 -0.2618
  827MPD2    C112161   2.936   4.664   9.931  0.6286  0.0718 -0.4961
  827MPD2    C212162   2.801   4.648   9.900 -0.4763  0.3305  0.0637
  827MPD2    C312163   2.761   4.708   9.779 -0.2313  0.6656  0.0497
  827MPD2    C412164   2.838   0.067   9.703  0.3452 -1.0217  0.4192
  827MPD2    C512165   2.966   0.082   9.738  0.2788 -0.3503  0.5489
  827MPD2     H12166   2.732   4.590   9.960  0.2810  0.8159  1.4019
  827MPD2    H112167   2.807   0.122   9.615  2.2365 -0.0912  0.3133
  827MPD2    H212168   3.116   0.032   9.887  1.0988 -2.4866 -1.7630
  827MPD2    H312169   3.032   0.152   9.688 -0.9608  1.2820  1.1752
  827MPD2     N12170   2.634   4.673   9.727  0.2322  0.4688 -0.0761
  827MPD2    H512171   2.579   4.598   9.768  0.6194 -0.2784 -0.9247
  827MPD2    N112172   2.989   4.627  10.056 -0.4410 -0.2007 -0.1140
  827MPD2    H712173   3.088   4.648  10.060 -0.4799 -0.2896  1.3406
  828MPD2     C12174   1.277   4.451  12.867 -0.6972 -0.3957  0.6299
  828MPD2    C112175   1.299   4.524  12.751  0.1406  0.7448 -0.0448
  828MPD2    C212176   1.423   4.513  12.693 -0.0343 -0.4284 -0.1121
  828MPD2    C312177   1.526   4.435  12.741 -0.0187 -0.1627  0.2065
  828MPD2    C412178   1.500   4.369  12.853 -0.1304 -0.1391 -0.5902
  828MPD2    C512179   1.379   4.381  12.918  0.5039  0.4363  0.5733
  828MPD2     H12180   1.432   4.565  12.599 -0.7000 -1.5722 -0.8120
  828MPD2    H112181   1.576   4.303  12.892  0.4596  1.2624  0.6569
  828MPD2    H212182   1.187   4.458  12.927  0.3815 -1.7571  2.4040
  828MPD2    H312183   1.366   4.331  13.014 -2.1261 -2.0046 -1.0589
  828MPD2     N12184   1.654   4.417  12.685 -0.3590 -0.6936 -0.3966
  828MPD2    H512185   1.715   4.350  12.730  0.4756 -0.6995 -1.5441
  828MPD2    N112186   1.200   4.585  12.672 -0.9346 -0.8695 -1.4836
  828MPD2    H712187   1.243   4.624  12.589 -1.0781  1.9038 -0.2620
  829MPD2     C12188   1.389   0.057  11.858 -0.3598 -0.2033 -0.5038
  829MPD2    C112189   1.251   0.067  11.850  0.3270  0.0966  0.2238
  829MPD2    C212190   1.178   0.023  11.963  0.3147 -0.8703 -0.2151
  829MPD2    C312191   1.245   0.004  12.085  0.4314 -0.4439 -0.2206
  829MPD2    C412192   1.380   0.004  12.087 -0.0811  0.5091 -0.2337
  829MPD2    C512193   1.454   0.025  11.971 -0.1310  0.0897 -0.2528
  829MPD2     H12194   1.072   0.001  11.965  0.1178  0.0499 -0.4767
  829MPD2    H112195   1.432   4.710  12.181  1.1482 -0.9573 -1.2015
  829MPD2    H212196   1.451   0.081  11.772  0.3041 -1.1969 -0.3023
  829MPD2    H312197   1.562   0.017  11.971 -0.1338  0.0093 -2.0253
  829MPD2     N12198   1.188   4.717  12.212 -0.0944  1.1640  0.5327
  829MPD2    H512199   1.254   4.707  12.288 -1.4832 -3.3036  1.1428
  829MPD2    N112200   1.192   0.118  11.732  0.1671  0.2660 -0.3666
  829MPD2    H712201   1.254   0.142  11.655 -2.3745  0.0562 -2.4674
  830MPD2     C12202   1.648   2.849  15.642 -0.6010 -0.3853  0.2585
  830MPD2    C112203   1.530   2.867  15.569  0.0241  0.4777  0.0219
  830MPD2    C212204   1.551   2.906  15.434  0.2861 -0.0533  0.3972
  830MPD2    C312205   1.677   2.939  15.385  0.1640  0.1867  0.5049
  830MPD2    C412206   1.786   2.914  15.458  0.7564  0.0912 -0.0455
  830MPD2    C512207   1.770   2.880  15.588 -0.1185 -0.1048  0.3287
  830MPD2     H12208   1.460   2.915  15.376 -0.1114 -1.2479  0.8337
  830MPD2    H112209   1.889   2.930  15.426  1.0979 -2.0430  0.0305
  830MPD2    H212210   1.634   2.830  15.748 -0.3796 -2.5276 -0.0856
  830MPD2    H312211   1.854   2.844  15.646 -0.5927 -1.1261  0.3897
  830MPD2     N12212   1.705   3.014  15.273  0.3565 -0.1271 -0.0450
  830MPD2    H512213   1.799   3.044  15.247  0.2322  0.9998  0.8444
  830MPD2    N112214   1.400   2.849  15.628  0.6546  0.1607 -0.5209
  830MPD2    H712215   1.400   2.848  15.730  1.0273 -1.1683 -0.5285
  831MPD2     C12216   1.050   0.188  16.186 -0.3051 -0.2667 -1.4200
  831MPD2    C112217   1.041   0.069  16.117  0.0725  0.2534  0.3110
  831MPD2    C212218   0.928   4.720  16.127  0.2377 -0.4772 -0.7392
  831MPD2    C312219   0.822   0.035  16.209 -0.0363  0.7581  0.0204
  831MPD2    C412220   0.842   0.144  16.288 -0.3936  0.6033 -0.7323
  831MPD2    C512221   0.940   0.232  16.258 -0.0258  0.9986 -0.4378
  831MPD2     H12222   0.928   4.623  16.079 -0.2703 -1.3112  0.9524
  831MPD2    H112223   0.767   0.170  16.362  0.4897  3.2696 -0.7891
  831MPD2    H212224   1.133   0.257  16.183 -0.1055 -0.4602 -0.2804
  831MPD2    H312225   0.953   0.322  16.318 -0.6101 -0.7550  2.3100
  831MPD2     N12226   0.716   4.670  16.237 -0.4379  0.3840  0.0055
  831MPD2    H512227   0.657   4.686  16.317  2.3170  0.9800  1.9213
  831MPD2    N112228   1.151   0.035  16.030  0.3162  0.1945  0.0975
  831MPD2    H712229   1.220   0.108  16.015  0.7851 -0.3829 -0.5476
  832MPD2     C12230   4.342   1.783  16.980  0.2478  0.1790  0.2115
  832MPD2    C112231   4.409   1.667  16.986  0.5918  0.3571 -1.0027
  832MPD2    C212232   4.354   1.552  16.921  0.3544  0.4569  0.2281
  832MPD2    C312233   4.232   1.557  16.864  0.2862 -0.1124 -0.5561
  832MPD2    C412234   4.168   1.675  16.857  0.3256  0.2291  0.4039
  832MPD2    C512235   4.224   1.787  16.915 -0.1080 -0.0534  0.3177
  832MPD2     H12236   4.402   1.457  16.939 -1.3498 -0.1333  1.7443
  832MPD2    H112237   4.069   1.686  16.815  0.4260 -0.4015  0.0073
  832MPD2    H212238   4.365   1.871  17.040 -1.4089  1.7553 -1.4502
  832MPD2    H312239   4.175   1.884  16.910 -1.2415 -0.5661  1.8870
  832MPD2     N12240   4.154   1.443  16.830  0.3912  0.4541 -0.0910
  832MPD2    H512241   4.062   1.447  16.787  0.4049  2.2189  0.0451
  832MPD2    N112242   4.523   1.662  17.067 -0.1362  0.2280 -0.4519
  832MPD2    H712243   4.553   1.747  17.114 -0.4685  1.5207 -2.5814
  833MPD2     C12244   1.780   2.260  12.460 -0.1913 -0.2618 -0.3465
  833MPD2    C112245   1.819   2.387  12.417  0.3531 -0.2887  0.3687
  833MPD2    C212246   1.889   2.394  12.298 -0.1507  0.5548 -0.3733
  833MPD2    C312247   1.926   2.279  12.228  0.3824  0.2127  0.5009
  833MPD2    C412248   1.896   2.156  12.281 -0.3347 -0.3725  0.3808
  833MPD2    C512249   1.831   2.154  12.398  0.6927 -0.1227 -0.5608
  833MPD2     H12250   1.912   2.492  12.257  0.7015  0.2217 -0.6965
  833MPD2    H112251   1.928   2.061  12.240 -1.1699 -0.2320 -0.6237
  833MPD2    H212252   1.724   2.246  12.552  1.4934 -1.2715  0.5227
  833MPD2    H312253   1.804   2.054  12.431 -1.7696  1.5991  2.5923
  833MPD2     N12254   2.011   2.296  12.119 -0.1433  0.0793  0.1148
  833MPD2    H512255   2.042   2.392  12.110 -0.2408  0.3999  3.1951
  833MPD2    N112256   1.758   2.502  12.475  0.3585 -0.2955 -0.1296
  833MPD2    H712257   1.698   2.490  12.556  0.3243 -1.4757 -0.3247
  834MPD2     C12258   1.975   2.205  11.106  0.5422 -0.3447 -0.4150
  834MPD2    C112259   1.932   2.111  11.194 -0.7048 -0.3867  0.5163
  834MPD2    C212260   1.951   2.129  11.329  0.0490  0.3525  0.2559
  834MPD2    C312261   2.017   2.236  11.384 -0.2115  0.5765  0.1727
  834MPD2    C412262   2.056   2.332  11.291  0.2865 -0.0692 -0.3316
  834MPD2    C512263   2.039   2.316  11.152  0.6530 -0.0130 -0.1393
  834MPD2     H12264   1.932   2.045  11.394 -1.0788  1.2796  1.1256
  834MPD2    H112265   2.107   2.423  11.321 -1.8534  1.2406 -0.6566
  834MPD2    H212266   1.969   2.195  10.998  2.0014 -3.3868 -0.2258
  834MPD2    H312267   2.068   2.395  11.083 -1.9821  0.2046 -1.0151
  834MPD2     N12268   2.041   2.242  11.527 -0.2316 -0.7479  0.5403
  834MPD2    H512269   2.002   2.166  11.581 -2.8034  0.4150  0.3380
  834MPD2    N112270   1.884   1.994  11.130 -0.2318  0.4516  0.1749
  834MPD2    H712271   1.912   1.977  11.034  0.5107 -2.0154  0.8231
  835MPD2     C12272   1.681   0.619  11.335 -0.1521 -0.1094  0.1340
  835MPD2    C112273   1.547   0.643  11.338 -0.0438 -0.2216 -0.1821
  835MPD2    C212274   1.482   0.622  11.456 -0.0019 -0.9594 -0.3265
  835MPD2    C312275   1.545   0.584  11.568  0.2595  0.3617 -0.9189
  835MPD2    C412276   1.681   0.565  11.565  0.0243 -0.5464  0.0318
  835MPD2    C512277   1.750   0.584  11.451 -0.7319 -0.0589 -0.6440
  835MPD2     H12278   1.374   0.614  11.442  0.1156 -2.8341 -0.0978
  835MPD2    H112279   1.739   0.530  11.649  1.4096  0.3842 -0.5173
  835MPD2    H212280   1.733   0.613  11.240 -1.2907 -3.4255 -0.2648
  835MPD2    H312281   1.854   0.555  11.438 -0.9340 -0.5917 -1.1084
  835MPD2     N12282   1.475   0.541  11.678  0.2968  0.6109 -0.3602
  835MPD2    H512283   1.531   0.503  11.753 -2.4935 -0.2138  1.2996
  835MPD2    N112284   1.469   0.667  11.228  0.2035 -0.1306 -0.5383
  835MPD2    H712285   1.369   0.676  11.240  0.1817 -1.2369  0.1169
  836MPD2     C12286   0.950   0.895  11.984  0.0646 -0.6230  0.2981
  836MPD2    C112287   0.947   0.777  12.049 -0.7413  0.1730  0.0254
  836MPD2    C212288   0.848   0.767  12.146  0.4362  0.0775  0.0071
  836MPD2    C312289   0.784   0.883  12.201 -0.1656 -0.0708 -0.4866
  836MPD2    C412290   0.802   0.998  12.141  0.7831  0.2486 -0.2181
  836MPD2    C512291   0.877   1.007  12.026 -0.4378 -0.4360 -0.0310
  836MPD2     H12292   0.826   0.672  12.195  0.3343 -0.8725 -1.8744
  836MPD2    H112293   0.754   1.090  12.172  0.5708  0.3019 -0.7027
  836MPD2    H212294   1.001   0.910  11.890 -0.0079 -3.3084 -0.1626
  836MPD2    H312295   0.875   1.102  11.974  0.5688 -0.5465 -0.2882
  836MPD2     N12296   0.714   0.874  12.322  0.1836  0.4608 -0.6756
  836MPD2    H512297   0.701   0.960  12.373  3.4859  0.3563  0.3648
  836MPD2    N112298   1.027   0.678  12.001  0.5504 -0.3648 -0.8985
  836MPD2    H712299   1.106   0.700  11.941  1.7184 -1.6304  0.1665
  837MPD2     C12300   0.237   4.456  10.315  0.4413 -0.1908 -0.4607
  837MPD2    C112301   0.212   4.448  10.176  0.0549 -0.4164 -0.2832
  837MPD2    C212302   0.203   4.566  10.108  0.2087 -0.3353  0.4875
  837MPD2    C312303   0.230   4.690  10.169 -0.9511 -0.8450 -0.2233
  837MPD2    C412304   0.286   4.694  10.295 -0.2672  0.6317 -0.3301
  837MPD2    C512305   0.267   4.582  10.374  0.4111  0.6313 -0.0661
  837MPD2     H12306   0.162   4.577  10.008  3.5459  1.7616 -0.6407
  837MPD2    H112307   0.303   0.063  10.348 -1.8578  1.1686 -0.7693
  837MPD2    H212308   0.234   4.362  10.368 -2.0586 -0.2073 -0.6563
  837MPD2    H312309   0.276   4.581  10.482 -0.0614 -0.4955 -0.0385
  837MPD2     N12310   0.205   0.074  10.077 -0.6600  0.2369 -0.3458
  837MPD2    H512311   0.171   0.051   9.985 -0.4597  1.7665 -0.7934
  837MPD2    N112312   0.169   4.331  10.112  0.1930  0.1693 -0.3427
  837MPD2    H712313   0.147   4.342  10.013 -0.7255 -0.0255 -0.1586
  838MPD2     C12314   2.906   2.430  11.089 -0.1955  0.2454 -0.6421
  838MPD2    C112315   2.919   2.539  11.173  0.0932 -0.6578 -0.2240
  838MPD2    C212316   2.823   2.543  11.274 -0.0537  0.7112  0.2255
  838MPD2    C312317   2.731   2.444  11.302  0.4516 -0.3014  0.6985
  838MPD2    C412318   2.730   2.334  11.220  0.1290  0.2441 -0.1726
  838MPD2    C512319   2.819   2.327  11.114 -0.4171  0.3287 -0.2168
  838MPD2     H12320   2.845   2.618  11.349 -0.7631 -1.3630  2.5069
  838MPD2    H112321   2.650   2.261  11.227  0.4786 -0.2536 -1.2443
  838MPD2    H212322   2.976   2.424  11.006  1.1433  2.1502  0.3525
  838MPD2    H312323   2.827   2.255  11.034  0.6635  0.6663 -0.4066
  838MPD2     N12324   2.660   2.452  11.430  0.4831 -0.1100 -0.1810
  838MPD2    H512325   2.685   2.533  11.486 -0.3262  0.2196 -0.2986
  838MPD2    N112326   3.008   2.637  11.146 -0.3123 -0.5887  0.0756
  838MPD2    H712327   3.077   2.629  11.072 -0.4314  0.1863 -0.1164
  839MPD2     C12328   2.968   2.358  11.696  0.1179  0.1921 -0.3791
  839MPD2    C112329   3.008   2.318  11.568 -1.2771 -0.6940  0.4037
  839MPD2    C212330   3.099   2.397  11.499 -0.2798 -0.6174 -0.1715
  839MPD2    C312331   3.164   2.506  11.565 -0.3134  0.4222 -0.5350
  839MPD2    C412332   3.120   2.540  11.691  0.2352 -0.2545 -0.0611
  839MPD2    C512333   3.024   2.471  11.753  0.2167  0.0539 -0.1861
  839MPD2     H12334   3.143   2.368  11.404 -0.6937 -0.3769 -0.4387
  839MPD2    H112335   3.147   2.635  11.735  0.0423  0.1100 -0.7315
  839MPD2    H212336   2.890   2.306  11.750 -1.4884  2.7498 -0.2473
  839MPD2    H312337   2.994   2.503  11.852 -2.7169  1.1601 -1.4304
  839MPD2     N12338   3.259   2.592  11.508  0.3969  0.3094 -0.7305
  839MPD2    H512339   3.286   2.677  11.555  1.8233 -0.6770  0.2253
  839MPD2    N112340   2.955   2.204  11.495 -0.2980  0.0277 -0.1219
  839MPD2    H712341   2.977   2.178  11.400  1.4158  2.5731 -0.4276
  840MPD2     C12342   3.582   0.033  10.222  0.2772 -0.0356 -0.0835
  840MPD2    C112343   3.504   0.049  10.337 -0.0513  0.3785 -0.8201
  840MPD2    C212344   3.541   0.130  10.444  0.0331 -0.0558  0.2886
  840MPD2    C312345   3.655   0.206  10.426  0.0536 -0.2244 -0.0765
  840MPD2    C412346   3.720   0.197  10.306  0.4598 -0.7603 -0.2319
  840MPD2    C512347   3.697   0.107  10.208 -0.6940  1.0443 -0.0060
  840MPD2     H12348   3.487   0.128  10.539  1.6202 -1.8342  1.1567
  840MPD2    H112349   3.817   0.245  10.296  0.5095 -0.5178  1.4512
  840MPD2    H212350   3.564   4.684  10.144  1.1707 -0.2486 -0.0909
  840MPD2    H312351   3.774   0.102  10.132 -0.1924 -2.8759  0.7514
  840MPD2     N12352   3.707   0.298  10.522 -0.2715 -0.2892 -0.1460
  840MPD2    H512353   3.798   0.340  10.506 -0.3802  0.4529  1.1634
  840MPD2    N112354   3.391   4.682  10.341  0.2927 -0.0906  0.0484
  840MPD2    H712355   3.348   4.651  10.255  0.7274  1.0411 -0.5871
  841MPD2     C12356   2.621   4.463  14.930  0.3598  0.4455  0.4589
  841MPD2    C112357   2.669   4.409  14.816  0.3235  0.1124 -0.2865
  841MPD2    C212358   2.741   4.490  14.729 -0.4629  0.1997  0.4264
  841MPD2    C312359   2.760   4.623  14.756 -0.3104  0.5934 -0.4630
  841MPD2    C412360   2.695   4.675  14.871  0.6569 -0.0055  0.0312
  841MPD2    C512361   2.635   4.595  14.959  0.4170  0.0086  0.7117
  841MPD2     H12362   2.790   4.436  14.649 -1.1578 -1.5304  1.1698
  841MPD2    H112363   2.696   0.057  14.893 -0.9154 -0.4717  2.3905
  841MPD2    H212364   2.573   4.404  15.008  0.3229  0.3523  0.3669
  841MPD2    H312365   2.587   4.644  15.043  1.6542  0.9917  0.8538
  841MPD2     N12366   2.827   4.707  14.659 -0.3302 -0.1655  0.6428
  841MPD2    H512367   2.868   4.666  14.576 -1.2095  0.6717 -0.1997
  841MPD2    N112368   2.648   4.272  14.784 -0.2812  0.3675  0.2284
  841MPD2    H712369   2.673   4.240  14.691  2.4252  1.8767  0.4194
  842MPD2     C12370   3.389   1.090  16.820 -0.4843 -0.2469  0.1241
  842MPD2    C112371   3.272   1.044  16.886  0.8026  0.4872  0.5203
  842MPD2    C212372   3.286   0.985  17.010 -0.6765  0.2975 -0.8290
  842MPD2    C312373   3.408   0.962  17.064 -1.2530  0.5828 -0.4606
  842MPD2    C412374   3.516   1.016  16.999  0.2544 -0.1518  0.2306
  842MPD2    C512375   3.508   1.072  16.876  0.5461 -0.4205 -0.3560
  842MPD2     H12376   3.192   0.955  17.056 -1.0174  1.7283 -0.6101
  842MPD2    H112377   3.616   1.014  17.041  1.2625 -0.8144 -2.1642
  842MPD2    H212378   3.379   1.148  16.729  3.0100 -0.3322 -0.3180
  842MPD2    H312379   3.594   1.111  16.823  0.9188  0.3025  0.7937
  842MPD2     N12380   3.432   0.917  17.195 -0.0261  0.1958  0.1368
  842MPD2    H512381   3.527   0.919  17.232  0.2815 -0.5862 -0.6099
  842MPD2    N112382   3.150   1.080  16.825 -0.1105  0.7928 -0.1411
  842MPD2    H712383   3.162   1.114  16.730 -0.4635 -2.1514 -1.2582
  843MPD2     C12384   0.643   2.223  17.685 -0.5294 -0.4725  0.4327
  843MPD2    C112385   0.735   2.133   0.047 -0.4817 -0.0933  0.3635
  843MPD2    C212386   0.854   2.175   0.097  0.4044  0.3279 -0.5141
  843MPD2    C312387   0.881   2.314   0.086 -0.7258  0.3003  0.4236
  843MPD2    C412388   0.795   2.402   0.028  0.2543  0.2064 -0.5743
  843MPD2    C512389   0.679   2.356  17.673 -0.0549 -1.3427  0.2607
  843MPD2     H12390   0.931   2.108   0.134 -0.1861  0.2338  0.5332
  843MPD2    H112391   0.810   2.509   0.018  0.0025  0.1691 -1.3339
  843MPD2    H212392   0.543   2.202  17.650 -0.2123 -0.5508 -0.4034
  843MPD2    H312393   0.617   2.430  17.625  0.2944 -0.1519  1.6447
  843MPD2     N12394   1.010   2.370   0.125  0.2949  0.3042  0.6825
  843MPD2    H512395   1.013   2.472   0.122 -1.3216  0.3660  1.4165
  843MPD2    N112396   0.702   1.996   0.048  0.6392 -0.3369 -0.1850
  843MPD2    H712397   0.603   1.984   0.029 -0.0344  1.7174  1.9841
  844MPD2     C12398   4.012   1.228  16.305  0.1649 -0.2380 -0.1385
  844MPD2    C112399   4.110   1.133  16.337 -0.5626  0.1286 -0.0284
  844MPD2    C212400   4.223   1.168  16.400  0.3340 -0.7146 -0.0029
  844MPD2    C312401   4.252   1.304  16.417  0.1928  1.1944  0.0419
  844MPD2    C412402   4.156   1.399  16.386 -0.4828 -1.0276 -0.8016
  844MPD2    C512403   4.033   1.357  16.339  0.5555  0.3366 -1.5453
  844MPD2     H12404   4.298   1.091  16.416  0.4901 -0.6328 -0.3486
  844MPD2    H112405   4.162   1.504  16.411 -1.5650 -1.3788  0.8646
  844MPD2    H212406   3.915   1.208  16.261  0.0985 -0.8146  0.2693
  844MPD2    H312407   3.960   1.433  16.313 -1.4307 -0.4462  1.7416
  844MPD2     N12408   4.384   1.334  16.459 -0.3460 -0.2821 -0.0793
  844MPD2    H512409   4.463   1.271  16.451  1.0835  1.4824  0.1667
  844MPD2    N112410   4.092   0.999  16.301 -0.3668 -0.0407 -0.2194
  844MPD2    H712411   4.163   0.939  16.343 -0.5645 -0.5681 -0.6347
  845MPD2     C12412   4.694   2.204  16.915  0.1712  0.5155 -0.5217
  845MPD2    C112413   4.566   2.144  16.909 -0.5694  0.7398  0.0692
  845MPD2    C212414   4.555   2.020  16.843  0.1869 -0.2636 -0.9719
  845MPD2    C312415   4.662   1.948  16.801  0.4381 -0.2712  0.2208
  845MPD2    C412416   0.065   2.007  16.802 -0.3999  0.4603 -0.0046
  845MPD2    C512417   0.075   2.140  16.854  0.2153  0.8444 -0.2591
  845MPD2     H12418   4.461   1.965  16.839 -0.0510 -0.0741  1.6596
  845MPD2    H112419   0.152   1.950  16.774 -0.7408  0.2990 -0.7383
  845MPD2    H212420   4.711   2.300  16.962 -1.0579  1.0975 -1.2736
  845MPD2    H312421   0.171   2.190  16.844  0.3351  0.0919 -2.8954
  845MPD2     N12422   4.639   1.818  16.754 -0.3007 -0.9042 -0.4779
  845MPD2    H512423   4.543   1.793  16.735 -1.0506  1.7034 -0.1227
  845MPD2    N112424   4.458   2.215  16.968 -0.2104  0.0419 -0.8095
  845MPD2    H712425   4.480   2.286  17.036 -0.3413 -0.4699 -0.2339
  846MPD2     C12426   1.369   2.041  13.514 -0.0795  0.2321 -0.2988
  846MPD2    C112427   1.279   2.141  13.540 -0.3031  0.2816  0.9430
  846MPD2    C212428   1.241   2.174  13.675  0.9852 -0.3773 -0.0458
  846MPD2    C312429   1.293   2.103  13.778  0.4101 -0.1495 -0.0962
  846MPD2    C412430   1.381   2.000  13.746  0.2210 -0.0790  0.5454
  846MPD2    C512431   1.422   1.976  13.617 -0.4951  0.5267 -0.0093
  846MPD2     H12432   1.176   2.258  13.694 -1.6503 -2.1240 -1.2384
  846MPD2    H112433   1.400   1.930  13.827  0.7503  0.1426  0.6106
  846MPD2    H212434   1.408   2.019  13.416 -0.5164  2.4200 -0.9662
  846MPD2    H312435   1.495   1.896  13.603 -0.0741  1.0751 -0.9611
  846MPD2     N12436   1.240   2.121  13.914 -0.6571 -0.4720  0.0200
  846MPD2    H512437   1.150   2.166  13.926 -0.7511 -1.1844  1.9549
  846MPD2    N112438   1.219   2.216  13.442 -0.4237 -0.0735 -0.4027
  846MPD2    H712439   1.152   2.287  13.471  0.0860 -0.1312  0.8664
  847MPD2     C12440   1.295   3.072  14.054 -0.2150 -0.3485  0.3543
  847MPD2    C112441   1.380   3.150  14.129  0.9693  0.4343  0.5374
  847MPD2    C212442   1.484   3.084  14.191 -0.0006 -0.3268 -0.3920
  847MPD2    C312443   1.505   2.950  14.180  0.4630 -0.1026  0.1232
  847MPD2    C412444   1.410   2.875  14.115 -0.7508  0.3047 -0.3387
  847MPD2    C512445   1.312   2.938  14.045  0.2357 -0.2672 -0.6259
  847MPD2     H12446   1.554   3.139  14.252 -0.5940  0.1294 -0.1229
  847MPD2    H112447   1.418   2.770  14.089 -1.1774 -0.3669  2.2637
  847MPD2    H212448   1.204   3.119  14.018  0.1027 -0.5050 -0.6465
  847MPD2    H312449   1.239   2.869  14.004  0.4987 -0.1138 -1.3544
  847MPD2     N12450   1.611   2.889  14.256 -0.2802  0.9632 -0.0467
  847MPD2    H512451   1.661   2.962  14.306  0.1847  0.9549 -0.4996
  847MPD2    N112452   1.366   3.278  14.164 -0.3481  0.0676  0.1586
  847MPD2    H712453   1.448   3.301  14.219 -1.7257 -0.3814  2.3603
  848MPD2     C12454   3.683   1.292  16.362  0.1445  0.3594 -0.3806
  848MPD2    C112455   3.713   1.364  16.476 -0.0371 -0.3249  0.2791
  848MPD2    C212456   3.686   1.500  16.477  0.1377 -0.1675 -0.3457
  848MPD2    C312457   3.639   1.557  16.364  0.7053 -0.0924 -0.4536
  848MPD2    C412458   3.615   1.490  16.246  0.6459  0.3134 -0.6063
  848MPD2    C512459   3.625   1.356  16.258  0.1516 -0.6706 -0.8255
  848MPD2     H12460   3.694   1.550  16.573  1.8418  1.8578 -1.5383
  848MPD2    H112461   3.577   1.539  16.157 -2.8613 -0.9774  0.1842
  848MPD2    H212462   3.694   1.185  16.350  0.5522  0.3816 -0.1857
  848MPD2    H312463   3.601   1.302  16.167 -0.3638 -1.3624 -0.2783
  848MPD2     N12464   3.595   1.691  16.362  1.0383 -0.3272  0.2199
  848MPD2    H512465   3.576   1.734  16.272 -1.2524 -0.1396  0.8040
  848MPD2    N112466   3.785   1.306  16.584  0.2571 -0.2654  0.1089
  848MPD2    H712467   3.828   1.372  16.647 -2.4255 -0.6338  2.3477
  849MPD2     C12468   3.076   1.097  13.756 -0.2186  0.1440 -0.3059
  849MPD2    C112469   3.193   1.036  13.801 -0.0938  0.4512  0.0516
  849MPD2    C212470   3.243   1.070  13.926  0.2144 -0.3867 -0.4861
  849MPD2    C312471   3.184   1.177  14.000  0.0292  0.8997 -0.0285
  849MPD2    C412472   3.077   1.244  13.942 -0.2565 -0.1727 -0.2701
  849MPD2    C512473   3.025   1.205  13.824 -0.2233  0.3176 -0.4097
  849MPD2     H12474   3.327   1.015  13.966 -0.7362 -1.3814  0.1536
  849MPD2    H112475   3.033   1.338  13.972 -0.0155 -0.7481  1.8426
  849MPD2    H212476   3.022   1.052  13.674  0.6927  3.5134 -2.7672
  849MPD2    H312477   2.940   1.258  13.783  1.2075  1.2196 -2.1971
  849MPD2     N12478   3.236   1.217  14.123  0.0592  0.1061  0.2115
  849MPD2    H512479   3.224   1.308  14.168  0.0018 -0.5423  1.5013
  849MPD2    N112480   3.244   0.928  13.733  0.3219  0.0190  0.7088
  849MPD2    H712481   3.333   0.908  13.778  0.1187 -0.0209  1.0964
  850MPD2     C12482   0.950   3.596  14.709  0.5102  1.0056  0.3156
  850MPD2    C112483   0.940   3.722  14.764  0.2217 -0.3551  0.0652
  850MPD2    C212484   1.058   3.789  14.801 -0.8410 -0.1949 -0.6395
  850MPD2    C312485   1.176   3.725  14.802 -0.0550 -0.1551  0.2823
  850MPD2    C412486   1.183   3.597  14.755  0.3531  0.0907  0.6361
  850MPD2    C512487   1.076   3.534  14.704 -0.6466  0.4684 -0.0198
  850MPD2     H12488   1.057   3.893  14.831 -2.6595 -0.8490  1.5704
  850MPD2    H112489   1.279   3.547  14.749  0.2560 -0.1986  1.4830
  850MPD2    H212490   0.860   3.544  14.678  0.1554  1.8085 -0.0041
  850MPD2    H312491   1.075   3.430  14.672 -1.8593  0.1747  0.9758
  850MPD2     N12492   1.293   3.776  14.859 -0.1685  0.1771  1.4011
  850MPD2    H512493   1.364   3.704  14.872 -0.0581  0.1782  0.8007
  850MPD2    N112494   0.803   3.771  14.779 -0.4751  0.0768  0.4343
  850MPD2    H712495   0.730   3.737  14.717 -0.2774  0.5949 -0.0750
  851MPD2     C12496   1.364   3.772  15.439 -0.1011  0.0219  0.5525
  851MPD2    C112497   1.307   3.746  15.318  0.2540 -0.4690  0.0043
  851MPD2    C212498   1.361   3.641  15.242 -0.5252  0.1589  0.6191
  851MPD2    C312499   1.481   3.582  15.283 -0.1724 -0.3844 -0.4467
  851MPD2    C412500   1.541   3.618  15.402  0.3016 -0.3429 -0.0800
  851MPD2    C512501   1.478   3.706  15.488  0.2918 -0.2473 -0.0891
  851MPD2     H12502   1.310   3.604  15.153  1.6568  1.0361 -1.0113
  851MPD2    H112503   1.628   3.571  15.446  0.8044 -0.4018 -1.1389
  851MPD2    H212504   1.318   3.850  15.499  0.6118  0.2467  0.8161
  851MPD2    H312505   1.527   3.747  15.576  0.1978 -1.4204  0.5092
  851MPD2     N12506   1.539   3.479  15.194 -0.1030  0.1339  0.4119
  851MPD2    H512507   1.496   3.462  15.104  0.5953 -2.5487  0.5959
  851MPD2    N112508   1.195   3.822  15.267  0.4880  0.1471  0.1868
  851MPD2    H712509   1.164   3.899  15.325 -0.9689 -0.0831 -0.2799
  852MPD2     C12510   0.546   1.852  10.444 -0.1013 -0.5595 -0.4952
  852MPD2    C112511   0.638   1.857  10.544 -0.1435 -1.0708 -0.1205
  852MPD2    C212512   0.771   1.891  10.521 -0.0393  0.1226 -0.5521
  852MPD2    C312513   0.807   1.936  10.397  0.3809 -0.6665 -0.7953
  852MPD2    C412514   0.711   1.939  10.297 -0.5490  0.4406  0.1462
  852MPD2    C512515   0.587   1.894  10.318 -0.8740  0.3333  0.2075
  852MPD2     H12516   0.845   1.886  10.600 -0.2982  0.4817 -0.2905
  852MPD2    H112517   0.735   1.949  10.191  0.7067 -1.1084  0.2939
  852MPD2    H212518   0.445   1.811  10.449 -0.3950  0.4188  1.1758
  852MPD2    H312519   0.520   1.886  10.233  2.9665 -0.6000 -2.7435
  852MPD2     N12520   0.940   1.956  10.375  0.0537 -0.7858 -0.1526
  852MPD2    H512521   1.001   1.935  10.453  0.5639 -0.3217 -0.4271
  852MPD2    N112522   0.611   1.803  10.671 -0.1591  0.0205 -0.4654
  852MPD2    H712523   0.672   1.834  10.746 -0.4783  1.9878 -1.0289
  853MPD2     C12524   2.600   1.065  12.006  0.5069 -0.0274  0.2116
  853MPD2    C112525   2.533   1.170  11.946 -0.1807  0.0028 -0.7085
  853MPD2    C212526   2.561   1.202  11.810  0.0768  0.3386 -0.7871
  853MPD2    C312527   2.659   1.139  11.739 -0.7019  0.0199 -0.5351
  853MPD2    C412528   2.738   1.048  11.808 -0.6615 -0.4375  0.5422
  853MPD2    C512529   2.708   1.009  11.937 -0.0061  0.3081 -0.3020
  853MPD2     H12530   2.509   1.285  11.763 -0.2905  0.6891  0.2261
  853MPD2    H112531   2.830   1.002  11.774 -0.2095 -0.6002  1.9564
  853MPD2    H212532   2.578   1.028  12.106  0.0309  1.0145  0.4930
  853MPD2    H312533   2.755   0.918  11.973 -1.1625 -0.0887  0.2026
  853MPD2     N12534   2.687   1.170  11.605  0.4551  0.7356  0.3426
  853MPD2    H512535   2.771   1.130  11.564 -1.3745 -1.6468 -1.0733
  853MPD2    N112536   2.450   1.249  12.027 -0.5295 -0.0055  0.0222
  853MPD2    H712537   2.431   1.204  12.116  0.4607 -0.0185  0.2236
  854MPD2     C12538   3.996   1.378  12.760  0.7282  0.3517 -0.0206
  854MPD2    C112539   3.989   1.477  12.857 -0.1379 -1.2746  0.3143
  854MPD2    C212540   3.992   1.442  12.994 -1.2192 -0.1319  0.0009
  854MPD2    C312541   4.029   1.311  13.033 -0.5674  1.2242  0.2077
  854MPD2    C412542   4.043   1.219  12.931  0.0694 -0.2803  0.0933
  854MPD2    C512543   4.025   1.247  12.801 -0.4271  0.1307  0.4148
  854MPD2     H12544   3.991   1.524  13.066  0.5168 -2.2774  2.4502
  854MPD2    H112545   4.069   1.115  12.948  0.1733 -0.4449 -1.0784
  854MPD2    H212546   3.991   1.397  12.653 -1.0262 -0.0310 -0.0137
  854MPD2    H312547   4.044   1.172  12.726 -0.4592  2.6661 -2.1309
  854MPD2     N12548   4.066   1.273  13.167  0.8303  0.7656 -0.7536
  854MPD2    H512549   4.103   1.180  13.187 -2.2256 -0.1604  0.6274
  854MPD2    N112550   3.991   1.611  12.811  0.0474  0.7208  0.7464
  854MPD2    H712551   3.999   1.625  12.711 -2.3299 -3.0873 -0.0064
  855MPD2     C12552   3.969   0.704  13.895 -0.7798  0.5091 -0.2725
  855MPD2    C112553   4.078   0.688  13.824 -0.0330 -0.3988  0.1212
  855MPD2    C212554   4.118   0.771  13.723  0.3496 -0.2156 -1.0402
  855MPD2    C312555   4.045   0.884  13.701  0.0127  0.1173 -0.6273
  855MPD2    C412556   3.921   0.892  13.764 -0.1164  0.1573 -0.1882
  855MPD2    C512557   3.881   0.796  13.860 -0.6917 -0.1439  0.1103
  855MPD2     H12558   4.219   0.760  13.684  0.9126 -0.1305  0.4005
  855MPD2    H112559   3.853   0.975  13.747 -2.0566 -0.9387  2.2021
  855MPD2    H212560   3.936   0.632  13.969 -0.6314  1.3446  0.6068
  855MPD2    H312561   3.789   0.804  13.916 -0.5107  1.4572  0.1597
  855MPD2     N12562   4.079   0.980  13.602 -0.4265 -0.3800 -0.1156
  855MPD2    H512563   4.014   1.057  13.595 -1.6884 -1.5215 -1.0041
  855MPD2    N112564   4.165   0.577  13.850 -0.3676 -0.1780 -0.3701
  855MPD2    H712565   4.236   0.556  13.781 -0.5192 -2.6025  0.2388
  856MPD2     C12566   2.081   2.167  13.269 -0.6943  0.7079  0.6161
  856MPD2    C112567   2.179   2.208  13.356  0.2815 -0.0057  0.2395
  856MPD2    C212568   2.173   2.328  13.421  0.2263  0.2085  0.6449
  856MPD2    C312569   2.071   2.419  13.392  0.3168  0.2239  0.4600
  856MPD2    C412570   1.969   2.369  13.314 -0.5090 -0.1888  0.1791
  856MPD2    C512571   1.979   2.250  13.254  0.6437  0.3884 -0.5183
  856MPD2     H12572   2.250   2.346  13.494  0.3761  0.6631  0.3745
  856MPD2    H112573   1.877   2.425  13.301 -0.5441 -0.3462 -0.2662
  856MPD2    H212574   2.076   2.072  13.217  0.6923  0.9138  0.1204
  856MPD2    H312575   1.895   2.228  13.190 -0.7866 -1.8973  2.1609
  856MPD2     N12576   2.059   2.546  13.454  0.0769 -0.5003  0.2455
  856MPD2    H512577   1.972   2.594  13.433  0.2479 -1.4672 -2.6253
  856MPD2    N112578   2.281   2.124  13.404  0.0949  0.1388  0.1105
  856MPD2    H712579   2.345   2.173  13.466 -1.4089 -0.9078  2.4779
  857MPD2     C12580   3.462   4.221  12.736  0.5161  0.1148 -0.0390
  857MPD2    C112581   3.586   4.226  12.804  0.5187 -0.5291 -0.4294
  857MPD2    C212582   3.644   4.349  12.826  0.3738 -0.2745  0.3304
  857MPD2    C312583   3.578   4.460  12.787  0.1836 -0.2522 -0.0381
  857MPD2    C412584   3.466   4.456  12.711 -0.2821 -0.0972  0.1860
  857MPD2    C512585   3.409   4.335  12.688  0.2510 -0.5314  0.0312
  857MPD2     H12586   3.735   4.362  12.885  1.2346  0.0773 -1.0766
  857MPD2    H112587   3.415   4.547  12.682  0.1298  0.3727  0.9181
  857MPD2    H212588   3.421   4.124  12.710  1.9008 -0.2174 -1.0069
  857MPD2    H312589   3.319   4.314  12.632  0.2044 -1.4638  0.4719
  857MPD2     N12590   3.634   4.592  12.827  0.2106 -0.6280  0.6492
  857MPD2    H512591   3.711   4.584  12.892  3.0558 -2.1486 -2.8743
  857MPD2    N112592   3.654   4.107  12.837 -0.1828  0.1987 -0.0489
  857MPD2    H712593   3.593   4.026  12.844  1.6394 -0.9697  1.8223
  858MPD2     C12594   4.040   3.597  16.766 -0.3855  0.1615  0.8126
  858MPD2    C112595   4.159   3.609  16.697 -0.3790  0.0018 -0.1807
  858MPD2    C212596   4.215   3.737  16.666 -0.6055 -1.0582 -0.2344
  858MPD2    C312597   4.146   3.847  16.707  0.5153 -0.9502  0.0580
  858MPD2    C412598   4.025   3.837  16.766 -0.0600  0.6349 -0.2457
  858MPD2    C512599   3.978   3.714  16.800 -0.1864  0.2738  0.4031
  858MPD2     H12600   4.306   3.737  16.608 -1.2776 -0.5201 -1.2851
  858MPD2    H112601   3.967   3.925  16.791  0.6719  0.9703  0.2653
  858MPD2    H212602   3.991   3.503  16.788 -2.1390  1.2000  1.2976
  858MPD2    H312603   3.879   3.709  16.842 -0.0376 -1.6016  0.5510
  858MPD2     N12604   4.211   3.974  16.692  0.0545 -0.0973  0.4786
  858MPD2    H512605   4.307   3.966  16.661 -0.8522 -0.6412 -2.2081
  858MPD2    N112606   4.203   3.484  16.651  0.6111  0.2722 -0.5290
  858MPD2    H712607   4.153   3.398  16.672 -1.2547  1.2385 -1.0541
  859MPD2     C12608   2.858   0.756  14.891 -0.2214  0.4719 -0.3943
  859MPD2    C112609   2.983   0.791  14.921  1.3492  0.1037  0.0803
  859MPD2    C212610   3.070   0.687  14.950  0.2001  0.0511  0.5454
  859MPD2    C312611   3.031   0.553  14.934 -1.0067  0.4707 -0.0761
  859MPD2    C412612   2.902   0.524  14.897 -0.4117  0.0096  0.2648
  859MPD2    C512613   2.813   0.630  14.882  0.4262 -0.7223  0.4549
  859MPD2     H12614   3.173   0.714  14.971 -0.0282  2.2751 -1.0784
  859MPD2    H112615   2.863   0.426  14.876  0.0430 -0.4076  1.3573
  859MPD2    H212616   2.785   0.832  14.864 -1.3284  0.2375  1.8910
  859MPD2    H312617   2.708   0.626  14.857  0.2804 -1.2807  1.1674
  859MPD2     N12618   3.122   0.452  14.967 -0.5199 -0.3019 -0.3475
  859MPD2    H512619   3.079   0.361  14.953  0.1304 -0.6723  0.0266
  859MPD2    N112620   3.011   0.927  14.947 -0.4264  0.6976 -0.2617
  859MPD2    H712621   2.943   0.998  14.919  1.1400  2.2304 -0.1398
  860MPD2     C12622   0.401   0.916  12.168 -0.4384  0.0196 -0.3973
  860MPD2    C112623   0.386   1.041  12.223 -1.2679 -0.1267  0.0098
  860MPD2    C212624   0.323   1.051  12.345 -0.5858 -0.3042 -0.2450
  860MPD2    C312625   0.264   0.952  12.420 -0.4454 -0.7781 -0.6465
  860MPD2    C412626   0.278   0.828  12.358  0.3072 -0.1941 -0.3016
  860MPD2    C512627   0.346   0.813  12.237 -0.0962 -0.2396 -0.2477
  860MPD2     H12628   0.307   1.152  12.381  1.1930 -0.4112  0.8281
  860MPD2    H112629   0.224   0.743  12.397  1.5028 -0.4016  0.8957
  860MPD2    H212630   0.444   0.902  12.069 -0.7582 -3.5811 -0.0179
  860MPD2    H312631   0.367   0.714  12.200 -0.8369 -0.1693 -0.8503
  860MPD2     N12632   0.178   0.985  12.525 -0.3531 -0.0903  0.5068
  860MPD2    H512633   0.168   1.082  12.554 -2.1665  0.2877 -1.3287
  860MPD2    N112634   0.434   1.169  12.172  0.4647 -0.6143  0.4790
  860MPD2    H712635   0.425   1.251  12.232  0.0191  0.0778 -0.5321
  861MPD2     C12636   4.100   3.694  10.511 -0.5609 -0.6423 -0.1551
  861MPD2    C112637   4.084   3.802  10.584  0.6180 -0.3737  0.6353
  861MPD2    C212638   4.021   3.908  10.518  0.6131  0.4741  0.0205
  861MPD2    C312639   3.989   3.898  10.384  0.1010  0.0237 -0.1748
  861MPD2    C412640   4.002   3.786  10.311 -0.4747 -0.1638  0.3926
  861MPD2    C512641   4.055   3.687  10.383  0.2593  0.3016  0.6086
  861MPD2     H12642   3.988   3.992  10.579 -0.4497 -1.2250  1.8019
  861MPD2    H112643   3.989   3.780  10.203 -0.5158  1.5777  0.3007
  861MPD2    H212644   4.138   3.597  10.543  1.1615 -0.6809 -2.3324
  861MPD2    H312645   4.066   3.593  10.330 -3.6635  0.1821 -0.0340
  861MPD2     N12646   3.953   4.011  10.311  0.4160  0.2205  0.6548
  861MPD2    H512647   3.933   3.991  10.213 -0.3572 -0.5390  0.9626
  861MPD2    N112648   4.106   3.809  10.726 -0.2614 -0.0635  0.0161
  861MPD2    H712649   4.076   3.894  10.772 -0.2800 -0.3811  0.5951
  862MPD2     C12650   3.950   4.272   9.632 -0.2969  0.2433  0.1137
  862MPD2    C112651   3.928   4.196   9.746  0.9181 -0.0487 -0.6608
  862MPD2    C212652   3.901   4.065   9.724  0.3741  0.3716 -0.1545
  862MPD2    C312653   3.876   4.007   9.596  0.1422  0.5159 -0.2116
  862MPD2    C412654   3.910   4.086   9.486 -0.2908 -0.3741 -0.0960
  862MPD2    C512655   3.943   4.214   9.510 -0.7893 -0.1229 -0.3623
  862MPD2     H12656   3.887   4.000   9.810 -0.1265 -1.6960 -1.7876
  862MPD2    H112657   3.901   4.051   9.384 -0.0002  0.9477 -0.5715
  862MPD2    H212658   3.998   4.369   9.643  0.1777 -0.0806  0.9611
  862MPD2    H312659   3.997   4.271   9.435 -0.3588 -0.2715 -0.1652
  862MPD2     N12660   3.846   3.869   9.602 -0.2569 -0.6140 -0.1007
  862MPD2    H512661   3.858   3.831   9.696  0.2893  0.3599  0.2253
  862MPD2    N112662   3.940   4.243   9.876 -0.2430 -0.0661 -0.0503
  862MPD2    H712663   3.927   4.174   9.949 -0.9165 -1.4990 -1.5479
  863MPD2     C12664   2.769   2.311  16.727 -0.4628 -0.0701 -0.6778
  863MPD2    C112665   2.791   2.445  16.756 -0.7332  1.2306  0.2103
  863MPD2    C212666   2.873   2.490  16.861  0.0889  0.2520  0.1408
  863MPD2    C312667   2.924   2.389  16.951 -0.6320  0.4556  0.1884
  863MPD2    C412668   2.898   2.258  16.922 -0.1198  1.0012 -0.7138
  863MPD2    C512669   2.834   2.218  16.803  0.7675 -0.7384 -1.4256
  863MPD2     H12670   2.895   2.596  16.863 -0.2111  0.3330 -0.6963
  863MPD2    H112671   2.949   2.179  16.977  1.3043  0.6820 -2.4817
  863MPD2    H212672   2.724   2.288  16.631 -0.9341  1.5504 -0.8607
  863MPD2    H312673   2.831   2.112  16.780 -1.3439 -0.6387 -1.5786
  863MPD2     N12674   2.993   2.416  17.068 -0.4735  0.3340 -0.2519
  863MPD2    H512675   3.025   2.332  17.116  2.4912 -0.0221 -2.8629
  863MPD2    N112676   2.719   2.537  16.678 -0.2779 -0.1879  0.4760
  863MPD2    H712677   2.659   2.499  16.605 -1.6795  1.6949  0.6560
  864MPD2     C12678   3.077   3.986  17.280  0.2394  0.7286  0.6119
  864MPD2    C112679   3.078   3.923  17.162  0.1403 -0.6141 -0.4777
  864MPD2    C212680   3.108   4.000  17.046  0.1199  0.2630  1.0837
  864MPD2    C312681   3.151   4.131  17.052 -1.0133  1.0803 -0.1553
  864MPD2    C412682   3.169   4.186  17.174  0.7476 -0.0887 -0.7039
  864MPD2    C512683   3.123   4.117  17.292  0.5991 -0.0633 -0.0538
  864MPD2     H12684   3.104   3.963  16.944 -2.8927  1.5404  0.7197
  864MPD2    H112685   3.198   4.290  17.186 -2.0388  0.7738 -1.1776
  864MPD2    H212686   3.052   3.946  17.377  1.4221 -0.8943  0.2441
  864MPD2    H312687   3.126   4.161  17.391  1.2613  2.4926 -1.2146
  864MPD2     N12688   3.186   4.196  16.931  0.4344 -0.2432  0.2124
  864MPD2    H512689   3.164   4.144  16.847  0.6051 -0.3074  0.2083
  864MPD2    N112690   3.054   3.781  17.162 -0.2587 -0.1646  0.2562
  864MPD2    H712691   3.048   3.738  17.254  1.7753  0.3916  0.6471
  865MPD2     C12692   3.318   4.137  15.990 -0.3520  0.0580 -0.2714
  865MPD2    C112693   3.312   4.064  16.105 -0.7428  0.2375 -0.7453
  865MPD2    C212694   3.262   4.120  16.219 -0.5174  0.5773  0.0737
  865MPD2    C312695   3.243   4.261  16.228 -0.3839  0.7140 -1.0855
  865MPD2    C412696   3.239   4.331  16.108 -0.7970 -0.2196 -0.1332
  865MPD2    C512697   3.274   4.270  15.988  0.2663  0.6062 -0.3377
  865MPD2     H12698   3.256   4.058  16.308 -1.0023 -0.3080 -0.5725
  865MPD2    H112699   3.221   4.438  16.098 -0.7792 -0.3352 -1.3469
  865MPD2    H212700   3.356   4.097  15.897 -1.0564  1.0084 -0.9812
  865MPD2    H312701   3.285   4.323  15.894  3.9987 -1.1502 -0.9111
  865MPD2     N12702   3.202   4.336  16.349 -0.3710 -0.1172  0.0914
  865MPD2    H512703   3.186   4.436  16.342  0.1280 -0.0389  0.0478
  865MPD2    N112704   3.362   3.936  16.103  0.2664  0.2680 -0.3334
  865MPD2    H712705   3.412   3.911  16.018  0.2257 -0.9825  0.0058
  866MPD2     C12706   0.038   3.657  10.849  0.9002  0.0949 -0.0850
  866MPD2    C112707   0.091   3.781  10.815  0.1922  0.5238 -0.1026
  866MPD2    C212708   0.003   3.890  10.799 -0.6027 -0.5176 -0.3607
  866MPD2    C312709   4.589   3.876  10.823 -0.5720 -0.6981 -0.2978
  866MPD2    C412710   4.544   3.752  10.862 -0.4965 -0.0569  0.1349
  866MPD2    C512711   4.632   3.650  10.876  0.1483 -0.1225 -0.3621
  866MPD2     H12712   0.038   3.988  10.769 -0.0563 -0.2382  1.1946
  866MPD2    H112713   4.441   3.727  10.883 -0.7682  1.0064  0.0462
  866MPD2    H212714   0.096   3.569  10.874  1.0471  0.2817  0.2248
  866MPD2    H312715   4.598   3.555  10.915  0.4399 -0.7170 -1.5623
  866MPD2     N12716   4.493   3.981  10.797  0.5084  0.3995 -0.8974
  866MPD2    H512717   4.395   3.960  10.809  0.9310 -0.4409  1.2743
  866MPD2    N112718   0.236   3.798  10.793  0.2405  0.3056  0.1858
  866MPD2    H712719   0.291   3.714  10.803 -1.4197 -0.6226  1.5529
  867MPD2     C12720   1.998   3.432  16.330  0.5800 -0.3574 -0.1912
  867MPD2    C112721   2.055   3.445  16.461  0.2412 -0.3718 -0.0629
  867MPD2    C212722   1.977   3.501  16.560  0.4207 -0.5650  0.4361
  867MPD2    C312723   1.854   3.561  16.535  0.1340  0.0029  1.2918
  867MPD2    C412724   1.809   3.558  16.405  0.6333 -0.1129  0.3711
  867MPD2    C512725   1.875   3.482  16.307 -0.4158 -0.4540 -0.3847
  867MPD2     H12726   2.012   3.497  16.662  3.2649 -0.3857 -0.5275
  867MPD2    H112727   1.715   3.601  16.373  1.4434  1.1900 -0.2688
  867MPD2    H212728   2.056   3.396  16.246  1.3024  1.7441 -0.6036
  867MPD2    H312729   1.832   3.487  16.208  2.5069  0.7585 -1.5860
  867MPD2     N12730   1.794   3.651  16.629  0.0286 -0.3603  0.1823
  867MPD2    H512731   1.704   3.684  16.595 -0.3689  1.1577  2.6583
  867MPD2    N112732   2.189   3.407  16.478  0.6242 -0.1257  0.3731
  867MPD2    H712733   2.241   3.382  16.395  0.6422  2.1183 -0.2998
  868MPD2     C12734   4.107   3.402  13.572  0.7150  0.0175 -0.2300
  868MPD2    C112735   4.048   3.274  13.570 -0.5781 -0.4903 -0.0496
  868MPD2    C212736   3.961   3.244  13.676  0.6318 -0.0420 -0.0601
  868MPD2    C312737   3.949   3.325  13.786 -1.0368  0.5195  0.4113
  868MPD2    C412738   4.000   3.454  13.786  0.3405 -0.1881 -0.2961
  868MPD2    C512739   4.081   3.487  13.675 -0.0151  0.2543 -0.0114
  868MPD2     H12740   3.889   3.164  13.668  1.3830 -0.8857  1.6663
  868MPD2    H112741   3.992   3.523  13.869  2.4162 -0.2961 -0.0093
  868MPD2    H212742   4.174   3.444  13.497  1.4415  0.4048  0.6297
  868MPD2    H312743   4.117   3.589  13.682  0.9219 -0.1500  0.9028
  868MPD2     N12744   3.866   3.268  13.892  0.0600 -0.1257 -0.4134
  868MPD2    H512745   3.823   3.177  13.879  1.4994 -0.8800  0.1835
  868MPD2    N112746   4.077   3.180  13.466  0.4434  0.0242 -0.4273
  868MPD2    H712747   4.140   3.213  13.394 -1.5643  0.8302 -1.8178
  869MPD2     C12748   0.365   1.045   1.614 -0.5543 -0.5809  0.4690
  869MPD2    C112749   0.229   1.064   1.587 -0.6637 -0.2403  0.7733
  869MPD2    C212750   0.191   1.143   1.479  1.0545 -0.1748  0.5894
  869MPD2    C312751   0.286   1.194   1.388  0.0112  0.3694  0.5741
  869MPD2    C412752   0.417   1.168   1.413 -0.4492  0.7589  0.0326
  869MPD2    C512753   0.456   1.090   1.521 -0.4137  0.1567  0.6082
  869MPD2     H12754   0.086   1.159   1.456  1.5329  1.4578 -0.4973
  869MPD2    H112755   0.499   1.205   1.351  3.3914 -0.1089  4.5744
  869MPD2    H212756   0.406   0.984   1.694 -0.3397  0.9000  1.4938
  869MPD2    H312757   0.562   1.070   1.533 -0.3443 -0.1722 -0.5201
  869MPD2     N12758   0.264   1.277   1.275  0.4096 -0.3162 -0.2610
  869MPD2    H512759   0.344   1.317   1.229 -1.3041  1.8634 -1.3419
  869MPD2    N112760   0.136   1.012   1.678 -0.5115 -0.2341 -0.4064
  869MPD2    H712761   0.158   0.947   1.754 -2.2154 -0.1232  0.1823
  870MPD2     C12762   3.627   0.224   1.178  0.5462 -0.3270 -0.2939
  870MPD2    C112763   3.759   0.250   1.197  0.2908 -0.0754 -0.6112
  870MPD2    C212764   3.859   0.177   1.123  0.2064  0.2178  0.6066
  870MPD2    C312765   3.820   0.110   1.003  0.1345 -0.5357  0.2731
  870MPD2    C412766   3.685   0.084   0.997 -0.2302  1.0806  0.1300
  870MPD2    C512767   3.592   0.136   1.083 -0.2193 -1.0809 -0.4857
  870MPD2     H12768   3.963   0.195   1.147  0.1962  0.5675  0.4014
  870MPD2    H112769   3.650   0.003   0.933 -1.6122  3.0891 -1.6669
  870MPD2    H212770   3.552   0.264   1.246  3.2982  0.1023  2.4864
  870MPD2    H312771   3.490   0.103   1.069 -0.0838 -2.5571  2.0515
  870MPD2     N12772   3.918   0.061   0.909  0.2220 -0.4565  0.0023
  870MPD2    H512773   4.013   0.079   0.940 -0.4147  1.0738  1.0908
  870MPD2    N112774   3.781   0.335   1.311  0.4390  0.1305 -0.1250
  870MPD2    H712775   3.701   0.372   1.361 -1.7987 -2.7626 -1.5481
  871MPD2     C12776   0.887   4.198  16.343  0.8639  0.2610 -0.1900
  871MPD2    C112777   0.871   4.181  16.485  0.1684  0.4025 -0.1954
  871MPD2    C212778   0.892   4.061  16.548  0.6101  0.4271 -0.2775
  871MPD2    C312779   0.919   3.948  16.476 -0.6318  0.6838  0.7292
  871MPD2    C412780   0.929   3.963  16.338 -0.1090  0.6025 -0.1774
  871MPD2    C512781   0.926   4.090  16.279  0.1193  0.5265 -0.2804
  871MPD2     H12782   0.865   4.049  16.652  0.3681  3.6703  0.0403
  871MPD2    H112783   0.951   3.881  16.271 -1.7435 -0.6155  0.7606
  871MPD2    H212784   0.878   4.293  16.292  2.6799  0.2614 -0.5120
  871MPD2    H312785   0.944   4.114  16.174  0.5280  1.3361 -0.0238
  871MPD2     N12786   0.945   3.821  16.533  0.4419  0.3688  0.1927
  871MPD2    H512787   0.925   3.816  16.632  1.4396  0.8102  0.4076
  871MPD2    N112788   0.843   4.298  16.559 -0.0669 -0.3372  0.0685
  871MPD2    H712789   0.860   4.381  16.504  2.2671 -0.5001  0.5458
  872MPD2     C12790   1.894   1.891  13.392  0.1369  0.1181 -0.5599
  872MPD2    C112791   1.949   1.775  13.446 -0.8473 -0.7960  0.0054
  872MPD2    C212792   1.922   1.733  13.577  0.3690  0.1556  0.2179
  872MPD2    C312793   1.838   1.809  13.658 -0.1303  0.3678  0.2982
  872MPD2    C412794   1.788   1.931  13.609 -0.4335  0.4556 -0.2722
  872MPD2    C512795   1.817   1.966  13.480  0.0461  0.0302  0.4764
  872MPD2     H12796   1.965   1.641  13.614 -0.1214 -0.8314 -1.6334
  872MPD2    H112797   1.714   1.981  13.670 -1.2458  1.5167 -2.1463
  872MPD2    H212798   1.908   1.915  13.287 -0.5340 -0.7217 -0.8421
  872MPD2    H312799   1.777   2.064  13.457 -0.3536 -0.0401  0.8508
  872MPD2     N12800   1.794   1.771  13.783 -0.2408 -0.1434 -0.0364
  872MPD2    H512801   1.727   1.836  13.823 -0.6627 -1.2522  1.0612
  872MPD2    N112802   2.044   1.719  13.364 -0.0931 -0.3296  0.1943
  872MPD2    H712803   2.077   1.766  13.280  0.0702 -2.8826 -1.2073
  873MPD2     C12804   3.933   1.519   1.455 -0.2912  0.4307 -0.4091
  873MPD2    C112805   3.798   1.521   1.439 -0.4846 -0.2464  0.6895
  873MPD2    C212806   3.740   1.432   1.354  0.0417 -0.3677  0.7712
  873MPD2    C312807   3.809   1.335   1.295 -0.0997  0.7250  0.5310
  873MPD2    C412808   3.943   1.326   1.313  0.3118 -0.1932 -0.5399
  873MPD2    C512809   4.004   1.417   1.401 -0.3891  0.3495  0.8346
  873MPD2     H12810   3.632   1.423   1.346  0.3439 -3.6805  0.3282
  873MPD2    H112811   4.007   1.244   1.282  1.8859  0.5691  0.6837
  873MPD2    H212812   3.978   1.606   1.503 -1.4439  0.3120  0.8827
  873MPD2    H312813   4.111   1.413   1.421 -0.3728  1.8888  1.0550
  873MPD2     N12814   3.744   1.228   1.220 -0.4894  0.3646  0.0645
  873MPD2    H512815   3.803   1.149   1.197  1.2437  2.3082 -2.1588
  873MPD2    N112816   3.726   1.623   1.502 -0.0934 -0.7040  0.2218
  873MPD2    H712817   3.777   1.677   1.572  1.2913 -3.5945  1.4140
  874MPD2     C12818   2.818   1.537  16.214 -0.9470 -0.3629  0.7241
  874MPD2    C112819   2.888   1.497  16.327  0.6316  0.4958 -0.6139
  874MPD2    C212820   2.996   1.579  16.357  0.1963 -0.1948 -0.0495
  874MPD2    C312821   3.030   1.698  16.295  0.3111  0.2163 -0.8835
  874MPD2    C412822   2.950   1.731  16.188 -0.1234  0.8660 -0.6148
  874MPD2    C512823   2.851   1.647  16.141 -0.0610 -0.1318  1.3834
  874MPD2     H12824   3.062   1.554  16.439 -0.4325 -2.0389 -0.1091
  874MPD2    H112825   2.960   1.821  16.130 -0.4309  0.0948 -1.8656
  874MPD2    H212826   2.741   1.473  16.172 -1.1292  1.0739 -1.1380
  874MPD2    H312827   2.802   1.686  16.052  0.0041 -1.5449  0.7176
  874MPD2     N12828   3.137   1.779  16.332 -0.2451 -0.1699 -0.4613
  874MPD2    H512829   3.202   1.739  16.399 -3.1918 -4.8478 -0.3624
  874MPD2    N112830   2.849   1.381  16.400 -0.0647  0.7315 -0.0803
  874MPD2    H712831   2.756   1.348  16.376  1.0844 -2.9298  0.4304
  875MPD2     C12832   0.042   4.717  14.811  0.2770  0.2438 -0.3890
  875MPD2    C112833   4.643   0.011  14.863  0.6831 -0.2715 -0.5399
  875MPD2    C212834   4.628   0.073  14.985  0.5812  0.3219 -0.2095
  875MPD2    C312835   0.019   0.113  15.051  0.2172 -0.0806  0.1409
  875MPD2    C412836   0.145   0.101  14.997  0.5539 -0.1953  0.1162
  875MPD2    C512837   0.153   0.048  14.869  0.3364 -0.2930 -0.3446
  875MPD2     H12838   4.529   0.087  15.027 -0.6662 -1.3304 -2.5818
  875MPD2    H112839   0.238   0.120  15.050  0.9471 -0.3392 -0.5122
  875MPD2    H212840   0.064   4.650  14.729  1.1934 -1.3040  1.1150
  875MPD2    H312841   0.251   0.009  14.842  0.3046  0.0656 -0.9629
  875MPD2     N12842   0.032   0.176  15.177 -0.5322 -0.0405  0.6051
  875MPD2    H512843   0.121   0.220  15.197 -0.4601 -0.9656  2.2775
  875MPD2    N112844   4.527   4.681  14.802  0.3047 -0.1979  0.0921
  875MPD2    H712845   4.438   4.706  14.843 -0.0089 -0.5301 -0.3918
  876MPD2     C12846   3.217   1.396  15.961  0.7143 -0.1515  0.2789
  876MPD2    C112847   3.332   1.339  15.911  0.6223 -0.0494 -0.2758
  876MPD2    C212848   3.397   1.243  15.984  0.0881  0.2968 -0.1562
  876MPD2    C312849   3.351   1.207  16.110  0.4175 -0.1578  0.4242
  876MPD2    C412850   3.240   1.267  16.165 -0.1913 -0.0465 -0.4253
  876MPD2    C512851   3.178   1.366  16.097  0.5598  0.5297  0.3108
  876MPD2     H12852   3.490   1.191  15.960  0.5278  1.1865 -0.3634
  876MPD2    H112853   3.189   1.239  16.257 -1.8156  0.6347 -1.1228
  876MPD2    H212854   3.156   1.463  15.901 -0.2790 -1.6341 -0.3479
  876MPD2    H312855   3.091   1.420  16.134  1.6252  3.4152 -1.4456
  876MPD2     N12856   3.420   1.108  16.187  0.1224 -0.0508 -0.2839
  876MPD2    H512857   3.500   1.069  16.137  0.3969 -0.1364  0.2188
  876MPD2    N112858   3.379   1.388  15.784 -0.4377  0.4257 -0.1179
  876MPD2    H712859   3.322   1.469  15.760 -0.4659  0.1861 -0.8650
  877MPD2     C12860   3.196   1.633  15.150 -0.5727 -0.0131 -0.4447
  877MPD2    C112861   3.331   1.664  15.136  0.2710  0.0936  0.3382
  877MPD2    C212862   3.372   1.708  15.010 -0.5289 -0.8940  0.3682
  877MPD2    C312863   3.285   1.718  14.906 -0.4018 -0.1377 -0.5738
  877MPD2    C412864   3.153   1.689  14.922  0.2239  0.1100 -0.2180
  877MPD2    C512865   3.107   1.648  15.043  0.0920 -0.3435  0.4180
  877MPD2     H12866   3.480   1.718  14.997 -1.0776  3.2163 -0.9458
  877MPD2    H112867   3.087   1.695  14.836  1.1952 -0.1217 -0.9847
  877MPD2    H212868   3.156   1.597  15.244 -1.5846  0.2362 -0.7759
  877MPD2    H312869   3.005   1.612  15.055  0.8580 -2.5542  0.1446
  877MPD2     N12870   3.318   1.772  14.779  0.5273 -0.3089  0.0310
  877MPD2    H512871   3.247   1.784  14.708  0.9775  1.1291 -0.1831
  877MPD2    N112872   3.425   1.667  15.237  0.6711  0.3263  0.3126
  877MPD2    H712873   3.519   1.682  15.202  0.8924 -1.7213  0.0056
  878MPD2     C12874   3.472   0.476  12.857  0.1423 -0.0345 -0.1140
  878MPD2    C112875   3.445   0.611  12.887 -0.3064 -0.3133  0.3458
  878MPD2    C212876   3.420   0.653  13.019 -0.7373  0.3716 -0.0152
  878MPD2    C312877   3.422   0.568  13.125  0.5663  0.4025  0.3498
  878MPD2    C412878   3.429   0.431  13.091 -0.3113 -0.4722  1.0472
  878MPD2    C512879   3.443   0.387  12.962 -0.4149 -0.8058 -0.6090
  878MPD2     H12880   3.440   0.760  13.026 -2.1763  0.6687 -0.4109
  878MPD2    H112881   3.404   0.352  13.161 -1.1134  0.5834  1.9515
  878MPD2    H212882   3.495   0.438  12.759  0.1638  0.4408 -0.2961
  878MPD2    H312883   3.448   0.280  12.948 -1.4514 -0.8688 -0.4720
  878MPD2     N12884   3.415   0.607  13.263  0.2011 -0.0147 -0.4831
  878MPD2    H512885   3.385   0.703  13.277 -0.7296 -0.4699  0.6452
  878MPD2    N112886   3.453   0.709  12.789  0.1778  0.0193  0.1095
  878MPD2    H712887   3.491   0.675  12.701  1.2717  0.1437  0.5266
  879MPD2     C12888   3.612   2.028  16.976 -0.0262  0.2516 -0.8187
  879MPD2    C112889   3.513   2.051  17.060  0.2981  0.3377  0.5092
  879MPD2    C212890   3.395   1.991  17.030  0.5338 -0.6189  0.0788
  879MPD2    C312891   3.366   1.915  16.921 -0.3951  0.3044 -1.0383
  879MPD2    C412892   3.469   1.896  16.833  0.2145 -0.4878 -0.3685
  879MPD2    C512893   3.592   1.949  16.865  0.2240  0.4696 -0.2289
  879MPD2     H12894   3.314   2.011  17.100  1.0778  2.1477 -0.1171
  879MPD2    H112895   3.460   1.838  16.742 -0.0367  0.1406 -0.7475
  879MPD2    H212896   3.713   2.066  16.985  0.8286 -2.1235 -0.3651
  879MPD2    H312897   3.682   1.927  16.809 -0.7308  1.3845 -2.1218
  879MPD2     N12898   3.239   1.863  16.889 -0.3193  0.2817 -0.2489
  879MPD2    H512899   3.226   1.797  16.813 -1.7765 -0.4122  0.5884
  879MPD2    N112900   3.543   2.120  17.183 -0.4901  0.0132  0.0392
  879MPD2    H712901   3.632   2.164  17.167 -1.0875  0.8306 -0.9994
  880MPD2     C12902   0.277   3.997   0.161 -0.1160  0.3348  0.0066
  880MPD2    C112903   0.308   4.023   0.288  0.0574 -0.1879  0.0634
  880MPD2    C212904   0.335   3.913   0.374  0.2911 -0.5403 -0.3068
  880MPD2    C312905   0.330   3.780   0.323  0.3558 -0.2735  1.2462
  880MPD2    C412906   0.285   3.763   0.187 -0.0972 -0.0341 -0.0358
  880MPD2    C512907   0.270   3.871   0.110  0.2625  0.0298  0.0573
  880MPD2     H12908   0.368   3.927   0.476 -2.7386 -0.9131  0.7300
  880MPD2    H112909   0.282   3.667   0.136 -3.5988 -0.2411  0.6149
  880MPD2    H212910   0.263   4.082   0.095 -0.5012  0.0097 -0.3312
  880MPD2    H312911   0.258   3.869   0.003  0.8671  1.7619 -0.0443
  880MPD2     N12912   0.368   3.673   0.403  0.1473  0.3044 -0.3444
  880MPD2    H512913   0.395   3.693   0.499 -0.1045  0.7405 -0.3655
  880MPD2    N112914   0.321   4.156   0.336 -0.2743  0.2369 -0.5430
  880MPD2    H712915   0.311   4.238   0.278 -1.2438  1.9951  2.0751
  881MPD2     C12916   0.567   0.315   0.047 -0.6475  0.3843 -0.0598
  881MPD2    C112917   0.566   0.194  17.696 -0.1271  0.6988 -0.0939
  881MPD2    C212918   0.524   0.092   0.081  0.4226 -0.6326 -0.0448
  881MPD2    C312919   0.526   0.113   0.222 -0.1086 -0.1224  0.1538
  881MPD2    C412920   0.573   0.235   0.270  0.5801 -0.7840 -0.0393
  881MPD2    C512921   0.591   0.340   0.181 -0.3984 -0.1602  0.3836
  881MPD2     H12922   0.485   0.001   0.037 -1.4838  0.6341 -0.9677
  881MPD2    H112923   0.579   0.252   0.377  0.4550 -0.6647 -0.0504
  881MPD2    H212924   0.611   0.392  17.682 -0.7641 -0.3939 -1.0894
  881MPD2    H312925   0.624   0.436   0.218  1.9909 -0.9954  0.4202
  881MPD2     N12926   0.470   0.013   0.312  0.8703  0.1309  0.0187
  881MPD2    H512927   0.471   0.039   0.410 -1.5509 -1.4676  0.4557
  881MPD2    N112928   0.543   0.175  17.558 -0.5136 -0.9256 -0.9574
  881MPD2    H712929   0.510   0.256  17.507 -0.7335 -0.5440 -0.2028
  882MPD2     C12930   3.427   1.537  14.007  0.4411 -0.2244 -0.5547
  882MPD2    C112931   3.358   1.640  14.063  0.2548  0.4977 -0.2098
  882MPD2    C212932   3.231   1.672  14.020 -0.1205  0.0852 -0.6395
  882MPD2    C312933   3.175   1.606  13.907 -0.6707  0.0844  0.2705
  882MPD2    C412934   3.251   1.515  13.840 -0.3071  0.1707  0.8008
  882MPD2    C512935   3.372   1.483  13.891  0.9965  0.0135  0.2004
  882MPD2     H12936   3.178   1.761  14.050 -1.5210 -0.5499 -1.2252
  882MPD2    H112937   3.222   1.473  13.744  0.2522  0.9274  0.3019
  882MPD2    H212938   3.524   1.500  14.039 -0.6180 -1.9252  0.6767
  882MPD2    H312939   3.435   1.407  13.845  1.1914 -0.2626  0.9140
  882MPD2     N12940   3.042   1.625  13.862  0.1711 -1.2163 -0.3963
  882MPD2    H512941   3.018   1.589  13.771  0.5158  0.0977 -1.0077
  882MPD2    N112942   3.420   1.711  14.169  0.3882 -0.3431 -0.2674
  882MPD2    H712943   3.520   1.698  14.177  0.4276 -0.8958 -1.5726
  883MPD2     C12944   0.638   2.183  15.860  0.4013  0.6957  0.3512
  883MPD2    C112945   0.751   2.112  15.814 -0.2929  0.2426  0.0753
  883MPD2    C212946   0.878   2.158  15.834 -0.0056  0.1133  0.0866
  883MPD2    C312947   0.892   2.275  15.908 -0.1784  0.7545 -0.4055
  883MPD2    C412948   0.783   2.352  15.941 -0.7940  0.2904  0.3547
  883MPD2    C512949   0.657   2.303  15.920 -0.5316 -0.1429 -0.1865
  883MPD2     H12950   0.967   2.110  15.795 -0.0931 -1.5714  1.9768
  883MPD2    H112951   0.801   2.452  15.979 -3.1986  1.4509 -1.5825
  883MPD2    H212952   0.535   2.153  15.844  0.8268 -0.7812  0.4128
  883MPD2    H312953   0.562   2.351  15.939 -0.1853  1.4772 -2.5821
  883MPD2     N12954   1.019   2.314  15.951 -0.6135 -0.1989 -0.0003
  883MPD2    H512955   1.099   2.271  15.905 -1.0312 -0.8529 -0.1212
  883MPD2    N112956   0.734   1.982  15.752  0.0943 -0.0404 -0.3045
  883MPD2    H712957   0.822   1.942  15.721  0.9672  1.0564  0.7613
  884MPD2     C12958   2.575   2.198  15.338  0.0326  0.0438  0.3897
  884MPD2    C112959   2.564   2.206  15.208 -0.3935  0.2490  0.0193
  884MPD2    C212960   2.453   2.272  15.157 -0.1977  0.0143  0.1407
  884MPD2    C312961   2.371   2.348  15.237 -1.0257 -0.3472 -0.3000
  884MPD2    C412962   2.396   2.345  15.374 -0.7266 -0.4022 -0.1623
  884MPD2    C512963   2.497   2.271  15.421 -0.7491 -0.1623 -0.6487
  884MPD2     H12964   2.439   2.270  15.049  0.7937 -1.7044  0.0505
  884MPD2    H112965   2.338   2.386  15.456 -0.7426  2.7700 -1.7410
  884MPD2    H212966   2.656   2.143  15.385 -1.3624 -0.5961  2.0101
  884MPD2    H312967   2.511   2.265  15.528 -1.0057 -0.3244 -0.6224
  884MPD2     N12968   2.263   2.420  15.187  0.1835  0.0814  0.8257
  884MPD2    H512969   2.248   2.412  15.087 -2.1139  0.5932  1.1406
  884MPD2    N112970   2.650   2.150  15.109  0.1984 -0.3582 -0.2736
  884MPD2    H712971   2.630   2.197  15.021 -1.4537 -0.6428 -0.0473
  885MPD2     C12972   0.424   2.657   0.234 -0.4808  0.4844 -0.2416
  885MPD2    C112973   0.562   2.679   0.201  0.1587  0.1817  0.8731
  885MPD2    C212974   0.601   2.729   0.075 -0.5053 -0.1110 -0.3040
  885MPD2    C312975   0.506   2.744  17.675  0.4381 -0.1727 -0.1240
  885MPD2    C412976   0.380   2.714   0.009  0.0615 -0.0468 -0.6401
  885MPD2    C512977   0.336   2.673   0.131  0.0330 -0.9595 -0.4596
  885MPD2     H12978   0.707   2.749   0.058 -0.0814 -1.0659  1.2703
  885MPD2    H112979   0.305   2.700  17.630 -0.0713 -1.7845 -0.1882
  885MPD2    H212980   0.392   2.621   0.331  0.0846 -0.9420 -0.5694
  885MPD2    H312981   0.231   2.650   0.145 -0.0176 -2.4110 -3.1823
  885MPD2     N12982   0.545   2.795  17.542 -0.1633  0.1926 -0.6235
  885MPD2    H512983   0.640   2.793  17.506  0.5856  1.5255  1.2730
  885MPD2    N112984   0.653   2.647   0.303 -0.4050  0.0572 -0.1613
  885MPD2    H712985   0.614   2.615   0.390 -2.1940  0.1161 -0.9461
  886MPD2     C12986   1.736   1.471  15.312  0.2109  0.8937  1.2553
  886MPD2    C112987   1.870   1.434  15.293  0.5298 -0.0462  0.0530
  886MPD2    C212988   1.928   1.439  15.174 -0.7182 -0.6764 -0.5297
  886MPD2    C312989   1.857   1.505  15.071  0.3765 -0.1882  0.1938
  886MPD2    C412990   1.739   1.565  15.096 -0.0012  0.4822 -0.3051
  886MPD2    C512991   1.680   1.553  15.215 -0.2994 -0.0354  0.4019
  886MPD2     H12992   2.031   1.406  15.168 -0.6006  0.0766 -2.6976
  886MPD2    H112993   1.687   1.618  15.017  1.5853  0.4868 -1.3561
  886MPD2    H212994   1.690   1.476  15.410 -1.9768 -0.5337  0.3015
  886MPD2    H312995   1.588   1.606  15.237  0.8831  1.0372  2.8147
  886MPD2     N12996   1.925   1.523  14.946 -0.1152 -0.4153  0.0317
  886MPD2    H512997   1.876   1.576  14.875 -2.8894 -2.2352  0.5747
  886MPD2    N112998   1.953   1.381  15.393 -0.0781  0.5006 -0.4291
  886MPD2    H712999   2.049   1.357  15.372 -0.9456 -2.0376 -1.5540
  887MPD2     C13000   2.589   1.044  15.410 -0.1826 -0.5371  0.0445
  887MPD2    C113001   2.517   1.162  15.419 -0.0497 -0.3489  0.5693
  887MPD2    C213002   2.580   1.279  15.382 -0.3857 -0.0102  0.1321
  887MPD2    C313003   2.717   1.294  15.358 -0.5414  0.9654  0.5120
  887MPD2    C413004   2.789   1.173  15.354  0.6712 -0.5655 -0.4096
  887MPD2    C513005   2.726   1.052  15.384  0.0539 -0.2080  0.0753
  887MPD2     H13006   2.516   1.366  15.393  0.9453  0.9183  0.4475
  887MPD2    H113007   2.896   1.175  15.335  0.4754 -0.0307 -1.4892
  887MPD2    H213008   2.540   0.949  15.427 -1.2743 -0.5479 -3.1761
  887MPD2    H313009   2.782   0.962  15.363  2.9213  1.5439  0.2727
  887MPD2     N13010   2.775   1.420  15.344 -1.0548 -0.8685  0.4343
  887MPD2    H513011   2.705   1.493  15.352 -0.5232 -0.5234  1.7793
  887MPD2    N113012   2.379   1.178  15.459 -0.2423  0.2761  0.1495
  887MPD2    H713013   2.343   1.272  15.442 -2.9021 -1.0129 -1.3847
  888MPD2     C13014   0.330   1.332  15.047 -0.1171  0.6150  0.1159
  888MPD2    C113015   0.209   1.397  15.053  0.5313 -0.2674  0.1535
  888MPD2    C213016   0.211   1.529  15.029  0.5030  0.0998  0.2756
  888MPD2    C313017   0.320   1.607  15.046  1.3891  0.1077 -0.1088
  888MPD2    C413018   0.439   1.541  15.051 -0.6752  0.3758  0.1109
  888MPD2    C513019   0.447   1.408  15.039 -0.0551  1.2419 -0.2717
  888MPD2     H13020   0.113   1.577  15.023  0.0590 -1.1138 -2.1088
  888MPD2    H113021   0.532   1.596  15.064  0.3621 -1.3131 -0.1769
  888MPD2    H213022   0.337   1.227  15.018  1.7505  0.6918  0.2889
  888MPD2    H313023   0.540   1.353  15.022 -1.1655 -0.4706 -0.8618
  888MPD2     N13024   0.301   1.751  15.059  0.3069  0.3050  0.6382
  888MPD2    H513025   0.205   1.782  15.059  0.5886  1.1778  1.5954
  888MPD2    N113026   0.082   1.339  15.052 -0.5086  0.0009 -0.2318
  888MPD2    H713027   0.007   1.401  15.023  1.0548  1.8292 -0.3180
  889MPD2     C13028   3.845   0.704  12.621 -0.9799 -0.2569  0.3894
  889MPD2    C113029   3.812   0.657  12.749  0.1217 -0.0629 -0.9459
  889MPD2    C213030   3.803   0.756  12.844 -0.8566  0.8998  0.2354
  889MPD2    C313031   3.804   0.887  12.809 -0.1818  0.1020  0.0494
  889MPD2    C413032   3.833   0.925  12.677  0.2750  1.0764 -0.5887
  889MPD2    C513033   3.854   0.834  12.585 -0.1431  0.2651 -0.5704
  889MPD2     H13034   3.771   0.722  12.942  0.9812  0.9198  0.8543
  889MPD2    H113035   3.826   1.030  12.651  1.8544  1.0846 -0.9555
  889MPD2    H213036   3.878   0.633  12.546 -0.6842 -0.4052  0.6634
  889MPD2    H313037   3.881   0.864  12.484  1.0901  0.4398 -0.1906
  889MPD2     N13038   3.762   0.978  12.910  0.2299 -0.2698  0.2782
  889MPD2    H513039   3.749   0.945  13.005 -1.3231 -2.9342 -0.8659
  889MPD2    N113040   3.808   0.522  12.790 -1.1506  0.1221 -0.3567
  889MPD2    H713041   3.808   0.507  12.890  2.0828  1.5648 -0.1194
  890MPD2     C13042   3.897   2.177  15.018  0.6213  0.3085 -0.2252
  890MPD2    C113043   3.867   2.266  15.118  0.5868 -0.9140  0.0044
  890MPD2    C213044   3.868   2.219  15.250 -0.1557 -0.1320 -0.1317
  890MPD2    C313045   3.919   2.092  15.282 -0.5037 -0.8128 -0.4207
  890MPD2    C413046   3.946   2.004  15.175 -0.3620 -0.0789  0.0017
  890MPD2    C513047   3.934   2.053  15.050  0.3153  0.1764  0.5565
  890MPD2     H13048   3.837   2.277  15.336 -2.4089 -1.5726  0.0100
  890MPD2    H113049   3.978   1.901  15.179 -0.8164 -0.2134  0.1907
  890MPD2    H213050   3.922   2.204  14.916  3.2806 -1.0622  0.0871
  890MPD2    H313051   3.971   1.991  14.970 -1.1880  0.8349 -0.6633
  890MPD2     N13052   3.928   2.056  15.414 -0.1691 -0.1348  0.7850
  890MPD2    H513053   3.895   2.119  15.486  1.6415 -0.0229  1.5296
  890MPD2    N113054   3.842   2.399  15.081 -0.0010  0.1619  0.2491
  890MPD2    H713055   3.829   2.418  14.982  1.6462 -0.0302 -0.0070
  891MPD2     C13056   1.331   0.842  16.779 -0.0355 -0.1284 -0.7001
  891MPD2    C113057   1.296   0.946  16.860  0.1631  0.0754 -0.4770
  891MPD2    C213058   1.356   0.956  16.991  0.0813  0.1178  0.0913
  891MPD2    C313059   1.445   0.860  17.029  0.6288 -0.3145 -0.3532
  891MPD2    C413060   1.467   0.753  16.941  0.1943  0.3202 -0.6555
  891MPD2    C513061   1.407   0.740  16.819  0.1558 -0.0971 -0.1087
  891MPD2     H13062   1.333   1.040  17.055  1.9997  0.7653 -0.0525
  891MPD2    H113063   1.534   0.675  16.976 -1.1220 -1.5388 -2.2377
  891MPD2    H213064   1.303   0.840  16.674  0.7991 -1.6866 -0.8882
  891MPD2    H313065   1.437   0.662  16.749  1.6968 -1.5100  2.1193
  891MPD2     N13066   1.514   0.875  17.152 -0.8195  0.1802  0.2143
  891MPD2    H513067   1.485   0.955  17.208 -2.7072 -0.5037  0.2149
  891MPD2    N113068   1.221   1.055  16.803  0.2456 -0.4808  0.0817
  891MPD2    H713069   1.193   1.041  16.707 -3.4227  2.5108  0.7376
  892MPD2     C13070   2.595   2.055  14.488 -0.2804  0.4889 -1.1025
  892MPD2    C113071   2.486   2.016  14.413 -1.0437 -0.3847  0.8103
  892MPD2    C213072   2.502   1.936  14.306 -0.8101  0.1558 -0.3750
  892MPD2    C313073   2.625   1.899  14.254  0.3152  0.9603 -0.1379
  892MPD2    C413074   2.729   1.942  14.325 -0.1663 -0.0297  0.1786
  892MPD2    C513075   2.716   2.006  14.446 -0.1112 -0.1080  0.8526
  892MPD2     H13076   2.413   1.907  14.251 -1.3781  2.0954 -0.4843
  892MPD2    H113077   2.831   1.918  14.297 -0.6674 -1.6407 -0.3043
  892MPD2    H213078   2.597   2.126  14.570 -1.6049 -0.2859 -0.4038
  892MPD2    H313079   2.811   2.049  14.474  0.4953 -0.9575  0.1036
  892MPD2     N13080   2.649   1.813  14.150  0.1899 -0.2196 -0.0685
  892MPD2    H513081   2.744   1.784  14.130  1.2177  0.3871  3.8978
  892MPD2    N113082   2.357   2.048  14.453 -0.6800 -0.2693 -0.4021
  892MPD2    H713083   2.281   2.033  14.388  0.4079 -1.7305 -1.3165
  893MPD2     C13084   3.669   0.318   0.715  0.4711 -0.1633 -0.0045
  893MPD2    C113085   3.664   0.401   0.819 -0.5009  0.2213  0.1759
  893MPD2    C213086   3.540   0.416   0.880 -0.2024  0.4210 -0.1516
  893MPD2    C313087   3.429   0.347   0.849 -0.0928 -0.8383  0.0261
  893MPD2    C413088   3.438   0.259   0.743  0.5175 -0.5392 -0.3140
  893MPD2    C513089   3.558   0.245   0.682 -0.1987  0.2705  0.0570
  893MPD2     H13090   3.536   0.493   0.956 -0.0612  0.5103 -0.2332
  893MPD2    H113091   3.356   0.199   0.705  1.2751 -0.2859 -2.3385
  893MPD2    H213092   3.762   0.287   0.667  0.6660  2.4598 -1.2759
  893MPD2    H313093   3.565   0.178   0.597  1.3285  2.1163 -1.2981
  893MPD2     N13094   3.309   0.364   0.917 -0.3518  0.5117  0.7861
  893MPD2    H513095   3.227   0.324   0.874  1.2708 -1.5400 -0.4351
  893MPD2    N113096   3.788   0.447   0.874  0.4400  0.0628 -0.4408
  893MPD2    H713097   3.869   0.399   0.835 -0.5620 -1.7050 -0.3569
  894MPD2     C13098   2.377   2.219   0.893 -0.0155  0.1868  0.4689
  894MPD2    C113099   2.346   2.309   0.988 -0.1680 -1.1485 -0.1093
  894MPD2    C213100   2.350   2.441   0.950  0.6771  0.4652 -0.0172
  894MPD2    C313101   2.387   2.488   0.827  0.1391  0.5327 -0.2784
  894MPD2    C413102   2.411   2.390   0.731 -0.3691  0.8359  0.0110
  894MPD2    C513103   2.409   2.261   0.769  0.7418 -0.6692  0.1886
  894MPD2     H13104   2.322   2.519   1.019 -1.6998 -1.2851  0.9762
  894MPD2    H113105   2.451   2.413   0.633  0.8781  1.1977  0.5993
  894MPD2    H213106   2.363   2.113   0.914  0.2361 -0.3123 -1.9523
  894MPD2    H313107   2.441   2.182   0.702  0.8204 -1.5249  1.2246
  894MPD2     N13108   2.412   2.631   0.806  0.5455  1.3841  0.2682
  894MPD2    H513109   2.392   2.698   0.879  2.8377  3.9088 -1.3895
  894MPD2    N113110   2.289   2.286   1.112 -0.0067 -0.7310 -0.4076
  894MPD2    H713111   2.272   2.366   1.173 -0.6211 -2.6526  1.9668
  895MPD2     C13112   1.687   1.422  13.424  0.3432  0.3735  0.1729
  895MPD2    C113113   1.559   1.374  13.394  0.2838 -0.0813  0.5086
  895MPD2    C213114   1.550   1.243  13.363 -0.5062 -0.2627 -0.5692
  895MPD2    C313115   1.660   1.165  13.340  0.2591  1.0789 -0.7423
  895MPD2    C413116   1.787   1.217  13.370  0.2214  0.3608 -0.2591
  895MPD2    C513117   1.798   1.342  13.424 -0.2671 -0.0435 -1.3020
  895MPD2     H13118   1.456   1.196  13.337 -0.5851 -1.4192  1.8474
  895MPD2    H113119   1.879   1.165  13.347  0.2668  0.1505  0.4025
  895MPD2    H213120   1.708   1.526  13.447 -1.8104  0.8685 -0.1221
  895MPD2    H313121   1.888   1.398  13.443 -0.5342  1.0432 -3.1960
  895MPD2     N13122   1.640   1.044  13.270  0.3201  0.3044  0.2760
  895MPD2    H513123   1.545   1.013  13.255  0.5204 -0.6770  1.0780
  895MPD2    N113124   1.439   1.456  13.391 -0.2183 -0.4610  0.0215
  895MPD2    H713125   1.363   1.418  13.336  0.9943 -0.7599 -1.4448
  896MPD2     C13126   3.014   4.110   1.598  0.0947 -0.1821  0.5102
  896MPD2    C113127   3.048   4.063   1.477 -0.1505 -0.3483  0.6885
  896MPD2    C213128   2.972   3.965   1.417  0.9715 -0.2576 -0.1360
  896MPD2    C313129   2.868   3.900   1.488 -0.3249  0.4239 -0.1494
  896MPD2    C413130   2.836   3.942   1.610  0.2370 -0.3685  0.6514
  896MPD2    C513131   2.902   4.054   1.662  0.6046 -0.0055 -0.7783
  896MPD2     H13132   2.999   3.926   1.320 -3.3014 -0.0806 -1.3526
  896MPD2    H113133   2.772   3.886   1.676 -0.0139  0.5662  1.2044
  896MPD2    H213134   3.063   4.196   1.643 -0.2804  0.8857 -1.1008
  896MPD2    H313135   2.883   4.083   1.764  0.1509 -2.4687 -0.1674
  896MPD2     N13136   2.816   3.784   1.428  0.9267 -0.1336  0.0009
  896MPD2    H513137   2.854   3.745   1.343 -1.3699 -2.1513 -0.0976
  896MPD2    N113138   3.160   4.121   1.420  0.2897  0.4635 -0.2904
  896MPD2    H713139   3.216   4.187   1.473 -0.4852  0.7290  0.1960
  897MPD2     C13140   0.562   0.140  10.470 -0.4153 -0.3480 -0.3096
  897MPD2    C113141   0.489   0.253  10.488 -0.3049 -0.9906 -0.6746
  897MPD2    C213142   0.412   0.267  10.602 -0.0087  0.2889  0.2163
  897MPD2    C313143   0.388   0.154  10.686 -0.0177 -0.0289 -1.4677
  897MPD2    C413144   0.466   0.039  10.664 -0.0314 -0.0987  0.3190
  897MPD2    C513145   0.557   0.037  10.558 -0.6419  0.4768 -0.2645
  897MPD2     H13146   0.340   0.347  10.612  1.2082  1.2350  1.3906
  897MPD2    H113147   0.467   4.676  10.728  1.9840 -0.6778 -0.4781
  897MPD2    H213148   0.630   0.139  10.386  0.9399  1.1241  0.7788
  897MPD2    H313149   0.629   4.682  10.543 -1.3557 -0.8966  3.4866
  897MPD2     N13150   0.290   0.173  10.784 -0.1886 -0.7829  0.7792
  897MPD2    H513151   0.251   0.267  10.783 -0.9764 -1.1126  0.6219
  897MPD2    N113152   0.504   0.353  10.391 -0.0695 -0.4196  0.4962
  897MPD2    H713153   0.567   0.334  10.314  0.6661  0.4065  0.8919
  898MPD2     C13154   2.610   1.397   0.103  0.2570  0.0042  0.0869
  898MPD2    C113155   2.614   1.532   0.096 -0.6377  0.2725 -0.0372
  898MPD2    C213156   2.520   1.606   0.020  0.2003  0.4005  0.0143
  898MPD2    C313157   2.417   1.540  17.647  0.1565  0.2717 -0.1869
  898MPD2    C413158   2.420   1.400  17.648  0.4508 -0.6612  0.3800
  898MPD2    C513159   2.509   1.326   0.029 -0.7841 -0.0187  0.2954
  898MPD2     H13160   2.531   1.713   0.019  0.6656  0.3164 -4.3526
  898MPD2    H113161   2.335   1.346  17.609 -1.0082  1.5664  0.4412
  898MPD2    H213162   2.684   1.340   0.158  1.3494 -1.7365 -3.2033
  898MPD2    H313163   2.511   1.218   0.034  0.9209  0.0657  1.7311
  898MPD2     N13164   2.318   1.620  17.588  0.2843 -0.4832 -0.1405
  898MPD2    H513165   2.337   1.720  17.576 -0.0255 -0.2712  1.2364
  898MPD2    N113166   2.718   1.605   0.155 -0.1516 -0.5399 -0.0031
  898MPD2    H713167   2.701   1.703   0.136  2.2164  0.2406  1.9168
  899MPD2     C13168   3.093   2.014  17.469  0.1474 -0.6138  0.2785
  899MPD2    C113169   3.111   2.122  17.553  0.3014 -0.2322 -0.5943
  899MPD2    C213170   3.133   2.102  17.687 -0.1450 -0.0583  0.0961
  899MPD2    C313171   3.148   1.972   0.039 -0.9014 -0.0718  0.1040
  899MPD2    C413172   3.144   1.865  17.649  0.8110 -0.3230  0.1184
  899MPD2    C513173   3.107   1.887  17.517 -0.4157  0.2813  0.1743
  899MPD2     H13174   3.138   2.194   0.045 -1.4194  0.1432 -0.1318
  899MPD2    H113175   3.145   1.762  17.684 -0.9893 -0.3736  0.0099
  899MPD2    H213176   3.065   2.029  17.365  1.8469  0.2623 -0.0556
  899MPD2    H313177   3.099   1.802  17.450 -0.9218 -0.0887  0.7047
  899MPD2     N13178   3.154   1.947   0.177 -0.0627 -0.1397 -0.3072
  899MPD2    H513179   3.202   1.860   0.198 -0.0095 -0.1202 -0.3456
  899MPD2    N113180   3.101   2.248  17.489  0.8140  0.3389 -0.2175
  899MPD2    H713181   3.094   2.250  17.388 -0.2649  1.1368 -0.1285
  900MPD2     C13182   2.961   3.627  12.823  0.3797  0.4052  0.7332
  900MPD2    C113183   2.878   3.532  12.780  0.1134  0.0719 -0.1989
  900MPD2    C213184   2.754   3.569  12.730 -0.3476  0.8172  0.9085
  900MPD2    C313185   2.722   3.704  12.704 -0.8992  0.0913 -0.1879
  900MPD2    C413186   2.817   3.804  12.752  0.0289 -0.1048  0.1293
  900MPD2    C513187   2.934   3.757  12.811 -0.1421  0.2452  0.6459
  900MPD2     H13188   2.684   3.502  12.683  2.1177 -0.1112 -1.4417
  900MPD2    H113189   2.801   3.911  12.748 -0.4672 -0.1529  0.9014
  900MPD2    H213190   3.055   3.597  12.868  1.6630  3.5058  0.0801
  900MPD2    H313191   3.008   3.824  12.853 -1.3396  1.1209  1.3770
  900MPD2     N13192   2.603   3.743  12.644  0.0626 -0.0294  0.0135
  900MPD2    H513193   2.537   3.666  12.633  0.0036 -0.1326  1.1399
  900MPD2    N113194   2.916   3.401  12.791  0.3265 -0.5307 -0.6664
  900MPD2    H713195   3.016   3.394  12.810  0.5414  2.3811 -0.7836
  901MPD2     C13196   2.824   2.334  13.048  0.3461  0.3242 -0.1762
  901MPD2    C113197   2.865   2.346  12.915 -0.3197 -0.3215  0.1756
  901MPD2    C213198   2.887   2.470  12.863 -0.0710  0.3291  0.4213
  901MPD2    C313199   2.868   2.583  12.935  1.5190 -0.6988 -0.1553
  901MPD2    C413200   2.836   2.581  13.071  0.6829 -0.2787  0.3755
  901MPD2    C513201   2.813   2.451  13.123  0.9337  0.2558  0.5994
  901MPD2     H13202   2.942   2.479  12.769  1.0296 -3.3631  0.7497
  901MPD2    H113203   2.825   2.669  13.134 -0.7955 -0.3479  0.2157
  901MPD2    H213204   2.799   2.237  13.089 -0.0350  1.1913  1.6234
  901MPD2    H313205   2.784   2.441  13.227 -2.1385 -0.6041 -0.3451
  901MPD2     N13206   2.891   2.702  12.870  0.5779  0.0034 -0.4495
  901MPD2    H513207   2.934   2.701  12.778  1.3269 -0.4340 -0.0958
  901MPD2    N113208   2.869   2.225  12.841  0.0734 -0.4117  0.0229
  901MPD2    H713209   2.847   2.139  12.891  1.3485  1.0306  3.0581
  902MPD2     C13210   1.723   1.486  13.080 -0.8297 -0.2566  0.4299
  902MPD2    C113211   1.604   1.486  13.011 -0.7332 -0.1284  0.2479
  902MPD2    C213212   1.568   1.380  12.940 -0.1929 -0.5218 -0.1656
  902MPD2    C313213   1.649   1.273  12.925  0.3127  0.1150 -0.0653
  902MPD2    C413214   1.775   1.275  12.984  0.8339  0.0492  0.3385
  902MPD2    C513215   1.802   1.374  13.074  0.5974 -0.2405 -0.7261
  902MPD2     H13216   1.472   1.377  12.889 -1.2957  0.4047  1.8185
  902MPD2    H113217   1.846   1.194  12.973  2.4780  1.9646 -3.2623
  902MPD2    H213218   1.764   1.564  13.143 -1.0493 -0.6139  1.0167
  902MPD2    H313219   1.903   1.379  13.113  0.9718  0.0300 -1.7084
  902MPD2     N13220   1.612   1.159  12.845 -0.5476 -0.5255  0.7981
  902MPD2    H513221   1.688   1.100  12.813 -0.6736  0.7138 -1.7779
  902MPD2    N113222   1.531   1.613  13.004  0.5539  0.0544 -0.1278
  902MPD2    H713223   1.591   1.685  13.044 -0.3684 -0.3047  1.9006
  903MPD2     C13224   1.359   1.213  11.972  0.3330  0.4808  0.2848
  903MPD2    C113225   1.320   1.247  12.100  0.2445 -0.4919  0.4153
  903MPD2    C213226   1.194   1.294  12.112  0.7278 -0.2710  0.1745
  903MPD2    C313227   1.101   1.309  12.007  0.0473  0.2658 -0.1959
  903MPD2    C413228   1.147   1.277  11.884 -0.3510 -0.1885  0.0681
  903MPD2    C513229   1.272   1.229  11.867  0.5275  0.0512  0.3184
  903MPD2     H13230   1.161   1.328  12.209  0.9162  1.3006 -0.2997
  903MPD2    H113231   1.077   1.289  11.802 -3.4146  0.3300  2.7310
  903MPD2    H213232   1.457   1.175  11.944 -0.1005 -1.2111  1.0836
  903MPD2    H313233   1.310   1.200  11.770 -0.2444  2.0764 -0.5924
  903MPD2     N13234   0.974   1.362  12.027 -0.0770 -0.1697  0.1462
  903MPD2    H513235   0.952   1.372  12.126 -1.7036  0.8765 -0.3160
  903MPD2    N113236   1.398   1.206  12.210  1.0023 -0.6136 -0.2834
  903MPD2    H713237   1.484   1.158  12.187  1.4160  0.1621 -0.3548
  904MPD2     C13238   1.114   0.740  13.969 -0.6358  1.0251  0.6432
  904MPD2    C113239   1.177   0.824  13.882  0.1895 -0.6344 -0.4115
  904MPD2    C213240   1.291   0.772  13.829 -0.0158  0.1792 -0.0694
  904MPD2    C313241   1.349   0.651  13.855 -0.1914 -0.9930  0.3894
  904MPD2    C413242   1.275   0.567  13.940 -0.8272  0.1024  0.9837
  904MPD2    C513243   1.161   0.616  13.992  0.4587 -0.2853  0.1912
  904MPD2     H13244   1.336   0.836  13.754 -3.2879  1.7677 -0.6852
  904MPD2    H113245   1.301   0.463  13.961  1.8513  0.7561  0.9320
  904MPD2    H213246   1.017   0.764  14.010  0.0150  1.9093  1.6552
  904MPD2    H313247   1.099   0.555  14.057  1.3055 -1.3573 -0.0259
  904MPD2     N13248   1.460   0.619  13.781  0.2257 -0.2135  0.5381
  904MPD2    H513249   1.505   0.688  13.722 -1.2602  0.6194  0.3747
  904MPD2    N113250   1.127   0.944  13.835  0.3465 -0.8933 -0.0390
  904MPD2    H713251   1.183   1.008  13.780 -0.9321  0.6276  0.4312
  905MPD2     C13252   0.829   0.889  13.331 -0.0312 -0.1481 -0.4265
  905MPD2    C113253   0.916   0.996  13.336  0.3726 -0.8758  0.3780
  905MPD2    C213254   1.039   0.978  13.275 -0.7985 -0.3023 -0.3044
  905MPD2    C313255   1.057   0.873  13.184 -0.6623 -0.6433  0.6603
  905MPD2    C413256   0.960   0.777  13.175  0.6035  0.2968 -0.4035
  905MPD2    C513257   0.849   0.782  13.253  1.3847 -0.1384 -0.1813
  905MPD2     H13258   1.120   1.048  13.295 -0.1376 -0.8449 -1.0544
  905MPD2    H113259   0.974   0.700  13.099 -0.9808  0.1330 -0.5380
  905MPD2    H213260   0.731   0.894  13.377  1.3782 -1.6288  2.6811
  905MPD2    H313261   0.766   0.711  13.251  2.2585 -1.1558 -0.0302
  905MPD2     N13262   1.184   0.850  13.123 -0.5764  0.6666  0.5600
  905MPD2    H513263   1.190   0.760  13.076 -2.1141  0.1402  1.3901
  905MPD2    N113264   0.885   1.092  13.436  0.8062 -0.0945 -0.1885
  905MPD2    H713265   0.799   1.080  13.489 -0.0188 -0.0431 -1.4846
  906MPD2     C13266   3.891   0.252  11.283 -0.5277  0.2229 -0.4378
  906MPD2    C113267   3.783   0.237  11.193  0.0383 -0.1757 -0.1136
  906MPD2    C213268   3.693   0.139  11.213  0.4408  0.5066 -0.3244
  906MPD2    C313269   3.706   0.054  11.321  0.4808 -0.0304 -0.6378
  906MPD2    C413270   3.813   0.069  11.413  0.6030  0.5650 -0.0988
  906MPD2    C513271   3.903   0.164  11.387  0.3589  0.2536  0.4365
  906MPD2     H13272   3.598   0.122  11.163 -0.8614  1.5021  1.8185
  906MPD2    H113273   3.832   0.005  11.498  0.8569  1.1127  0.2584
  906MPD2    H213274   3.967   0.327  11.262  1.2165 -0.6634  2.7494
  906MPD2    H313275   3.991   0.166  11.450  0.3538 -0.5995  0.4677
  906MPD2     N13276   3.593   4.689  11.343 -0.2312 -0.1125  0.2203
  906MPD2    H513277   3.516   4.701  11.279  0.2243 -0.3647 -0.3736
  906MPD2    N113278   3.764   0.321  11.078 -0.2343 -0.8120 -0.3562
  906MPD2    H713279   3.685   0.292  11.021 -0.6412  0.4015 -0.4010
  907MPD2     C13280   2.151   0.022  16.100 -0.0998  0.2842 -0.3032
  907MPD2    C113281   2.172   4.609  16.070  0.1353 -0.5757 -0.0282
  907MPD2    C213282   2.201   4.521  16.173  0.5107  0.6949  0.0510
  907MPD2    C313283   2.201   4.565  16.303 -0.3206 -0.1820  0.2342
  907MPD2    C413284   2.167   4.690  16.331 -0.3346  0.3238 -0.3314
  907MPD2    C513285   2.148   0.058  16.228 -1.1681 -0.9632  0.4319
  907MPD2     H13286   2.238   4.421  16.155  1.0880  0.9346 -0.1096
  907MPD2    H113287   2.148   0.002  16.432 -1.0392  0.0904 -0.3755
  907MPD2    H213288   2.137   0.103  16.030 -0.9186 -0.3089 -0.8345
  907MPD2    H313289   2.127   0.161  16.252  1.3297 -0.4628  0.4982
  907MPD2     N13290   2.262   4.480  16.395  0.6158 -0.4980 -0.1216
  907MPD2    H513291   2.280   4.386  16.360 -1.2810 -0.8868 -0.0289
  907MPD2    N113292   2.173   4.568  15.939  0.3131  0.0011 -0.0100
  907MPD2    H713293   2.200   4.471  15.922 -0.2754 -0.3395  0.9928
  908MPD2     C13294   0.462   0.329   9.490  0.4302  0.1648 -0.1941
  908MPD2    C113295   0.473   0.233   9.591 -0.1039 -0.4543 -0.0460
  908MPD2    C213296   0.455   0.281   9.719 -0.5638  0.3007  0.1324
  908MPD2    C313297   0.443   0.417   9.743 -0.1960  0.5735  0.7668
  908MPD2    C413298   0.428   0.509   9.645  0.1333  0.3281  0.1220
  908MPD2    C513299   0.439   0.461   9.517  0.3855 -0.1933 -0.6036
  908MPD2     H13300   0.469   0.216   9.805 -0.1250 -1.6584 -1.4073
  908MPD2    H113301   0.425   0.615   9.667 -0.4307  0.2513  0.4320
  908MPD2    H213302   0.465   0.309   9.384 -1.6607  0.9166 -0.3946
  908MPD2    H313303   0.431   0.538   9.442  1.2923 -1.9889 -2.5392
  908MPD2     N13304   0.444   0.459   9.882  0.1759  0.1497  0.4429
  908MPD2    H513305   0.497   0.398   9.943  0.4591  1.2649  1.3117
  908MPD2    N113306   0.506   0.096   9.579 -0.9084 -0.9996  0.2964
  908MPD2    H713307   0.497   0.037   9.661  0.0199 -1.8417 -0.2126
  909MPD2     C13308   0.631   3.180  12.024  0.8467  0.0242  0.0800
  909MPD2    C113309   0.629   3.284  11.931  0.1801 -0.5008 -0.1380
  909MPD2    C213310   0.515   3.368  11.927  0.2321  0.1120  0.0413
  909MPD2    C313311   0.406   3.340  12.011  0.3817  0.4547 -0.4150
  909MPD2    C413312   0.403   3.233  12.093  0.1077 -0.5969 -0.3563
  909MPD2    C513313   0.519   3.151  12.101 -0.1886  0.4272  0.2417
  909MPD2     H13314   0.504   3.454  11.860  1.2948  0.3842  0.2210
  909MPD2    H113315   0.315   3.197  12.146  0.4637 -2.6883 -1.2056
  909MPD2    H213316   0.722   3.123  12.039 -0.0971 -1.2334  1.1001
  909MPD2    H313317   0.517   3.059  12.157  0.7776  0.5939  0.5602
  909MPD2     N13318   0.299   3.430  11.996  0.1075  0.2494  0.6831
  909MPD2    H513319   0.309   3.500  11.923 -1.3752  0.8893  1.0857
  909MPD2    N113320   0.739   3.320  11.854  0.4382 -0.5779 -0.3330
  909MPD2    H713321   0.725   3.399  11.793 -0.7516 -1.9729 -1.8671
  910MPD2     C13322   1.234   0.349  15.918  0.0874  0.6762  0.3076
  910MPD2    C113323   1.346   0.340  15.838 -0.3307  0.1588  0.5072
  910MPD2    C213324   1.338   0.381  15.705 -0.3921  0.0967  0.3061
  910MPD2    C313325   1.227   0.435  15.654 -0.3948  0.3326 -0.0086
  910MPD2    C413326   1.122   0.443  15.733 -0.4096  0.5985  0.0764
  910MPD2    C513327   1.120   0.401  15.866 -0.3824  0.5263 -0.1396
  910MPD2     H13328   1.423   0.370  15.638 -1.0800 -0.9173 -0.3857
  910MPD2    H113329   1.031   0.490  15.698 -2.2046 -1.5790  1.8333
  910MPD2    H213330   1.247   0.309  16.018  0.2265 -0.5296 -0.2046
  910MPD2    H313331   1.033   0.413  15.931  0.7617 -0.9176  1.6412
  910MPD2     N13332   1.220   0.486  15.522 -0.0705 -0.4332  0.4448
  910MPD2    H513333   1.138   0.546  15.510  0.7963  0.5812 -0.4264
  910MPD2    N113334   1.460   0.267  15.877 -0.2835 -0.0708 -0.3722
  910MPD2    H713335   1.540   0.272  15.816 -0.0270 -4.3298 -0.3614
  911MPD2     C13336   4.421   0.926  16.046 -0.0165  0.0451 -0.0119
  911MPD2    C113337   4.480   1.030  16.122  1.1185 -0.2802  0.5249
  911MPD2    C213338   4.431   1.159  16.114  0.0439  0.5558 -0.3180
  911MPD2    C313339   4.314   1.178  16.034 -0.1931 -0.6593  0.0044
  911MPD2    C413340   4.245   1.079  15.972  1.0085  0.0155 -0.2153
  911MPD2    C513341   4.301   0.951  15.974  0.0477 -0.2753 -0.4006
  911MPD2     H13342   4.478   1.242  16.166  2.2343 -1.3110  0.6682
  911MPD2    H113343   4.159   1.101  15.910 -0.9134 -4.0188  0.9906
  911MPD2    H213344   4.469   0.830  16.060 -0.9747 -0.3631  0.4382
  911MPD2    H313345   4.252   0.876  15.912 -3.3805  1.0420  0.7120
  911MPD2     N13346   4.259   1.305  16.023  0.2120  0.2962  0.3933
  911MPD2    H513347   4.166   1.314  15.985  0.3201  2.5158  0.6898
  911MPD2    N113348   4.597   0.996  16.193  0.1723  0.4217 -0.6587
  911MPD2    H713349   4.635   0.905  16.168 -1.3530 -0.4132  0.0408
  912MPD2     C13350   3.922   1.144  15.581  0.4046 -0.2180 -0.3003
  912MPD2    C113351   3.926   1.176  15.721  0.0310  0.5752  0.2218
  912MPD2    C213352   3.920   1.077  15.819  0.6704  0.0588  0.0332
  912MPD2    C313353   3.937   0.948  15.773  0.0454  0.2580 -0.4348
  912MPD2    C413354   3.943   0.909  15.640 -0.3030  0.0498  0.3922
  912MPD2    C513355   3.926   1.010  15.544 -0.4603  0.7818 -0.3962
  912MPD2     H13356   3.933   1.095  15.925 -1.5859  0.2603  0.2645
  912MPD2    H113357   3.941   0.804  15.613  2.4680  0.1831 -0.3488
  912MPD2    H213358   3.929   1.222  15.505  2.1860  0.0457  0.1285
  912MPD2    H313359   3.923   0.993  15.437 -0.6059 -1.0376 -0.1054
  912MPD2     N13360   3.947   0.856  15.878 -0.0140 -0.7503  0.0361
  912MPD2    H513361   3.920   0.896  15.967  1.6463  2.6356 -1.0052
  912MPD2    N113362   3.943   1.314  15.764  0.0530  0.3979  0.6068
  912MPD2    H713363   3.956   1.380  15.688  0.5451 -0.3962  0.0035
  913MPD2     C13364   0.139   1.686  11.121 -0.6773 -0.5498  0.8260
  913MPD2    C113365   0.203   1.796  11.166 -0.1149 -0.2413  0.3380
  913MPD2    C213366   0.244   1.892  11.080 -0.3802 -0.0695  0.5492
  913MPD2    C313367   0.221   1.872  10.945 -0.6356  0.2781 -0.2802
  913MPD2    C413368   0.153   1.764  10.900  0.0386  1.0787  0.0839
  913MPD2    C513369   0.118   1.666  10.988  0.0967  0.0403  0.0613
  913MPD2     H13370   0.304   1.977  11.113 -1.3304  1.2200 -1.0811
  913MPD2    H113371   0.133   1.736  10.797  1.8080 -0.5577  0.1954
  913MPD2    H213372   0.101   1.614  11.193  0.8312 -1.1536  1.0062
  913MPD2    H313373   0.059   1.580  10.959 -0.8603  1.6964 -2.8958
  913MPD2     N13374   0.270   1.961  10.850  0.1513 -0.0587  0.2763
  913MPD2    H513375   0.242   1.946  10.753 -0.6078  0.2679  0.4444
  913MPD2    N113376   0.219   1.810  11.307 -0.1811 -0.4822 -0.4714
  913MPD2    H713377   0.167   1.752  11.372  1.0210 -0.1800  0.7577
  914MPD2     C13378   2.594   1.880  11.955 -0.0478  0.8237  0.4033
  914MPD2    C113379   2.613   2.006  12.000  0.1624  0.1065  0.2136
  914MPD2    C213380   2.675   2.033  12.123 -0.1114 -0.1455  0.5246
  914MPD2    C313381   2.733   1.925  12.190  0.1364 -0.2718 -0.0098
  914MPD2    C413382   2.718   1.791  12.138 -0.0399  0.3266 -1.2749
  914MPD2    C513383   2.635   1.774  12.031  0.4246 -1.4871  0.6568
  914MPD2     H13384   2.680   2.133  12.165 -1.0382  0.1456 -0.0584
  914MPD2    H113385   2.767   1.706  12.185  0.0835  1.6328  0.9976
  914MPD2    H213386   2.543   1.858  11.862  1.2797  1.1553 -0.4117
  914MPD2    H313387   2.615   1.673  11.997  1.5930 -1.9536  1.3435
  914MPD2     N13388   2.796   1.953  12.308 -0.1936  0.0083  0.2650
  914MPD2    H513389   2.796   2.047  12.345  0.1551 -1.0948  3.1224
  914MPD2    N113390   2.571   2.108  11.910 -0.1424 -0.0463  0.5970
  914MPD2    H713391   2.516   2.077  11.830 -1.8947 -0.8545  2.1062
  915MPD2     C13392   1.196   2.504  15.614  0.3687  1.6026  0.0673
  915MPD2    C113393   1.060   2.499  15.600  0.7569 -0.2594  0.4979
  915MPD2    C213394   0.981   2.569  15.696 -0.0638  0.2595 -0.3146
  915MPD2    C313395   1.034   2.641  15.797 -0.0137  0.1366 -0.6668
  915MPD2    C413396   1.169   2.645  15.811 -0.3059 -0.6425 -0.0314
  915MPD2    C513397   1.241   2.577  15.720 -0.5337  0.3722  0.2300
  915MPD2     H13398   0.876   2.587  15.678 -0.3517 -1.5649 -0.4412
  915MPD2    H113399   1.221   2.710  15.881 -0.9512 -0.4194  0.2499
  915MPD2    H213400   1.268   2.465  15.543  1.7637  2.2183  1.1406
  915MPD2    H313401   1.348   2.581  15.737 -0.6337  2.3638  0.4680
  915MPD2     N13402   0.955   2.702  15.888 -0.7460  0.3041 -0.0143
  915MPD2    H513403   0.857   2.698  15.863 -0.8265  0.6137  0.2445
  915MPD2    N113404   1.012   2.407  15.499 -1.3179 -0.2003  0.4581
  915MPD2    H713405   1.079   2.336  15.470 -1.2680  0.5839 -1.3705
  916MPD2     C13406   3.500   0.584  15.904  0.6305 -0.6084  0.2708
  916MPD2    C113407   3.591   0.586  16.005  0.1155 -0.1121  0.6331
  916MPD2    C213408   3.702   0.504  15.993 -0.3912  0.2846 -0.0816
  916MPD2    C313409   3.735   0.444  15.877 -0.3762  0.6379  0.3976
  916MPD2    C413410   3.648   0.461  15.769  0.7778 -0.7869 -0.0915
  916MPD2    C513411   3.533   0.526  15.788 -0.1053 -0.1289  0.7068
  916MPD2     H13412   3.759   0.495  16.085 -0.5812 -4.4041 -0.4211
  916MPD2    H113413   3.669   0.415  15.673 -0.7287 -0.4634 -0.5659
  916MPD2    H213414   3.410   0.644  15.909  1.9102  1.3952 -0.7056
  916MPD2    H313415   3.472   0.533  15.699 -0.8373 -1.0695  1.1313
  916MPD2     N13416   3.838   0.348  15.869  0.0220  0.0809  0.1361
  916MPD2    H513417   3.885   0.327  15.957 -0.0469 -0.9932 -0.0859
  916MPD2    N113418   3.559   0.657  16.121  0.3709 -0.3123  0.2939
  916MPD2    H713419   3.479   0.719  16.110  0.9956  0.1307 -1.7155
  917MPD2     C13420   4.137   3.001  10.852  0.2111  0.0707 -0.6607
  917MPD2    C113421   4.053   3.071  10.938  0.0937 -0.4382 -0.1236
  917MPD2    C213422   4.012   3.194  10.903  0.2825  0.1614 -0.0441
  917MPD2    C313423   4.038   3.254  10.776 -0.0433  0.5173  0.3408
  917MPD2    C413424   4.106   3.182  10.688  0.1076 -0.3915  0.2246
  917MPD2    C513425   4.159   3.064  10.734  0.5130  0.5483 -0.5785
  917MPD2     H13426   3.938   3.246  10.964  0.8749 -1.2157  1.8324
  917MPD2    H113427   4.152   3.216  10.596 -0.8733  1.2505  0.3362
  917MPD2    H213428   4.172   2.900  10.870 -1.3792 -0.4348 -0.4133
  917MPD2    H313429   4.225   3.011  10.667 -0.3958  0.3300 -1.3012
  917MPD2     N13430   3.971   3.370  10.725 -0.3410 -0.3737 -0.0818
  917MPD2    H513431   3.998   3.401  10.633 -1.5484  0.8439 -0.0370
  917MPD2    N113432   4.012   3.008  11.052  0.4947  0.4768 -0.2225
  917MPD2    H713433   4.048   2.916  11.075  1.3273  0.3187 -2.1849
  918MPD2     C13434   3.988   3.277  12.043 -0.0196  0.7102  0.0952
  918MPD2    C113435   4.098   3.244  11.965 -0.2012 -0.2032  0.5047
  918MPD2    C213436   4.091   3.211  11.833 -0.1936  0.7984  0.6457
  918MPD2    C313437   3.961   3.186  11.783  0.1607  0.3046 -0.7737
  918MPD2    C413438   3.854   3.221  11.857 -0.1368  0.0955  0.5632
  918MPD2    C513439   3.862   3.271  11.981 -0.1071 -0.0602  0.4380
  918MPD2     H13440   4.177   3.191  11.772 -0.1102 -1.3139  1.4751
  918MPD2    H113441   3.750   3.213  11.828  0.7468 -1.2257 -2.2393
  918MPD2    H213442   3.995   3.312  12.145  3.6678  0.3972 -0.0503
  918MPD2    H313443   3.776   3.289  12.046 -0.2482  0.3531  0.1389
  918MPD2     N13444   3.950   3.111  11.666 -0.9563 -0.3879 -0.6198
  918MPD2    H513445   4.036   3.081  11.623 -1.2473 -0.9876 -0.7881
  918MPD2    N113446   4.233   3.245  12.020  0.1908 -0.5042  0.4967
  918MPD2    H713447   4.309   3.232  11.953  0.4944  1.8849  0.4031
  919MPD2     C13448   4.624   1.967  11.978  0.3548  0.9980  0.1726
  919MPD2    C113449   4.601   1.857  11.912  0.8954 -0.5350  0.4965
  919MPD2    C213450   4.581   1.860  11.777  0.1255  0.4689 -0.5821
  919MPD2    C313451   4.601   1.982  11.707  0.7558 -0.2335  0.0032
  919MPD2    C413452   4.627   2.093  11.774 -0.5226  0.5078 -0.5136
  919MPD2    C513453   4.643   2.087  11.910 -0.2171 -0.3009 -0.3594
  919MPD2     H13454   4.546   1.767  11.735 -0.5514  0.2192  0.5392
  919MPD2    H113455   4.625   2.182  11.712 -0.1045 -0.0479 -1.3343
  919MPD2    H213456   4.617   1.971  12.086  0.9733  3.6497  0.1052
  919MPD2    H313457   4.641   2.178  11.968  0.8000 -1.3542  1.3258
  919MPD2     N13458   4.590   1.995  11.570  0.2026 -0.0271 -0.7704
  919MPD2    H513459   4.590   2.085  11.524 -0.6353 -0.1061 -0.9321
  919MPD2    N113460   4.579   1.732  11.980 -0.3509  0.0128 -0.5040
  919MPD2    H713461   4.566   1.651  11.919  0.6378 -1.5926  1.4370
  920MPD2     C13462   0.205   2.444  10.744 -0.5626  0.6803  0.1199
  920MPD2    C113463   0.109   2.364  10.687 -0.0794 -0.3420 -0.2820
  920MPD2    C213464   0.048   2.276  10.773  0.5837 -0.0120 -0.1490
  920MPD2    C313465   0.080   2.269  10.907 -0.5012  0.3821 -0.3165
  920MPD2    C413466   0.176   2.346  10.960  0.1061  0.5549 -0.5276
  920MPD2    C513467   0.235   2.437  10.874 -0.0154 -0.6021 -0.3460
  920MPD2     H13468   4.691   2.211  10.743  1.3171 -1.1061  0.2511
  920MPD2    H113469   0.199   2.347  11.066  1.4921  0.3889 -0.8268
  920MPD2    H213470   0.265   2.523  10.699 -1.0584  0.5396 -0.7757
  920MPD2    H313471   0.318   2.492  10.917  0.1126 -2.5597  1.8905
  920MPD2     N13472   0.004   2.179  10.986 -0.8591  0.6997 -0.3336
  920MPD2    H513473   4.667   2.116  10.937  2.2668 -1.1793 -1.8387
  920MPD2    N113474   0.061   2.371  10.550  0.0293  0.4161 -0.1790
  920MPD2    H713475   4.708   2.310  10.525  0.2516 -0.4626  1.3065
  921MPD2     C13476   0.509   1.641  16.662  0.9711 -0.0849  0.2171
  921MPD2    C113477   0.575   1.518  16.666 -0.0198  0.1786 -0.0756
  921MPD2    C213478   0.514   1.402  16.622 -0.1617 -0.5420 -1.0375
  921MPD2    C313479   0.389   1.415  16.565  0.0128 -0.0491  0.2975
  921MPD2    C413480   0.331   1.536  16.561  0.4634 -0.2154  0.6034
  921MPD2    C513481   0.382   1.642  16.622 -0.3109 -0.0263 -0.1052
  921MPD2     H13482   0.570   1.308  16.623  1.5082  0.4752  0.7442
  921MPD2    H113483   0.235   1.561  16.518  2.6081  1.4089 -3.2749
  921MPD2    H213484   0.552   1.733  16.698 -0.0446  0.4906 -0.0219
  921MPD2    H313485   0.333   1.739  16.630 -2.6586 -1.2297 -0.0776
  921MPD2     N13486   0.322   1.318  16.491  0.2744  0.4531  0.2558
  921MPD2    H513487   0.246   1.353  16.434 -0.0540  0.2985  0.6032
  921MPD2    N113488   0.703   1.517  16.725 -0.0771 -0.3322 -0.1763
  921MPD2    H713489   0.747   1.603  16.756  1.6684 -0.9621 -0.8915
  922MPD2     C13490   1.053   3.536   0.516  0.4680  0.1377 -0.2153
  922MPD2    C113491   1.077   3.677   0.515  0.1517  0.2945 -0.0428
  922MPD2    C213492   1.071   3.746   0.396  0.3555 -0.5204  0.1246
  922MPD2    C313493   1.016   3.681   0.282  0.9101  0.3000 -0.3122
  922MPD2    C413494   0.977   3.552   0.293 -0.1909  0.3788 -0.0926
  922MPD2    C513495   1.004   3.475   0.401 -0.4628  0.8174  0.2160
  922MPD2     H13496   1.086   3.854   0.401  2.3819 -0.8036 -0.1177
  922MPD2    H113497   0.916   3.517   0.210 -1.0616  0.1479  0.6488
  922MPD2    H213498   1.054   3.477   0.607  0.2523 -0.3875 -0.5526
  922MPD2    H313499   0.972   3.372   0.416 -1.3891  1.1364  0.4255
  922MPD2     N13500   0.992   3.745   0.164 -0.4537  0.3744  0.3950
  922MPD2    H513501   0.953   3.682   0.095  0.2361  0.1207  0.2461
  922MPD2    N113502   1.118   3.745   0.638  0.7342 -0.1694  0.2843
  922MPD2    H713503   1.136   3.844   0.631  1.4472 -0.2256  1.2836
  923MPD2     C13504   2.011   0.213   8.517  0.1442  0.8591 -0.0755
  923MPD2    C113505   2.001   0.329   8.588  0.2084  1.1941  0.1810
  923MPD2    C213506   2.116   0.362   8.659  0.0602  0.3568  0.2083
  923MPD2    C313507   2.241   0.303   8.648 -0.5899  0.5925 -0.3010
  923MPD2    C413508   2.246   0.193   8.561 -0.6324 -0.5774 -0.4828
  923MPD2    C513509   2.131   0.156   8.488 -0.2266 -0.0427  0.2594
  923MPD2     H13510   2.114   0.455   8.715  2.1871  0.0448  0.7771
  923MPD2    H113511   2.332   0.127   8.555  0.1083  0.0692  3.4331
  923MPD2    H213512   1.930   0.170   8.459  0.9944  1.2843 -1.5574
  923MPD2    H313513   2.138   0.070   8.423 -1.8271 -0.3527  0.4991
  923MPD2     N13514   2.354   0.327   8.725 -0.0184  1.2765  0.4989
  923MPD2    H513515   2.435   0.279   8.688  0.5399  2.2007  0.5217
  923MPD2    N113516   1.881   0.404   8.593  0.1917  0.6097  0.1397
  923MPD2    H713517   1.803   0.358   8.547 -0.4772 -1.1780  3.0635
  924MPD2     C13518   2.595   3.810  16.040  0.3641  0.4873  0.2686
  924MPD2    C113519   2.508   3.786  16.151  0.3070  0.3246 -0.0896
  924MPD2    C213520   2.494   3.879  16.254 -0.0359 -0.2859 -0.3764
  924MPD2    C313521   2.556   3.997  16.237  0.9128  0.8050  0.0573
  924MPD2    C413522   2.625   4.023  16.122 -0.1313 -0.1179 -0.0782
  924MPD2    C513523   2.646   3.929  16.028 -0.2737 -0.1125 -1.1684
  924MPD2     H13524   2.435   3.862  16.343 -1.4665  0.4625 -1.1948
  924MPD2    H113525   2.675   4.118  16.118 -0.9345  0.2746 -0.8951
  924MPD2    H213526   2.604   3.744  15.954 -0.0558  0.2851  0.3787
  924MPD2    H313527   2.712   3.955  15.947  0.8103  1.8303  0.3253
  924MPD2     N13528   2.553   4.097  16.334 -0.3815  0.1854  0.7946
  924MPD2    H513529   2.595   4.188  16.318 -0.3528  0.0745  0.2484
  924MPD2    N113530   2.448   3.657  16.153  0.1475  0.4510 -0.2077
  924MPD2    H713531   2.499   3.581  16.109 -0.8964 -0.0987 -0.4803
  925MPD2     C13532   1.992   1.304  14.509  0.0191 -0.1578 -0.8590
  925MPD2    C113533   1.860   1.351  14.499  0.4778  0.3417 -0.1172
  925MPD2    C213534   1.762   1.334  14.589 -0.0912  0.1161 -0.4593
  925MPD2    C313535   1.787   1.275  14.705 -0.3018 -0.8756  0.7063
  925MPD2    C413536   1.913   1.219  14.719  0.1600 -0.5413 -0.0021
  925MPD2    C513537   2.017   1.236  14.624 -0.0617 -0.3950  0.1105
  925MPD2     H13538   1.661   1.364  14.562 -0.3273 -0.6236 -0.3980
  925MPD2    H113539   1.939   1.148  14.797  0.5838 -1.4088 -0.9246
  925MPD2    H213540   2.077   1.324  14.445 -0.5289 -0.4302 -1.6803
  925MPD2    H313541   2.111   1.184  14.633 -0.0415 -0.4128 -0.2233
  925MPD2     N13542   1.692   1.267  14.810 -0.7382 -0.7455 -0.4211
  925MPD2    H513543   1.712   1.222  14.898 -0.7752 -1.0774 -0.5809
  925MPD2    N113544   1.815   1.438  14.403  0.0009 -0.1203  0.4787
  925MPD2    H713545   1.724   1.482  14.416 -0.5753 -0.1242 -3.4592
  926MPD2     C13546   0.446   4.617  13.614 -0.0939 -0.3201  0.2951
  926MPD2    C113547   0.337   4.647  13.527  0.0979 -0.8543 -0.5207
  926MPD2    C213548   0.361   4.714  13.404  0.5922 -0.0784  0.2743
  926MPD2    C313549   0.488   0.030  13.370 -0.2382  0.1818 -0.4023
  926MPD2    C413550   0.590   0.001  13.459 -0.3060  0.3467 -0.1282
  926MPD2    C513551   0.566   4.667  13.585 -0.0047 -0.2705  0.0376
  926MPD2     H13552   0.279   0.014  13.338  0.6000 -0.0374  0.2799
  926MPD2    H113553   0.694   0.027  13.443  0.2463 -0.7422  1.6946
  926MPD2    H213554   0.436   4.545  13.694 -2.3741  0.7338  0.9544
  926MPD2    H313555   0.650   4.628  13.641 -1.2085 -0.0992  1.9942
  926MPD2     N13556   0.520   0.097  13.255  0.1334 -0.6027 -0.5976
  926MPD2    H513557   0.615   0.133  13.255  1.0190 -2.8596  2.6225
  926MPD2    N113558   0.212   4.590  13.544 -0.2891  0.4721 -0.1966
  926MPD2    H713559   0.154   4.588  13.460 -1.8145  0.1327  0.8720
  927MPD2     C13560   4.154   2.717   0.042 -0.9765  0.5621  0.0204
  927MPD2    C113561   4.255   2.778   0.113 -0.6038  0.1670 -0.2107
  927MPD2    C213562   4.379   2.790   0.053  0.0578 -1.2787  0.0904
  927MPD2    C313563   4.402   2.723  17.630  0.5559  0.0284 -0.1817
  927MPD2    C413564   4.296   2.670  17.554  0.1577  0.1651 -0.3958
  927MPD2    C513565   4.170   2.661  17.611  0.1377  0.1681 -0.2508
  927MPD2     H13566   4.472   2.821   0.099  0.9529 -1.5847 -1.4804
  927MPD2    H113567   4.316   2.611  17.466  1.2568 -0.1266  0.0449
  927MPD2    H213568   4.057   2.710   0.090 -1.4759  2.5445 -0.7105
  927MPD2    H313569   4.088   2.610  17.562 -0.1801 -1.0787  1.6002
  927MPD2     N13570   4.531   2.717  17.578 -0.3475  0.3821 -0.5762
  927MPD2    H513571   4.598   2.772  17.631 -1.2994  0.5564  0.4639
  927MPD2    N113572   4.222   2.827   0.243  0.4086  0.3056 -0.1112
  927MPD2    H713573   4.123   2.823   0.264  1.0966 -1.3034  2.8356
  928MPD2     C13574   2.249   1.323   1.255 -0.7406  0.2627  0.0673
  928MPD2    C113575   2.365   1.244   1.262  0.0470  0.2372 -0.0933
  928MPD2    C213576   2.460   1.258   1.158  0.3097 -0.3178 -0.3751
  928MPD2    C313577   2.426   1.331   1.041 -0.0584 -1.2835  1.3460
  928MPD2    C413578   2.314   1.418   1.037 -0.2300 -0.7745 -0.6174
  928MPD2    C513579   2.227   1.409   1.148 -0.6609  0.9777 -0.0691
  928MPD2     H13580   2.554   1.205   1.162  1.5331  1.8265 -0.8900
  928MPD2    H113581   2.294   1.476   0.947  0.9611 -0.6486 -0.8041
  928MPD2    H213582   2.183   1.330   1.341 -1.4302 -0.2057 -0.4274
  928MPD2    H313583   2.146   1.481   1.150 -0.5603  1.1526 -1.6964
  928MPD2     N13584   2.516   1.312   0.937 -0.4022  0.3346  0.3713
  928MPD2    H513585   2.589   1.241   0.942  0.1590  0.8749 -0.1339
  928MPD2    N113586   2.388   1.178   1.386 -0.2358 -0.3345 -0.5130
  928MPD2    H713587   2.327   1.196   1.465 -0.5148 -0.0309 -0.7985
  929MPD2     C13588   3.338   0.377  10.395 -0.0517 -0.3768  0.0810
  929MPD2    C113589   3.224   0.309  10.444 -0.5386 -0.1843  0.2371
  929MPD2    C213590   3.120   0.278  10.354 -0.3743  0.7338 -0.1740
  929MPD2    C313591   3.123   0.310  10.219 -0.5364  0.0612 -0.3247
  929MPD2    C413592   3.234   0.382  10.174  0.1420 -0.2817 -0.0980
  929MPD2    C513593   3.338   0.420  10.264 -0.4317  0.2797  0.6067
  929MPD2     H13594   3.021   0.251  10.389  0.3180  0.6871  1.7710
  929MPD2    H113595   3.266   0.407  10.073 -0.6652  2.2335  0.2571
  929MPD2    H213596   3.420   0.406  10.460 -0.3620  1.5450 -0.3943
  929MPD2    H313597   3.415   0.490  10.232 -0.6704  0.5645  0.6594
  929MPD2     N13598   3.022   0.293  10.126 -0.6242 -0.1002  0.2359
  929MPD2    H513599   3.049   0.343  10.041 -2.1850 -0.1014 -0.2529
  929MPD2    N113600   3.212   0.260  10.583  0.0790  0.4397 -0.5435
  929MPD2    H713601   3.295   0.282  10.636  0.4878 -2.4402 -0.0331
  930MPD2     C13602   4.607   2.615  14.479 -0.1438  0.2690  0.3333
  930MPD2    C113603   4.585   2.681  14.359 -0.3335  0.2667 -0.5096
  930MPD2    C213604   4.508   2.630  14.265 -0.3906  0.3894 -0.2851
  930MPD2    C313605   4.438   2.506  14.282 -0.0659  0.3995  0.0663
  930MPD2    C413606   4.456   2.440  14.403  0.2672 -0.0673 -0.2291
  930MPD2    C513607   4.546   2.486  14.498 -0.3283  0.1221 -0.2190
  930MPD2     H13608   4.486   2.692  14.179  0.2523 -0.8282 -1.3276
  930MPD2    H113609   4.394   2.351  14.413  0.6549 -0.2190  0.8384
  930MPD2    H213610   4.667   2.659  14.558 -0.5234  3.3699 -1.1003
  930MPD2    H313611   4.553   2.450  14.600 -1.9428  0.1675 -0.0845
  930MPD2     N13612   4.347   2.458  14.182  0.3026 -0.2238 -0.1739
  930MPD2    H513613   4.320   2.360  14.185  1.2666 -0.5191 -1.2204
  930MPD2    N113614   4.660   2.805  14.328 -0.0398  0.0281 -0.7271
  930MPD2    H713615   4.637   2.852  14.241 -2.0677 -0.9684 -0.7292
  931MPD2     C13616   0.020   2.848   0.850  1.2001 -0.1975 -0.7879
  931MPD2    C113617   4.609   2.853   0.861  0.0669  0.0566 -0.0362
  931MPD2    C213618   4.549   2.781   0.969  0.6480  0.4381  0.0629
  931MPD2    C313619   4.627   2.705   1.051 -0.0118  0.8292 -0.5633
  931MPD2    C413620   0.038   2.699   1.029  0.3517 -0.2060 -0.2757
  931MPD2    C513621   0.098   2.778   0.934  0.5133 -0.3599 -0.8231
  931MPD2     H13622   4.442   2.767   0.980  0.9467 -2.4096 -0.6449
  931MPD2    H113623   0.104   2.644   1.095 -0.2386 -1.9364 -1.1167
  931MPD2    H213624   0.065   2.911   0.774  1.4441 -1.1117 -1.4108
  931MPD2    H313625   0.205   2.782   0.921  0.5257 -0.0997 -0.6273
  931MPD2     N13626   4.575   2.621   1.148 -0.8873 -0.1110  0.5948
  931MPD2    H513627   4.629   2.540   1.175  2.4643  1.8596 -0.1694
  931MPD2    N113628   4.531   2.924   0.764  0.5420  0.2790 -0.1604
  931MPD2    H713629   4.574   2.947   0.674 -1.1163 -2.7043 -1.7344
  932MPD2     C13630   1.492   1.225  11.190  0.2134  0.0670  0.5946
  932MPD2    C113631   1.625   1.250  11.178 -0.6023  0.3819 -0.3011
  932MPD2    C213632   1.722   1.160  11.225 -0.1008 -0.5451 -0.6257
  932MPD2    C313633   1.675   1.044  11.284 -0.0966  0.3115 -0.4976
  932MPD2    C413634   1.541   1.014  11.285  0.4483 -0.0683  0.7186
  932MPD2    C513635   1.453   1.108  11.241  0.1453 -0.3084  0.6710
  932MPD2     H13636   1.827   1.188  11.219 -0.0072 -1.1273 -1.5714
  932MPD2    H113637   1.499   0.919  11.316 -0.9737  0.0780 -0.7810
  932MPD2    H213638   1.419   1.283  11.134  1.0523  0.7508  0.2147
  932MPD2    H313639   1.347   1.089  11.228  0.0934 -1.0832  2.2674
  932MPD2     N13640   1.752   0.944  11.346  0.7876 -0.7946 -0.0179
  932MPD2    H513641   1.711   0.868  11.400 -0.4936 -1.2322 -1.5921
  932MPD2    N113642   1.680   1.362  11.112  0.3233 -0.3011  0.1837
  932MPD2    H713643   1.777   1.361  11.082 -0.2415  1.1266 -1.6896
  933MPD2     C13644   2.543   1.058   2.236  0.3864  0.0898 -1.1413
  933MPD2    C113645   2.518   1.133   2.121  0.0839  0.1145  0.1332
  933MPD2    C213646   2.497   1.271   2.131 -0.4332 -0.0498  0.3415
  933MPD2    C313647   2.513   1.336   2.250  0.1425 -0.0986 -0.3373
  933MPD2    C413648   2.522   1.261   2.367 -0.3990  0.1832 -0.1223
  933MPD2    C513649   2.532   1.125   2.352 -0.0416  0.4797  0.2619
  933MPD2     H13650   2.475   1.327   2.040  2.7357  1.0483  0.2729
  933MPD2    H113651   2.522   1.303   2.467 -0.4196  0.5160 -0.2622
  933MPD2    H213652   2.567   0.952   2.238  2.3768  0.6036  1.5812
  933MPD2    H313653   2.534   1.060   2.439  1.5413  1.8425  1.2439
  933MPD2     N13654   2.496   1.477   2.251 -0.6845  0.0346 -0.1123
  933MPD2    H513655   2.482   1.530   2.165 -1.0098  0.7760  0.3911
  933MPD2    N113656   2.517   1.071   1.989 -0.8206 -0.7162 -0.1170
  933MPD2    H713657   2.529   0.971   1.983  0.8294 -0.4760 -0.9002
  934MPD2     C13658   2.848   3.625   1.813 -0.2628  0.1138  0.5539
  934MPD2    C113659   2.919   3.528   1.742 -0.0671 -0.0673  0.8462
  934MPD2    C213660   2.859   3.408   1.740 -0.1258  0.0605 -0.4611
  934MPD2    C313661   2.743   3.370   1.805 -0.2611  0.2597 -0.4229
  934MPD2    C413662   2.668   3.478   1.863  0.0038  0.2564 -0.4540
  934MPD2    C513663   2.730   3.596   1.876 -0.2612 -0.2537 -0.3522
  934MPD2     H13664   2.912   3.325   1.694 -0.3490  0.9477 -2.3207
  934MPD2    H113665   2.570   3.462   1.908  0.9263 -0.9560  1.1288
  934MPD2    H213666   2.867   3.732   1.819 -1.0750  0.3058 -0.4523
  934MPD2    H313667   2.672   3.676   1.921 -1.1257 -2.2355  2.0503
  934MPD2     N13668   2.688   3.237   1.808 -0.2722  0.3815 -0.5532
  934MPD2    H513669   2.595   3.227   1.847  0.3291 -0.4207  0.6587
  934MPD2    N113670   3.035   3.553   1.661  0.0942  0.0357 -0.4193
  934MPD2    H713671   3.069   3.480   1.600  0.4598  0.8449 -1.1856
  935MPD2     C13672   3.271   2.432   1.835  0.1975  0.6558 -0.7970
  935MPD2    C113673   3.201   2.424   1.715 -0.7029 -0.2718  0.7506
  935MPD2    C213674   3.076   2.486   1.709  0.7623 -0.7239  0.2248
  935MPD2    C313675   3.031   2.570   1.812  0.0082  0.1993  0.2174
  935MPD2    C413676   3.114   2.581   1.922 -0.0851  0.8802  0.3438
  935MPD2    C513677   3.223   2.505   1.938  0.0116 -0.3052 -0.4007
  935MPD2     H13678   3.008   2.473   1.625  0.4779 -1.4781  0.5752
  935MPD2    H113679   3.086   2.643   2.006 -2.2602 -1.1010  1.0647
  935MPD2    H213680   3.364   2.376   1.845 -0.2989 -0.3322 -1.6161
  935MPD2    H313681   3.284   2.498   2.027 -1.5435  4.4855  1.0118
  935MPD2     N13682   2.916   2.654   1.808 -0.2808 -0.2969 -0.1394
  935MPD2    H513683   2.912   2.725   1.880  1.3797  0.6854 -1.0264
  935MPD2    N113684   3.240   2.355   1.601  0.8084  0.2424 -0.2753
  935MPD2    H713685   3.175   2.352   1.523 -0.2632  1.7716  0.5733
  936MPD2     C13686   2.209   0.375  12.183 -0.6785  0.3477  0.0442
  936MPD2    C113687   2.265   0.368  12.309 -0.7203  0.3127  0.4002
  936MPD2    C213688   2.342   0.465  12.364 -0.6270  0.8106  0.1864
  936MPD2    C313689   2.389   0.568  12.285  0.5038 -0.1512 -0.1584
  936MPD2    C413690   2.339   0.569  12.158  0.0770  0.7434  0.1626
  936MPD2    C513691   2.246   0.483  12.110 -0.4989 -1.0311  1.1306
  936MPD2     H13692   2.390   0.444  12.459  0.1718  1.4597 -0.0696
  936MPD2    H113693   2.387   0.634  12.084  0.7976 -0.9478 -0.8624
  936MPD2    H213694   2.128   0.314  12.145 -0.2906 -0.0622 -0.1203
  936MPD2    H313695   2.211   0.495  12.009  0.3519  0.9761  1.0716
  936MPD2     N13696   2.499   0.649  12.337 -0.1059 -0.4187 -0.0512
  936MPD2    H513697   2.537   0.627  12.428 -1.6169  1.2414  0.9825
  936MPD2    N113698   2.237   0.259  12.404 -0.2363 -0.1870 -0.2385
  936MPD2    H713699   2.262   0.282  12.499 -2.0980  1.6737 -0.1926
  937MPD2     C13700   4.649   1.047  11.806  0.5835  0.1535  0.3389
  937MPD2    C113701   4.626   1.175  11.762  0.8502 -0.6304  0.1318
  937MPD2    C213702   4.690   1.217  11.652 -0.6028 -0.1312 -0.0169
  937MPD2    C313703   0.036   1.128  11.573  0.5355  0.0678 -0.0420
  937MPD2    C413704   0.057   0.999  11.616 -0.4151 -0.6284  0.2596
  937MPD2    C513705   0.008   0.957  11.741 -0.4347 -0.2958 -0.9313
  937MPD2     H13706   4.686   1.322  11.624 -0.3701  0.2819  1.4953
  937MPD2    H113707   0.119   0.926  11.566 -1.3057 -0.7808 -0.6158
  937MPD2    H213708   4.613   1.009  11.901 -0.0127  1.0463  0.4712
  937MPD2    H313709   0.011   0.857  11.782  2.0627 -0.2245 -0.9104
  937MPD2     N13710   0.093   1.179  11.457  0.5941  0.2470  0.2200
  937MPD2    H513711   0.082   1.278  11.436  2.9726  0.4860  0.2022
  937MPD2    N113712   4.561   1.275  11.840  0.0664  0.2927  0.0919
  937MPD2    H713713   4.553   1.371  11.807  0.2061 -0.3185 -1.7175
  938MPD2     C13714   2.707   1.998   1.162 -0.1262 -1.1699  0.1279
  938MPD2    C113715   2.651   2.112   1.204  0.4553  0.0857  0.5411
  938MPD2    C213716   2.589   2.117   1.327 -0.1425  0.2593 -0.3513
  938MPD2    C313717   2.590   2.010   1.413 -0.1213 -0.0395 -0.5402
  938MPD2    C413718   2.658   1.893   1.376 -0.3137  0.2006  0.1471
  938MPD2    C513719   2.709   1.889   1.249 -0.4809  0.1120  0.0043
  938MPD2     H13720   2.562   2.218   1.355  2.6635  0.8073  0.3907
  938MPD2    H113721   2.680   1.819   1.452  0.9002 -0.3009 -0.6801
  938MPD2    H213722   2.756   1.971   1.069 -3.1114  2.2673 -2.4414
  938MPD2    H313723   2.775   1.809   1.216 -0.1562 -1.2038  3.8902
  938MPD2     N13724   2.560   2.026   1.544 -0.0615  0.2796  0.4749
  938MPD2    H513725   2.584   1.945   1.601 -0.6509  0.8814  1.5890
  938MPD2    N113726   2.652   2.229   1.120  0.0257  0.2761 -0.4694
  938MPD2    H713727   2.601   2.308   1.158 -0.1381 -0.3865  0.6860
  939MPD2     C13728   3.487   4.237   0.133 -0.1643  0.4752  0.2963
  939MPD2    C113729   3.455   4.102   0.135  0.9024 -0.7249 -0.3160
  939MPD2    C213730   3.527   4.013   0.064 -0.4724  0.2762 -0.3760
  939MPD2    C313731   3.632   4.058  17.682  0.4921 -0.5949 -0.4412
  939MPD2    C413732   3.671   4.192  17.679 -0.0599 -0.0356 -0.6763
  939MPD2    C513733   3.591   4.279   0.051  0.6191 -0.5788  0.3878
  939MPD2     H13734   3.499   3.908   0.055  0.9001 -0.1174 -0.0373
  939MPD2    H113735   3.734   4.231  17.600 -2.0437 -0.2333 -2.3632
  939MPD2    H213736   3.430   4.315   0.182  1.1910  2.7984 -1.7907
  939MPD2    H313737   3.606   4.386   0.051  0.6912 -0.5981 -0.9997
  939MPD2     N13738   3.711   3.959  17.618  0.6489  0.4178 -0.5710
  939MPD2    H513739   3.676   3.864  17.628 -0.6822  0.8716 -0.8417
  939MPD2    N113740   3.350   4.066   0.224  0.7757 -0.8376 -0.2694
  939MPD2    H713741   3.295   4.140   0.267 -1.6311 -1.7784 -1.7506
  940MPD2     C13742   2.294   4.290  13.203  0.0997 -0.2935  0.2936
  940MPD2    C113743   2.423   4.245  13.229 -0.1848  0.1059 -0.0896
  940MPD2    C213744   2.530   4.280  13.143 -0.5502  0.0523 -0.0535
  940MPD2    C313745   2.505   4.364  13.038 -0.2486  0.2226  0.0498
  940MPD2    C413746   2.379   4.420  13.021 -0.1798  0.1644  0.5280
  940MPD2    C513747   2.274   4.373  13.096 -0.3790  0.4121 -0.4651
  940MPD2     H13748   2.628   4.251  13.180 -1.0286 -3.8147 -1.7924
  940MPD2    H113749   2.356   4.491  12.942  1.6690 -0.1223 -0.2682
  940MPD2    H213750   2.213   4.248  13.261 -0.5464 -0.3877 -0.6658
  940MPD2    H313751   2.171   4.398  13.074 -0.3424  1.5787  0.7087
  940MPD2     N13752   2.600   4.421  12.948 -0.1768 -0.2375 -0.6459
  940MPD2    H513753   2.555   4.491  12.888  0.2871  0.6950  0.0944
  940MPD2    N113754   2.446   4.176  13.357  0.1763 -0.1185  0.5281
  940MPD2    H713755   2.541   4.142  13.370 -0.0592 -2.2782 -3.3580
  941MPD2     C13756   1.739   3.774   9.570 -0.4406 -0.0730  0.0750
  941MPD2    C113757   1.842   3.677   9.570  0.4781 -0.0051  0.1229
  941MPD2    C213758   1.835   3.566   9.653  0.7586 -0.5851 -0.1802
  941MPD2    C313759   1.729   3.559   9.747 -0.3377 -0.1989  0.1618
  941MPD2    C413760   1.630   3.661   9.751 -0.3834  0.2843 -0.7294
  941MPD2    C513761   1.643   3.764   9.665 -0.1636 -0.5514 -0.4539
  941MPD2     H13762   1.909   3.488   9.662  2.7256  1.5726  2.1825
  941MPD2    H113763   1.555   3.666   9.828  0.3302 -1.6146  0.0842
  941MPD2    H213764   1.743   3.862   9.507  1.2466 -1.8561 -2.2738
  941MPD2    H313765   1.564   3.838   9.673  3.0101  2.8771 -0.7429
  941MPD2     N13766   1.717   3.453   9.834  0.4979 -0.1768 -0.1379
  941MPD2    H513767   1.642   3.470   9.900  2.4882  0.8079  1.8950
  941MPD2    N113768   1.963   3.692   9.507  0.1342 -0.2717 -0.7493
  941MPD2    H713769   2.034   3.625   9.536 -0.4904 -1.5386 -2.1927
  942MPD2     C13770   1.802   0.469   9.053  0.3412  0.5519  0.2790
  942MPD2    C113771   1.930   0.419   9.042  0.7201  0.7009 -0.5152
  942MPD2    C213772   2.025   0.489   9.119 -0.3088 -0.5441  0.0467
  942MPD2    C313773   2.001   0.609   9.185  0.9245 -0.2451 -0.5109
  942MPD2    C413774   1.869   0.652   9.189 -0.5002  0.3730 -0.0226
  942MPD2    C513775   1.776   0.586   9.118  0.4705 -0.3078  0.0753
  942MPD2     H13776   2.124   0.444   9.116 -0.0852 -0.1241  1.1386
  942MPD2    H113777   1.846   0.749   9.231  0.0058  0.4030  0.1830
  942MPD2    H213778   1.717   0.410   9.019  2.2651 -1.6711 -0.6144
  942MPD2    H313779   1.672   0.613   9.105  0.3238 -0.1765  1.5646
  942MPD2     N13780   2.104   0.681   9.242 -0.4006  0.1498 -0.3868
  942MPD2    H513781   2.076   0.759   9.301 -2.6811 -1.6339  0.8544
  942MPD2    N113782   1.960   0.297   8.971  0.2894  0.3565  0.2000
  942MPD2    H713783   2.057   0.268   8.977 -0.0362 -0.7668 -0.1188
  943MPD2     C13784   1.568   2.497   9.823  0.4455  0.2766 -0.3798
  943MPD2    C113785   1.456   2.575   9.860 -0.4100  0.3034 -0.3092
  943MPD2    C213786   1.400   2.652   9.765 -0.4114  0.4883  0.0603
  943MPD2    C313787   1.446   2.645   9.635 -0.5756 -0.0867 -0.1173
  943MPD2    C413788   1.546   2.560   9.596  0.3335 -0.6764  0.4526
  943MPD2    C513789   1.601   2.481   9.692 -0.0318  0.4532  0.0128
  943MPD2     H13790   1.328   2.727   9.795 -0.1838  0.6997  0.0818
  943MPD2    H113791   1.564   2.540   9.491 -0.4879 -0.3348  0.2520
  943MPD2    H213792   1.621   2.447   9.903  1.5198 -0.1677 -1.3844
  943MPD2    H313793   1.675   2.404   9.672 -0.6071 -0.7018  2.2804
  943MPD2     N13794   1.400   2.736   9.529 -0.0636  0.4548 -0.0184
  943MPD2    H513795   1.455   2.745   9.444 -1.2820 -1.0622 -0.9810
  943MPD2    N113796   1.422   2.581   9.998 -0.9182 -0.2165  0.3115
  943MPD2    H713797   1.483   2.532  10.063 -0.5598 -2.4904 -1.7850
  944MPD2     C13798   1.188   2.429  12.022  0.1007 -0.4215 -0.4418
  944MPD2    C113799   1.205   2.464  11.889  0.0309 -0.4994  0.4048
  944MPD2    C213800   1.130   2.567  11.833  0.5154 -0.8428  0.5583
  944MPD2    C313801   1.033   2.627  11.911  0.3809 -0.0612  1.1316
  944MPD2    C413802   1.007   2.577  12.037  0.3478 -0.5312  0.2439
  944MPD2    C513803   1.085   2.483  12.092 -0.1903 -1.0126  0.7453
  944MPD2     H13804   1.145   2.610  11.734 -2.3104  3.4140  1.9552
  944MPD2    H113805   0.928   2.618  12.099  0.5981  0.1359  0.1314
  944MPD2    H213806   1.231   2.341  12.068  3.1442  1.3145  0.0573
  944MPD2    H313807   1.066   2.452  12.194  0.1115  0.3222  1.2101
  944MPD2     N13808   0.949   2.725  11.850 -0.4114  0.2158 -0.1654
  944MPD2    H513809   0.962   2.752  11.753  1.7425  1.2154  0.4056
  944MPD2    N113810   1.289   2.382  11.806  0.2247  0.3420  0.1220
  944MPD2    H713811   1.338   2.302  11.845  0.0959  0.2751  0.1430
    1TCq1    O113812   3.092   3.531  14.438  0.8066 -0.2521  0.5717
    1TCq1    C113813   3.224   3.527  14.477 -0.3355  0.0350  0.4708
    1TCq1    O213814   3.312   3.580  14.411  0.2352  0.1004  0.4452
    1TCq1    C213815   3.227   3.514  14.624  0.9656  0.3492 -0.1762
    1TCq1    C313816   3.141   3.425  14.679 -0.1016  1.0257  0.3388
    1TCq1    C413817   3.118   3.420  14.814 -0.0097  0.0998 -0.8767
    1TCq1    C513818   3.189   3.514  14.889 -0.7379  0.4314  0.1313
    1TCq1    C613819   3.264   3.609  14.824 -0.4405 -0.1336  0.3047
    1TCq1    C713820   3.285   3.614  14.694 -0.1332 -0.4461 -0.1099
    1TCq1    C813821   3.313   3.716  14.899 -0.4232 -0.6645 -0.7380
    1TCq1    O413822   3.301   3.700  15.017 -0.1174  0.1280 -0.0664
    1TCq1    C913823   3.030   3.325  14.871 -0.4177  0.0878  0.5316
    1TCq1    O513824   3.030   3.337  14.995  0.1599 -0.5582  0.3344
    1TCq1    O613825   2.973   3.235  14.803 -0.0700  0.4275  0.2179
    1TCq1    H113826   3.026   3.502  14.503 -1.2898  0.5098 -1.2314
    1TCq1    H213827   3.091   3.358  14.610  2.0129 -0.5119  0.3175
    1TCq1    H313828   3.171   3.523  14.996 -1.4500 -0.1131  0.0600
    1TCq1    H413829   3.353   3.677  14.639  0.8967 -1.3635  0.1029
    2MPD2     C13830   3.535   4.153  15.009  0.2355 -0.6106  0.3545
    2MPD2    C113831   3.505   4.151  14.876  0.3554 -0.4406  0.0613
    2MPD2    C213832   3.436   4.046  14.822  0.4037 -0.7114 -0.3681
    2MPD2    C313833   3.423   3.929  14.898 -0.0042 -0.8072 -1.1740
    2MPD2    C413834   3.461   3.933  15.028  0.0433  0.3900 -0.9118
    2MPD2    C513835   3.518   4.046  15.085 -0.0451  0.7517  0.0373
    2MPD2     H13836   3.393   4.053  14.722 -2.4960 -1.0264  0.8693
    2MPD2    H113837   3.451   3.850  15.097 -0.1135  3.0881  2.3199
    2MPD2    H213838   3.597   4.231  15.051 -1.0075 -0.2946  1.5927
    2MPD2    H313839   3.537   4.046  15.192  0.6667 -3.2853 -0.0675
    2MPD2     N13840   3.370   3.818  14.829  0.4673  0.1550 -0.0963
    2MPD2    H513841   3.348   3.833  14.731 -0.4417 -0.8454 -0.0466
    2MPD2    N113842   3.530   4.274  14.809  0.7020  0.5858 -0.7983
    2MPD2    H713843   3.581   4.340  14.867  0.4256 -0.8037  1.0051
    3TMC2    C113844   3.554   4.443  14.651  0.4802 -0.1919  0.1821
    3TMC2    C213845   3.612   4.521  14.752 -0.0044  0.5562  0.4608
    3TMC2    C313846   3.730   4.583  14.726 -0.5689 -0.0416 -0.6491
    3TMC2    C413847   3.600   4.450  14.522  0.0589  0.2607 -0.4645
    3TMC2    C513848   3.705   4.539  14.501 -0.2549  0.0411  0.6216
    3TMC2    C613849   3.781   4.601  14.599 -0.4339  0.2183  0.3455
    3TMC2     C13850   3.499   4.310  14.684 -0.9551  0.4470 -0.3790
    3TMC2     O13851   3.445   4.247  14.594  0.0963 -0.2077  0.0867
    3TMC2     H13852   3.563   4.512  14.848 -1.3097  0.6261 -0.1948
    3TMC2    H113853   3.563   4.387  14.442  1.6837 -0.7571 -0.4111
    3TMC2    H213854   3.863   4.670  14.584 -0.5019 -0.3812 -2.9519
    3TMC2    C713855   3.744   4.584  14.363 -0.3485 -0.8293 -0.4589
    3TMC2    C813856   3.789   4.673  14.827 -0.6293  0.5641 -0.0163
    3TMC2    O113857   3.862   4.624  14.351  0.2745  0.2091  0.1569
    3TMC2    O213858   3.838   0.060  14.804 -0.0146  0.3780 -0.5420
    3TMC2    O513859   3.765   4.637  14.954 -0.4860 -0.2313 -0.3466
    3TMC2    H513860   3.736   4.543  14.960  0.9296 -0.7915 -2.3353
    4MPD2     C13861   2.351   0.074  13.695 -0.4672  0.3154  0.6799
    4MPD2    C113862   2.433   0.130  13.595 -0.6091  0.1741  0.1287
    4MPD2    C213863   2.567   0.101  13.589  0.6294  0.2356  1.2911
    4MPD2    C313864   2.625   0.031  13.693 -0.9042  0.6380  0.5810
    4MPD2    C413865   2.550   4.714  13.800 -0.7555  0.2242 -0.1449
    4MPD2    C513866   2.411   0.009  13.799 -0.4107 -0.0396  0.2083
    4MPD2     H13867   2.640   0.128  13.513 -2.5474  0.5496 -1.6879
    4MPD2    H113868   2.589   4.654  13.880 -0.5432  1.6659  0.8423
    4MPD2    H213869   2.246   0.098  13.686 -0.4374  0.8306  1.6862
    4MPD2    H313870   2.348   4.684  13.872 -1.3334 -1.0902 -1.2927
    4MPD2     N13871   2.765   0.011  13.682 -0.6397 -0.0780 -0.1080
    4MPD2    H513872   2.819   0.039  13.601 -2.3593  1.7113 -0.6158
    4MPD2    N113873   2.373   0.202  13.489 -0.1069 -0.3166  0.1070
    4MPD2    H713874   2.273   0.217  13.497 -0.1554 -0.2487 -0.6800
    5TCq2    C113875   2.843   4.670  13.774 -0.2539  0.1219 -0.0273
    5TCq2    O213876   2.811   4.616  13.874 -0.2961  0.1563  0.0588
    5TCq2    C213877   2.974   4.651  13.729 -0.7485  0.0912  0.3497
    5TCq2    C313878   2.999   4.637  13.591  1.1072 -0.4289 -0.2355
    5TCq2    C413879   3.131   4.617  13.553  0.0153 -0.3178 -0.4414
    5TCq2    C513880   3.235   4.601  13.649  0.5539  0.4413 -0.1690
    5TCq2    C613881   3.196   4.611  13.782 -0.5445 -0.4294 -0.2007
    5TCq2    C713882   3.075   4.633  13.822  0.0491  1.0973  0.0992
    5TCq2    C813883   3.303   4.620  13.883  0.7681  0.1657 -0.0705
    5TCq2    O413884   3.265   4.661  13.992 -0.2070 -0.4646 -0.3328
    5TCq2    C913885   3.172   4.615  13.413 -0.1153 -0.7792  0.3016
    5TCq2    O513886   3.088   4.646  13.326  0.1433  0.3333 -0.2793
    5TCq2    O613887   3.292   4.589  13.395 -0.3577 -0.0546 -0.2079
    5TCq2    H213888   2.933   4.640  13.505  0.1965 -0.1674  0.4660
    5TCq2    H313889   3.337   4.586  13.615  0.2551 -1.6854 -0.1179
    5TCq2    H413890   3.055   4.646  13.928 -0.6032  0.9373 -0.0019
    6MPD1     C13891   1.587   1.495  12.400  0.2824  0.7826 -0.1411
    6MPD1    C113892   1.666   1.443  12.301 -0.4696 -0.0794  1.2332
    6MPD1    C213893   1.775   1.367  12.335  0.5531 -0.1100 -0.2633
    6MPD1    C313894   1.792   1.334  12.466 -0.0526 -0.1778  0.3670
    6MPD1    C413895   1.705   1.375  12.562  0.2469  0.2658  0.9316
    6MPD1    C513896   1.601   1.457  12.529  0.5378  0.7007  0.1947
    6MPD1     H13897   1.841   1.340  12.254  0.0592  0.6909 -0.9381
    6MPD1    H113898   1.721   1.347  12.666  0.6946  1.6027  1.2192
    6MPD1    H213899   1.496   1.550  12.380 -0.4054  0.1313  1.1624
    6MPD1    H313900   1.533   1.495  12.605  1.3786  1.4471  0.5787
    6MPD1     N13901   1.899   1.249  12.502  0.4851  0.0810 -0.6532
    6MPD1    H513902   1.903   1.217  12.598 -3.3246  0.8392 -0.2215
    6MPD1    N113903   1.638   1.494  12.174  0.2824 -0.3978  0.5267
    6MPD1    H613904   1.657   1.422  12.104  1.8254  0.4316  0.0866
    6MPD1    H713905   1.541   1.522  12.164  0.1106 -1.0642  0.2999
    7MPD2     C13906   1.840   0.726  12.817 -0.4359  0.2735 -0.3333
    7MPD2    C113907   1.941   0.764  12.906 -1.1241  0.6550 -0.4118
    7MPD2    C213908   1.985   0.681  13.008 -0.9431 -0.4837 -0.6113
    7MPD2    C313909   1.918   0.561  13.030  1.0699  0.1252  1.1765
    7MPD2    C413910   1.813   0.529  12.944 -0.2363 -0.0241  0.5940
    7MPD2    C513911   1.777   0.609  12.836  0.3656  0.5968 -0.4118
    7MPD2     H13912   2.069   0.710  13.070 -1.7301  1.5928 -0.5264
    7MPD2    H113913   1.766   0.432  12.956 -3.6313  1.6006  0.5139
    7MPD2    H213914   1.809   0.782  12.730 -0.1002  0.1294 -0.5478
    7MPD2    H313915   1.692   0.587  12.773  0.6489  0.1132 -0.6258
    7MPD2     N13916   1.951   0.455  13.115  0.3745 -0.1688  0.0030
    7MPD2    H513917   1.897   0.370  13.102 -1.8902  1.5248 -1.7665
    7MPD2    N113918   2.018   0.877  12.889  0.3498 -0.0902  0.1809
    7MPD2    H713919   2.105   0.883  12.940  0.8155  0.1890 -0.6458
    8TMC3    C113920   2.095   0.334  13.251  0.1041  0.1932  0.1146
    8TMC3    C213921   2.210   0.347  13.330  0.5871 -0.2196  0.5085
    8TMC3    C313922   2.331   0.303  13.282  0.0748  0.5227  0.4775
    8TMC3    C413923   2.102   0.264  13.143  0.7549  0.1193  0.6290
    8TMC3    C513924   2.226   0.233  13.087  0.3598 -0.2233 -0.4038
    8TMC3    C613925   2.342   0.252  13.156 -0.3335  0.0073 -0.0357
    8TMC3     C13926   2.052   0.460  13.207  0.0299  0.3314 -0.2340
    8TMC3     O13927   2.121   0.556  13.234 -0.0538  0.3251  0.9143
    8TMC3     H13928   2.211   0.378  13.434 -0.6159  2.3248 -0.2485
    8TMC3    H113929   2.008   0.239  13.095  0.8298 -1.4598  1.3150
    8TMC3    H213930   2.438   0.220  13.117  0.2912  1.3453  0.3983
    8TMC3    C713931   2.242   0.291  12.956  0.0422 -0.2942 -0.4363
    8TMC3    C813932   2.435   0.249  13.370  0.3949  0.2647 -0.4968
    8TMC3    O113933   2.351   0.333  12.928  0.1079  0.3089 -0.2816
    8TMC3    O213934   2.551   0.216  13.341 -0.3876  0.4507  0.0865
    9TMC3    C113935   2.087   1.122  12.526 -0.7869  0.0675  0.2343
    9TMC3    C213936   2.155   1.015  12.481  0.3002 -0.2141 -0.4311
    9TMC3    C313937   2.207   0.922  12.568  0.3744 -0.7240 -0.1968
    9TMC3    C413938   2.070   1.130  12.663 -0.1163  0.0803 -0.0610
    9TMC3    C513939   2.105   1.033  12.744 -0.9094  0.5268  0.1981
    9TMC3    C613940   2.188   0.930  12.705 -0.3773  0.0761  1.0009
    9TMC3     C13941   2.010   1.205  12.432 -0.0818  0.3386  0.3199
    9TMC3     O13942   2.053   1.234  12.322  0.5586  0.8135 -0.2949
    9TMC3     H13943   2.158   0.996  12.375  0.7815 -0.5826 -0.3549
    9TMC3    H113944   2.018   1.215  12.706 -0.6538  0.0371 -0.6225
    9TMC3    H213945   2.223   0.854  12.774  1.6582 -0.2644 -0.3926
    9TMC3    C713946   1.985   0.985  12.808 -0.4730 -0.5519 -0.2559
    9TMC3    C813947   2.178   0.784  12.521 -0.2449  0.2188 -0.4631
    9TMC3    O113948   1.878   1.031  12.764  0.0504 -0.4427  0.9664
    9TMC3    O213949   2.117   0.777  12.416  0.3174 -0.6581 -0.3413
   10MPD2     C13950   2.006   0.326  12.682 -0.0269  0.2596 -0.7158
   10MPD2    C113951   2.117   0.358  12.761  0.2873 -0.0572  0.2282
   10MPD2    C213952   2.189   0.475  12.734  0.3702  0.6596 -0.1981
   10MPD2    C313953   2.150   0.557  12.625 -0.1515 -0.2783 -0.5344
   10MPD2    C413954   2.043   0.518  12.546  0.6666  0.0502  0.3665
   10MPD2    C513955   1.967   0.405  12.579 -0.0328 -0.0224 -0.8265
   10MPD2     H13956   2.254   0.522  12.807  0.7559 -0.2362  0.0404
   10MPD2    H113957   2.004   0.582  12.468  0.9946  0.0266  0.1826
   10MPD2    H213958   1.948   0.236  12.701  1.8879 -0.6760  0.7299
   10MPD2    H313959   1.882   0.380  12.517 -0.9099 -1.5740  0.9930
   10MPD2     N13960   2.215   0.682  12.609  0.1779 -0.9871 -0.5801
   10MPD2    H513961   2.275   0.708  12.686 -1.6288 -0.5568  0.6987
   10MPD2    N113962   2.132   0.286  12.880 -0.7275 -0.4118 -0.1978
   10MPD2    H713963   2.052   0.234  12.915  0.0056 -0.1865  1.8055
   11MPD2     C13964   3.788   4.577  14.069 -0.0614 -0.2492  0.1155
   11MPD2    C113965   3.661   4.550  14.130 -0.4052 -0.0159 -0.0418
   11MPD2    C213966   3.546   4.544  14.050  0.2307 -0.5409 -0.5311
   11MPD2    C313967   3.549   4.573  13.917 -0.9068  0.0871 -0.4912
   11MPD2    C413968   3.666   4.574  13.852 -0.9129  0.4186  0.7788
   11MPD2    C513969   3.785   4.577  13.932 -0.3818  0.2850  0.0465
   11MPD2     H13970   3.450   4.515  14.092  0.2226  1.1661  0.6377
   11MPD2    H113971   3.676   4.589  13.745 -1.8629  2.4483  0.9640
   11MPD2    H213972   3.884   4.573  14.120 -0.4271  2.8829  1.0080
   11MPD2    H313973   3.880   4.558  13.883  0.8543  4.1434  0.8925
   11MPD2     N13974   3.431   4.584  13.843 -0.0408  0.8073 -0.1655
   11MPD2    H513975   3.447   4.578  13.743  1.4549  0.4959  0.0951
   11MPD2    N113976   3.647   4.552  14.270 -0.4328 -0.5847  0.1791
   11MPD2    H713977   3.550   4.542  14.299 -0.5170 -2.3584 -0.6832
    1MPD1     C13978   0.705   1.456  17.155 -0.0567 -0.7228 -0.4442
    1MPD1    C113979   0.686   1.591  17.111 -0.1747  0.5098 -0.1169
    1MPD1    C213980   0.799   1.677  17.112 -0.4086 -0.1965  0.1225
    1MPD1    C313981   0.923   1.623  17.117 -0.5010 -0.5365 -0.1831
    1MPD1    C413982   0.939   1.487  17.142  0.1179  0.0120  0.2810
    1MPD1    C513983   0.830   1.407  17.156 -0.0026 -0.0675 -0.1009
    1MPD1     H13984   0.789   1.785  17.114 -0.8637 -0.2448  0.4036
    1MPD1    H113985   1.040   1.448  17.152  0.1386  0.0444  0.2049
    1MPD1    H213986   0.629   1.382  17.180 -1.2146  0.4641 -0.4302
    1MPD1    H313987   0.848   1.301  17.172  1.2972  0.2230  0.3839
    1MPD1     N13988   1.041   1.699  17.116 -0.1856  0.0313 -0.2619
    1MPD1    H513989   1.122   1.656  17.160 -1.8605 -2.1499  0.6701
    1MPD1    N113990   0.556   1.644  17.117  0.3238  0.3210  0.3729
    1MPD1    H613991   0.490   1.573  17.086  2.2223 -1.5928  0.7126
    1MPD1    H713992   0.548   1.727  17.058 -0.4490  1.4237  2.0295
    2MPD1     C13993   1.727   1.577  17.564 -0.5257 -0.0151 -0.5097
    2MPD1    C113994   1.613   1.503  17.542 -0.0992 -0.7084 -0.2784
    2MPD1    C213995   1.499   1.573  17.499  0.4566 -0.5122  0.2698
    2MPD1    C313996   1.507   1.712  17.468 -0.4887 -0.1409  0.3420
    2MPD1    C413997   1.625   1.780  17.489  0.3994 -0.6107  0.5221
    2MPD1    C513998   1.736   1.715  17.536  0.1249 -0.4634 -0.8567
    2MPD1     H13999   1.408   1.515  17.493  0.4455 -0.5092  0.4116
    2MPD1    H114000   1.629   1.888  17.483 -0.7323 -0.7187 -2.1800
    2MPD1    H214001   1.810   1.533  17.617 -0.2387  0.5698 -0.4773
    2MPD1    H314002   1.829   1.763  17.565 -0.6491  0.4031  0.1934
    2MPD1     N14003   1.394   1.770  17.404 -0.1546  0.0002 -0.3682
    2MPD1    H514004   1.329   1.710  17.353 -0.5124  0.0694  0.0045
    2MPD1    N114005   1.593   1.371  17.598  0.3262 -0.1580 -0.2111
    2MPD1    H614006   1.679   1.318  17.581  1.3183  0.6404  2.2983
    2MPD1    H714007   1.519   1.320  17.550 -0.8686  1.0131  0.4056
    3TMC3    C114008   1.298   1.948  17.290 -0.1125  0.3276  0.1923
    3TMC3    C214009   1.339   2.059  17.233  0.0999 -0.0324 -0.1321
    3TMC3    C314010   1.300   2.085  17.108  0.7898 -0.1685  0.7806
    3TMC3    C414011   1.221   1.854  17.237 -0.6701 -0.5264  0.2431
    3TMC3    C514012   1.165   1.895  17.120  0.4697  0.0588  0.1524
    3TMC3    C614013   1.202   2.003  17.046 -0.0673 -0.3823 -0.4425
    3TMC3     C14014   1.370   1.901  17.406 -0.6664 -0.2444  0.4124
    3TMC3     O14015   1.427   1.987  17.472  0.4854  0.1593  0.8612
    3TMC3     H14016   1.414   2.124  17.277 -0.6725 -0.7615  2.2657
    3TMC3    H114017   1.182   1.769  17.293  0.2773 -1.5168 -0.6238
    3TMC3    H214018   1.155   2.016  16.949 -0.6580 -0.2286 -0.1360
    3TMC3    C714019   1.051   1.827  17.065 -0.1307 -0.0250  0.3027
    3TMC3    C814020   1.322   2.211  17.037  0.8129  0.4187 -0.6085
    3TMC3    O114021   0.983   1.881  16.980 -0.3631 -0.1846  0.2677
    3TMC3    O214022   1.329   2.322  17.095  0.5234  0.0828 -0.4668
    4MPD1     C14023   1.326   2.463  16.594 -0.1148 -0.4151 -0.5377
    4MPD1    C114024   1.335   2.324  16.577  0.7032  0.8106  0.5119
    4MPD1    C214025   1.342   2.238  16.676  0.5802  0.5162  0.2566
    4MPD1    C314026   1.330   2.287  16.809  0.1685 -0.7201 -0.0366
    4MPD1    C414027   1.317   2.420  16.831  0.8806  0.9272  0.3473
    4MPD1    C514028   1.315   2.505  16.724 -0.0121 -0.7459 -0.0647
    4MPD1     H14029   1.359   2.133  16.653 -1.5284  0.2361 -0.0851
    4MPD1    H114030   1.318   2.471  16.926 -0.0506  0.0150  0.8462
    4MPD1    H214031   1.305   2.531  16.512 -1.5594  1.3416  1.3064
    4MPD1    H314032   1.295   2.608  16.752 -1.2801 -1.6662  2.4141
    4MPD1     N14033   1.332   2.188  16.905 -0.3955  0.7947 -1.0108
    4MPD1    H514034   1.326   2.091  16.875 -1.2077  0.8851 -1.1427
    4MPD1    N114035   1.350   2.285  16.446  0.1900 -0.5925  0.0122
    4MPD1    H614036   1.431   2.328  16.402 -0.5960 -0.2509 -1.1211
    4MPD1    H714037   1.361   2.185  16.428 -2.4811 -0.8248 -0.3033
    1TCq1    O114038   2.356   0.697  11.828 -0.0354  0.2688  0.8181
    1TCq1    C114039   2.372   0.829  11.830 -0.1590 -0.0243  0.5247
    1TCq1    O214040   2.343   0.910  11.913 -0.4635 -0.9792  0.3152
    1TCq1    C214041   2.407   0.871  11.694  0.9126  0.4344  0.6677
    1TCq1    C314042   2.487   0.782  11.622  0.1052 -0.3649 -0.6793
    1TCq1    C414043   2.502   0.825  11.490  0.0935  0.4833 -0.5907
    1TCq1    C514044   2.434   0.931  11.434  0.6929 -0.4638 -0.0426
    1TCq1    C614045   2.357   1.009  11.510  0.5557 -0.4563  0.1438
    1TCq1    C714046   2.351   0.991  11.645 -0.1347 -0.4895  1.0712
    1TCq1    C814047   2.271   1.109  11.445  0.0320  0.4278 -0.5692
    1TCq1    O414048   2.308   1.134  11.332 -0.3956  0.6969 -0.1502
    1TCq1    C914049   2.548   0.723  11.393  0.5405  0.2164 -0.4061
    1TCq1    O514050   2.568   0.611  11.453  0.1424  0.2470  0.0315
    1TCq1    O614051   2.511   0.730  11.270 -0.4931 -0.1925  0.1470
    1TCq1    H114052   2.346   0.662  11.737  3.1365  0.9949  0.1879
    1TCq1    H214053   2.524   0.686  11.656 -0.6125  0.1494  1.5635
    1TCq1    H314054   2.434   0.942  11.327 -0.4831  2.0104  0.2150
    1TCq1    H414055   2.296   1.042  11.722 -0.9615 -0.3820  0.4059
    2MPD1     C14056   1.880   1.444  11.380  0.0782  0.3616 -0.2579
    2MPD1    C114057   1.868   1.392  11.501 -0.5973  0.4547 -0.6391
    2MPD1    C214058   1.979   1.321  11.554  0.0809 -0.3558 -0.0449
    2MPD1    C314059   2.082   1.277  11.469 -0.3284  0.3625  0.0696
    2MPD1    C414060   2.089   1.333  11.339  0.2685 -0.7893 -0.2056
    2MPD1    C514061   1.986   1.419  11.299 -0.6878  0.5341  0.1044
    2MPD1     H14062   1.971   1.292  11.658  2.2370 -1.7949 -0.2751
    2MPD1    H114063   2.167   1.325  11.264  0.6071  1.7285 -0.1356
    2MPD1    H214064   1.809   1.521  11.351 -1.6591 -1.1713 -0.0198
    2MPD1    H314065   1.997   1.461  11.200 -2.1626 -0.3626 -0.4389
    2MPD1     N14066   2.167   1.173  11.518 -0.5983 -0.5239  0.0726
    2MPD1    H514067   2.135   1.125  11.601  0.8973 -1.8654 -0.1124
    2MPD1    N114068   1.778   1.445  11.591  0.2123 -0.0247  0.2705
    2MPD1    H614069   1.688   1.465  11.547  0.2164 -1.2606 -0.2947
    2MPD1    H714070   1.757   1.382  11.668  1.2800 -0.5320  0.1480
    1TCq1    O114071   4.679   1.299   2.159  0.0995 -0.3547  0.1088
    1TCq1    C114072   4.669   1.377   2.051  0.4973 -0.0875  0.0638
    1TCq1    O214073   4.569   1.446   2.027  0.1996 -0.6728 -0.3753
    1TCq1    C214074   0.040   1.347   1.945 -0.4626 -0.5236  0.1359
    1TCq1    C314075   0.169   1.308   1.970 -0.0347 -0.4855 -0.3530
    1TCq1    C414076   0.247   1.282   1.862 -0.5095  0.2102 -0.0093
    1TCq1    C514077   0.221   1.341   1.738  0.0069 -0.3328 -0.1712
    1TCq1    C614078   0.087   1.385   1.719  0.2186  1.0767 -0.1557
    1TCq1    C714079   0.004   1.393   1.824 -0.2018 -0.5434  0.3210
    1TCq1    C814080   0.061   1.469   1.604  0.3509 -1.1378  0.7797
    1TCq1    O414081   4.675   1.459   1.550  0.0837 -0.3386  0.1459
    1TCq1    C914082   0.382   1.269   1.899  0.2473 -0.4105  0.1516
    1TCq1    O514083   0.469   1.316   1.822  0.1748  0.0727  0.5365
    1TCq1    O614084   0.409   1.203   2.006 -0.3351  0.4219 -0.2781
    1TCq1    H114085   0.014   1.222   2.148  0.8708  0.3870 -0.9399
    1TCq1    H214086   0.200   1.285   2.072 -0.3167 -0.9357 -0.3672
    1TCq1    H314087   0.301   1.347   1.665 -0.7777  2.6417 -0.8192
    1TCq1    H414088   4.627   1.427   1.804  0.2640  0.4707 -0.3272
    2MPD1     C14089   0.238   1.815   1.262  0.4296 -0.5236 -0.4429
    2MPD1    C114090   0.349   1.746   1.314  0.9057 -0.0865 -1.0774
    2MPD1    C214091   0.317   1.659   1.417 -0.3681 -0.1493 -0.0421
    2MPD1    C314092   0.192   1.612   1.449  0.6997  0.5499 -0.9225
    2MPD1    C414093   0.088   1.677   1.393  0.7309  0.6962  0.1624
    2MPD1    C514094   0.109   1.779   1.298 -0.5547  0.4888  0.6262
    2MPD1     H14095   0.392   1.613   1.481 -0.6294 -0.7868 -0.1904
    2MPD1    H114096   4.707   1.658   1.411  1.3253 -2.4229  0.3318
    2MPD1    H214097   0.257   1.888   1.184 -4.6746  2.4055  1.0455
    2MPD1    H314098   0.032   1.843   1.255 -1.9008 -1.0500  0.7490
    2MPD1     N14099   0.174   1.525   1.559 -0.3106 -0.0256 -0.7725
    2MPD1    H514100   0.261   1.498   1.605  0.6925 -1.2983 -3.3692
    2MPD1    N114101   0.482   1.784   1.296 -0.5488  0.2016 -0.4074
    2MPD1    H614102   0.505   1.829   1.208  0.4264  2.0070  0.7574
    2MPD1    H714103   0.548   1.712   1.324  1.0980  1.8556 -0.0527
    1MPD1     C14104   3.077   4.620  11.775  0.7004 -0.2833 -0.9224
    1MPD1    C114105   3.067   4.611  11.916  0.4420  0.4954  0.4225
    1MPD1    C214106   3.168   4.667  11.993  0.4225 -0.0473 -0.0473
    1MPD1    C314107   3.282   4.723  11.933 -0.0024  0.3956  0.7900
    1MPD1    C414108   3.277   0.022  11.800 -0.2935  0.0899  0.7368
    1MPD1    C514109   3.182   4.690  11.724  0.4418  0.0587  0.2194
    1MPD1     H14110   3.156   4.651  12.099 -0.5942  0.4713 -0.0858
    1MPD1    H114111   3.359   0.070  11.748 -1.6626  1.3202 -0.2968
    1MPD1    H214112   3.004   4.583  11.704 -1.0987 -2.0330  1.8716
    1MPD1    H314113   3.189   4.711  11.617 -0.4573 -1.5268 -0.1580
    1MPD1     N14114   3.375   0.067  12.015  0.2790 -0.3650 -0.3606
    1MPD1    H514115   3.361   0.054  12.115  2.0604 -1.2638 -0.2426
    1MPD1    N114116   2.944   4.575  11.974  0.1756  0.0527 -0.8178
    1MPD1    H614117   2.910   4.488  11.933  1.5301 -0.8674 -0.0246
    1MPD1    H714118   2.950   4.555  12.074  1.1945  1.9320 -0.5114
    2MPD1     C14119   4.147   2.287  11.259 -0.6698 -0.8092  0.1636
    2MPD1    C114120   4.158   2.189  11.354 -0.3736 -0.5234 -0.2726
    2MPD1    C214121   4.172   2.050  11.321  0.6214 -0.5913  0.1234
    2MPD1    C314122   4.147   2.016  11.188 -0.0611 -0.2163  0.5236
    2MPD1    C414123   4.120   2.118  11.096  0.8282  0.8796 -0.0143
    2MPD1    C514124   4.119   2.245  11.132 -0.1878 -0.4278 -0.2676
    2MPD1     H14125   4.197   1.978  11.398  3.1567 -0.2013 -0.3481
    2MPD1    H114126   4.112   2.092  10.991  2.2355  1.5348 -0.2884
    2MPD1    H214127   4.158   2.393  11.281  2.7294 -0.8251 -1.4828
    2MPD1    H314128   4.097   2.323  11.059  0.8842  2.6309  2.6633
    2MPD1     N14129   4.124   1.881  11.151  0.6463  0.2845 -0.2325
    2MPD1    H514130   4.087   1.873  11.056  0.0953 -2.7225  0.2262
    2MPD1    N114131   4.185   2.230  11.484  0.3034 -0.9092  0.6642
    2MPD1    H614132   4.164   2.171  11.565 -1.8846 -0.0945  0.6875
    2MPD1    H714133   4.139   2.320  11.498 -2.1007 -1.9112 -0.8907
    3MPD1     C14134   3.415   1.613  10.718  0.2889  0.2462  0.0113
    3MPD1    C114135   3.447   1.723  10.791 -0.0740  0.3111  0.0308
    3MPD1    C214136   3.571   1.712  10.855 -0.4905 -0.1300  0.2089
    3MPD1    C314137   3.665   1.607  10.836 -0.0795  0.2995 -0.6370
    3MPD1    C414138   3.631   1.516  10.745 -0.8784  0.4773 -0.2859
    3MPD1    C514139   3.509   1.521  10.690 -0.3121  0.1366 -0.5582
    3MPD1     H14140   3.593   1.796  10.920 -2.5603  1.0303 -0.6015
    3MPD1    H114141   3.694   1.434  10.713  2.2191  2.2005  1.3772
    3MPD1    H214142   3.326   1.611  10.657  1.5713  1.5369 -1.9122
    3MPD1    H314143   3.483   1.435  10.629 -2.9885  0.4028  0.2050
    3MPD1     N14144   3.788   1.610  10.903 -0.0346  0.1543 -0.1559
    3MPD1    H514145   3.813   1.695  10.952 -1.0603  1.0312 -1.1557
    3MPD1    N114146   3.362   1.835  10.800  0.2551  0.1817 -0.0753
    3MPD1    H614147   3.357   1.868  10.896 -0.6178 -0.5052  0.1161
    3MPD1    H714148   3.267   1.808  10.775  0.9709 -2.3404 -0.0309
    4MPD2     C14149   3.533   0.748  12.290  0.4252  0.0191  0.5528
    4MPD2    C114150   3.643   0.674  12.264  0.0164  0.5917  0.2367
    4MPD2    C214151   3.759   0.743  12.238  0.4416  0.1239 -0.0735
    4MPD2    C314152   3.759   0.875  12.215  0.8083 -0.4506  0.6344
    4MPD2    C414153   3.651   0.950  12.231 -0.1348 -0.0725  0.1261
    4MPD2    C514154   3.539   0.886  12.269  0.5267  0.6190 -0.4857
    4MPD2     H14155   3.848   0.682  12.224  0.5676  0.1254  0.7326
    4MPD2    H114156   3.646   1.056  12.211  4.3597  0.5336  2.1959
    4MPD2    H214157   3.434   0.707  12.310  1.1247 -1.6469  0.5982
    4MPD2    H314158   3.448   0.943  12.280 -0.4452 -1.6252  2.9941
    4MPD2     N14159   3.885   0.925  12.178 -0.6265 -0.2683  0.3232
    4MPD2    H514160   3.956   0.854  12.170 -1.4651 -0.7502 -2.8970
    4MPD2    N114161   3.657   0.526  12.270  0.4650  0.3583 -0.1268
    4MPD2    H714162   3.742   0.482  12.237 -2.1046 -3.1925 -2.0004
    5TMC3    C114163   3.597   0.301  12.287  0.2812 -0.2742  0.0927
    5TMC3    C214164   3.509   0.250  12.197  0.3501 -0.6594  0.1614
    5TMC3    C314165   3.571   0.172  12.100 -0.0188 -0.2147 -0.2659
    5TMC3    C414166   3.735   0.295  12.281 -0.1634  0.4487  0.3632
    5TMC3    C514167   3.794   0.234  12.175  0.1306  0.2160 -0.3484
    5TMC3    C614168   3.708   0.169  12.088  0.3547  0.0900  0.3042
    5TMC3     C14169   3.560   0.435  12.307  0.0928  0.4377 -0.3162
    5TMC3     O14170   3.444   0.452  12.327 -0.5079  0.3035  0.2395
    5TMC3     H14171   3.404   0.277  12.190  0.8431  1.6828  1.7650
    5TMC3    H114172   3.794   0.340  12.360 -0.8207 -0.1798  1.2236
    5TMC3    H214173   3.759   0.133  11.999 -0.8838  0.7154 -0.6597
    5TMC3    C714174   3.891   0.320  12.115  0.1545  0.6418  0.0847
    5TMC3    C814175   3.496   0.128  11.984  0.3628  0.2983  0.1311
    5TMC3    O114176   3.869   0.442  12.125 -0.4724  0.3035  0.3895
    5TMC3    O214177   3.549   0.145  11.875  0.2124  0.0440 -0.1052
    6TMC3    C114178   4.098   1.643  11.165  0.0862  0.1694 -0.5075
    6TMC3    C214179   3.998   1.642  11.073 -0.3085  0.2072 -0.0562
    6TMC3    C314180   4.000   1.526  10.996 -0.3403  0.8269 -0.4621
    6TMC3    C414181   4.162   1.533  11.207 -0.8442  0.1174  0.9930
    6TMC3    C514182   4.151   1.420  11.127  0.6150  0.0566 -0.2191
    6TMC3    C614183   4.066   1.415  11.022 -0.1492  0.4627 -1.4242
    6TMC3     C14184   4.127   1.772  11.235 -0.0574 -1.1437  0.1897
    6TMC3     O14185   4.161   1.763  11.354 -0.1457  0.0960  0.8324
    6TMC3     H14186   3.925   1.722  11.073  0.0407  0.5190 -1.2120
    6TMC3    H114187   4.247   1.540  11.274 -0.4381 -2.1140  0.7205
    6TMC3    H214188   4.067   1.328  10.957  0.3323  1.2160 -2.4113
    6TMC3    C714189   4.227   1.305  11.162  0.4002 -0.7021 -0.1368
    6TMC3    C814190   3.882   1.505  10.906  0.1615  0.4203 -0.1392
    6TMC3    O114191   4.241   1.223  11.070  0.3456  0.8231 -0.6901
    6TMC3    O214192   3.873   1.397  10.849 -0.1797  0.1371  0.1861
    7MPD2     C14193   4.361   0.443  11.960 -0.1841  0.1408 -0.9329
    7MPD2    C114194   4.257   0.524  11.998 -0.5200  0.6721 -0.0820
    7MPD2    C214195   4.139   0.461  12.036 -0.0596 -0.1196  0.6723
    7MPD2    C314196   4.123   0.322  12.024  0.9304 -0.1055  0.1287
    7MPD2    C414197   4.226   0.243  11.978 -0.8128 -0.4459 -0.1141
    7MPD2    C514198   4.349   0.302  11.951  0.3071 -0.5183  0.1059
    7MPD2     H14199   4.060   0.529  12.069  1.4319  2.5380 -1.2054
    7MPD2    H114200   4.206   0.138  11.959  0.6778 -0.7493  0.0060
    7MPD2    H214201   4.453   0.487  11.924  2.0836 -2.2139  1.9689
    7MPD2    H314202   4.434   0.242  11.919 -0.6727 -1.4381 -0.7817
    7MPD2     N14203   4.000   0.254  12.054 -0.2738 -0.4214 -0.2218
    7MPD2    H514204   4.002   0.153  12.053  0.4374 -0.4181  0.8099
    7MPD2    N114205   4.278   0.665  11.999 -0.4937 -0.4662 -0.7693
    7MPD2    H714206   4.362   0.712  11.966  0.2952 -1.5540 -0.3347
    8TMC3    C114207   4.233   0.887  12.062  0.3141 -0.3677 -0.2508
    8TMC3    C214208   4.262   0.937  11.941  0.7131  0.1977  0.2523
    8TMC3    C314209   4.190   1.049  11.904  0.1431  0.0575 -0.0493
    8TMC3    C414210   4.137   0.945  12.140  0.6740 -0.0295 -1.2367
    8TMC3    C514211   4.066   1.056  12.100  0.8067  0.1717  0.8159
    8TMC3    C614212   4.086   1.105  11.977  0.1038  0.2911 -0.6456
    8TMC3     C14213   4.183   0.753  12.056  0.2703 -0.0273  0.1582
    8TMC3     O14214   4.074   0.734  12.105 -0.2975 -0.0545  0.2273
    8TMC3     H14215   4.332   0.878  11.884 -0.5969 -1.8464  0.7744
    8TMC3    H114216   4.123   0.915  12.243  1.0529 -1.4336 -1.5948
    8TMC3    H214217   4.020   1.181  11.938  1.1835  2.3050  1.4510
    8TMC3    C714218   3.924   1.048  12.132 -0.3685  0.4202 -0.7829
    8TMC3    C814219   4.205   1.097  11.771  0.5045 -0.1924 -0.0619
    8TMC3    O114220   3.847   1.136  12.104  0.2493 -0.7252  0.2123
    8TMC3    O214221   4.122   1.178  11.727  0.5597 -0.0853 -0.3781
    9MPD2     C14222   4.442   1.003  11.510 -0.2572 -0.2914 -0.2642
    9MPD2    C114223   4.354   1.077  11.577 -0.3279  0.3345 -0.0320
    9MPD2    C214224   4.298   1.186  11.511 -0.4777  0.0630 -0.2211
    9MPD2    C314225   4.313   1.198  11.373  0.3066 -0.3117 -0.0317
    9MPD2    C414226   4.396   1.113  11.301  0.4061  0.1064  1.0194
    9MPD2    C514227   4.467   1.024  11.379  0.0294  0.5190  0.3459
    9MPD2     H14228   4.229   1.256  11.556 -1.8625 -1.5066  0.0945
    9MPD2    H114229   4.411   1.121  11.194 -0.1144 -2.4056  0.7552
    9MPD2    H214230   4.491   0.917  11.553  0.5743 -0.7194 -2.0693
    9MPD2    H314231   4.522   0.946  11.329 -0.5290  0.6029 -0.4055
    9MPD2     N14232   4.242   1.297  11.299 -0.0320  0.4122  0.1904
    9MPD2    H514233   4.203   1.375  11.351 -0.3224  0.4636 -0.1074
    9MPD2    N114234   4.314   1.038  11.708 -0.6456  0.0238  0.2274
    9MPD2    H714235   4.367   0.962  11.750  1.6387  0.2905 -2.2018
    1MPD1     C14236   4.221   0.753  17.061 -0.2351  0.4226  0.4167
    1MPD1    C114237   4.206   0.710  17.187 -0.1429  0.7721  0.1988
    1MPD1    C214238   4.097   0.630  17.218 -0.3101 -0.6204  0.2172
    1MPD1    C314239   4.019   0.575  17.120  0.0650  0.9599 -1.1320
    1MPD1    C414240   4.044   0.607  16.993  0.0563 -0.6287  0.4494
    1MPD1    C514241   4.145   0.701  16.963  0.6579 -0.5090 -0.2373
    1MPD1     H14242   4.083   0.591  17.319  1.2982  1.1572  1.1374
    1MPD1    H114243   3.980   0.579  16.910 -0.4492  1.9595 -0.0266
    1MPD1    H214244   4.292   0.833  17.044  0.3893  0.5797  3.6625
    1MPD1    H314245   4.159   0.719  16.857 -0.6175 -1.7325 -0.6127
    1MPD1     N14246   3.918   0.477  17.135  0.7153  0.0295 -0.2532
    1MPD1    H514247   3.874   0.432  17.055  0.6976  2.5608 -1.6907
    1MPD1    N114248   4.304   0.736  17.289  0.1303 -0.2674  0.2292
    1MPD1    H614249   4.387   0.786  17.257 -0.2090  0.8742  1.1431
    1MPD1    H714250   4.334   0.658  17.347 -1.8802 -0.3806  1.1044
    2MPD1     C14251   3.358   0.305  16.557  0.3257  0.2049 -0.1948
    2MPD1    C114252   3.491   0.343  16.563 -0.4607 -0.2894  0.4051
    2MPD1    C214253   3.547   0.351  16.691 -0.5802  0.2244  0.1720
    2MPD1    C314254   3.460   0.328  16.802 -0.1996  0.8851 -0.0771
    2MPD1    C414255   3.325   0.305  16.787  0.1931 -0.0748  0.1236
    2MPD1    C514256   3.276   0.285  16.666  0.1281 -0.4854 -0.1255
    2MPD1     H14257   3.653   0.363  16.710 -0.3582 -1.5837  0.0842
    2MPD1    H114258   3.268   0.292  16.878 -0.6444  1.1822 -0.2167
    2MPD1    H214259   3.331   0.279  16.455  0.9786  0.4434 -0.4257
    2MPD1    H314260   3.176   0.249  16.646 -0.8102  1.2714  1.4642
    2MPD1     N14261   3.519   0.321  16.936 -0.8071 -0.5664  0.5275
    2MPD1    H514262   3.618   0.343  16.935 -0.6280 -1.3782 -1.5761
    2MPD1    N114263   3.573   0.334  16.448  0.0611  0.0329  0.3944
    2MPD1    H614264   3.537   0.342  16.353 -0.7371 -4.0763  0.3357
    2MPD1    H714265   3.663   0.382  16.446  0.0469  0.0564  0.3255
    3TCq2    C114266   3.466   0.271  17.057  0.7329  0.6839 -0.1690
    3TCq2    O214267   3.355   0.219  17.084  0.3817 -0.2302 -0.2836
    3TCq2    C214268   3.572   0.278  17.160 -0.5101 -0.5699 -0.9899
    3TCq2    C314269   3.548   0.193  17.262 -0.1564 -0.0369 -0.4936
    3TCq2    C414270   3.641   0.170  17.357  0.2917  0.3077  0.5488
    3TCq2    C514271   3.750   0.252  17.363  0.5319  0.5083 -0.0402
    3TCq2    C614272   3.765   0.342  17.262 -0.6670 -0.1049 -0.3119
    3TCq2    C714273   3.682   0.355  17.155  0.2702 -0.3945 -0.1412
    3TCq2    C814274   3.878   0.429  17.259  0.0888  0.3995  0.4886
    3TCq2    O414275   3.925   0.447  17.367  0.4807 -0.4206  0.6188
    3TCq2    C914276   3.621   0.069  17.454 -0.0917  0.4126  0.1293
    3TCq2    O514277   3.721   0.014  17.510 -0.1818  0.4573 -0.3548
    3TCq2    O614278   3.501   0.042  17.481  0.2017  0.1006 -0.4858
    3TCq2    H214279   3.466   0.122  17.258  0.2530 -0.3905 -2.4033
    3TCq2    H314280   3.825   0.253  17.442  2.1627 -1.4911 -1.5782
    3TCq2    H414281   3.700   0.412  17.065  1.2897  3.1349  2.2595
    1TCq1    O114282   1.170   3.821  12.607 -0.0127 -0.1000 -0.1253
    1TCq1    C114283   1.301   3.851  12.595 -0.8020 -0.0951  0.7304
    1TCq1    O214284   1.335   3.914  12.500 -0.5384  0.4637  0.1721
    1TCq1    C214285   1.341   3.890  12.732  0.2234  0.3256 -0.0705
    1TCq1    C314286   1.252   3.925  12.829 -0.4930  0.6420  0.2534
    1TCq1    C414287   1.309   3.963  12.948  0.4938 -0.2524  0.5642
    1TCq1    C514288   1.446   3.972  12.965  0.4775 -0.0216 -0.4201
    1TCq1    C614289   1.525   3.937  12.865 -0.1009 -0.4581  0.1668
    1TCq1    C714290   1.484   3.893  12.744  0.3353  0.2812  0.1579
    1TCq1    C814291   1.673   3.955  12.885 -0.2431  0.2071 -0.3446
    1TCq1    O414292   1.742   3.957  12.783  0.0819 -0.3407  0.4738
    1TCq1    C914293   1.216   3.988  13.058 -0.0553 -0.6812  0.7602
    1TCq1    O514294   1.096   3.972  13.027  0.1987 -0.7370  0.1368
    1TCq1    O614295   1.262   3.982  13.173 -0.2054  0.8295  0.5481
    1TCq1    H114296   1.156   3.765  12.686  0.0593  0.5692  0.3710
    1TCq1    H214297   1.145   3.933  12.811 -0.2845 -0.5536 -1.4804
    1TCq1    H314298   1.477   4.009  13.062 -0.1759  0.5073 -0.4151
    1TCq1    H414299   1.551   3.852  12.670 -1.2131  1.5806 -1.9755
    2MPD2     C14300   1.959   4.020  13.001  0.2879 -0.3470 -0.0446
    2MPD2    C114301   1.851   3.965  13.069 -0.1661  0.1049 -0.4506
    2MPD2    C214302   1.870   3.932  13.203  0.1859  0.5423 -0.2560
    2MPD2    C314303   1.993   3.941  13.268  0.1853  0.3550  0.8918
    2MPD2    C414304   2.094   3.997  13.199  0.1951  0.2909  0.2383
    2MPD2    C514305   2.077   4.036  13.068  0.0366 -0.3995 -0.1770
    2MPD2     H14306   1.784   3.896  13.258 -1.0692  2.8185 -0.6998
    2MPD2    H114307   2.195   4.004  13.237  0.1055  0.9306  0.3641
    2MPD2    H214308   1.951   4.050  12.897  0.1599  0.5699  0.2299
    2MPD2    H314309   2.157   4.079  13.010  0.9338 -0.3936  1.0610
    2MPD2     N14310   2.009   3.889  13.401 -0.7450 -0.2699 -0.3004
    2MPD2    H514311   1.929   3.852  13.452 -0.1061  2.1095  2.4091
    2MPD2    N114312   1.717   3.938  13.013  0.2195 -0.0204  0.0860
    2MPD2    H714313   1.645   3.909  13.079  2.3083  0.3382  2.5211
    3TCq1    O114314   2.262   3.366  13.738  0.2180  0.1437 -0.5063
    3TCq1    C114315   2.318   3.488  13.727 -0.0801  0.0342  0.3979
    3TCq1    O214316   2.437   3.513  13.706 -0.2513 -0.2681  0.0439
    3TCq1    C214317   2.213   3.577  13.692  0.4886  0.2708 -0.7408
    3TCq1    C314318   2.099   3.563  13.763  0.3459 -0.2410 -0.0519
    3TCq1    C414319   1.997   3.655  13.744 -0.6270 -0.6198 -0.0233
    3TCq1    C514320   2.015   3.756  13.654 -0.7571  0.2715 -0.4131
    3TCq1    C614321   2.127   3.762  13.578  0.6178  0.0569  0.3632
    3TCq1    C714322   2.238   3.686  13.612 -0.1410 -0.3891  0.0582
    3TCq1    C814323   2.131   3.850  13.460 -0.5507 -0.2681  0.1406
    3TCq1    O414324   2.248   3.860  13.418  0.5434  0.3052 -0.7625
    3TCq1    C914325   1.874   3.645  13.824 -1.2605 -0.6169 -0.0097
    3TCq1    O514326   1.792   3.736  13.817  0.6272  0.3384 -0.1566
    3TCq1    O614327   1.859   3.531  13.879 -0.2168  0.6570 -0.3193
    3TCq1    H114328   2.165   3.355  13.747  0.3817 -0.8843  0.0649
    3TCq1    H214329   2.081   3.488  13.840 -1.0349  0.5259  0.3790
    3TCq1    H314330   1.937   3.831  13.652 -1.7281 -0.8074 -2.3061
    3TCq1    H414331   2.328   3.675  13.551 -0.8217 -1.5210 -0.7412
    1MPD2     C14332   1.888   0.118  14.836 -0.1558  0.4164 -0.1732
    1MPD2    C114333   1.769   0.146  14.777 -0.3652  0.3586  0.0308
    1MPD2    C214334   1.665   0.050  14.784 -0.8785 -0.6898  0.2639
    1MPD2    C314335   1.693   4.646  14.830 -0.6353  0.8116 -0.2286
    1MPD2    C414336   1.819   4.620  14.895  0.4236  0.0999 -0.0389
    1MPD2    C514337   1.906   4.724  14.900 -0.6523 -0.4230  0.1526
    1MPD2     H14338   1.569   0.063  14.737  0.1184  2.8520 -0.8545
    1MPD2    H114339   1.849   4.530  14.947 -3.0214 -0.5616  0.8060
    1MPD2    H214340   1.975   0.182  14.839  0.4690 -0.5056  1.2806
    1MPD2    H314341   2.001   4.716  14.951 -0.9604  1.2053  0.9914
    1MPD2     N14342   1.590   4.550  14.820 -0.4333 -0.5428  0.2644
    1MPD2    H514343   1.502   4.587  14.786 -2.2256 -3.1141  2.1992
    1MPD2    N114344   1.748   0.277  14.726 -0.5754  0.1303 -0.4777
    1MPD2    H714345   1.812   0.354  14.741  1.9501 -2.0537 -0.0478
    2TMC3    C114346   1.625   0.460  14.669  0.2397  0.9865  0.1823
    2TMC3    C214347   1.532   0.495  14.765  0.0718 -0.0828  0.1566
    2TMC3    C314348   1.429   0.569  14.723  0.1514  0.2563  0.1355
    2TMC3    C414349   1.610   0.502  14.537  0.3283 -0.2798  0.5764
    2TMC3    C514350   1.516   0.585  14.514  0.4871  0.7206 -0.4194
    2TMC3    C614351   1.425   0.634  14.604  0.2717  0.1439  0.4331
    2TMC3     C14352   1.634   0.320  14.664 -0.4318 -0.4364 -0.1490
    2TMC3     O14353   1.532   0.270  14.626 -0.2111 -0.2852 -0.2577
    2TMC3     H14354   1.537   0.436  14.856 -1.4604  0.2627  0.4633
    2TMC3    H114355   1.676   0.460  14.462  1.7952 -0.2555  1.8405
    2TMC3    H214356   1.345   0.693  14.562  0.6192  0.2934 -0.0184
    2TMC3    C714357   1.507   0.655  14.388 -0.0077 -0.5720 -0.3165
    2TMC3    C814358   1.302   0.540  14.788  0.6650  0.2603 -0.3133
    2TMC3    O114359   1.402   0.707  14.360 -0.4651  0.6811  0.2656
    2TMC3    O214360   1.210   0.614  14.765  0.5849 -0.0815 -0.5696
    3TCq1    O114361   2.550   1.056  13.820 -0.2574  0.1196 -0.2202
    3TCq1    C114362   2.434   1.031  13.757  0.3978  0.0543 -0.7230
    3TCq1    O214363   2.380   1.113  13.686  0.4225  0.1676 -0.2851
    3TCq1    C214364   2.350   0.926  13.827 -0.0315  0.2520  0.1615
    3TCq1    C314365   2.408   0.832  13.908 -0.0817  0.0304 -0.0721
    3TCq1    C414366   2.328   0.749  13.982 -0.2407  0.2971  0.0537
    3TCq1    C514367   2.194   0.747  13.963  0.5386 -0.6864 -0.6534
    3TCq1    C614368   2.142   0.841  13.878  0.1033 -0.9527  0.0789
    3TCq1    C714369   2.218   0.936  13.816  0.4249  0.0012 -0.3789
    3TCq1    C814370   1.996   0.868  13.888 -0.3806 -0.2652  0.4315
    3TCq1    O414371   1.947   0.950  13.808 -0.4956  0.1476 -0.6347
    3TCq1    C914372   2.395   0.644  14.057 -0.0301  0.1182  0.4082
    3TCq1    O514373   2.318   0.561  14.119 -0.4007  0.0912  0.6109
    3TCq1    O614374   2.523   0.636  14.052  0.5075 -0.1195  0.1223
    3TCq1    H114375   2.587   0.988  13.879  1.0805  2.5492  1.7674
    3TCq1    H214376   2.514   0.810  13.912  0.2985  2.4916  2.9053
    3TCq1    H314377   2.132   0.673  14.014  1.6220 -2.0269 -1.2834
    3TCq1    H414378   2.174   1.006  13.747  0.1505 -1.1070 -1.3351
    4MPD2     C14379   1.712   0.897  13.986  0.5839 -0.6363  0.6854
    4MPD2    C114380   1.811   0.827  14.043  0.2150  0.1973 -0.2032
    4MPD2    C214381   1.779   0.753  14.156  0.4390  0.6480  0.6961
    4MPD2    C314382   1.655   0.754  14.215 -0.5980 -0.0117 -0.4101
    4MPD2    C414383   1.555   0.830  14.153  0.0229  0.1120 -0.1017
    4MPD2    C514384   1.585   0.895  14.033 -0.1825  0.2897 -0.4614
    4MPD2     H14385   1.857   0.693  14.201  0.8287  1.4296  1.0674
    4MPD2    H114386   1.457   0.834  14.197  0.8247 -0.8059  1.7720
    4MPD2    H214387   1.726   0.952  13.894 -2.4595  0.3650  0.8135
    4MPD2    H314388   1.509   0.951  13.980  0.4766  2.4105  0.7912
    4MPD2     N14389   1.629   0.677  14.332 -0.2857 -0.3309 -0.4454
    4MPD2    H514390   1.713   0.630  14.365  0.0750  2.1019  2.1081
    4MPD2    N114391   1.940   0.813  14.002  0.5638 -0.1298 -0.3997
    4MPD2    H714392   2.010   0.767  14.060  0.9781 -0.4960 -1.1918
    5TMC2    C114393   1.258   4.488  14.838 -0.7049 -0.1812  0.3440
    5TMC2    C214394   1.219   4.468  14.966 -0.1322 -0.0198 -0.0727
    5TMC2    C314395   1.301   4.387  15.036  0.7032 -0.0267 -0.3639
    5TMC2    C414396   1.370   4.437  14.778  0.1351 -0.5230 -0.3421
    5TMC2    C514397   1.455   4.358  14.846 -0.5336  0.0723 -0.4275
    5TMC2    C614398   1.414   4.331  14.974  0.1830 -0.0323  0.3535
    5TMC2     C14399   1.246   4.619  14.793  0.1809 -0.0521  0.0510
    5TMC2     O14400   1.350   4.671  14.748 -0.0061  0.7176 -0.1125
    5TMC2     H14401   1.128   4.510  15.006 -0.5822  0.5266 -1.6688
    5TMC2    H114402   1.394   4.462  14.675 -1.1977  1.4089 -0.1849
    5TMC2    H214403   1.489   4.285  15.036  1.8835 -0.2280 -1.8629
    5TMC2    C714404   1.594   4.417  14.853  0.2418 -0.3485  0.5143
    5TMC2    C814405   1.336   4.429  15.168  0.4233 -0.2161 -0.3451
    5TMC2    O114406   1.684   4.349  14.900 -0.4677  0.1827  0.4069
    5TMC2    O214407   1.438   4.497  15.186  0.4040  0.1947 -0.6599
    5TMC2    O514408   1.217   4.442  15.229  0.2577 -0.4473 -0.4477
    5TMC2    H514409   1.151   4.374  15.203 -1.0381  0.6902 -0.1852
    6MPD2     C14410   1.064   0.361  14.869  0.1195  0.0801  0.0405
    6MPD2    C114411   1.192   0.322  14.840 -0.1765 -0.5343  0.0709
    6MPD2    C214412   1.216   0.186  14.827 -0.1489 -0.1591  0.2211
    6MPD2    C314413   1.114   0.101  14.837  0.3157 -0.9085 -0.5170
    6MPD2    C414414   0.988   0.131  14.875  0.2062  0.1217  0.1525
    6MPD2    C514415   0.965   0.272  14.888  0.6268 -0.0736  0.0972
    6MPD2     H14416   1.316   0.148  14.810  0.2477 -0.1130  2.4357
    6MPD2    H114417   0.907   0.060  14.886 -0.6323  1.2781  1.4082
    6MPD2    H214418   1.036   0.464  14.892  0.7596 -0.1522  1.9072
    6MPD2    H314419   0.871   0.319  14.915  1.3987 -0.4422  3.4165
    6MPD2     N14420   1.130   4.685  14.833  0.5224 -0.5862  0.6296
    6MPD2    H514421   1.051   4.630  14.865 -0.7675  1.2520  0.6356
    6MPD2    N114422   1.303   0.404  14.813 -0.3668 -0.7236  0.4077
    6MPD2    H714423   1.391   0.359  14.790 -1.5756 -2.7427 -0.2567
  945NH3     N114424   0.723   0.878   0.486  0.2293  0.2820  0.3096
  945NH3     H214425   0.627   0.845   0.480  0.7537 -0.9071 -1.4959
  945NH3     H314426   0.709   0.977   0.468 -0.8820 -0.0622 -0.7845
  945NH3     H414427   0.727   0.862   0.586 -1.5079  2.1122  0.6652
  946SOD     NA14428   2.997   3.921   9.317 -0.3897  0.0961  0.5286
  947SOD     NA14429   1.672   4.701  15.360  0.6303  0.5883 -0.4887
  948SOD     NA14430   2.405   3.560  10.927  0.3838 -0.5066 -0.1525
  949SOD     NA14431   2.253   3.047  12.385 -0.2152 -0.1353  0.3909
  950SOD     NA14432   1.599   1.429   0.383  0.1905 -0.1310 -0.1970
  951SOD     NA14433   3.993   0.045  15.293 -0.9362 -0.1744  0.4479
  952SOD     NA14434   4.225   0.145   0.228  0.1510  0.5975  0.2055
  953SOD     NA14435   1.657   3.402  10.543  0.3306  0.2068 -0.1313
  954SOD     NA14436   2.872   1.983  16.410  0.0518  0.0714  0.2015
  955SOD     NA14437   2.443   0.837  15.753  0.3859  0.1501  0.0206
  956SOD     NA14438   2.593   2.591   0.387 -0.3124  0.1997 -0.0645
  957SOD     NA14439   4.663   1.744  13.793 -0.3747 -0.0060 -0.0176
  958SOD     NA14440   3.525   0.680  11.426 -0.2305  0.1955  0.1768
  959SOD     NA14441   1.667   4.339  14.009 -0.0406 -0.1538 -0.1948
  960SOD     NA14442   2.320   0.652  11.192 -0.3515 -0.1225  0.0184
  961SOD     NA14443   1.729   0.518   4.314 -0.3283  0.1697  0.2007
  962SOD     NA14444   3.668   1.199  11.699  0.4410  0.1169  0.3114
  963SOD     NA14445   2.870   2.912  16.928 -0.5455  0.0129  0.7381
  964SOD     NA14446   1.678   1.298  10.612 -0.4188 -0.1789  0.7250
  965SOD     NA14447   1.728   3.625  10.259  0.2087  0.0353 -0.3968
  966SOD     NA14448   2.769   3.243  14.763 -0.7357  0.1094  0.3643
  967SOD     NA14449   4.188   3.916   0.337 -0.1151  0.2301  0.2301
  968SOD     NA14450   3.278   3.694   0.012  0.5107 -0.2250  0.0669
  969SOD     NA14451   4.603   4.377   0.740  0.6673  0.1529 -0.3691
  970SOD     NA14452   1.563   0.348  10.162  0.2468 -0.4208 -0.7548
  971SOD     NA14453   3.977   0.702  15.132 -0.1466  0.0746  0.0123
  972SOD     NA14454   3.883   2.201  13.260 -0.2861 -0.0581 -0.2643
  973SOD     NA14455   4.436   3.102   8.066  0.0047  0.0379  0.2554
  974SOD     NA14456   0.097   3.749  12.879  0.7643 -0.1609  0.4249
  975SOD     NA14457   2.458   0.711   9.789 -0.0748 -0.5595 -0.0923
  976SOD     NA14458   2.978   3.221  13.372 -0.0556 -0.1399  0.1541
  977SOD     NA14459   2.204   3.413  10.739  0.0938 -0.3236 -0.5473
  978SOD     NA14460   1.823   4.252   1.396 -0.2085 -0.2524 -0.1811
  979SOD     NA14461   1.912   1.613  11.700 -0.2282  0.5858  0.1232
  980SOD     NA14462   3.485   4.656  13.419 -0.1202 -0.0210  0.1533
  981SOD     NA14463   3.979   0.123   3.766 -0.1277 -0.3964 -0.3472
  982SOD     NA14464   3.087   3.603   0.936 -0.2690  0.1674  0.0586
  983SOD     NA14465   0.790   2.667  14.089 -0.1960  0.1156  0.0771
  984SOD     NA14466   2.428   0.442  11.523 -0.0287 -0.3331 -0.1896
  985SOD     NA14467   3.041   3.855  11.814  0.1740  0.2017 -0.2333
  986SOD     NA14468   0.221   4.101  10.484 -0.3059  0.4046  0.3551
  987SOD     NA14469   0.135   0.310   6.964  0.5764 -0.3024  0.4147
  988SOD     NA14470   2.853   3.780  15.106 -0.1622 -0.4691  0.6587
  989SOD     NA14471   1.943   0.152  14.193  0.4579  0.0384 -0.5959
  990SOD     NA14472   2.329   2.682   2.966 -0.2250  0.2799 -0.3218
  991SOD     NA14473   1.614   1.255   7.012  0.4643  0.3106  0.0918
  992SOD     NA14474   3.043   0.129  13.289  0.4271  0.1476  0.1528
  993SOD     NA14475   2.395   3.566  10.224  0.2183  0.3156 -0.5610
  994SOD     NA14476   1.865   3.894  12.624 -0.8278  0.0745  0.4205
  995SOD     NA14477   0.455   1.204   9.523 -0.5170 -0.1523 -0.2005
  996SOD     NA14478   2.928   4.609   3.813  0.5471  0.9483  0.1942
  997SOD     NA14479   1.846   3.155  10.582  0.4979 -0.0023 -0.0750
  998SOD     NA14480   1.006   0.279   2.696  0.1588  0.1452  0.0515
  999SOD     NA14481   2.674   4.593  15.633 -0.6852 -0.5601  0.1890
 1000SOD     NA14482   2.976   0.224  16.056 -0.2592  0.4834  0.0741
 1001SOD     NA14483   1.526   3.114  10.458  0.1329 -0.0747  0.1209
 1002SOD     NA14484   2.924   4.435  14.252 -0.2841 -0.0467 -0.0176
 1003SOD     NA14485   2.130   4.222  12.052  0.3532  0.1669 -0.6188
 1004SOD     NA14486   0.950   1.029  14.712 -0.0550  0.0128 -0.3065
 1005SOD     NA14487   0.650   2.859  14.959  0.2396  0.5906 -0.0435
 1006SOD     NA14488   4.458   4.311   1.214  0.0382 -0.5256 -0.2492
 1007SOD     NA14489   2.998   2.393  12.219 -0.2763  0.1946 -0.1990
 1008SOD     NA14490   1.839   2.782  10.327  0.1432  0.3045  0.2667
 1009SOD     NA14491   0.469   1.022  15.728 -0.3273 -0.1354 -0.4392
 1010SOD     NA14492   3.505   3.301   1.141  0.1933  0.1820 -0.2275
 1011SOD     NA14493   3.121   1.836   0.869 -0.2881 -0.0339  0.2656
 1012SOL     OW14494   1.252   1.594  15.493  0.3453  0.4318 -0.5376
 1012SOL    HW114495   1.268   1.507  15.529  2.3548  0.2819 -1.7972
 1012SOL    HW214496   1.250   1.573  15.400 -1.5096  0.8029 -0.5733
 1013SOL     OW14497   2.443   4.293   5.542  0.1784 -0.5840 -0.8369
 1013SOL    HW114498   2.503   4.219   5.547  2.9592  1.5120 -2.9187
 1013SOL    HW214499   2.503   4.354   5.500  0.2952  0.9727  1.5978
 1014SOL     OW14500   1.720   0.262   4.648  0.4122  0.2210 -0.2110
 1014SOL    HW114501   1.678   0.184   4.683  0.5146  0.0601 -0.4472
 1014SOL    HW214502   1.666   0.288   4.573 -0.5058  0.8599  0.6680
 1015SOL     OW14503   2.836   3.754   4.519  0.1016  0.3163 -0.4290
 1015SOL    HW114504   2.875   3.791   4.598  0.6921  0.3610 -0.7429
 1015SOL    HW214505   2.835   3.660   4.541  1.7211 -0.0266 -1.7883
 1016SOL     OW14506   4.240   4.496   8.356 -0.1911  0.0128 -0.6856
 1016SOL    HW114507   4.293   4.566   8.394  1.4608 -2.6995  1.9893
 1016SOL    HW214508   4.209   4.535   8.274  0.3060  1.7393 -0.0426
 1017SOL     OW14509   2.641   2.839  14.725  0.3856  0.0401  0.1216
 1017SOL    HW114510   2.666   2.846  14.817 -1.9266  1.7957  0.6202
 1017SOL    HW214511   2.669   2.924  14.690 -1.4249  0.1458 -1.1305
 1018SOL     OW14512   3.470   2.181  13.383  0.2437 -0.7585  0.2935
 1018SOL    HW114513   3.430   2.265  13.363  0.5629 -0.2696  1.6693
 1018SOL    HW214514   3.470   2.190  13.478 -0.3002  1.3642  0.0914
 1019SOL     OW14515   0.279   1.051   9.530 -0.1499  0.6046  0.5551
 1019SOL    HW114516   0.204   1.036   9.473  0.8330 -1.7547 -0.1176
 1019SOL    HW214517   0.250   1.003   9.608 -1.0575  2.3320  1.2759
 1020SOL     OW14518   3.245   4.610   2.846  0.8112  0.2495  0.4544
 1020SOL    HW114519   3.322   4.617   2.790 -0.3424 -0.4751 -1.2121
 1020SOL    HW214520   3.261   4.524   2.883 -0.8805  0.0517  0.7291
 1021SOL     OW14521   2.141   1.480   3.291 -0.1154  0.0791  0.0557
 1021SOL    HW114522   2.200   1.410   3.263  0.6240  0.6508  0.1624
 1021SOL    HW214523   2.077   1.481   3.220  1.1960 -1.5922 -1.1601
 1022SOL     OW14524   2.387   3.036   3.646  0.2104  0.3590  0.1101
 1022SOL    HW114525   2.330   2.960   3.636 -0.0242  0.4388  0.8292
 1022SOL    HW214526   2.465   2.989   3.676  1.1456  1.4293 -0.6202
 1023SOL     OW14527   2.137   1.956   7.984 -0.3480  0.1824  0.6529
 1023SOL    HW114528   2.087   1.887   8.027  1.0740 -2.4815 -2.0500
 1023SOL    HW214529   2.102   2.033   8.030  1.0749  1.4338 -0.3726
 1024SOL     OW14530   1.496   4.397   0.423  0.5273 -0.0202  0.3849
 1024SOL    HW114531   1.516   4.478   0.470 -0.7965  0.8999 -0.6295
 1024SOL    HW214532   1.577   4.398   0.373 -1.5791  1.9335 -3.0038
 1025SOL     OW14533   1.238   1.513   7.721 -0.1930 -0.1268 -0.0992
 1025SOL    HW114534   1.172   1.523   7.789  0.4859 -0.9793  0.6782
 1025SOL    HW214535   1.198   1.570   7.655 -0.2232 -1.6955 -1.4411
 1026SOL     OW14536   4.611   4.357   0.506 -0.2629 -0.4906 -0.1021
 1026SOL    HW114537   4.517   4.353   0.489 -0.2701  3.2077 -1.0302
 1026SOL    HW214538   4.643   4.333   0.419  0.2241 -0.2458  0.0059
 1027SOL     OW14539   3.856   0.750  14.942  0.8663 -0.2583 -0.2457
 1027SOL    HW114540   3.780   0.706  14.906  2.1395 -0.0956 -3.2040
 1027SOL    HW214541   3.867   0.811  14.868 -0.0812  3.1040  2.3977
 1028SOL     OW14542   3.894   1.068   2.271 -0.2011 -0.6573 -0.0188
 1028SOL    HW114543   3.863   1.154   2.245  0.1735  0.4934  3.3312
 1028SOL    HW214544   3.970   1.061   2.214 -0.8963 -0.3203 -0.9831
 1029SOL     OW14545   1.700   1.657   2.331 -0.7237 -0.0797  0.2536
 1029SOL    HW114546   1.740   1.573   2.307 -1.8408 -0.1580 -1.2953
 1029SOL    HW214547   1.743   1.681   2.414  0.5302  2.1244 -1.0412
 1030SOL     OW14548   2.027   2.173   8.128 -0.3045 -0.4104 -0.0351
 1030SOL    HW114549   1.956   2.138   8.182 -1.7911 -0.4252 -1.9965
 1030SOL    HW214550   2.074   2.209   8.203  0.9404  0.6502 -1.3304
 1031SOL     OW14551   3.257   1.976   4.134 -0.3794  0.2605  0.1079
 1031SOL    HW114552   3.189   1.934   4.187  0.3208  0.9762  1.5466
 1031SOL    HW214553   3.302   2.025   4.203 -0.1800 -0.3079  0.3866
 1032SOL     OW14554   0.098   3.058   1.556 -0.2864 -0.6558 -0.6859
 1032SOL    HW114555   0.042   3.114   1.503 -0.3332 -2.4690 -2.5077
 1032SOL    HW214556   0.044   3.047   1.635  0.8829 -1.5131 -0.0046
 1033SOL     OW14557   4.336   2.605   3.693 -0.1551  0.1015  0.0843
 1033SOL    HW114558   4.374   2.636   3.775 -1.6012  0.3840  0.6570
 1033SOL    HW214559   4.242   2.596   3.708  0.0349 -1.1125  0.5003
 1034SOL     OW14560   1.092   2.025  12.989  0.0112  0.2848  0.8442
 1034SOL    HW114561   1.148   1.948  13.000  0.6370  0.4329 -1.3363
 1034SOL    HW214562   1.003   1.990  12.994 -0.0254  0.1780 -0.6335
 1035SOL     OW14563   3.868   3.316   5.265 -0.3907 -0.1610 -0.3823
 1035SOL    HW114564   3.789   3.262   5.264 -0.7513  0.3621  0.9257
 1035SOL    HW214565   3.851   3.382   5.331  1.0832 -0.8403  0.6740
 1036SOL     OW14566   4.385   3.431  17.054 -0.2967  0.5094  0.2236
 1036SOL    HW114567   4.346   3.365  17.112 -0.7731  0.7162  0.1385
 1036SOL    HW214568   4.453   3.379  17.012 -1.6962 -1.1222 -0.0068
 1037SOL     OW14569   3.249   4.002   7.723 -0.7895 -0.4993  0.0901
 1037SOL    HW114570   3.281   3.969   7.806  1.3869  1.2702 -0.0559
 1037SOL    HW214571   3.262   3.928   7.664 -0.2945  1.1160 -1.8559
 1038SOL     OW14572   2.346   0.314   1.601 -0.1652  0.1501  0.5724
 1038SOL    HW114573   2.357   0.306   1.695  2.9114 -0.3264  0.1657
 1038SOL    HW214574   2.301   0.231   1.586 -3.2594  1.8499  0.3949
 1039SOL     OW14575   1.035   3.368   4.161  0.3407 -0.0480  0.1769
 1039SOL    HW114576   0.980   3.334   4.233 -0.0339 -1.9451 -0.9976
 1039SOL    HW214577   1.111   3.393   4.213 -1.0213 -0.7931  2.5608
 1040SOL     OW14578   4.541   0.702   2.270  0.1976  0.2337 -0.3902
 1040SOL    HW114579   4.621   0.680   2.223  0.6357 -0.8369  0.8487
 1040SOL    HW214580   4.566   0.792   2.290  0.3018  0.0044  0.5101
 1041SOL     OW14581   1.199   3.465   6.256 -0.0748  0.2038  0.3449
 1041SOL    HW114582   1.252   3.507   6.323  1.1394 -0.2913 -0.3140
 1041SOL    HW214583   1.244   3.382   6.243 -0.5428  0.1180 -0.7386
 1042SOL     OW14584   1.606   2.103   1.809  0.4107 -0.4144  0.0213
 1042SOL    HW114585   1.556   2.046   1.867  1.5200  0.2954  1.6855
 1042SOL    HW214586   1.637   2.043   1.741  0.1537  0.7064 -1.0775
 1043SOL     OW14587   0.034   3.713   5.363 -0.5371  0.0911 -0.1622
 1043SOL    HW114588   4.690   3.778   5.377 -0.5987 -0.0116  0.0202
 1043SOL    HW214589   0.110   3.758   5.326 -0.4299 -1.4067 -1.7790
 1044SOL     OW14590   1.127   1.372   6.171  0.3782 -0.1663 -0.1218
 1044SOL    HW114591   1.148   1.465   6.165 -3.5998  0.6151 -2.2448
 1044SOL    HW214592   1.122   1.344   6.080  4.0690  1.3127 -0.7699
 1045SOL     OW14593   0.243   4.714   8.732 -0.4084 -0.1517 -0.5129
 1045SOL    HW114594   0.292   0.037   8.798 -3.1213  1.6950  0.1759
 1045SOL    HW214595   0.170   4.676   8.780 -0.8493  0.4600 -0.7029
 1046SOL     OW14596   0.468   1.242  16.992  0.3892 -0.2410  0.0839
 1046SOL    HW114597   0.543   1.263  16.937  1.8398 -1.3291  1.6523
 1046SOL    HW214598   0.510   1.181  17.053  1.8026 -0.5393 -1.1865
 1047SOL     OW14599   0.896   2.389   9.699 -0.1226 -0.2111 -0.2100
 1047SOL    HW114600   0.921   2.477   9.669  2.4079 -0.6815  0.5366
 1047SOL    HW214601   0.859   2.411   9.785 -0.2155  0.4493 -0.4168
 1048SOL     OW14602   4.058   3.657   9.891  0.4697 -0.3536  0.1873
 1048SOL    HW114603   3.999   3.616   9.954  2.4340  0.4475  2.5788
 1048SOL    HW214604   4.104   3.731   9.931  0.6659  1.2067 -2.9277
 1049SOL     OW14605   2.644   2.807  10.585  0.1841  0.8784  0.6780
 1049SOL    HW114606   2.667   2.897  10.561 -1.6478  1.2073  0.1706
 1049SOL    HW214607   2.600   2.817  10.669 -0.9893  0.2273  0.1431
 1050SOL     OW14608   1.727   0.163   2.428  0.1041  0.1332 -0.0787
 1050SOL    HW114609   1.803   0.213   2.457  0.8719 -2.2696  2.0281
 1050SOL    HW214610   1.742   0.087   2.485 -1.1102 -1.4147 -1.8177
 1051SOL     OW14611   0.567   3.529   4.226 -0.5530  0.5421 -0.2463
 1051SOL    HW114612   0.540   3.590   4.294  1.0089  0.9335  0.0011
 1051SOL    HW214613   0.632   3.582   4.180  0.3883  0.4551  1.0091
 1052SOL     OW14614   0.933   3.077  16.325 -1.0246 -0.1575 -0.1006
 1052SOL    HW114615   0.838   3.088  16.323 -0.9259  0.6768 -0.2743
 1052SOL    HW214616   0.959   3.032  16.245  0.4486  1.0011 -0.2830
 1053SOL     OW14617   3.800   2.062   9.389 -0.6948  0.5926  0.1674
 1053SOL    HW114618   3.861   2.077   9.461 -0.1218  0.3784 -0.2762
 1053SOL    HW214619   3.713   2.072   9.428 -0.6538 -0.7708  0.6432
 1054SOL     OW14620   2.266   2.753   4.192  0.3100 -0.3689  0.3264
 1054SOL    HW114621   2.228   2.770   4.105  1.8207 -0.3183 -0.3208
 1054SOL    HW214622   2.338   2.693   4.177  0.1375 -0.6218  0.5172
 1055SOL     OW14623   0.059   1.413   6.721 -0.2254 -0.1136  0.0919
 1055SOL    HW114624   0.021   1.385   6.637 -2.3405  0.0008  0.9920
 1055SOL    HW214625   0.114   1.479   6.679 -1.2347  1.4958  1.2844
 1056SOL     OW14626   1.744   2.944   7.895  0.2063  0.0366 -0.2168
 1056SOL    HW114627   1.674   2.905   7.947 -0.2708 -0.0433 -0.9237
 1056SOL    HW214628   1.721   2.927   7.804 -0.8048 -0.8454  0.1987
 1057SOL     OW14629   1.057   1.037  14.507  0.8623 -0.0893  0.0124
 1057SOL    HW114630   1.144   1.005  14.486 -0.5394 -2.6512 -1.9680
 1057SOL    HW214631   1.023   1.045  14.417 -0.5405 -2.1431  0.3708
 1058SOL     OW14632   4.512   0.056   2.386 -0.2313  0.0333 -0.3931
 1058SOL    HW114633   4.489   4.699   2.342  0.6090 -1.0896  1.2287
 1058SOL    HW214634   4.483   0.028   2.473  0.3782 -0.3785 -0.3186
 1059SOL     OW14635   3.095   2.389  12.455  0.2948 -0.1334 -0.7527
 1059SOL    HW114636   3.163   2.419  12.515  0.2155  0.2698 -0.8660
 1059SOL    HW214637   3.025   2.360  12.514  2.2165 -0.9335  1.1186
 1060SOL     OW14638   3.838   2.840  16.619 -0.3874  0.2877  0.1985
 1060SOL    HW114639   3.802   2.881  16.697  0.5967  2.8739 -0.6932
 1060SOL    HW214640   3.780   2.767  16.600  1.5321 -0.8859 -1.2098
 1061SOL     OW14641   0.163   0.288   8.877 -0.0773 -0.0703  0.3053
 1061SOL    HW114642   0.208   0.212   8.915 -0.6541  0.4504  2.0327
 1061SOL    HW214643   0.076   0.253   8.858  0.6471 -1.5117 -0.3905
 1062SOL     OW14644   4.491   4.236   7.511  0.1948  0.4924 -0.3655
 1062SOL    HW114645   4.439   4.159   7.491  0.0803  0.0299  1.8199
 1062SOL    HW214646   4.580   4.200   7.506 -0.0562 -0.1730 -0.0141
 1063SOL     OW14647   4.047   1.272   5.981  0.1558  0.1326 -0.2088
 1063SOL    HW114648   3.979   1.281   5.914  0.9797  1.5424 -0.8585
 1063SOL    HW214649   4.123   1.249   5.927 -0.3890  1.9068 -1.7388
 1064SOL     OW14650   0.577   3.123   8.160  0.3878  0.1340 -0.3187
 1064SOL    HW114651   0.494   3.165   8.135 -0.0894  0.9975  2.7725
 1064SOL    HW214652   0.634   3.197   8.137  0.4471  0.1165 -0.2257
 1065SOL     OW14653   3.911   0.446  16.327 -0.0837  0.0072  0.0234
 1065SOL    HW114654   3.824   0.486  16.330 -0.5105 -0.9797  0.8994
 1065SOL    HW214655   3.959   0.486  16.400 -0.2466 -1.4177  0.9118
 1066SOL     OW14656   3.319   4.462  14.322  0.2863 -0.6259  0.4119
 1066SOL    HW114657   3.228   4.456  14.291  0.4720  0.9539 -0.4744
 1066SOL    HW214658   3.362   4.378  14.307 -2.2093 -1.9641  0.7447
 1067SOL     OW14659   2.130   4.239   1.262 -0.2719  0.3359  0.2757
 1067SOL    HW114660   2.193   4.268   1.329  1.8682  0.3005 -1.7213
 1067SOL    HW214661   2.144   4.309   1.198  0.3627 -1.2785 -1.3438
 1068SOL     OW14662   1.955   0.193   2.057 -1.1509 -0.0042  0.2387
 1068SOL    HW114663   2.035   0.163   2.100  0.3786  0.9503 -1.9106
 1068SOL    HW214664   1.991   0.255   1.993  1.5571 -0.4779  1.2962
 1069SOL     OW14665   0.619   1.425  17.586 -0.3270  0.1740  0.8613
 1069SOL    HW114666   0.581   1.467  17.509  3.2092  1.4022 -0.2242
 1069SOL    HW214667   0.545   1.374  17.619 -0.6216 -0.2261 -0.4266
 1070SOL     OW14668   2.353   4.549   1.486  0.5800  0.0195 -0.2920
 1070SOL    HW114669   2.373   4.456   1.477 -0.6598 -0.5203  2.3283
 1070SOL    HW214670   2.439   4.582   1.460  0.9966  0.0221  1.0801
 1071SOL     OW14671   0.601   1.972   2.331  0.1501 -0.4022  0.6846
 1071SOL    HW114672   0.518   1.930   2.309 -1.0610  1.6384  1.3347
 1071SOL    HW214673   0.588   2.066   2.317 -0.5556 -0.7663 -1.1242
 1072SOL     OW14674   3.761   1.040   6.379  0.1686  0.3317 -0.4255
 1072SOL    HW114675   3.838   1.085   6.346 -1.0330  0.6740 -2.7764
 1072SOL    HW214676   3.703   1.030   6.303  2.7361 -0.3940 -2.2650
 1073SOL     OW14677   4.074   0.657   6.671  0.4389  0.0874 -0.1240
 1073SOL    HW114678   4.128   0.733   6.650  1.4786 -0.6321 -0.0997
 1073SOL    HW214679   4.047   0.672   6.762 -1.7694  0.1971 -0.8037
 1074SOL     OW14680   1.006   3.464  15.158 -0.4794  0.5518  0.8678
 1074SOL    HW114681   1.073   3.422  15.212 -0.0644  0.9828  0.6860
 1074SOL    HW214682   1.059   3.533  15.118  0.2903 -0.3127  0.3650
 1075SOL     OW14683   1.379   4.546   4.221  0.0906 -0.7146 -0.0941
 1075SOL    HW114684   1.443   4.546   4.293 -0.2246  0.0241  0.1903
 1075SOL    HW214685   1.441   4.588   4.162  1.2678  0.1566  1.7558
 1076SOL     OW14686   0.027   0.960   4.008  0.3002 -0.8823 -0.1463
 1076SOL    HW114687   4.713   0.984   3.923  0.4110  0.8023  0.2929
 1076SOL    HW214688   0.107   0.922   3.973  0.6450  0.4218 -0.7752
 1077SOL     OW14689   2.767   3.944  11.459  0.3101  0.4636 -0.0076
 1077SOL    HW114690   2.818   4.024  11.444  0.0364  1.1068  2.4819
 1077SOL    HW214691   2.755   3.909  11.371 -2.2820  1.7048 -0.1570
 1078SOL     OW14692   1.555   1.311  17.226 -0.2802  0.4823  0.0452
 1078SOL    HW114693   1.544   1.402  17.198 -0.7579  0.3704 -0.1336
 1078SOL    HW214694   1.641   1.317  17.269  0.4050  0.1269 -1.2891
 1079SOL     OW14695   4.581   2.942   7.997  0.0120  0.0324 -0.3528
 1079SOL    HW114696   4.555   2.891   7.920 -0.2825 -2.0054  1.0978
 1079SOL    HW214697   4.666   2.899   8.005  0.1724  0.5811  0.8091
 1080SOL     OW14698   1.446   1.666  13.778 -0.3817  0.4495  0.2911
 1080SOL    HW114699   1.402   1.581  13.772  1.5391 -0.4622 -0.9079
 1080SOL    HW214700   1.465   1.667  13.684 -0.6575  0.8996  0.2427
 1081SOL     OW14701   1.055   4.014   9.387  0.3680  0.0456  0.4176
 1081SOL    HW114702   0.980   4.072   9.402 -0.6120 -0.3510 -2.9145
 1081SOL    HW214703   1.038   3.954   9.459 -0.3995 -0.6376 -0.3406
 1082SOL     OW14704   2.810   4.243  17.195 -0.2631  0.6280 -0.5395
 1082SOL    HW114705   2.827   4.324  17.146  1.8868 -0.3511 -1.3986
 1082SOL    HW214706   2.900   4.221  17.219  0.2270  3.9465  0.7175
 1083SOL     OW14707   0.594   2.425  15.076 -0.8820 -0.1964  0.7310
 1083SOL    HW114708   0.592   2.455  15.167 -0.1548 -0.0485  0.6965
 1083SOL    HW214709   0.638   2.341  15.069 -1.2196 -0.5054  2.4639
 1084SOL     OW14710   1.846   2.424   9.364 -0.2578  0.0390 -0.2388
 1084SOL    HW114711   1.783   2.355   9.345 -1.0072  1.0315 -1.3417
 1084SOL    HW214712   1.916   2.403   9.303  0.7926  0.5217  0.8027
 1085SOL     OW14713   4.135   2.621   0.519 -0.6479 -0.9786  0.0721
 1085SOL    HW114714   4.060   2.680   0.509 -0.0795 -0.5022 -1.3979
 1085SOL    HW214715   4.142   2.605   0.613 -1.1825 -1.3364  0.0489
 1086SOL     OW14716   1.788   4.370   1.793 -0.5296 -0.0980  0.5993
 1086SOL    HW114717   1.771   4.408   1.879 -3.2636 -1.0543  0.4756
 1086SOL    HW214718   1.773   4.278   1.815 -1.1242 -0.3203 -0.7510
 1087SOL     OW14719   3.081   2.296   3.402 -0.1703  0.1446  0.4397
 1087SOL    HW114720   3.039   2.342   3.330 -1.2368 -1.0757  0.2856
 1087SOL    HW214721   3.009   2.289   3.465 -0.4474 -4.7572 -0.4641
 1088SOL     OW14722   1.255   2.238   3.637 -0.5110  0.5164  0.2523
 1088SOL    HW114723   1.164   2.214   3.656  0.0712 -1.9823 -0.1060
 1088SOL    HW214724   1.286   2.252   3.726  0.1023 -0.5739  0.2121
 1089SOL     OW14725   3.289   4.573  10.800 -0.5693  0.3290  0.0736
 1089SOL    HW114726   3.326   4.605  10.718 -1.1243 -0.3230 -0.4358
 1089SOL    HW214727   3.331   4.487  10.812  0.9339  0.7849 -1.8095
 1090SOL     OW14728   2.686   2.124   2.634  0.1811  0.1814  0.3850
 1090SOL    HW114729   2.614   2.151   2.576 -0.0722  0.3536  0.7761
 1090SOL    HW214730   2.748   2.196   2.623 -1.0255  1.0144 -1.0327
 1091SOL     OW14731   2.013   2.892   5.813  0.5170  0.0875  0.5777
 1091SOL    HW114732   2.006   2.955   5.741  0.7436 -0.3069  0.2138
 1091SOL    HW214733   1.943   2.829   5.801  0.8642 -0.0348 -0.8487
 1092SOL     OW14734   4.653   1.645   7.338 -0.3578 -0.1713 -0.3234
 1092SOL    HW114735   4.630   1.678   7.425  1.9047 -0.0688  0.2395
 1092SOL    HW214736   0.022   1.623   7.347 -0.9836 -1.2167  4.0497
 1093SOL     OW14737   0.180   0.615   7.618 -0.2580  0.4208  0.4210
 1093SOL    HW114738   0.087   0.638   7.623 -0.4083 -0.0697 -0.0508
 1093SOL    HW214739   0.203   0.671   7.544 -0.6811 -1.0056 -0.7897
 1094SOL     OW14740   1.685   1.372   3.813  0.3608 -0.4192  0.2240
 1094SOL    HW114741   1.699   1.466   3.811 -0.9949 -0.2162 -0.1840
 1094SOL    HW214742   1.681   1.356   3.719  2.4207  1.3666 -0.1437
 1095SOL     OW14743   4.258   2.543  15.207 -0.2575  0.0677 -0.2444
 1095SOL    HW114744   4.351   2.553  15.184 -0.1192  0.0078  0.2874
 1095SOL    HW214745   4.252   2.452  15.177  0.8863  0.4248 -1.5655
 1096SOL     OW14746   0.796   0.221  13.285  0.0374 -0.2871 -0.1827
 1096SOL    HW114747   0.784   0.277  13.362  1.1649 -0.3328  0.0202
 1096SOL    HW214748   0.803   0.294  13.224 -1.3646 -0.1490 -0.1873
 1097SOL     OW14749   3.195   3.872  17.608 -0.6521  0.0640 -0.3991
 1097SOL    HW114750   3.244   3.866  17.527 -1.8961 -0.7843 -1.0944
 1097SOL    HW214751   3.102   3.868  17.584 -0.9514  1.7196  0.4360
 1098SOL     OW14752   4.653   1.272  10.501 -0.4634  0.0052 -0.0268
 1098SOL    HW114753   4.601   1.208  10.548 -0.6344 -0.3276 -0.6745
 1098SOL    HW214754   4.690   1.320  10.575 -1.2837 -1.4397  1.3065
 1099SOL     OW14755   3.896   0.303   6.721 -0.1234 -0.5932  0.3067
 1099SOL    HW114756   3.868   0.221   6.680  0.2255  0.5816 -2.2991
 1099SOL    HW214757   3.967   0.271   6.778  1.7173  3.0025  0.0416
 1100SOL     OW14758   4.269   2.519   1.886  0.4838 -0.1903 -0.3535
 1100SOL    HW114759   4.261   2.529   1.791  0.6846 -1.7319 -0.5392
 1100SOL    HW214760   4.309   2.603   1.906 -2.6763  1.4515 -0.9385
 1101SOL     OW14761   2.579   2.639   7.812  0.0168  0.1742  0.3012
 1101SOL    HW114762   2.563   2.636   7.907  1.4912 -0.0807  0.5456
 1101SOL    HW214763   2.496   2.606   7.778  0.1854  0.0573  0.0079
 1102SOL     OW14764   2.753   3.432  12.238 -0.1249  0.0571 -0.4253
 1102SOL    HW114765   2.737   3.382  12.158 -3.2981 -0.2473  0.3885
 1102SOL    HW214766   2.675   3.485  12.255 -0.3985 -0.2534 -0.6992
 1103SOL     OW14767   0.901   1.310   6.300 -0.5297 -0.6518 -0.3730
 1103SOL    HW114768   0.972   1.347   6.247 -1.9375  1.5646 -0.7062
 1103SOL    HW214769   0.917   1.218   6.280 -0.5552 -1.0679  1.5174
 1104SOL     OW14770   2.833   2.812   3.654 -0.0735  0.5814 -0.3598
 1104SOL    HW114771   2.759   2.826   3.712 -1.7375  0.5254 -2.4772
 1104SOL    HW214772   2.794   2.739   3.606 -0.0460  0.9281 -0.9175
 1105SOL     OW14773   3.775   0.147   2.394  0.1544  0.6723  0.8420
 1105SOL    HW114774   3.849   0.199   2.425  1.2539  0.2884 -1.1180
 1105SOL    HW214775   3.749   0.199   2.318 -2.2092 -1.9803 -0.1473
 1106SOL     OW14776   0.763   0.911   7.854 -0.6063  0.1294  0.5604
 1106SOL    HW114777   0.821   0.982   7.881  0.5182 -1.0710  1.3082
 1106SOL    HW214778   0.709   0.898   7.932 -0.1703 -1.1679  0.6494
 1107SOL     OW14779   0.583   0.664  11.005  0.3459  0.5598 -0.2128
 1107SOL    HW114780   0.660   0.608  10.997  0.1906  0.5538 -1.6812
 1107SOL    HW214781   0.538   0.614  11.073 -1.0143  0.6943 -1.0208
 1108SOL     OW14782   4.218   2.252   6.072 -0.1060  0.5927  0.0643
 1108SOL    HW114783   4.234   2.168   6.115  0.1032  1.1009  0.9888
 1108SOL    HW214784   4.158   2.293   6.134 -0.5913  0.0933 -0.0792
 1109SOL     OW14785   3.120   3.190   3.995  0.8288  0.3298 -0.0190
 1109SOL    HW114786   3.080   3.150   3.918  0.3010 -0.2739  0.5760
 1109SOL    HW214787   3.152   3.271   3.955  0.1184 -0.2756 -1.8026
 1110SOL     OW14788   2.495   2.443   1.269 -0.0469 -0.2250 -0.1355
 1110SOL    HW114789   2.548   2.458   1.347 -1.3368  1.1703  0.4566
 1110SOL    HW214790   2.473   2.534   1.250  2.0533  0.6575  1.7262
 1111SOL     OW14791   3.092   2.041  14.328  0.7387  0.1880  0.0199
 1111SOL    HW114792   3.108   1.947  14.331 -1.4217 -0.1835  0.2063
 1111SOL    HW214793   3.029   2.050  14.256 -0.1999 -0.6035  0.7405
 1112SOL     OW14794   4.149   3.861   3.109 -0.0218 -0.1191  0.5335
 1112SOL    HW114795   4.060   3.895   3.111  0.7342  1.8382  0.7515
 1112SOL    HW214796   4.155   3.830   3.199  1.3269 -0.2238  0.4072
 1113SOL     OW14797   3.406   0.657   6.990  0.1190  0.1882 -0.2342
 1113SOL    HW114798   3.476   0.618   7.042 -0.5915 -0.7446  0.0313
 1113SOL    HW214799   3.459   0.707   6.928 -0.7937  4.7363  2.6281
 1114SOL     OW14800   1.831   1.218   6.372  0.8611 -0.0477  0.0280
 1114SOL    HW114801   1.752   1.224   6.426  1.4571 -0.3915  0.9515
 1114SOL    HW214802   1.824   1.130   6.335  0.6989 -0.1578  0.3204
 1115SOL     OW14803   1.497   3.267   2.964 -0.5478 -0.3883  0.0535
 1115SOL    HW114804   1.568   3.322   2.930 -0.2016 -1.1023 -0.3682
 1115SOL    HW214805   1.548   3.230   3.036 -0.4925 -1.2711 -0.4489
 1116SOL     OW14806   0.603   4.225   1.535  0.2237  0.5511  0.3031
 1116SOL    HW114807   0.628   4.308   1.494 -1.0705  0.3213 -0.9703
 1116SOL    HW214808   0.563   4.181   1.460 -0.0042  2.0417 -0.4516
 1117SOL     OW14809   2.473   0.918   3.829 -0.2249 -0.1754 -0.1464
 1117SOL    HW114810   2.528   0.961   3.763 -0.3462  0.9750  0.5068
 1117SOL    HW214811   2.531   0.847   3.858 -1.0074 -1.2015 -1.1199
 1118SOL     OW14812   1.215   2.846   4.931 -0.0300 -0.2451  0.0326
 1118SOL    HW114813   1.219   2.899   5.010 -2.4714 -3.7781  2.5152
 1118SOL    HW214814   1.309   2.842   4.911 -0.5738 -1.3936 -2.3809
 1119SOL     OW14815   4.048   1.168   7.944 -0.5642 -0.0224  0.0974
 1119SOL    HW114816   4.095   1.092   7.911 -3.6469 -1.7668 -0.3661
 1119SOL    HW214817   4.117   1.223   7.980  0.4138 -2.3455  1.7438
 1120SOL     OW14818   4.515   1.285  10.984  0.1120  0.3341 -0.5942
 1120SOL    HW114819   4.553   1.203  11.012 -1.2990 -0.0847  0.1017
 1120SOL    HW214820   4.424   1.256  10.977  0.1971 -0.2694  0.9118
 1121SOL     OW14821   3.919   1.011   7.407 -0.2987  0.3866 -0.4460
 1121SOL    HW114822   3.918   1.093   7.358 -2.3116  0.6963  0.0815
 1121SOL    HW214823   4.004   1.026   7.448 -1.4672  3.0707  1.0025
 1122SOL     OW14824   0.776   4.085   9.452 -0.1313 -0.3442  0.3469
 1122SOL    HW114825   0.756   4.005   9.404 -3.5674  1.5780 -1.3672
 1122SOL    HW214826   0.727   4.081   9.534 -1.5191 -0.4551 -0.4972
 1123SOL     OW14827   2.353   2.045   6.971  0.3565  0.0264 -0.3181
 1123SOL    HW114828   2.429   2.003   6.931 -0.5279 -0.9556 -0.9816
 1123SOL    HW214829   2.341   1.978   7.039 -1.4821  0.1868 -0.4756
 1124SOL     OW14830   4.054   1.906   6.622 -0.1918 -0.0527  0.1279
 1124SOL    HW114831   4.129   1.868   6.575 -0.2445 -0.3022  0.2480
 1124SOL    HW214832   3.986   1.863   6.571  0.5332  0.9525 -1.6888
 1125SOL     OW14833   1.427   0.132   4.908  0.4425  0.1317 -0.2447
 1125SOL    HW114834   1.491   0.114   4.840  0.4916 -0.4142 -0.0555
 1125SOL    HW214835   1.355   0.070   4.893  1.7936 -1.1996 -1.2307
 1126SOL     OW14836   0.026   0.709   0.957  0.2018  0.3084 -0.1812
 1126SOL    HW114837   0.029   0.780   1.020 -3.4023 -0.7318  1.1461
 1126SOL    HW214838   0.118   0.684   0.967  0.3091  1.1091  0.7395
 1127SOL     OW14839   4.545   3.517   0.937  0.2769 -0.0082 -0.3743
 1127SOL    HW114840   4.511   3.522   1.027  0.9641  0.6198 -0.1506
 1127SOL    HW214841   4.632   3.543   0.966  0.4810  0.2220 -1.2065
 1128SOL     OW14842   2.960   4.481  14.482 -0.6566  0.2411  0.1757
 1128SOL    HW114843   3.034   4.487  14.541 -1.9236  3.9178  1.3540
 1128SOL    HW214844   2.957   4.385  14.486  0.6293  0.1247 -1.6965
 1129SOL     OW14845   0.857   1.300   8.189 -0.1663 -0.0034 -0.6959
 1129SOL    HW114846   0.948   1.286   8.161  0.2665  0.6076  0.3954
 1129SOL    HW214847   0.851   1.236   8.259  0.4782  0.1233 -0.5230
 1130SOL     OW14848   3.752   0.845   3.814 -0.0327  0.2715 -0.6574
 1130SOL    HW114849   3.756   0.937   3.841  0.6260 -0.5422  2.0621
 1130SOL    HW214850   3.664   0.841   3.776 -0.3804 -1.4233  0.3142
 1131SOL     OW14851   1.948   2.428   8.444 -0.0579  0.5918  0.4818
 1131SOL    HW114852   1.855   2.421   8.425  0.1557 -0.3094 -0.2146
 1131SOL    HW214853   1.945   2.502   8.505  0.8815  1.5179 -0.6000
 1132SOL     OW14854   1.760   0.370  15.204 -0.5663 -0.3434  0.0912
 1132SOL    HW114855   1.727   0.334  15.122  0.7324  1.9524 -1.4570
 1132SOL    HW214856   1.850   0.336  15.201  0.1409  1.6409 -1.2581
 1133SOL     OW14857   3.225   0.285   3.109  0.6010 -0.5980 -0.0942
 1133SOL    HW114858   3.173   0.228   3.165 -0.8953 -0.0245 -0.9033
 1133SOL    HW214859   3.203   0.242   3.026  1.1086 -2.0908  0.5383
 1134SOL     OW14860   4.018   0.197   4.692  0.2697  0.2056 -0.1897
 1134SOL    HW114861   4.025   0.285   4.653  1.4658  1.3447  2.5705
 1134SOL    HW214862   3.982   0.145   4.621  0.5887 -2.5681  1.7158
 1135SOL     OW14863   1.813   3.759  15.364  0.5817 -0.7648 -0.3438
 1135SOL    HW114864   1.869   3.743  15.439 -0.7741 -0.4101  0.7397
 1135SOL    HW214865   1.845   3.689  15.306 -0.1271  0.3745 -2.1156
 1136SOL     OW14866   4.098   2.299  14.497 -0.0355 -0.3611  0.1245
 1136SOL    HW114867   4.104   2.369  14.433 -2.4777 -0.1069  0.1832
 1136SOL    HW214868   4.135   2.345  14.572  1.2564  1.6950 -1.7789
 1137SOL     OW14869   4.673   4.646   9.314 -0.1618  0.0164  0.2877
 1137SOL    HW114870   4.639   4.679   9.231  0.0039 -1.7192 -0.4749
 1137SOL    HW214871   0.043   4.641   9.301 -0.2990 -2.0925  0.1881
 1138SOL     OW14872   1.341   2.232   8.825  0.2409  0.3935  0.0726
 1138SOL    HW114873   1.283   2.212   8.899  0.6923 -0.6999  0.1319
 1138SOL    HW214874   1.275   2.265   8.765 -0.2074 -0.4535  0.1112
 1139SOL     OW14875   3.822   0.079   8.882 -0.1115 -0.0293  0.8152
 1139SOL    HW114876   3.826   0.172   8.902 -2.3575  0.2793 -0.2208
 1139SOL    HW214877   3.817   0.057   8.975 -1.7876  1.0410  0.9728
 1140SOL     OW14878   0.968   2.574   2.935 -0.0436 -0.2290 -0.7618
 1140SOL    HW114879   0.985   2.633   2.861 -1.5059 -1.4247 -2.0495
 1140SOL    HW214880   1.023   2.623   2.996 -0.4751 -1.1579  0.3794
 1141SOL     OW14881   4.446   1.217   8.695  0.3857 -0.6328  0.2032
 1141SOL    HW114882   4.420   1.297   8.649  1.3107 -0.6043 -0.2535
 1141SOL    HW214883   4.368   1.185   8.742 -0.8883 -0.5040 -1.7974
 1142SOL     OW14884   3.504   2.365   9.418  0.3694 -0.3763 -0.1648
 1142SOL    HW114885   3.500   2.270   9.405  0.5737 -0.4514  0.2827
 1142SOL    HW214886   3.427   2.375   9.474  2.5532 -0.8267  2.9815
 1143SOL     OW14887   4.699   1.188   7.907  0.3248 -0.2341 -0.4966
 1143SOL    HW114888   4.698   1.238   7.989 -0.6418 -1.3617  0.1816
 1143SOL    HW214889   4.620   1.133   7.907 -0.7457  1.2874  0.7201
 1144SOL     OW14890   1.797   2.969  13.886  0.4271 -0.2907 -0.0496
 1144SOL    HW114891   1.783   2.881  13.850  1.8024  0.2938 -1.9925
 1144SOL    HW214892   1.728   3.019  13.841  1.4207  0.5459 -0.6246
 1145SOL     OW14893   0.304   0.745   2.209 -0.8781 -0.3883  0.3801
 1145SOL    HW114894   0.268   0.762   2.296  1.3040  0.2390  1.1644
 1145SOL    HW214895   0.295   0.832   2.169  1.8947 -0.1858  0.2456
 1146SOL     OW14896   1.417   2.993   8.853  0.0428  0.3293  0.2700
 1146SOL    HW114897   1.439   3.059   8.919 -1.2981 -0.3844  1.4172
 1146SOL    HW214898   1.353   2.935   8.894  1.6742 -0.1392  2.1350
 1147SOL     OW14899   2.005   1.802   9.518 -0.1581 -0.0618 -0.5491
 1147SOL    HW114900   1.966   1.753   9.591  0.7972 -0.6676 -0.4492
 1147SOL    HW214901   1.977   1.757   9.439 -1.0191  0.1488 -0.3644
 1148SOL     OW14902   0.680   2.180   9.512 -0.6249  0.0331 -0.1679
 1148SOL    HW114903   0.742   2.252   9.519  1.6242 -2.1142  1.8665
 1148SOL    HW214904   0.710   2.132   9.434 -0.5763 -2.8046  1.5837
 1149SOL     OW14905   2.155   3.852   1.811 -0.5570 -0.2102  0.4210
 1149SOL    HW114906   2.186   3.763   1.791  0.2722  0.5742 -1.7232
 1149SOL    HW214907   2.213   3.869   1.886  0.5827  0.4508 -0.6101
 1150SOL     OW14908   0.270   0.023   5.305 -0.4780 -0.5382  0.6538
 1150SOL    HW114909   0.184   0.028   5.347 -2.1449 -1.2138 -2.6346
 1150SOL    HW214910   0.275   0.105   5.256  1.4922 -0.5076  0.9021
 1151SOL     OW14911   2.647   0.697   3.882 -0.0632  0.0982 -0.0697
 1151SOL    HW114912   2.714   0.690   3.949  1.4212  2.5593 -1.2797
 1151SOL    HW214913   2.699   0.690   3.802 -0.4675 -0.3065 -0.2978
 1152SOL     OW14914   0.618   1.665  14.034 -0.0660  0.0159 -0.1678
 1152SOL    HW114915   0.676   1.732  13.997  0.0760 -0.1949 -0.3276
 1152SOL    HW214916   0.605   1.700  14.123  2.1068 -0.3203  0.2821
 1153SOL     OW14917   3.004   3.789   2.393 -0.7467 -0.5399  0.3758
 1153SOL    HW114918   2.995   3.694   2.400  0.3967 -0.6307  0.4875
 1153SOL    HW214919   2.978   3.818   2.480  0.0225  2.9017 -0.5229
 1154SOL     OW14920   1.140   1.341   5.364 -0.0415  0.4786  0.2168
 1154SOL    HW114921   1.224   1.338   5.410 -0.6053  1.7405  1.3178
 1154SOL    HW214922   1.162   1.349   5.272 -4.9593 -0.6233 -1.0496
 1155SOL     OW14923   0.696   0.419   7.347  0.1536 -0.0531 -0.0496
 1155SOL    HW114924   0.726   0.462   7.427  0.4555 -0.0218 -0.1812
 1155SOL    HW214925   0.679   0.329   7.378 -0.7066 -0.2995 -1.2545
 1156SOL     OW14926   2.250   1.475   8.365 -0.5997  0.8970 -0.0657
 1156SOL    HW114927   2.264   1.432   8.281  1.1949  0.9563  0.2067
 1156SOL    HW214928   2.155   1.479   8.369 -0.6609 -0.8775 -0.1655
 1157SOL     OW14929   3.975   4.275   8.498 -0.1826  0.1201  0.5696
 1157SOL    HW114930   4.050   4.226   8.532 -0.4151  0.9267  2.2506
 1157SOL    HW214931   3.976   4.356   8.550  1.3512  0.2959  0.2431
 1158SOL     OW14932   3.209   2.262  13.916 -1.0613 -0.2723 -0.6215
 1158SOL    HW114933   3.206   2.167  13.901 -1.8838 -0.7096  2.3469
 1158SOL    HW214934   3.243   2.302  13.836  2.4398 -1.8720  0.0627
 1159SOL     OW14935   2.949   4.208   2.647  0.0540 -0.0824  0.2554
 1159SOL    HW114936   3.042   4.226   2.659  0.2124 -0.6983 -0.0571
 1159SOL    HW214937   2.921   4.204   2.738  2.2362  1.7436  1.0145
 1160SOL     OW14938   1.937   3.347   6.170 -0.0729  0.4574  0.1375
 1160SOL    HW114939   1.981   3.262   6.163 -1.2573 -0.1085 -0.3979
 1160SOL    HW214940   1.960   3.385   6.086 -0.1770 -0.7428 -0.4299
 1161SOL     OW14941   3.086   4.715   7.778  0.0566  0.1323 -0.5481
 1161SOL    HW114942   3.172   0.008   7.816  1.0871 -0.3659 -2.6177
 1161SOL    HW214943   3.103   0.031   7.692 -0.6370  1.2170 -0.1813
 1162SOL     OW14944   0.704   2.554   2.876 -0.2457  0.3480  0.3865
 1162SOL    HW114945   0.793   2.571   2.907 -0.3960  1.8143  0.0154
 1162SOL    HW214946   0.708   2.461   2.855  0.5065  0.4424  0.1191
 1163SOL     OW14947   2.551   2.777  12.156 -0.1933 -0.0527 -0.5342
 1163SOL    HW114948   2.496   2.795  12.079 -1.8502  1.5399  1.0284
 1163SOL    HW214949   2.515   2.693  12.186  2.2312 -0.4621  1.1808
 1164SOL     OW14950   2.249   2.991  10.481 -0.3995 -0.6897  0.0032
 1164SOL    HW114951   2.234   2.958  10.570  1.0520 -0.1746  0.4307
 1164SOL    HW214952   2.254   2.908  10.433  1.3045  0.6133 -2.0868
 1165SOL     OW14953   1.347   2.880   3.617 -0.2557  0.7831 -0.2503
 1165SOL    HW114954   1.313   2.894   3.529  0.4312  0.4309 -0.5793
 1165SOL    HW214955   1.267   2.861   3.665  0.8223  2.9304  2.4311
 1166SOL     OW14956   1.734   1.341  10.364  0.3839 -0.6358  0.1743
 1166SOL    HW114957   1.825   1.369  10.355  0.3532 -0.2108  1.2032
 1166SOL    HW214958   1.712   1.316  10.274 -0.4912 -0.8373  0.4489
 1167SOL     OW14959   0.789   3.664   0.687  0.7216  0.4610 -0.1952
 1167SOL    HW114960   0.845   3.636   0.614  1.1111  0.9793 -0.0953
 1167SOL    HW214961   0.811   3.755   0.705 -1.5762  0.8715  0.5581
 1168SOL     OW14962   4.564   2.521   5.473  0.1081  0.5700 -0.0578
 1168SOL    HW114963   4.492   2.566   5.430  0.5238  0.0213 -1.3349
 1168SOL    HW214964   4.532   2.528   5.563 -0.3685  0.3470 -0.2111
 1169SOL     OW14965   4.635   0.389   6.926  0.1313 -0.6147 -0.0532
 1169SOL    HW114966   4.571   0.318   6.940 -1.0111  0.6637  1.2090
 1169SOL    HW214967   4.579   0.445   6.872  1.4906  1.0401  0.2974
 1170SOL     OW14968   4.367   4.395   0.421  0.2485 -0.3818  0.0642
 1170SOL    HW114969   4.407   4.403   0.334 -1.0929 -0.7776 -0.5825
 1170SOL    HW214970   4.285   4.442   0.408  0.1729 -0.4691  0.2316
 1171SOL     OW14971   2.466   3.644   2.213 -0.3015  0.7301  0.2428
 1171SOL    HW114972   2.513   3.691   2.282  1.6373  0.0250 -0.5671
 1171SOL    HW214973   2.506   3.557   2.217 -2.3815 -0.1437  1.8049
 1172SOL     OW14974   0.403   1.097   6.218  0.0420  0.7692 -0.1707
 1172SOL    HW114975   0.390   1.179   6.266 -1.4066  1.7930 -2.2856
 1172SOL    HW214976   0.414   1.128   6.127 -0.8693 -0.4100 -0.6726
 1173SOL     OW14977   2.826   1.397  15.882  0.2025 -0.5681  0.3421
 1173SOL    HW114978   2.840   1.313  15.925  1.0666  0.5656  2.2854
 1173SOL    HW214979   2.884   1.459  15.927 -0.3491  0.3708 -0.2279
 1174SOL     OW14980   0.794   0.440  14.147  0.5109  0.0057 -0.1357
 1174SOL    HW114981   0.887   0.417  14.144  0.2653 -0.7904 -1.7592
 1174SOL    HW214982   0.762   0.377  14.212  0.0966 -0.4717 -0.8141
 1175SOL     OW14983   2.559   2.175   5.391  0.6778  0.1782  0.1869
 1175SOL    HW114984   2.477   2.224   5.386  0.5098 -0.2552 -1.2311
 1175SOL    HW214985   2.539   2.086   5.419  1.3908 -0.7060 -2.1372
 1176SOL     OW14986   0.050   1.799   9.515 -0.2187  0.0260 -0.0541
 1176SOL    HW114987   4.699   1.825   9.461  1.3893 -1.4426 -2.9897
 1176SOL    HW214988   0.087   1.887   9.525 -0.8832  0.3327 -0.2931
 1177SOL     OW14989   4.158   2.365  12.064 -0.0764  0.1259 -0.1682
 1177SOL    HW114990   4.134   2.384  12.155 -0.9389  0.7465 -0.5212
 1177SOL    HW214991   4.251   2.383  12.080 -0.6187  1.7265  1.1882
 1178SOL     OW14992   0.458   2.805   5.693  0.1173  0.2100 -0.0174
 1178SOL    HW114993   0.483   2.735   5.632  2.0301  2.1049 -1.4019
 1178SOL    HW214994   0.387   2.768   5.745 -0.3252  1.3042  0.1492
 1179SOL     OW14995   3.991   3.497  11.400 -0.1156 -0.1014  0.3951
 1179SOL    HW114996   4.016   3.489  11.308  1.3544 -0.8472  0.8632
 1179SOL    HW214997   3.957   3.586  11.408 -0.0057 -0.1919  1.9260
 1180SOL     OW14998   2.326   1.493  11.578 -0.7764 -0.0801  0.7539
 1180SOL    HW114999   2.374   1.437  11.517 -1.9285 -1.0626  0.7341
 1180SOL    HW215000   2.331   1.442  11.659 -1.0355 -0.0231  0.8089
 1181SOL     OW15001   0.375   4.144   5.067 -0.3452 -0.4928 -0.3863
 1181SOL    HW115002   0.370   4.208   4.996  0.4692 -0.0647 -0.0584
 1181SOL    HW215003   0.411   4.072   5.015  2.0711  0.0669  0.5402
 1182SOL     OW15004   1.834   0.934   2.326  0.1136  0.7990 -0.1226
 1182SOL    HW115005   1.779   0.934   2.404 -0.0338  0.2890 -0.2259
 1182SOL    HW215006   1.856   0.841   2.316  0.5901  0.8514  0.4111
 1183SOL     OW15007   2.384   1.042   8.268 -0.3842 -0.8537 -0.0818
 1183SOL    HW115008   2.400   1.136   8.277  0.9647 -1.3363  2.6554
 1183SOL    HW215009   2.321   1.030   8.340  1.8326  1.2075  2.1982
 1184SOL     OW15010   1.552   0.549   5.196 -0.2301 -0.2636 -0.1619
 1184SOL    HW115011   1.530   0.481   5.133  0.2139  1.2084 -1.8735
 1184SOL    HW215012   1.630   0.579   5.150  0.1584  0.5767  1.0316
 1185SOL     OW15013   3.766   3.361   4.571  0.2192 -0.4554 -0.1228
 1185SOL    HW115014   3.826   3.323   4.635 -1.1933 -0.5361  1.1383
 1185SOL    HW215015   3.828   3.373   4.499  1.3011 -2.1078  0.5309
 1186SOL     OW15016   1.129   1.679   5.571  0.0739 -0.3689  0.2454
 1186SOL    HW115017   1.088   1.595   5.589 -3.1094  1.1714  0.1781
 1186SOL    HW215018   1.059   1.741   5.554 -0.9339 -2.1972 -2.3512
 1187SOL     OW15019   3.107   0.328  17.135 -0.1106  0.0869  0.4603
 1187SOL    HW115020   3.143   0.397  17.191  1.7973 -0.7030  0.2020
 1187SOL    HW215021   3.187   0.278  17.126  0.0883  0.7816 -1.4928
 1188SOL     OW15022   1.052   3.993  15.464  0.2755 -0.0070  0.1973
 1188SOL    HW115023   1.087   4.042  15.539 -1.1391  0.6404  0.4422
 1188SOL    HW215024   0.958   4.000  15.480  0.2905 -0.9107  0.7016
 1189SOL     OW15025   1.310   4.611   0.992 -0.3132 -0.5034 -0.3652
 1189SOL    HW115026   1.330   4.603   0.899 -0.4757  0.5427 -0.4918
 1189SOL    HW215027   1.365   4.686   1.016 -0.9150 -0.3297  0.4700
 1190SOL     OW15028   2.122   2.385   5.684  0.1986 -0.0225 -0.1777
 1190SOL    HW115029   2.120   2.467   5.635 -0.3752  0.2382  0.2808
 1190SOL    HW215030   2.070   2.401   5.763 -0.3386 -0.6840 -0.3930
 1191SOL     OW15031   1.438   3.528  16.270 -0.1031  0.2984  0.6285
 1191SOL    HW115032   1.406   3.486  16.349 -2.1026  0.0285 -0.3307
 1191SOL    HW215033   1.459   3.455  16.212  1.3733  1.5370 -0.4080
 1192SOL     OW15034   1.476   0.775   0.814  0.1926  0.0239  0.1281
 1192SOL    HW115035   1.515   0.858   0.785  1.9173 -0.0894  2.2362
 1192SOL    HW215036   1.491   0.716   0.740  0.5996  1.3408 -0.8369
 1193SOL     OW15037   3.772   3.157   9.152  0.9804  0.3732  0.0847
 1193SOL    HW115038   3.696   3.205   9.122 -0.9830 -2.6107  0.2364
 1193SOL    HW215039   3.811   3.195   9.231  1.5431  1.3185 -0.6507
 1194SOL     OW15040   2.210   3.660   2.296 -0.1213  0.4499 -0.3557
 1194SOL    HW115041   2.161   3.585   2.262 -1.0587  0.6889  0.4491
 1194SOL    HW215042   2.298   3.636   2.268 -0.0745 -1.3534  1.3011
 1195SOL     OW15043   4.015   4.396   7.470 -0.0718 -0.2441 -0.1182
 1195SOL    HW115044   3.928   4.412   7.507 -0.4690  0.1652 -1.2341
 1195SOL    HW215045   4.057   4.461   7.526 -1.0585 -0.9928  1.4702
 1196SOL     OW15046   2.387   4.287   3.073  0.5440  0.0950  0.3603
 1196SOL    HW115047   2.335   4.367   3.077  2.1992  1.2425 -1.2023
 1196SOL    HW215048   2.336   4.239   3.138  0.7048 -0.1552  0.3030
 1197SOL     OW15049   2.376   4.089   0.452  0.4015 -0.2027  0.1127
 1197SOL    HW115050   2.344   4.168   0.496 -0.2880 -0.7829  0.6577
 1197SOL    HW215051   2.386   4.127   0.365  0.5859  0.2951  0.3483
 1198SOL     OW15052   0.417   3.624   1.773  0.0836  0.1030  0.7184
 1198SOL    HW115053   0.495   3.630   1.717 -0.9726  1.2038 -0.6051
 1198SOL    HW215054   0.342   3.606   1.717 -0.5402 -1.8696  2.1612
 1199SOL     OW15055   0.723   2.200   5.815 -0.1052  0.7746 -0.1184
 1199SOL    HW115056   0.788   2.239   5.757  0.2650  0.7507  0.2845
 1199SOL    HW215057   0.744   2.107   5.803  2.1481  1.0192  1.9640
 1200SOL     OW15058   0.493   3.225   3.259  0.1897  0.3313  0.0857
 1200SOL    HW115059   0.526   3.137   3.277 -0.6916 -0.1711 -0.7719
 1200SOL    HW215060   0.400   3.222   3.282  0.1729 -1.2582 -0.1761
 1201SOL     OW15061   0.116   2.903   0.391 -0.7001 -0.0615  0.4205
 1201SOL    HW115062   0.051   2.860   0.334 -1.0142 -0.0723  0.7879
 1201SOL    HW215063   0.136   2.828   0.446 -1.4365 -0.1104  0.6245
 1202SOL     OW15064   2.258   0.404  16.024 -0.4853 -0.2686 -0.6804
 1202SOL    HW115065   2.299   0.380  16.107  1.0954 -0.9270 -1.6531
 1202SOL    HW215066   2.338   0.419  15.973 -0.1036  2.1850  0.6915
 1203SOL     OW15067   4.095   2.581   4.421  0.4435  0.2683 -0.3084
 1203SOL    HW115068   4.136   2.495   4.411  0.3635  0.2293 -0.2951
 1203SOL    HW215069   4.017   2.564   4.474  0.5497  2.4875  0.5696
 1204SOL     OW15070   3.098   0.710   4.448  0.1302 -0.2377 -0.3458
 1204SOL    HW115071   3.186   0.676   4.467  0.4760  1.3245  0.8302
 1204SOL    HW215072   3.110   0.796   4.487  1.0208 -0.5540  0.0846
 1205SOL     OW15073   1.457   0.691   3.943  0.8627  0.0706  0.5951
 1205SOL    HW115074   1.473   0.732   4.028  2.3701 -0.8247  0.7558
 1205SOL    HW215075   1.458   0.762   3.879 -1.8766 -0.6153 -0.2078
 1206SOL     OW15076   0.571   2.790   5.985 -0.0693 -0.5300  0.0931
 1206SOL    HW115077   0.492   2.771   5.934  0.6119 -2.1891 -0.3236
 1206SOL    HW215078   0.544   2.867   6.035 -0.8822 -2.2165  2.2538
 1207SOL     OW15079   0.490   3.966  16.217  0.1489  0.1457  0.2657
 1207SOL    HW115080   0.466   4.030  16.284  0.7607 -0.1778  0.8000
 1207SOL    HW215081   0.525   3.896  16.272  1.5468  0.0732 -0.7273
 1208SOL     OW15082   2.767   1.733   6.923 -0.3863 -0.4038 -0.4074
 1208SOL    HW115083   2.800   1.822   6.911  1.9857 -0.7851  3.3931
 1208SOL    HW215084   2.754   1.727   7.018 -0.8516 -0.3920 -0.4695
 1209SOL     OW15085   4.522   3.244   4.798  0.2960  0.6456  0.6156
 1209SOL    HW115086   4.586   3.310   4.822 -0.8589  3.4949 -4.1237
 1209SOL    HW215087   4.569   3.168   4.832  0.0674  0.2432  0.0280
 1210SOL     OW15088   3.175   0.877   7.320 -0.1828  0.7602  0.3008
 1210SOL    HW115089   3.153   0.946   7.384  1.4767 -1.0553  2.8504
 1210SOL    HW215090   3.267   0.901   7.312 -0.4396  2.5544  2.5580
 1211SOL     OW15091   3.656   4.058   6.402  0.0129 -0.3737  0.2912
 1211SOL    HW115092   3.727   4.022   6.349  1.0406  1.5980  0.3137
 1211SOL    HW215093   3.621   4.130   6.349  0.1149  1.6842  3.0501
 1212SOL     OW15094   1.163   0.177   0.999  0.1472  0.4143 -0.5806
 1212SOL    HW115095   1.141   0.183   0.906 -2.0790 -0.0282 -0.0753
 1212SOL    HW215096   1.102   0.117   1.042 -0.7779  2.1512  0.5348
 1213SOL     OW15097   0.356   2.240   1.381 -0.4006  0.1665  0.0171
 1213SOL    HW115098   0.287   2.238   1.314 -1.9232  0.6046  1.5685
 1213SOL    HW215099   0.436   2.229   1.330 -0.7010 -0.8893 -0.2101
 1214SOL     OW15100   2.081   0.975   2.972  0.0347 -0.1103 -0.0827
 1214SOL    HW115101   2.154   0.913   2.981 -1.7274 -2.0058  1.2041
 1214SOL    HW215102   2.063   0.957   2.880 -0.8119 -1.0362  0.2571
 1215SOL     OW15103   4.031   4.153   7.348 -0.2647 -0.3441  0.1589
 1215SOL    HW115104   3.981   4.159   7.267 -0.8596  0.5942  0.6095
 1215SOL    HW215105   4.011   4.240   7.382  0.5940 -0.1343  0.1500
 1216SOL     OW15106   3.598   3.151   7.501 -0.6105  0.3095 -0.3061
 1216SOL    HW115107   3.668   3.099   7.460 -1.9189 -1.5990 -0.1391
 1216SOL    HW215108   3.530   3.084   7.497  0.6027 -0.9855  0.5753
 1217SOL     OW15109   2.035   4.548   2.752 -0.0376  0.1308  0.5332
 1217SOL    HW115110   2.096   4.488   2.795 -0.0672 -0.5672 -0.4028
 1217SOL    HW215111   1.962   4.541   2.814 -1.3458 -0.6105 -1.0963
 1218SOL     OW15112   4.543   1.655   5.378 -0.3827  0.2811  0.2814
 1218SOL    HW115113   4.467   1.624   5.427 -0.9536 -0.6408 -1.1835
 1218SOL    HW215114   4.512   1.745   5.366  3.6359  1.4449 -1.3671
 1219SOL     OW15115   2.522   4.146   9.910 -0.6439  0.1170 -0.1479
 1219SOL    HW115116   2.498   4.171   9.821  0.0511  1.3303  0.0074
 1219SOL    HW215117   2.613   4.175   9.907  0.0664 -2.0935  0.2448
 1220SOL     OW15118   4.619   4.697  17.339 -0.1150 -0.2322 -0.5071
 1220SOL    HW115119   4.688   4.641  17.305  0.0616 -0.2755 -0.0674
 1220SOL    HW215120   4.679   0.020  17.396  1.1378 -1.0542 -1.1476
 1221SOL     OW15121   4.660   0.559   4.365  0.3040  0.1756  0.1084
 1221SOL    HW115122   4.586   0.608   4.331  0.8430  1.1486  0.3444
 1221SOL    HW215123   4.656   0.570   4.460  1.3991 -1.7441  0.3798
 1222SOL     OW15124   1.288   3.721   5.432  0.3283 -0.4963  0.1511
 1222SOL    HW115125   1.247   3.711   5.517  1.2460  1.0298  0.7797
 1222SOL    HW215126   1.267   3.813   5.413 -0.8262 -0.7255  0.3135
 1223SOL     OW15127   1.668   1.982  13.943 -0.0167 -0.2749  0.2192
 1223SOL    HW115128   1.720   2.055  13.978  0.9272 -1.1987  0.7484
 1223SOL    HW215129   1.581   2.001  13.978  0.6250  0.3791  1.5034
 1224SOL     OW15130   1.957   4.032  10.593 -0.0568 -0.5964 -0.3081
 1224SOL    HW115131   1.986   4.031  10.502 -1.4417  2.7457 -0.7713
 1224SOL    HW215132   1.903   3.953  10.597  1.0194 -1.3723 -0.9964
 1225SOL     OW15133   1.842   1.895  12.068 -0.0122  0.1298 -0.4256
 1225SOL    HW115134   1.926   1.941  12.062 -0.2260  0.3795 -1.3815
 1225SOL    HW215135   1.779   1.963  12.044  0.1548  0.0564 -1.0571
 1226SOL     OW15136   3.479   3.546   7.018 -0.1876  0.0244  0.1317
 1226SOL    HW115137   3.465   3.638   6.998 -2.0722 -0.7818 -2.2531
 1226SOL    HW215138   3.554   3.534   6.961 -0.9603  0.1792 -0.9164
 1227SOL     OW15139   4.162   4.467   5.470  0.1777  0.3059  0.0554
 1227SOL    HW115140   4.130   4.477   5.559 -0.4176  0.7526 -0.2055
 1227SOL    HW215141   4.158   4.560   5.447 -2.2693  0.4555  1.0153
 1228SOL     OW15142   1.782   1.871  10.788 -0.1317  0.4872  0.1358
 1228SOL    HW115143   1.688   1.871  10.804  0.0094  1.7005  0.9637
 1228SOL    HW215144   1.784   1.842  10.697 -0.3383  1.2390 -0.1146
 1229SOL     OW15145   3.734   1.757  13.498 -0.3367 -0.0115  0.1209
 1229SOL    HW115146   3.683   1.725  13.572 -0.4301  0.8701  0.4444
 1229SOL    HW215147   3.703   1.847  13.505  1.0581  0.2101  3.6015
 1230SOL     OW15148   1.929   2.922   8.122 -0.0685 -0.9765  0.3051
 1230SOL    HW115149   1.997   2.974   8.080 -2.8745  0.3576 -2.6302
 1230SOL    HW215150   1.860   2.956   8.064  0.4047  0.0425  0.3468
 1231SOL     OW15151   1.300   4.125  14.145 -0.0600 -0.1800  0.0281
 1231SOL    HW115152   1.340   4.121  14.232  1.9860 -0.5043 -0.9324
 1231SOL    HW215153   1.376   4.129  14.088  0.6355 -2.1626  0.8251
 1232SOL     OW15154   2.544   3.670   7.177  0.0031 -0.3513 -0.3608
 1232SOL    HW115155   2.560   3.601   7.114 -1.2165 -2.0137  1.1462
 1232SOL    HW215156   2.543   3.623   7.261 -0.7986 -1.6853 -1.1259
 1233SOL     OW15157   1.503   2.305   7.486 -0.4042 -0.2005  0.3361
 1233SOL    HW115158   1.467   2.335   7.403  1.3762  0.4121 -0.2121
 1233SOL    HW215159   1.467   2.217   7.485 -2.7832  0.7925 -1.1439
 1234SOL     OW15160   2.622   0.490   5.097 -0.4964  0.0368 -0.6500
 1234SOL    HW115161   2.689   0.523   5.036 -0.2621 -0.1788 -0.5114
 1234SOL    HW215162   2.567   0.568   5.093  0.5839  0.8357  0.1442
 1235SOL     OW15163   4.367   3.142   5.391  0.2131 -0.2790 -0.1261
 1235SOL    HW115164   4.394   3.232   5.372 -0.3753 -0.1031 -0.1274
 1235SOL    HW215165   4.409   3.126   5.476  0.6802 -0.7820 -0.4548
 1236SOL     OW15166   3.152   0.233   2.295  0.2686  0.3046 -0.3620
 1236SOL    HW115167   3.169   0.257   2.204  0.3460 -0.5105 -0.5696
 1236SOL    HW215168   3.122   0.319   2.325 -1.2476  0.8177 -3.2510
 1237SOL     OW15169   1.533   1.142   3.898  0.4516  0.2355 -0.2917
 1237SOL    HW115170   1.553   1.209   3.832  0.3174  0.0383 -0.5332
 1237SOL    HW215171   1.602   1.079   3.879 -0.0564 -0.2896 -0.3793
 1238SOL     OW15172   0.255   2.274  11.962 -0.1002  0.2044 -0.2428
 1238SOL    HW115173   0.238   2.290  12.055  2.3675 -2.3677  0.6710
 1238SOL    HW215174   0.294   2.187  11.955 -1.1583 -0.2625 -0.3077
 1239SOL     OW15175   1.416   3.644   2.547 -0.0782  0.2796  0.2555
 1239SOL    HW115176   1.480   3.573   2.546  2.0573  2.2329 -0.1068
 1239SOL    HW215177   1.472   3.717   2.573  1.4357 -1.0792  0.7893
 1240SOL     OW15178   2.989   3.974   7.278 -0.2519  0.0269  0.0200
 1240SOL    HW115179   3.054   3.904   7.265 -1.0126 -1.2611  3.0665
 1240SOL    HW215180   2.908   3.929   7.255  0.5618 -1.8833  0.8748
 1241SOL     OW15181   1.117   3.017  13.162  0.3880  0.0222  0.0763
 1241SOL    HW115182   1.110   3.099  13.113 -0.2254 -0.6219 -0.9213
 1241SOL    HW215183   1.113   2.950  13.093  0.8884  1.0390 -0.9292
 1242SOL     OW15184   1.502   4.039   9.990 -0.1231  0.5704 -0.1193
 1242SOL    HW115185   1.589   4.002  10.004  0.0763  0.9337 -0.3916
 1242SOL    HW215186   1.440   3.968  10.009  3.4946 -2.0606  1.7474
 1243SOL     OW15187   2.227   1.594  16.783  0.2258 -0.2364 -0.2257
 1243SOL    HW115188   2.249   1.572  16.873 -1.2117 -2.6129 -0.4482
 1243SOL    HW215189   2.292   1.662  16.766 -0.2839  0.4469  0.5453
 1244SOL     OW15190   1.752   0.299   0.885  0.2422  0.8248  0.8933
 1244SOL    HW115191   1.714   0.219   0.849  1.8161  0.6508 -0.3635
 1244SOL    HW215192   1.749   0.269   0.976  0.2723 -1.4370  0.1414
 1245SOL     OW15193   3.466   3.261   7.951  0.3840 -0.1097  0.3135
 1245SOL    HW115194   3.390   3.284   8.004 -0.0694  1.6274 -1.0930
 1245SOL    HW215195   3.540   3.304   7.993  1.4260 -0.1208 -1.4864
 1246SOL     OW15196   2.578   2.033   4.572 -0.4378  0.2315 -0.4106
 1246SOL    HW115197   2.665   2.028   4.609 -1.3626 -1.8050  1.4638
 1246SOL    HW215198   2.532   1.992   4.646  2.0742 -1.3244  0.2621
 1247SOL     OW15199   1.320   4.496   9.826 -0.4311  0.2920  0.0661
 1247SOL    HW115200   1.293   4.581   9.794 -0.4143 -0.4096 -1.8422
 1247SOL    HW215201   1.330   4.439   9.749  0.6474  0.9134 -0.2582
 1248SOL     OW15202   3.649   2.587   0.249  0.5494  0.5529  0.0401
 1248SOL    HW115203   3.609   2.592   0.336 -2.1079  2.4068 -1.2676
 1248SOL    HW215204   3.582   2.544   0.194  1.2993  2.2867 -2.2467
 1249SOL     OW15205   2.693   0.851   4.400  0.1383 -0.5174 -0.4055
 1249SOL    HW115206   2.765   0.865   4.461 -0.4994  1.9114 -0.2390
 1249SOL    HW215207   2.637   0.922   4.430  4.3934  1.5010  2.6673
 1250SOL     OW15208   2.294   1.290   3.101 -0.0946 -0.9422 -0.5223
 1250SOL    HW115209   2.345   1.363   3.066 -0.6530 -0.0186  0.5879
 1250SOL    HW215210   2.368   1.234   3.122 -0.2993 -0.3449  1.8220
 1251SOL     OW15211   2.765   4.476   6.658  0.1663 -0.0166  0.2192
 1251SOL    HW115212   2.747   4.475   6.564  3.8426  0.6528 -0.4898
 1251SOL    HW215213   2.768   4.566   6.689 -0.6772 -0.2720  1.0545
 1252SOL     OW15214   2.544   2.024   9.238 -0.0514  0.4844 -0.2522
 1252SOL    HW115215   2.450   2.022   9.219  0.1626  0.3361 -1.3141
 1252SOL    HW215216   2.544   2.070   9.322  1.3066 -1.1872  0.6596
 1253SOL     OW15217   4.079   4.022   0.510 -0.0896  0.2237  0.4418
 1253SOL    HW115218   4.003   4.002   0.566 -0.4904  1.1466  0.2198
 1253SOL    HW215219   4.106   4.112   0.524 -1.3468  0.3248  2.2908
 1254SOL     OW15220   0.834   2.737   7.445  0.4765 -0.5911 -0.5164
 1254SOL    HW115221   0.781   2.659   7.428  2.4937 -1.8825 -0.8307
 1254SOL    HW215222   0.920   2.695   7.440  1.1001  0.7972 -1.6336
 1255SOL     OW15223   2.405   1.314   5.116  0.5116  0.2611 -0.2790
 1255SOL    HW115224   2.356   1.281   5.192  1.3311  0.6679  0.4177
 1255SOL    HW215225   2.334   1.369   5.083 -0.2343  0.4612  1.6505
 1256SOL     OW15226   1.065   4.323   6.926 -0.3692  0.2830 -0.3306
 1256SOL    HW115227   1.115   4.398   6.958 -0.0714 -0.2514  0.4432
 1256SOL    HW215228   1.122   4.249   6.947  1.0782  1.3651 -0.4777
 1257SOL     OW15229   0.318   4.460  11.103 -0.0744  0.4543 -0.4359
 1257SOL    HW115230   0.277   4.381  11.068  1.8203 -1.0491  0.7734
 1257SOL    HW215231   0.258   4.531  11.078 -1.6160  0.2106  2.5890
 1258SOL     OW15232   0.631   2.601  11.663 -0.6972  0.0575 -0.0906
 1258SOL    HW115233   0.605   2.584  11.753  0.3340  0.3820  0.2674
 1258SOL    HW215234   0.694   2.532  11.639  0.8218  2.1607 -2.2001
 1259SOL     OW15235   1.202   2.272   3.324  0.2654  0.0895  0.3001
 1259SOL    HW115236   1.227   2.263   3.416  0.8842 -1.1655  0.0025
 1259SOL    HW215237   1.256   2.348   3.303  1.0155 -1.0903 -2.0015
 1260SOL     OW15238   1.383   4.416   2.643  0.3118  0.3268  0.4022
 1260SOL    HW115239   1.295   4.381   2.655  0.6376 -1.1270 -1.3613
 1260SOL    HW215240   1.433   4.334   2.634  0.6034  0.6601 -0.9459
 1261SOL     OW15241   0.742   2.551  13.899 -0.3981 -0.3220  0.1524
 1261SOL    HW115242   0.683   2.478  13.918 -1.2437  0.7883  1.7663
 1261SOL    HW215243   0.801   2.502  13.842 -0.2243 -3.5094  3.1453
 1262SOL     OW15244   3.720   1.685   4.007  0.1859 -0.3974 -0.2158
 1262SOL    HW115245   3.632   1.722   4.018 -0.3765 -2.2613  1.4677
 1262SOL    HW215246   3.707   1.638   3.925 -0.7826 -0.1458 -0.2108
 1263SOL     OW15247   2.411   2.770   8.997  0.1012  0.5896  0.2723
 1263SOL    HW115248   2.434   2.824   9.073  0.6451 -0.5114  0.8889
 1263SOL    HW215249   2.442   2.685   9.027 -1.2447 -0.0805 -0.2472
 1264SOL     OW15250   2.404   3.236  15.254  0.1064  0.4097 -0.1476
 1264SOL    HW115251   2.316   3.243  15.290  0.0545  0.4669 -0.2855
 1264SOL    HW215252   2.414   3.319  15.207  3.1974 -1.0518 -2.0404
 1265SOL     OW15253   0.979   0.582  14.570  0.9964 -0.2498  0.0535
 1265SOL    HW115254   1.043   0.583  14.641 -0.6586  0.3795  1.5196
 1265SOL    HW215255   1.044   0.567  14.501  0.7298  1.3997 -0.5647
 1266SOL     OW15256   3.622   0.109   3.208 -0.1333 -0.4387 -0.1092
 1266SOL    HW115257   3.590   0.188   3.253 -1.4695 -1.4435  0.7184
 1266SOL    HW215258   3.702   0.149   3.175  0.4374 -0.6996  0.9485
 1267SOL     OW15259   0.678   2.760  15.747  0.7683 -0.0382  0.2777
 1267SOL    HW115260   0.716   2.827  15.690 -0.2444 -1.2416 -1.8003
 1267SOL    HW215261   0.647   2.694  15.686 -1.2718  1.3110 -0.1469
 1268SOL     OW15262   3.491   2.298   7.630  0.1245 -0.2967 -0.5512
 1268SOL    HW115263   3.511   2.350   7.553  2.0897 -0.4740 -0.1776
 1268SOL    HW215264   3.397   2.315   7.633  0.1271 -0.6410  1.9331
 1269SOL     OW15265   0.469   2.047  13.042  0.6509 -0.2507  0.6150
 1269SOL    HW115266   0.528   2.104  12.993 -1.0813  1.3918  0.4033
 1269SOL    HW215267   0.438   1.995  12.968  0.2586  1.4878 -0.4520
 1270SOL     OW15268   0.982   2.963   1.660  0.0462  0.3586  0.1822
 1270SOL    HW115269   0.974   2.965   1.564  0.9573  0.5069  0.1110
 1270SOL    HW215270   0.935   3.043   1.685 -0.2787  0.6410 -1.2722
 1271SOL     OW15271   3.223   2.662   9.515  0.5142  0.2495  0.2883
 1271SOL    HW115272   3.252   2.598   9.581 -0.0604 -0.6092 -0.2938
 1271SOL    HW215273   3.309   2.683   9.479  0.4930 -0.5621 -0.2342
 1272SOL     OW15274   4.219   4.318   5.958 -0.0638  0.2704 -0.2623
 1272SOL    HW115275   4.302   4.318   5.911 -0.9097 -0.6869 -1.7651
 1272SOL    HW215276   4.162   4.279   5.892  1.7737 -1.6343 -0.7039
 1273SOL     OW15277   3.352   3.917   2.666 -0.4187 -0.0513  0.0595
 1273SOL    HW115278   3.425   3.953   2.615  0.2802 -0.4888  0.7407
 1273SOL    HW215279   3.284   3.945   2.606  0.8189 -1.2763 -1.9097
 1274SOL     OW15280   4.240   1.832   7.289  0.5827 -0.2602  0.4053
 1274SOL    HW115281   4.179   1.906   7.293  0.9354 -0.0297  1.4347
 1274SOL    HW215282   4.196   1.783   7.219 -0.4061  1.2019 -0.0007
 1275SOL     OW15283   4.590   0.308   2.306  0.0099  0.3166 -0.1375
 1275SOL    HW115284   4.560   0.221   2.329 -0.7856  1.7708  4.2416
 1275SOL    HW215285   4.533   0.375   2.345 -0.1643 -0.1409  0.3809
 1276SOL     OW15286   4.264   0.912   6.694  0.5167  0.1521 -0.2983
 1276SOL    HW115287   4.357   0.905   6.718 -0.4389 -0.7029  3.2415
 1276SOL    HW215288   4.222   0.903   6.780  0.9863 -4.4112 -0.5919
 1277SOL     OW15289   2.571   4.539   2.693 -0.1541 -0.3376  0.2303
 1277SOL    HW115290   2.545   4.451   2.666  0.5867 -0.4024 -0.2854
 1277SOL    HW215291   2.626   4.513   2.767  1.2442 -0.1114 -0.7219
 1278SOL     OW15292   4.189   2.730   4.624  0.2185  0.6679 -0.0133
 1278SOL    HW115293   4.188   2.685   4.540  3.1279  1.3925 -0.4160
 1278SOL    HW215294   4.244   2.674   4.678  0.0734  2.5502  2.0769
 1279SOL     OW15295   1.159   3.160  16.904 -0.0969 -1.0710 -0.4476
 1279SOL    HW115296   1.146   3.070  16.875 -1.0819 -0.8718 -0.6209
 1279SOL    HW215297   1.209   3.136  16.982  2.2901 -0.2069 -1.7047
 1280SOL     OW15298   0.405   2.544   4.916 -0.2831 -0.3770  0.4434
 1280SOL    HW115299   0.489   2.508   4.887 -0.2565 -0.1795  0.2749
 1280SOL    HW215300   0.398   2.500   5.001  1.4315 -4.0468 -1.2962
 1281SOL     OW15301   0.830   0.008  10.021  0.2001 -0.1755 -0.3192
 1281SOL    HW115302   0.804   0.050   9.939  1.6087  0.5138 -0.4062
 1281SOL    HW215303   0.924   4.724  10.006  0.3769 -0.2936  0.8298
 1282SOL     OW15304   2.259   0.763   3.288 -0.2940  0.5009 -0.0977
 1282SOL    HW115305   2.350   0.743   3.266 -0.5471  0.4726 -1.1136
 1282SOL    HW215306   2.231   0.814   3.213 -0.7468 -2.9182 -2.2510
 1283SOL     OW15307   1.164   2.111   4.579 -0.8358  0.6946  0.0682
 1283SOL    HW115308   1.212   2.190   4.554 -0.1246 -0.1850 -1.3316
 1283SOL    HW215309   1.232   2.072   4.635  0.3075  1.7125 -0.6000
 1284SOL     OW15310   3.583   1.495   7.899 -0.1632  0.0186 -0.2945
 1284SOL    HW115311   3.572   1.581   7.939 -0.3746  1.2298 -2.9126
 1284SOL    HW215312   3.539   1.439   7.963 -1.3222 -0.0125 -1.1283
 1285SOL     OW15313   0.754   1.031  10.298 -0.9901 -0.2022 -0.1250
 1285SOL    HW115314   0.691   1.096  10.267 -0.4852  1.4675  2.3367
 1285SOL    HW215315   0.832   1.086  10.297 -0.4480 -0.9372  1.4864
 1286SOL     OW15316   1.515   4.618   5.380  0.5975 -0.4992  0.2941
 1286SOL    HW115317   1.567   4.562   5.321 -1.3136 -2.0192  0.0397
 1286SOL    HW215318   1.583   4.662   5.430  2.2366 -3.7221  0.8968
 1287SOL     OW15319   1.007   0.988   3.887 -0.3924  0.0661 -0.7318
 1287SOL    HW115320   1.039   1.045   3.956 -1.1402  0.0191 -0.3411
 1287SOL    HW215321   0.913   0.987   3.906 -0.5274  0.0760 -1.3854
 1288SOL     OW15322   3.541   2.455   2.043 -0.0453  0.1903  0.1679
 1288SOL    HW115323   3.607   2.474   2.110  0.1435  0.6042 -0.1320
 1288SOL    HW215324   3.491   2.379   2.073  0.0831 -0.0602 -0.2575
 1289SOL     OW15325   1.783   4.717  13.723  0.0277 -0.0520 -0.8804
 1289SOL    HW115326   1.694   4.691  13.698 -0.0637 -0.4814 -0.1137
 1289SOL    HW215327   1.809   0.049  13.649 -0.6146  1.2831 -0.0752
 1290SOL     OW15328   0.367   0.665   3.400 -0.1551 -0.5433  0.2538
 1290SOL    HW115329   0.303   0.656   3.330 -0.9460 -0.0899  0.9224
 1290SOL    HW215330   0.342   0.591   3.457 -1.0715 -1.1945 -1.0084
 1291SOL     OW15331   1.192   1.341  16.147 -0.6266 -0.1940 -0.9969
 1291SOL    HW115332   1.177   1.279  16.218  3.5555 -1.0044 -0.8143
 1291SOL    HW215333   1.163   1.291  16.070  1.1420 -2.7484  0.0071
 1292SOL     OW15334   2.021   1.836   7.736  0.1331 -0.1626  0.1662
 1292SOL    HW115335   2.010   1.876   7.822  1.0357  1.1199 -0.3130
 1292SOL    HW215336   2.061   1.750   7.747  1.4459  0.4250  0.0310
 1293SOL     OW15337   3.022   0.643   6.852 -0.0077  0.2115  0.1265
 1293SOL    HW115338   2.948   0.609   6.901 -1.3922  4.2234  0.8467
 1293SOL    HW215339   3.017   0.739   6.858 -0.0928  0.0618  2.4381
 1294SOL     OW15340   0.669   4.489   3.498 -0.4790  0.3427  0.4036
 1294SOL    HW115341   0.613   4.436   3.556 -0.2823 -0.5222 -0.2026
 1294SOL    HW215342   0.683   4.434   3.421  0.5718  0.1487  0.7366
 1295SOL     OW15343   3.887   1.268   4.472  0.1076  0.4020  0.1857
 1295SOL    HW115344   3.795   1.269   4.445  0.6557  2.4370 -1.6427
 1295SOL    HW215345   3.925   1.328   4.408 -1.8067  0.3806 -0.9780
 1296SOL     OW15346   4.460   0.898   0.665 -0.4013  0.0155  0.3280
 1296SOL    HW115347   4.513   0.833   0.711 -2.0603 -1.8964 -0.4937
 1296SOL    HW215348   4.443   0.954   0.741  0.9905  1.9014 -0.7498
 1297SOL     OW15349   4.619   1.546  13.687  0.1534 -0.1283  0.4649
 1297SOL    HW115350   4.691   1.514  13.632  0.6605  0.9173  0.5330
 1297SOL    HW215351   4.602   1.469  13.742  3.7152 -0.5083  1.0560
 1298SOL     OW15352   0.782   3.361  16.331  0.1915  0.1353  0.7382
 1298SOL    HW115353   0.871   3.397  16.336  0.6497 -0.6103 -2.3485
 1298SOL    HW215354   0.749   3.375  16.420  1.2506  1.2139  0.9700
 1299SOL     OW15355   4.636   4.463   4.006  0.2088  0.4213  0.0062
 1299SOL    HW115356   4.551   4.422   4.022 -0.1455  0.8440 -0.8101
 1299SOL    HW215357   4.642   4.506   4.091  0.3688 -0.6653  0.5569
 1300SOL     OW15358   3.164   4.477   7.643  0.0948  0.3649  0.5164
 1300SOL    HW115359   3.145   4.528   7.722  0.0902  0.4390  0.4680
 1300SOL    HW215360   3.157   4.550   7.582  1.3703 -0.2983 -0.4250
 1301SOL     OW15361   0.073   0.901  12.109 -0.8180 -0.2528  0.6760
 1301SOL    HW115362   0.043   0.834  12.048  1.4316  0.8299 -1.5979
 1301SOL    HW215363   0.167   0.882  12.109 -1.7962 -4.9467 -0.9942
 1302SOL     OW15364   4.393   3.386   2.557  0.3210  0.4976 -0.0221
 1302SOL    HW115365   4.484   3.388   2.585  0.7591 -0.0434 -1.4154
 1302SOL    HW215366   4.390   3.337   2.474  1.4751  1.1529 -0.4453
 1303SOL     OW15367   4.503   1.917   7.343 -0.1568 -0.1013 -0.7558
 1303SOL    HW115368   4.546   1.891   7.262  0.5061 -0.8837 -0.1544
 1303SOL    HW215369   4.412   1.890   7.336 -0.5468  0.8518  0.5431
 1304SOL     OW15370   4.062   3.878  12.255  0.1536 -0.5920 -0.0389
 1304SOL    HW115371   4.002   3.848  12.187  1.0843  0.1257 -1.1795
 1304SOL    HW215372   4.011   3.959  12.256 -0.6196 -1.0780 -0.6257
 1305SOL     OW15373   1.681   3.219   8.927 -0.2173 -0.7446 -0.2747
 1305SOL    HW115374   1.657   3.311   8.929  1.6589 -0.1867 -2.9547
 1305SOL    HW215375   1.613   3.184   8.984 -0.2362  0.4961  0.4518
 1306SOL     OW15376   3.197   1.954   3.873 -0.0649 -0.0814  0.1888
 1306SOL    HW115377   3.235   2.035   3.838 -0.0939  0.2276  0.8656
 1306SOL    HW215378   3.201   1.963   3.969  1.8542 -0.7578  0.1682
 1307SOL     OW15379   0.574   2.111   1.986  0.3009 -0.3117  0.4456
 1307SOL    HW115380   0.549   2.018   1.986  3.0289 -1.0374  2.1788
 1307SOL    HW215381   0.569   2.131   1.893 -0.1314 -0.6084  0.4029
 1308SOL     OW15382   3.767   4.655   5.255  0.2486  0.0348 -0.3565
 1308SOL    HW115383   3.704   4.716   5.218 -1.7572 -0.4784  2.1720
 1308SOL    HW215384   3.834   4.652   5.187  1.5303 -1.2317  0.9667
 1309SOL     OW15385   4.469   3.914   7.841  0.1421 -0.0989 -0.1416
 1309SOL    HW115386   4.460   4.007   7.820 -0.0729 -0.0480  0.1685
 1309SOL    HW215387   4.387   3.889   7.799 -0.5428  0.3347  0.9142
 1310SOL     OW15388   0.240   0.630  13.904  0.3882 -0.2171  0.7527
 1310SOL    HW115389   0.150   0.599  13.908  0.9137 -1.9457 -1.1613
 1310SOL    HW215390   0.244   0.697  13.973  1.1312  1.1479 -0.6215
 1311SOL     OW15391   2.120   4.535   5.041  0.5467  0.5437  0.0747
 1311SOL    HW115392   2.128   4.440   5.036  0.8846  0.6341 -1.0872
 1311SOL    HW215393   2.127   4.557   5.134  1.3878 -0.8500  0.3312
 1312SOL     OW15394   1.445   1.333   4.596 -0.3283  0.2050 -0.3589
 1312SOL    HW115395   1.442   1.284   4.515 -1.7752  1.2807 -0.9554
 1312SOL    HW215396   1.423   1.419   4.561  0.9356  0.7890  0.2622
 1313SOL     OW15397   0.428   0.655   6.146  0.1279  0.5207  0.7369
 1313SOL    HW115398   0.413   0.740   6.105 -0.0823  0.1500  0.0477
 1313SOL    HW215399   0.355   0.598   6.122  1.5666 -1.7148  1.6505
 1314SOL     OW15400   3.896   2.938   7.042 -0.1829  0.1800  0.0418
 1314SOL    HW115401   3.918   2.926   6.949 -0.9536 -0.4688 -0.0583
 1314SOL    HW215402   3.803   2.916   7.049  0.0270 -1.3865 -2.0311
 1315SOL     OW15403   0.005   2.921   5.415  0.8364 -0.5116 -0.1635
 1315SOL    HW115404   4.709   3.011   5.441 -1.2515 -1.8014  2.7120
 1315SOL    HW215405   0.080   2.922   5.355  0.7363  1.1814 -0.2657
 1316SOL     OW15406   1.820   3.568   8.773 -0.2990 -0.4322 -0.1530
 1316SOL    HW115407   1.846   3.480   8.745  1.3151  0.3358 -1.0588
 1316SOL    HW215408   1.753   3.544   8.836  0.5531 -1.9952  0.1468
 1317SOL     OW15409   2.250   2.094  17.174 -0.1138 -0.2175  0.1953
 1317SOL    HW115410   2.335   2.139  17.172 -0.8420  1.1540  0.7594
 1317SOL    HW215411   2.213   2.122  17.257 -2.7975  0.1593 -1.1229
 1318SOL     OW15412   2.754   1.045  15.698  0.0581  0.4796  0.3816
 1318SOL    HW115413   2.681   1.084  15.650  1.0621  0.5285 -1.0764
 1318SOL    HW215414   2.730   0.952  15.692 -0.4887  0.7309 -1.2093
 1319SOL     OW15415   1.428   1.359  10.661  0.0177  0.1247  0.7374
 1319SOL    HW115416   1.343   1.318  10.678  1.0888 -2.4155  0.0062
 1319SOL    HW215417   1.411   1.444  10.621  0.9149 -0.8747 -1.7690
 1320SOL     OW15418   0.324   4.319   2.847 -0.3842 -1.0633 -0.2601
 1320SOL    HW115419   0.240   4.275   2.836 -1.0755  0.2782 -0.3904
 1320SOL    HW215420   0.378   4.253   2.891 -0.3919  0.5379  2.1424
 1321SOL     OW15421   0.743   3.022  14.477 -0.4367  0.2207 -0.1159
 1321SOL    HW115422   0.752   3.117  14.486 -2.2625  0.3711  0.2499
 1321SOL    HW215423   0.669   3.009  14.537 -0.2150  0.8094  0.2891
 1322SOL     OW15424   1.655   0.316   8.445 -0.0355 -0.9838  0.0890
 1322SOL    HW115425   1.593   0.373   8.399  0.8335  1.6210  2.1664
 1322SOL    HW215426   1.695   0.264   8.375 -0.0665  0.5259 -1.0630
 1323SOL     OW15427   0.272   0.456   3.578 -0.0920  0.0967 -0.4393
 1323SOL    HW115428   0.214   0.532   3.587  0.3824  0.3655  0.3322
 1323SOL    HW215429   0.211   0.382   3.578  0.2375 -0.1750 -1.1192
 1324SOL     OW15430   1.796   0.959   9.630  0.5214  0.8565 -0.0935
 1324SOL    HW115431   1.825   1.048   9.610 -1.3029  1.6862  0.9593
 1324SOL    HW215432   1.834   0.904   9.561  0.9379 -0.3377  1.0861
 1325SOL     OW15433   2.516   1.236   3.466  0.0830 -0.2726 -0.1430
 1325SOL    HW115434   2.512   1.165   3.403 -1.5003 -1.3096  1.1392
 1325SOL    HW215435   2.529   1.306   3.402 -0.8227 -1.3496 -1.4952
 1326SOL     OW15436   3.752   2.260  10.757  0.3065  0.1268  0.0472
 1326SOL    HW115437   3.678   2.308  10.793  0.4505  2.4079 -2.6534
 1326SOL    HW215438   3.781   2.323  10.691  0.7823 -1.1739 -0.9985
 1327SOL     OW15439   0.499   0.211   7.167  0.0960 -0.5130  0.1042
 1327SOL    HW115440   0.508   0.296   7.124  1.0429 -0.6963 -0.0452
 1327SOL    HW215441   0.545   0.148   7.111 -0.0180 -0.1066 -0.4497
 1328SOL     OW15442   3.642   1.367   8.716 -0.2262 -0.2066 -0.2271
 1328SOL    HW115443   3.561   1.407   8.745  0.4605 -0.7820  2.5028
 1328SOL    HW215444   3.695   1.375   8.796  0.3059  1.0777 -0.7046
 1329SOL     OW15445   3.027   0.642  14.262  0.2217 -0.0013 -0.3317
 1329SOL    HW115446   3.115   0.608  14.277 -0.6194 -1.6106  1.0256
 1329SOL    HW215447   2.995   0.587  14.191  1.6773 -2.6682  1.0935
 1330SOL     OW15448   1.381   0.515   7.585  0.1020 -0.1906  0.1167
 1330SOL    HW115449   1.425   0.442   7.627  4.7834  1.7900 -1.3275
 1330SOL    HW215450   1.369   0.559   7.669  1.7734 -0.9760  0.7612
 1331SOL     OW15451   0.862   1.742  16.789  0.3477 -0.1609 -0.5269
 1331SOL    HW115452   0.911   1.778  16.864 -0.0996 -0.8742  0.1018
 1331SOL    HW215453   0.779   1.781  16.814  0.8739 -1.6863  3.6571
 1332SOL     OW15454   0.465   3.819   2.839  0.5645 -0.4542  0.3011
 1332SOL    HW115455   0.547   3.842   2.881  0.9277 -1.4973  0.1633
 1332SOL    HW215456   0.475   3.725   2.821 -0.5254 -0.1685 -1.7878
 1333SOL     OW15457   2.816   1.811  14.756 -0.0897 -0.0278 -0.1905
 1333SOL    HW115458   2.797   1.794  14.664  1.6098  1.3960 -0.7962
 1333SOL    HW215459   2.744   1.868  14.785 -0.7569 -0.8588 -0.2144
 1334SOL     OW15460   0.038   1.968   3.357 -0.1518 -0.1457 -0.0906
 1334SOL    HW115461   0.104   1.913   3.398 -0.2320  0.7224  1.2211
 1334SOL    HW215462   0.016   1.911   3.283  3.3235  2.6652 -3.2746
 1335SOL     OW15463   3.052   3.868   4.240  0.1287  1.1886  0.7808
 1335SOL    HW115464   2.969   3.916   4.248 -2.9101 -4.3167  2.2332
 1335SOL    HW215465   3.118   3.937   4.243  1.5147 -0.1251 -0.2729
 1336SOL     OW15466   0.771   3.874  16.945  0.1656  0.3827 -0.6191
 1336SOL    HW115467   0.681   3.852  16.967 -1.0389  3.5760 -2.2883
 1336SOL    HW215468   0.816   3.791  16.962  1.5902  1.1662 -0.5238
 1337SOL     OW15469   2.689   0.788  15.689 -0.0634  0.1824  0.3689
 1337SOL    HW115470   2.728   0.734  15.758 -0.4428 -0.0001  0.4429
 1337SOL    HW215471   2.760   0.774  15.627 -0.1227 -0.1124  0.3678
 1338SOL     OW15472   0.946   2.978  10.943  0.2907 -0.6593  0.4737
 1338SOL    HW115473   0.995   3.043  10.992 -0.5127  1.7578 -1.9723
 1338SOL    HW215474   0.995   2.975  10.861 -0.1902 -0.4300  0.1782
 1339SOL     OW15475   1.746   3.739   7.602 -0.1538  0.4252 -0.1899
 1339SOL    HW115476   1.717   3.712   7.689  1.3163  2.4418  0.9250
 1339SOL    HW215477   1.743   3.657   7.553 -2.3355  0.4888 -0.1570
 1340SOL     OW15478   2.517   3.477   9.814  0.4077  0.1585  0.0349
 1340SOL    HW115479   2.596   3.528   9.829  1.1269 -0.7247 -0.7859
 1340SOL    HW215480   2.497   3.496   9.722 -0.4206 -0.4482  0.0900
 1341SOL     OW15481   2.987   1.782   5.741  0.4427  0.4221 -0.2769
 1341SOL    HW115482   2.906   1.800   5.789  0.6333  0.0818  0.1750
 1341SOL    HW215483   2.980   1.688   5.724  1.1087  0.6255 -1.7515
 1342SOL     OW15484   1.963   3.930   6.229  0.0584  0.0798  0.2814
 1342SOL    HW115485   2.016   3.871   6.175 -0.5644  0.7498 -1.0578
 1342SOL    HW215486   2.008   4.014   6.237 -0.5470  0.4231  0.0779
 1343SOL     OW15487   2.173   0.360   6.958 -0.1829 -0.3271 -0.1217
 1343SOL    HW115488   2.086   0.328   6.982  0.3866 -0.9037  1.1652
 1343SOL    HW215489   2.227   0.321   7.027  1.9326 -0.1398 -1.6394
 1344SOL     OW15490   2.535   3.450   7.046 -0.2553  0.5004  0.5147
 1344SOL    HW115491   2.483   3.414   6.974  1.9592 -1.4031 -0.1606
 1344SOL    HW215492   2.480   3.414   7.116 -1.0854 -0.2544 -0.5301
 1345SOL     OW15493   3.602   3.685   1.174 -0.1058  0.0836 -0.5290
 1345SOL    HW115494   3.654   3.633   1.114  2.7066  1.1066  1.0267
 1345SOL    HW215495   3.548   3.613   1.206 -1.4416  1.5597  0.5980
 1346SOL     OW15496   4.557   4.162   5.494 -0.2871  0.2736  0.1199
 1346SOL    HW115497   4.464   4.145   5.475  0.4550 -2.7964 -0.7367
 1346SOL    HW215498   4.569   4.243   5.444 -2.1057  0.4818  0.0132
 1347SOL     OW15499   1.452   0.931  11.612  0.1028 -0.3506 -0.0438
 1347SOL    HW115500   1.471   1.022  11.586  3.0786 -0.3858  2.0508
 1347SOL    HW215501   1.391   0.890  11.551  0.9869  1.0348 -1.8663
 1348SOL     OW15502   4.378   0.732   4.815  0.2446 -0.2489 -0.1843
 1348SOL    HW115503   4.345   0.820   4.835 -1.0521 -0.3575 -1.7896
 1348SOL    HW215504   4.302   0.707   4.762 -0.5091 -0.5178  1.0142
 1349SOL     OW15505   1.413   3.648   7.791 -0.3237  0.1678 -0.0529
 1349SOL    HW115506   1.509   3.643   7.793 -0.3028  0.7776  0.4521
 1349SOL    HW215507   1.392   3.700   7.868  0.7365  1.2740 -0.5052
 1350SOL     OW15508   2.247   3.874   3.070  0.4460 -0.3736 -0.5677
 1350SOL    HW115509   2.308   3.911   3.007  0.8797 -1.0347 -0.5409
 1350SOL    HW215510   2.226   3.803   3.010  1.3531 -0.2915 -0.9890
 1351SOL     OW15511   0.209   3.796   3.405 -0.5672 -0.7957 -0.0851
 1351SOL    HW115512   0.127   3.750   3.423 -0.2964 -2.1139 -2.2287
 1351SOL    HW215513   0.247   3.726   3.352  2.2511  0.6910 -0.0242
 1352SOL     OW15514   3.815   3.193   3.459 -0.1041  0.7254 -0.2756
 1352SOL    HW115515   3.761   3.136   3.404 -2.3356  0.4608  2.2112
 1352SOL    HW215516   3.756   3.232   3.522 -0.3444  0.5430 -0.3876
 1353SOL     OW15517   2.796   4.121   3.258  0.1005  0.2111 -0.1712
 1353SOL    HW115518   2.838   4.037   3.239  0.2494  0.1699  0.3299
 1353SOL    HW215519   2.754   4.084   3.336 -0.0096  0.6798 -0.0092
 1354SOL     OW15520   2.785   0.849  10.389  0.0804  0.7218 -0.6454
 1354SOL    HW115521   2.855   0.829  10.452 -0.6164  0.3662  0.0238
 1354SOL    HW215522   2.818   0.817  10.305  1.7720  2.0548 -0.4862
 1355SOL     OW15523   1.684   2.614   4.301  0.6196 -0.3999  0.4834
 1355SOL    HW115524   1.690   2.682   4.367  1.3631  1.5126 -1.5634
 1355SOL    HW215525   1.681   2.538   4.359  0.2454 -0.7840 -0.0377
 1356SOL     OW15526   2.440   3.388  12.821  0.0662 -0.2568  0.3119
 1356SOL    HW115527   2.527   3.363  12.853  0.2626 -0.9677 -0.7766
 1356SOL    HW215528   2.472   3.421  12.737 -2.1310  1.5944  0.1900
 1357SOL     OW15529   1.706   1.138   3.227 -0.6148  0.1226 -0.4333
 1357SOL    HW115530   1.740   1.061   3.181  0.6963 -0.6742  1.8874
 1357SOL    HW215531   1.756   1.124   3.307 -3.4467 -1.3290  1.0834
 1358SOL     OW15532   0.020   3.791   1.743  0.2565  0.1929  0.8476
 1358SOL    HW115533   0.055   3.730   1.808  3.3690 -0.6070 -1.6007
 1358SOL    HW215534   0.071   3.869   1.763  1.3356 -0.1500 -0.6073
 1359SOL     OW15535   4.249   0.207   5.413 -0.5379 -0.2934  0.3456
 1359SOL    HW115536   4.338   0.208   5.378  0.0662  2.3447  1.9818
 1359SOL    HW215537   4.230   0.114   5.424 -0.3074 -0.3932 -0.0757
 1360SOL     OW15538   3.370   4.140   3.483 -0.3054 -0.4125  0.5303
 1360SOL    HW115539   3.290   4.158   3.532 -0.3954  2.7730 -0.8138
 1360SOL    HW215540   3.349   4.178   3.398 -0.6562  0.5103  1.0340
 1361SOL     OW15541   3.835   3.272   9.649 -0.3199  0.4586 -0.5021
 1361SOL    HW115542   3.884   3.265   9.731 -0.2910  1.2896 -0.4473
 1361SOL    HW215543   3.748   3.246   9.681 -1.4863  2.9263 -1.6143
 1362SOL     OW15544   0.057   2.299   8.965 -0.5294 -0.2295  0.3047
 1362SOL    HW115545   0.092   2.351   8.893 -2.3227 -0.7276 -0.9008
 1362SOL    HW215546   0.032   2.359   9.035  1.8940  2.6187 -1.2561
 1363SOL     OW15547   4.127   3.073   9.354 -0.1417  0.1525  0.0579
 1363SOL    HW115548   4.099   3.094   9.443 -0.3314  1.8831 -0.3949
 1363SOL    HW215549   4.062   3.013   9.317  2.2869 -3.1819  1.2680
 1364SOL     OW15550   1.949   2.493  13.801 -1.0994  0.3753  0.1239
 1364SOL    HW115551   1.967   2.402  13.777  1.3788  0.5511  1.2879
 1364SOL    HW215552   2.006   2.498  13.878  0.5596  0.2390 -1.0932
 1365SOL     OW15553   2.665   3.927   9.953  0.2937  0.1299  0.5049
 1365SOL    HW115554   2.605   4.000   9.941 -0.1727 -0.3024  0.2207
 1365SOL    HW215555   2.730   3.944   9.885  0.1848  0.3608  0.4581
 1366SOL     OW15556   0.287   4.036   4.020 -0.3453  0.2942  0.4780
 1366SOL    HW115557   0.350   4.070   3.957 -0.1903 -0.1240  0.4040
 1366SOL    HW215558   0.213   4.096   4.014  1.5361  2.8656  3.0253
 1367SOL     OW15559   1.668   3.950  16.107  0.2180 -0.7699 -0.5681
 1367SOL    HW115560   1.761   3.971  16.097  0.0916 -0.0310 -0.2485
 1367SOL    HW215561   1.637   4.033  16.144 -1.7705 -1.8279  0.1221
 1368SOL     OW15562   0.566   1.934   2.613  0.1293 -0.1756 -0.1413
 1368SOL    HW115563   0.476   1.941   2.582  0.3569 -0.2749 -0.8284
 1368SOL    HW215564   0.621   1.955   2.538  0.3248  2.5623  0.7441
 1369SOL     OW15565   4.615   2.514  12.866 -0.4634 -0.0205  0.5037
 1369SOL    HW115566   4.638   2.423  12.887  0.7976 -0.0867 -1.1732
 1369SOL    HW215567   4.539   2.534  12.921 -0.9376 -1.5872  0.4101
 1370SOL     OW15568   1.329   1.150   6.582  0.3819  0.5676  0.3646
 1370SOL    HW115569   1.316   1.167   6.489 -3.0711  2.4403  1.1675
 1370SOL    HW215570   1.338   1.056   6.569  1.4377  0.3305  2.8049
 1371SOL     OW15571   3.194   4.546   8.066  0.2564 -0.1913  0.1579
 1371SOL    HW115572   3.178   4.493   8.144 -1.6970 -0.6036 -0.5190
 1371SOL    HW215573   3.145   4.625   8.088 -0.0418 -0.4445  0.3985
 1372SOL     OW15574   2.683   0.687  17.391 -0.4583  0.3147  0.3308
 1372SOL    HW115575   2.733   0.627  17.336 -2.1481  0.4883 -1.3850
 1372SOL    HW215576   2.728   0.772  17.383  0.0556  0.0316  0.2324
 1373SOL     OW15577   0.949   2.989  12.836  0.3048  0.8146  1.0225
 1373SOL    HW115578   0.893   2.971  12.760  0.7143  2.2174  0.3844
 1373SOL    HW215579   0.893   2.998  12.913 -0.1775 -3.0249  1.1129
 1374SOL     OW15580   2.809   0.397  16.834 -0.0790 -0.5207 -0.0560
 1374SOL    HW115581   2.873   0.332  16.864 -0.4000 -0.2200  1.2798
 1374SOL    HW215582   2.801   0.464  16.902  0.1962  0.1140 -0.6364
 1375SOL     OW15583   1.918   4.065   6.987  0.3713 -0.4747 -0.7566
 1375SOL    HW115584   1.893   3.973   6.980 -1.8764  0.0147  0.5656
 1375SOL    HW215585   2.008   4.064   7.020  0.6823 -0.8708 -1.6360
 1376SOL     OW15586   3.142   2.570   5.944 -1.1731  0.2909 -0.0287
 1376SOL    HW115587   3.222   2.519   5.958 -0.3964  1.9182  1.3756
 1376SOL    HW215588   3.079   2.532   6.006 -1.3287  1.0530  0.2796
 1377SOL     OW15589   2.866   2.009   3.159 -0.2108 -0.3321 -0.3325
 1377SOL    HW115590   2.839   1.989   3.069 -1.8601  2.0124 -0.3438
 1377SOL    HW215591   2.779   2.035   3.188 -0.0988  0.0093 -0.3039
 1378SOL     OW15592   0.163   4.121   5.233 -0.5559 -0.1030 -0.5100
 1378SOL    HW115593   0.127   4.203   5.266 -0.0842 -0.7703  1.6621
 1378SOL    HW215594   0.233   4.150   5.174 -0.7319  0.5274 -0.4028
 1379SOL     OW15595   0.505   2.469  10.239  0.5544 -0.2526  0.3310
 1379SOL    HW115596   0.577   2.406  10.249 -0.3395 -1.2411  0.5372
 1379SOL    HW215597   0.525   2.526  10.313  1.3072  1.4703 -1.1843
 1380SOL     OW15598   2.794   3.402  15.342 -0.4521  0.6743  0.0951
 1380SOL    HW115599   2.751   3.322  15.373  1.2330  0.2396  1.3023
 1380SOL    HW215600   2.880   3.375  15.375  0.1926  3.4673  0.7013
 1381SOL     OW15601   1.362   3.650   6.398 -1.0570  0.0512 -0.0512
 1381SOL    HW115602   1.362   3.723   6.461  0.7810  0.6381 -0.7305
 1381SOL    HW215603   1.441   3.608   6.432  0.0708  1.5170 -0.8766
 1382SOL     OW15604   2.837   1.872   6.608  0.0240 -0.2103 -0.0614
 1382SOL    HW115605   2.861   1.799   6.551  2.2650  0.7863 -0.3900
 1382SOL    HW215606   2.750   1.847   6.640 -0.3668 -0.6052 -1.4266
 1383SOL     OW15607   4.213   1.837   7.795 -0.3167  0.1461 -0.3488
 1383SOL    HW115608   4.165   1.846   7.713  0.6495 -3.5335 -1.2917
 1383SOL    HW215609   4.246   1.927   7.799  0.3252 -0.1083  0.0705
 1384SOL     OW15610   4.250   4.209   8.134 -0.8311  0.0905  0.1421
 1384SOL    HW115611   4.227   4.183   8.045  1.3351 -2.7202  0.3775
 1384SOL    HW215612   4.280   4.299   8.124 -1.4090  0.1006 -1.3752
 1385SOL     OW15613   2.954   1.859   5.176  0.5351  0.1464 -0.3401
 1385SOL    HW115614   2.860   1.846   5.191  0.4312  0.8691 -0.3829
 1385SOL    HW215615   2.983   1.879   5.265  2.7942 -2.1747 -0.5444
 1386SOL     OW15616   2.237   3.211  12.916  0.0994 -0.3658 -0.3409
 1386SOL    HW115617   2.307   3.257  12.870  2.2711 -0.4197  2.9220
 1386SOL    HW215618   2.296   3.141  12.944  1.1392 -0.0323 -1.7185
 1387SOL     OW15619   2.973   4.027  14.699 -0.3525  0.2586 -0.3201
 1387SOL    HW115620   2.995   4.097  14.637 -2.3950  0.5710 -0.6937
 1387SOL    HW215621   2.929   3.960  14.647  1.3385 -1.2087  0.1266
 1388SOL     OW15622   1.464   1.446  16.281  0.5501 -0.1299 -0.1198
 1388SOL    HW115623   1.431   1.359  16.260 -1.0189  0.1051  1.4244
 1388SOL    HW215624   1.472   1.489  16.196  1.8251  0.6056  0.3745
 1389SOL     OW15625   2.599   4.643  11.536 -0.1697 -0.3993  0.1277
 1389SOL    HW115626   2.618   0.004  11.498 -2.1148 -1.6078 -3.4723
 1389SOL    HW215627   2.603   4.586  11.459  0.0661 -1.4478  0.9086
 1390SOL     OW15628   3.028   2.994  14.867  0.5074  0.0145 -0.0577
 1390SOL    HW115629   2.950   2.994  14.922  0.1259 -2.1283 -0.5992
 1390SOL    HW215630   3.018   3.085  14.837  0.9071  0.2628  0.5669
 1391SOL     OW15631   3.229   1.047   5.964  0.5445 -0.3909 -0.4425
 1391SOL    HW115632   3.144   1.087   5.979  0.7541 -0.2023  0.2261
 1391SOL    HW215633   3.202   0.984   5.897  1.4102 -3.0380  1.7070
 1392SOL     OW15634   2.486   4.538   1.052 -0.2039  1.0093  0.1032
 1392SOL    HW115635   2.524   4.451   1.039 -2.1022 -0.0758  1.6110
 1392SOL    HW215636   2.557   4.588   1.091  0.5353  1.2407 -1.5684
 1393SOL     OW15637   0.184   0.487   6.829 -0.2105  0.7239 -0.4720
 1393SOL    HW115638   0.114   0.545   6.861 -1.1239 -2.0769  2.5826
 1393SOL    HW215639   0.154   0.494   6.738  0.1626  0.6430 -0.6024
 1394SOL     OW15640   2.918   4.478   0.355  0.4083  0.5538  0.1731
 1394SOL    HW115641   2.913   4.431   0.272 -1.3389 -0.9259  1.0940
 1394SOL    HW215642   2.960   4.403   0.399 -2.5335 -1.4573 -0.4508
 1395SOL     OW15643   1.927   3.510   0.966 -0.0264 -0.1742  0.1450
 1395SOL    HW115644   1.991   3.569   1.006  0.7005 -1.0596  0.3035
 1395SOL    HW215645   1.893   3.572   0.902  1.0215 -1.2802 -1.4937
 1396SOL     OW15646   2.214   1.915  11.860  0.1973 -1.1785 -0.0561
 1396SOL    HW115647   2.131   1.952  11.892  0.8342 -0.0951  0.3409
 1396SOL    HW215648   2.258   1.897  11.943 -2.5023  0.7271  1.7863
 1397SOL     OW15649   3.120   4.250  15.367 -0.0302 -0.1315  0.0765
 1397SOL    HW115650   3.173   4.216  15.438  2.1078  0.2701 -1.3312
 1397SOL    HW215651   3.145   4.194  15.293  0.4443  0.2767 -0.0720
 1398SOL     OW15652   0.543   2.845   9.134 -0.2089  0.0288 -0.5152
 1398SOL    HW115653   0.628   2.862   9.176 -0.8744 -1.3005  1.3903
 1398SOL    HW215654   0.572   2.824   9.045 -0.4866  0.6387 -0.7456
 1399SOL     OW15655   1.580   2.082   4.161 -0.2039 -0.3180  0.9396
 1399SOL    HW115656   1.639   2.158   4.166  2.0747 -2.0388  0.1300
 1399SOL    HW215657   1.637   2.027   4.215 -0.0219 -2.2183 -1.1890
 1400SOL     OW15658   3.112   3.099   5.566  0.0800  0.0179  0.1548
 1400SOL    HW115659   3.108   3.004   5.576 -0.8064 -0.0009 -0.3277
 1400SOL    HW215660   3.030   3.102   5.517 -1.0759 -2.9127  1.8686
 1401SOL     OW15661   0.260   1.938   5.704 -0.1297 -0.4752 -0.4560
 1401SOL    HW115662   0.311   1.961   5.782 -0.1445 -1.7531 -0.0676
 1401SOL    HW215663   0.172   1.961   5.734  0.8253  2.8786 -0.1742
 1402SOL     OW15664   4.004   2.103   4.545  0.0166 -0.1966 -0.2226
 1402SOL    HW115665   3.990   2.016   4.508 -0.0049 -0.9031  1.4935
 1402SOL    HW215666   4.002   2.083   4.638 -1.7294 -1.4493 -0.5502
 1403SOL     OW15667   2.424   3.803   3.269  0.3197  0.0298  0.2815
 1403SOL    HW115668   2.380   3.865   3.328 -2.2138 -1.4620 -0.0854
 1403SOL    HW215669   2.363   3.822   3.198  0.0011  0.3181  0.6280
 1404SOL     OW15670   4.112   4.486  16.237  0.2467  0.1017 -0.0220
 1404SOL    HW115671   4.054   4.523  16.171 -1.7161 -0.5448  1.3601
 1404SOL    HW215672   4.162   4.431  16.175  1.1235  0.9413 -0.0566
 1405SOL     OW15673   2.116   4.148   6.253  0.3020  0.3351  0.6451
 1405SOL    HW115674   2.095   4.203   6.177  0.8075 -2.4162 -1.4852
 1405SOL    HW215675   2.179   4.201   6.301  0.2417  0.8793  0.1207
 1406SOL     OW15676   2.624   0.340   0.965 -0.1631  0.1901  0.0625
 1406SOL    HW115677   2.613   0.255   1.007  0.6558  0.2087  0.3139
 1406SOL    HW215678   2.575   0.398   1.023  1.4641  1.2137  0.3917
 1407SOL     OW15679   2.531   0.182  14.560  0.0370  0.9795 -0.1510
 1407SOL    HW115680   2.496   0.095  14.577 -0.0754  1.3474  1.4492
 1407SOL    HW215681   2.551   0.170  14.467 -1.5807 -0.4686 -0.3194
 1408SOL     OW15682   1.725   0.688   9.831 -0.0836 -0.3413  0.2206
 1408SOL    HW115683   1.804   0.741   9.842  0.2352 -0.5608 -1.0313
 1408SOL    HW215684   1.666   0.752   9.793 -2.1864  0.4701  4.8624
 1409SOL     OW15685   0.078   2.973   4.283 -0.5281  0.1939 -0.5475
 1409SOL    HW115686   0.054   2.904   4.344 -1.2600  0.1718 -0.8590
 1409SOL    HW215687   0.159   3.003   4.326 -0.1284  1.0865 -1.9178
 1410SOL     OW15688   2.956   3.248   2.542  0.1929  0.1894  0.0596
 1410SOL    HW115689   2.997   3.232   2.457 -0.1464 -1.2686  0.1584
 1410SOL    HW215690   2.919   3.163   2.567 -0.4693  0.1336 -1.0957
 1411SOL     OW15691   2.199   2.514   3.058 -0.1296  0.3346  0.2801
 1411SOL    HW115692   2.122   2.501   3.114  0.2012  1.0278  0.8993
 1411SOL    HW215693   2.275   2.485   3.108  0.9154  1.3182 -0.7236
 1412SOL     OW15694   0.513   0.827  13.109 -0.2786 -0.4586  0.1131
 1412SOL    HW115695   0.563   0.881  13.048  0.0375  0.1950  0.9588
 1412SOL    HW215696   0.448   0.787  13.051 -0.6056 -0.4539  0.4786
 1413SOL     OW15697   0.586   0.924   5.599  0.6092  0.0009 -0.5956
 1413SOL    HW115698   0.507   0.949   5.647 -0.7610 -4.0760 -0.7048
 1413SOL    HW215699   0.620   0.859   5.661 -0.2146  0.3351  0.2051
 1414SOL     OW15700   3.888   1.207  11.590  0.3310 -0.0323 -0.2453
 1414SOL    HW115701   3.887   1.153  11.511  0.0504 -0.9776  0.4056
 1414SOL    HW215702   3.974   1.180  11.624  0.0805 -1.6819 -0.9592
 1415SOL     OW15703   4.569   1.075  17.657 -0.0396 -0.0651  0.1215
 1415SOL    HW115704   4.530   1.063  17.571 -1.7190  1.7416  0.6021
 1415SOL    HW215705   4.494   1.057   0.016  1.2785 -0.6189  1.6663
 1416SOL     OW15706   3.521   1.490   2.000 -0.0917 -0.1525  0.6225
 1416SOL    HW115707   3.520   1.399   2.027  0.1388 -0.4985 -0.5193
 1416SOL    HW215708   3.512   1.472   1.906  0.4177 -1.2714  0.7888
 1417SOL     OW15709   0.078   4.269  12.221 -0.1112 -0.1031 -0.1359
 1417SOL    HW115710   0.102   4.358  12.246 -2.4582  1.3668 -3.1168
 1417SOL    HW215711   0.161   4.228  12.243 -1.1400 -2.0945  0.0576
 1418SOL     OW15712   1.653   1.499   8.242  0.5926  0.0746 -0.3290
 1418SOL    HW115713   1.670   1.408   8.219 -0.5755  0.4552 -2.6529
 1418SOL    HW215714   1.629   1.538   8.158 -0.0240 -1.2897 -0.7850
 1419SOL     OW15715   2.156   4.622   4.775 -0.1287  0.1835  0.0971
 1419SOL    HW115716   2.133   4.599   4.865 -0.6235  1.0374  0.1906
 1419SOL    HW215717   2.251   4.608   4.775 -0.3920 -1.6426  1.1905
 1420SOL     OW15718   1.713   1.204  10.814 -0.1946  0.3325 -0.0450
 1420SOL    HW115719   1.770   1.244  10.880 -0.2306  0.1521  0.0943
 1420SOL    HW215720   1.745   1.114  10.804  0.5391  0.6310 -0.4006
 1421SOL     OW15721   0.456   2.872   6.822  1.1684 -0.3803  0.0930
 1421SOL    HW115722   0.386   2.815   6.790 -0.6524  1.7806  0.2868
 1421SOL    HW215723   0.498   2.894   6.739  0.4064 -1.1233 -0.4916
 1422SOL     OW15724   0.068   2.119   9.193  0.4855 -0.3726 -0.4493
 1422SOL    HW115725   0.056   2.121   9.098  0.6794  0.9595 -0.4423
 1422SOL    HW215726   0.160   2.144   9.195 -0.1904  2.2152 -3.4495
 1423SOL     OW15727   0.830   2.741   5.918  0.0759 -0.3816  0.0808
 1423SOL    HW115728   0.803   2.798   5.846  1.3496 -1.1087 -0.9697
 1423SOL    HW215729   0.746   2.739   5.963 -1.5661  0.4098 -2.9358
 1424SOL     OW15730   0.598   1.872   8.559  0.1510  0.1201 -0.2891
 1424SOL    HW115731   0.602   1.877   8.655  3.5603  0.4630 -0.4441
 1424SOL    HW215732   0.532   1.938   8.536  0.5804  0.5591 -0.2753
 1425SOL     OW15733   4.319   2.262   1.888  0.2487 -0.4013  0.6174
 1425SOL    HW115734   4.303   2.355   1.898 -1.2818 -0.3653 -2.0718
 1425SOL    HW215735   4.229   2.229   1.881 -0.4148  1.3319  0.9997
 1426SOL     OW15736   3.594   0.871   4.087  0.0857  0.0383  0.4412
 1426SOL    HW115737   3.570   0.813   4.159  0.2470 -0.0319  0.4400
 1426SOL    HW215738   3.668   0.820   4.055  0.6900  0.0599  1.7854
 1427SOL     OW15739   1.266   0.896   9.066 -0.6630  0.0923 -0.6625
 1427SOL    HW115740   1.332   0.882   8.997 -1.0370  2.5848 -1.5318
 1427SOL    HW215741   1.302   0.975   9.106  2.5337 -0.9836 -1.3718
 1428SOL     OW15742   2.402   4.691   3.569  1.0797  0.5038 -0.0040
 1428SOL    HW115743   2.353   4.675   3.488  0.9488  0.4497  0.0859
 1428SOL    HW215744   2.412   0.061   3.561 -0.7279  0.8917  2.7495
 1429SOL     OW15745   2.097   1.993  15.932 -0.1990  0.0973  0.1970
 1429SOL    HW115746   2.054   1.922  15.883 -1.9560  1.8130 -0.7466
 1429SOL    HW215747   2.024   2.000  15.993  0.2284 -1.2338  0.8650
 1430SOL     OW15748   1.610   2.752   0.631  0.4265 -0.3141  0.3736
 1430SOL    HW115749   1.669   2.798   0.691 -2.1856  1.3545  1.6347
 1430SOL    HW215750   1.576   2.829   0.587 -1.5130 -0.7755  1.0375
 1431SOL     OW15751   1.666   1.888   5.713 -0.7425 -0.1820  0.2254
 1431SOL    HW115752   1.575   1.917   5.712 -0.5318  0.5030  1.4944
 1431SOL    HW215753   1.698   1.905   5.624 -1.3982  0.3766  0.0971
 1432SOL     OW15754   4.502   1.314   6.190 -0.0987 -0.2265 -0.4716
 1432SOL    HW115755   4.466   1.226   6.177 -0.4623 -0.0814 -0.4541
 1432SOL    HW215756   4.536   1.341   6.105  0.1968 -0.7519 -0.5232
 1433SOL     OW15757   2.948   1.020  14.209  0.0353  0.5492 -0.3389
 1433SOL    HW115758   2.944   1.116  14.212  1.2999  0.5706  0.9069
 1433SOL    HW215759   3.043   1.010  14.217 -0.2746 -1.5201  0.8634
 1434SOL     OW15760   4.251   3.232   4.805 -0.2981  0.5191 -0.2546
 1434SOL    HW115761   4.346   3.244   4.808 -0.3795  1.0274  0.3097
 1434SOL    HW215762   4.230   3.248   4.897  0.1428  1.0856 -0.2544
 1435SOL     OW15763   3.432   3.167   8.390  0.4677  0.1861 -0.4024
 1435SOL    HW115764   3.377   3.241   8.419 -1.1800 -2.2812  2.7830
 1435SOL    HW215765   3.391   3.095   8.437 -0.0084  0.9854  0.4218
 1436SOL     OW15766   0.242   4.409  13.220 -0.3133  0.5084 -0.2372
 1436SOL    HW115767   0.325   4.387  13.262 -0.8242 -1.0310 -0.0114
 1436SOL    HW215768   0.276   4.455  13.143  2.3559  1.8379  1.7304
 1437SOL     OW15769   3.143   2.989   4.461  0.9685 -0.3181  0.0337
 1437SOL    HW115770   3.133   3.014   4.369  0.6022 -0.8102 -0.0610
 1437SOL    HW215771   3.235   2.995   4.484  1.4705  1.8677 -2.5339
 1438SOL     OW15772   3.564   1.741   5.052 -0.1799 -0.2534  0.0159
 1438SOL    HW115773   3.626   1.700   5.112  0.1745 -0.6270 -0.6116
 1438SOL    HW215774   3.598   1.713   4.967  1.2895 -1.0161  0.8600
 1439SOL     OW15775   2.733   2.620   3.192 -0.7797  0.0331 -0.0433
 1439SOL    HW115776   2.815   2.644   3.235 -0.0773 -3.3832  0.5868
 1439SOL    HW215777   2.689   2.704   3.202  0.4720  0.4768  1.6921
 1440SOL     OW15778   3.114   1.598   8.257  0.7270 -0.3828  0.3487
 1440SOL    HW115779   3.085   1.680   8.297 -0.4933 -0.1775 -0.9574
 1440SOL    HW215780   3.197   1.597   8.305  0.2908  1.1596  1.1221
 1441SOL     OW15781   2.282   1.009   5.042  0.2611  0.1958  0.3157
 1441SOL    HW115782   2.331   1.007   5.124 -0.2494 -0.1998  0.6089
 1441SOL    HW215783   2.201   1.058   5.054 -0.4376 -0.9721  0.3246
 1442SOL     OW15784   4.036   4.095  15.382 -0.2795  0.2915  0.6613
 1442SOL    HW115785   4.003   4.019  15.334 -0.2342 -0.1281  1.2930
 1442SOL    HW215786   4.047   4.064  15.472 -1.4273 -0.3746  0.5732
 1443SOL     OW15787   4.704   4.257   7.801  0.2880  0.2023 -0.1346
 1443SOL    HW115788   0.053   4.312   7.829 -0.3137 -0.2212  2.2761
 1443SOL    HW215789   0.017   4.227   7.718  0.5829 -0.3805  0.2027
 1444SOL     OW15790   4.264   2.702  14.430  0.4335 -0.6124 -0.7230
 1444SOL    HW115791   4.304   2.789  14.421 -1.5527  0.4080  0.5133
 1444SOL    HW215792   4.345   2.655  14.405  2.1289  2.1615 -0.4323
 1445SOL     OW15793   4.680   1.867   3.123 -0.1461  0.1338  0.0452
 1445SOL    HW115794   0.007   1.884   3.044 -1.8885 -2.3869 -1.6420
 1445SOL    HW215795   4.677   1.772   3.128 -0.9940  0.1833  0.4989
 1446SOL     OW15796   0.498   1.428   3.727  0.3172 -0.5167  0.4714
 1446SOL    HW115797   0.557   1.417   3.653 -0.5555  1.3078 -0.4861
 1446SOL    HW215798   0.546   1.402   3.806  1.5681 -0.4497 -0.2666
 1447SOL     OW15799   1.529   1.325   5.135  0.0604 -0.6929 -0.7173
 1447SOL    HW115800   1.582   1.380   5.192 -1.3125  1.0208 -1.0939
 1447SOL    HW215801   1.443   1.354   5.164  0.7932  0.9187 -0.1744
 1448SOL     OW15802   1.259   1.350   4.195  0.0107  0.1130 -0.6457
 1448SOL    HW115803   1.218   1.436   4.195 -3.1273 -1.4154  3.4839
 1448SOL    HW215804   1.330   1.386   4.142 -0.0735  0.2719 -0.6497
 1449SOL     OW15805   2.219   2.792  11.619  0.1132  0.4386  0.2093
 1449SOL    HW115806   2.162   2.761  11.548 -1.2949  1.6846  0.7941
 1449SOL    HW215807   2.297   2.826  11.575  0.5182 -1.4498 -0.5006
 1450SOL     OW15808   2.671   4.705  16.114 -0.1299  0.3968 -0.4021
 1450SOL    HW115809   2.625   4.696  16.197 -0.1208 -0.3965 -0.4812
 1450SOL    HW215810   2.613   0.051  16.086  1.3674  1.3240 -1.1912
 1451SOL     OW15811   0.184   1.878  12.111  0.1402  0.2937 -0.1309
 1451SOL    HW115812   0.100   1.876  12.157  0.5471 -1.6994  0.5495
 1451SOL    HW215813   0.224   1.939  12.173 -2.7259  1.1090  0.9370
 1452SOL     OW15814   0.105   4.313   6.620  0.5421  0.5467  0.0428
 1452SOL    HW115815   0.013   4.286   6.626  0.9733 -1.4209 -2.6790
 1452SOL    HW215816   0.106   4.354   6.707  0.4945 -1.5954  1.0702
 1453SOL     OW15817   1.654   3.879   0.271  0.2649  0.9220 -0.0020
 1453SOL    HW115818   1.698   3.803   0.232  0.7213  1.1968 -0.0247
 1453SOL    HW215819   1.628   3.847   0.358  0.7730  0.1290 -0.1343
 1454SOL     OW15820   4.361   1.640  15.130 -0.0752 -0.1522 -0.5860
 1454SOL    HW115821   4.289   1.641  15.193  1.3379 -0.7378  1.0547
 1454SOL    HW215822   4.345   1.724  15.089 -1.3687 -0.4532 -0.6798
 1455SOL     OW15823   2.174   3.051  11.016 -0.0115 -0.1090  0.1608
 1455SOL    HW115824   2.250   3.029  10.962  0.1104  2.0126 -0.5560
 1455SOL    HW215825   2.159   3.141  10.988  0.2148  0.3171  1.3998
 1456SOL     OW15826   3.062   0.403   2.851 -0.3360  0.9271  0.2757
 1456SOL    HW115827   3.072   0.408   2.756  0.0019  1.4816  0.3422
 1456SOL    HW215828   3.097   0.315   2.866  0.8897  1.7651  2.4226
 1457SOL     OW15829   3.157   0.175   4.957 -0.4544 -0.0699  0.1112
 1457SOL    HW115830   3.115   0.238   4.900 -0.4216  2.0301  2.3948
 1457SOL    HW215831   3.187   0.234   5.027 -1.1769 -1.2282  1.4042
 1458SOL     OW15832   3.164   1.509   3.002  0.2364 -0.2889  0.0988
 1458SOL    HW115833   3.129   1.593   2.971  1.5317  0.9450  1.8932
 1458SOL    HW215834   3.144   1.464   2.920  1.0600 -1.2938  0.4452
 1459SOL     OW15835   2.430   4.658  14.595 -0.4112  0.1076  0.3995
 1459SOL    HW115836   2.464   4.634  14.681  1.5680 -1.3542 -0.7928
 1459SOL    HW215837   2.429   4.568  14.563 -1.9606 -1.3723  4.6349
 1460SOL     OW15838   0.722   1.928   7.536  1.0287 -0.5169  0.2299
 1460SOL    HW115839   0.692   2.014   7.567  1.5417 -0.6586  1.1104
 1460SOL    HW215840   0.787   1.944   7.468  2.7978 -3.7038  1.1781
 1461SOL     OW15841   1.067   0.276   0.757 -0.4223 -0.2204 -0.2677
 1461SOL    HW115842   1.095   0.343   0.820 -0.5950 -0.7081  0.3336
 1461SOL    HW215843   1.110   0.312   0.680  0.8689  1.0813  1.0564
 1462SOL     OW15844   0.979   2.284   4.815  0.0455  0.2654 -0.0566
 1462SOL    HW115845   1.015   2.196   4.823 -0.2185  0.0735 -0.9754
 1462SOL    HW215846   1.040   2.323   4.753  1.2240 -0.0058  0.9254
 1463SOL     OW15847   2.997   3.631   7.845 -0.6399 -0.4569 -0.4361
 1463SOL    HW115848   3.004   3.568   7.774 -0.7316  0.7702 -1.5208
 1463SOL    HW215849   2.935   3.694   7.807  0.0158  1.4293  1.5756
 1464SOL     OW15850   0.324   3.238   7.692 -0.0661 -0.4104 -0.1601
 1464SOL    HW115851   0.235   3.235   7.725  0.6200  0.1385  1.7540
 1464SOL    HW215852   0.339   3.145   7.708 -1.1153 -0.5228  0.1377
 1465SOL     OW15853   0.610   0.326   8.180  0.3160  0.1015 -0.1954
 1465SOL    HW115854   0.537   0.336   8.118  0.2113  0.5941  0.0048
 1465SOL    HW215855   0.606   0.233   8.202 -0.9918  0.3994  0.8292
 1466SOL     OW15856   0.329   2.025   6.725  0.0052  0.3665 -0.4556
 1466SOL    HW115857   0.386   2.056   6.655  0.6538  0.5147  0.1285
 1466SOL    HW215858   0.327   2.100   6.784  0.3863 -1.0021  1.3090
 1467SOL     OW15859   0.258   4.599  14.534 -0.7446 -0.0490 -0.4456
 1467SOL    HW115860   0.201   4.670  14.506 -1.6817  0.3695  2.4764
 1467SOL    HW215861   0.338   4.637  14.499 -0.6901  1.1876  0.9869
 1468SOL     OW15862   0.456   3.780  16.849  0.2342  0.1804  0.0327
 1468SOL    HW115863   0.448   3.689  16.878  0.3184 -0.2576 -1.2810
 1468SOL    HW215864   0.369   3.790  16.811 -0.3133 -1.0494  0.9725
 1469SOL     OW15865   3.671   2.220   7.833 -0.6259  0.0003 -0.1320
 1469SOL    HW115866   3.733   2.186   7.768  1.0200  1.7356  0.5520
 1469SOL    HW215867   3.592   2.228   7.780 -0.5021  0.3248 -0.2682
 1470SOL     OW15868   4.016   1.921   0.010 -0.1484 -0.6990 -0.1935
 1470SOL    HW115869   4.057   2.003   0.036  0.6605 -1.6733  1.5948
 1470SOL    HW215870   3.923   1.939   0.024 -1.0383 -4.3043 -1.4594
 1471SOL     OW15871   4.317   3.233   7.650 -0.0369 -0.1289  0.4195
 1471SOL    HW115872   4.234   3.280   7.649  0.6985  1.1287 -0.9535
 1471SOL    HW215873   4.284   3.143   7.652 -0.4367 -0.0127 -1.0339
 1472SOL     OW15874   0.983   3.863   2.215 -0.0502  0.6012 -0.3143
 1472SOL    HW115875   0.920   3.889   2.282  1.1034 -1.8604  1.7121
 1472SOL    HW215876   1.057   3.838   2.270 -0.2600 -2.7691 -1.5805
 1473SOL     OW15877   3.553   1.886   8.855 -0.2583  0.7190  0.1482
 1473SOL    HW115878   3.474   1.834   8.842 -1.1385  2.3559 -0.9994
 1473SOL    HW215879   3.624   1.854   8.799 -0.8053  2.0957 -1.3346
 1474SOL     OW15880   3.456   2.569   6.122 -0.3674 -0.6390  1.0033
 1474SOL    HW115881   3.432   2.516   6.198 -0.7840 -0.8720  0.7011
 1474SOL    HW215882   3.473   2.652   6.168  3.2014 -0.0968 -1.2883
 1475SOL     OW15883   0.298   1.103   4.913  0.1312 -0.0817  0.7513
 1475SOL    HW115884   0.312   1.012   4.886  1.1613 -0.3039  2.0958
 1475SOL    HW215885   0.207   1.106   4.881  0.4901  2.8384 -0.0094
 1476SOL     OW15886   4.430   1.108   9.271 -0.0859 -0.5075  0.2777
 1476SOL    HW115887   4.355   1.167   9.268  0.5940  0.4192  1.6244
 1476SOL    HW215888   4.483   1.142   9.343 -0.0297 -0.6978  0.3249
 1477SOL     OW15889   3.375   0.666   4.468  0.1076  0.4988 -0.7495
 1477SOL    HW115890   3.400   0.759   4.469 -1.6451  0.9748 -0.9408
 1477SOL    HW215891   3.430   0.638   4.395  3.2630  0.1624  1.7329
 1478SOL     OW15892   2.217   4.102   3.215 -0.5893  0.3220  0.8055
 1478SOL    HW115893   2.230   4.028   3.156  1.1629  1.5880 -0.3613
 1478SOL    HW215894   2.239   4.062   3.300 -1.4043  1.8236  1.7290
 1479SOL     OW15895   1.879   0.835   0.787 -0.5615 -0.0724 -0.1397
 1479SOL    HW115896   1.823   0.812   0.861 -0.9248 -0.7269 -0.6159
 1479SOL    HW215897   1.961   0.812   0.830  0.1347 -2.3695 -2.6995
 1480SOL     OW15898   2.288   1.210   2.629  0.0167 -0.0333  0.0958
 1480SOL    HW115899   2.246   1.206   2.715  2.5627 -1.9832  1.2351
 1480SOL    HW215900   2.354   1.141   2.638  0.4423  0.6198  1.8393
 1481SOL     OW15901   1.360   2.853   4.575  0.5063 -0.1175 -0.0918
 1481SOL    HW115902   1.390   2.763   4.559  2.4272  0.1956  1.8087
 1481SOL    HW215903   1.424   2.884   4.639  0.6048 -0.2203 -0.1398
 1482SOL     OW15904   4.358   4.020   6.815  0.0084 -0.0739  1.1699
 1482SOL    HW115905   4.330   4.003   6.905 -1.7098 -1.3413  0.3963
 1482SOL    HW215906   4.268   4.018   6.781  0.6380  0.4781 -0.5293
 1483SOL     OW15907   3.999   2.545  15.906 -0.2271  0.0173  0.2348
 1483SOL    HW115908   4.042   2.629  15.920 -0.9543 -0.1329  3.3809
 1483SOL    HW215909   3.910   2.579  15.901 -0.5114 -1.1288 -2.5396
 1484SOL     OW15910   4.645   4.480   0.953  0.0267 -0.2548  0.2687
 1484SOL    HW115911   4.699   4.559   0.961 -1.1393  0.5506  0.0379
 1484SOL    HW215912   4.673   4.425   1.026  1.5491 -0.0179 -0.1264
 1485SOL     OW15913   2.036   0.429   1.879 -0.0836  0.5579 -0.5296
 1485SOL    HW115914   2.072   0.434   1.790  0.9448 -1.3012 -0.2206
 1485SOL    HW215915   2.095   0.496   1.914 -0.2148  1.0829 -1.2970
 1486SOL     OW15916   2.483   1.688   5.887  0.1651 -0.1553 -0.0057
 1486SOL    HW115917   2.419   1.760   5.882  1.4701  0.9823 -0.4139
 1486SOL    HW215918   2.462   1.678   5.980  2.1231 -2.9123  0.1390
 1487SOL     OW15919   2.535   0.702  10.822 -0.2850  0.1776 -0.1248
 1487SOL    HW115920   2.619   0.657  10.834 -0.3173  0.0620 -0.3368
 1487SOL    HW215921   2.474   0.637  10.857  2.1545 -1.4689  1.0985
 1488SOL     OW15922   3.411   0.207   4.718  0.2661 -0.0523  0.1829
 1488SOL    HW115923   3.452   0.163   4.793 -1.9989 -1.6545  0.4847
 1488SOL    HW215924   3.414   0.301   4.738 -2.8854  0.4179 -1.5143
 1489SOL     OW15925   1.670   1.572   5.650 -0.0413 -0.1030  0.3765
 1489SOL    HW115926   1.654   1.503   5.714  2.2861 -0.5624  0.4321
 1489SOL    HW215927   1.584   1.616   5.646 -1.0537 -2.4380 -2.9678
 1490SOL     OW15928   3.126   1.707   4.010  0.3121 -0.6091 -0.2304
 1490SOL    HW115929   3.080   1.648   3.950 -0.8428 -0.9688  0.9980
 1490SOL    HW215930   3.164   1.768   3.947 -1.6237  2.0798  1.1648
 1491SOL     OW15931   4.652   3.398  16.451 -0.0737  0.0599 -0.0668
 1491SOL    HW115932   4.708   3.474  16.466  0.6167 -1.0281  2.7482
 1491SOL    HW215933   4.565   3.438  16.443 -1.0611 -2.3199 -1.1611
 1492SOL     OW15934   2.059   3.877   7.245  0.4905 -0.0433 -0.0430
 1492SOL    HW115935   2.057   3.915   7.333  0.7212  2.4086 -1.1205
 1492SOL    HW215936   2.146   3.905   7.217  0.5472  1.0432  1.2357
 1493SOL     OW15937   1.203   3.805  16.906  0.3125  0.3394 -0.3850
 1493SOL    HW115938   1.147   3.879  16.883 -2.9118 -1.5273  1.3729
 1493SOL    HW215939   1.172   3.781  16.994  1.0247  4.5461  0.9809
 1494SOL     OW15940   4.556   1.334  10.259  0.3292  0.1403  0.0665
 1494SOL    HW115941   4.571   1.300  10.348 -0.9183 -2.4002 -0.6731
 1494SOL    HW215942   4.505   1.263  10.220  0.0779  0.5343 -0.3090
 1495SOL     OW15943   3.518   1.040   7.821 -0.0298  0.7883  0.5201
 1495SOL    HW115944   3.538   0.947   7.811  1.6128  1.2713 -0.6467
 1495SOL    HW215945   3.479   1.060   7.736  0.6430  2.5945  0.6461
 1496SOL     OW15946   3.870   1.726  16.679 -0.2358 -0.0853  1.0124
 1496SOL    HW115947   3.782   1.756  16.656  0.6928  2.3251  0.6365
 1496SOL    HW215948   3.925   1.746  16.604 -2.0893 -2.5849 -1.0080
 1497SOL     OW15949   1.239   2.567   6.957  0.6229  0.2027 -0.1226
 1497SOL    HW115950   1.315   2.509   6.955  0.6196  0.2064 -0.3746
 1497SOL    HW215951   1.182   2.540   6.885  0.4273  0.3569 -0.0264
 1498SOL     OW15952   4.618   2.990   6.720 -0.0223  0.2525 -0.2066
 1498SOL    HW115953   4.654   2.946   6.643  1.2065 -1.3859  1.3210
 1498SOL    HW215954   4.698   3.029   6.756  0.8210 -0.5222 -1.2314
 1499SOL     OW15955   4.541   4.038   8.284 -0.0837 -0.1609  0.3791
 1499SOL    HW115956   4.609   4.055   8.218  0.0417 -0.3117  0.4687
 1499SOL    HW215957   4.588   4.006   8.361 -0.0339 -0.1549  0.3509
 1500SOL     OW15958   0.139   0.462   1.242 -0.3588  0.4122 -0.1027
 1500SOL    HW115959   0.078   0.536   1.239  1.0960  1.5378 -1.8023
 1500SOL    HW215960   0.213   0.495   1.191  0.2119 -0.4257  0.1891
 1501SOL     OW15961   4.312   1.559   5.541  0.1920  0.0593  0.3820
 1501SOL    HW115962   4.227   1.526   5.512  0.7414 -0.6463 -0.4206
 1501SOL    HW215963   4.296   1.652   5.559  0.7802  0.4094 -0.9047
 1502SOL     OW15964   1.700   2.850   2.291  0.5163  0.5372  0.5152
 1502SOL    HW115965   1.735   2.794   2.360  0.1885 -0.5052 -0.1657
 1502SOL    HW215966   1.682   2.928   2.344 -1.8011  1.5001 -1.6615
 1503SOL     OW15967   2.036   0.287   5.534 -0.1074  0.1122  0.2039
 1503SOL    HW115968   1.953   0.332   5.516 -0.2501  0.7066  2.3545
 1503SOL    HW215969   2.075   0.352   5.591  2.1547 -2.0962  1.1632
 1504SOL     OW15970   3.731   2.225   6.251  0.0123  0.6361 -0.0361
 1504SOL    HW115971   3.639   2.216   6.276 -0.4377  0.5965 -1.6949
 1504SOL    HW215972   3.772   2.286   6.312  1.3468  0.4789 -0.7792
 1505SOL     OW15973   1.940   0.472   2.476 -0.0084 -0.4511  0.3405
 1505SOL    HW115974   2.031   0.451   2.456 -0.8519 -3.2987 -0.5361
 1505SOL    HW215975   1.912   0.384   2.501  2.6216 -1.7749 -1.3663
 1506SOL     OW15976   2.182   3.617   4.896  0.4315  0.0358  0.3108
 1506SOL    HW115977   2.095   3.652   4.916  1.2425  2.3766 -0.2100
 1506SOL    HW215978   2.212   3.611   4.986 -0.3077  0.3650  0.5785
 1507SOL     OW15979   0.894   1.400  15.874 -0.3333  0.0226 -0.3677
 1507SOL    HW115980   0.957   1.330  15.890 -0.2597  0.0901 -0.3610
 1507SOL    HW215981   0.921   1.430  15.787  2.8148 -0.7372  0.3615
 1508SOL     OW15982   0.151   4.002   1.888 -0.0168 -0.4717  0.5357
 1508SOL    HW115983   0.207   3.953   1.948 -0.8504  1.3678  2.7825
 1508SOL    HW215984   0.089   4.028   1.956  1.2982  2.4509  0.6000
 1509SOL     OW15985   0.671   4.484   2.925 -0.2588  0.2748  0.6311
 1509SOL    HW115986   0.580   4.510   2.937 -1.0502 -1.2833 -1.9444
 1509SOL    HW215987   0.674   4.504   2.831 -0.7720  0.0852  0.5743
 1510SOL     OW15988   0.058   1.619   6.002  0.0908 -0.0721  0.1425
 1510SOL    HW115989   0.146   1.645   6.030  0.1960  0.3798 -0.5939
 1510SOL    HW215990   0.029   1.691   5.946  0.9052  0.7224  0.7379
 1511SOL     OW15991   2.809   0.798  14.334  0.0669  0.0010 -0.7881
 1511SOL    HW115992   2.873   0.734  14.302  0.8735 -0.4380  1.6826
 1511SOL    HW215993   2.850   0.877  14.301  0.6613  0.6111  1.4162
 1512SOL     OW15994   2.610   0.697   6.370  0.5689  0.1085  0.2892
 1512SOL    HW115995   2.526   0.736   6.396  0.9231  0.8166  0.3651
 1512SOL    HW215996   2.609   0.726   6.279  0.1487  1.0990  0.6069
 1513SOL     OW15997   3.406   3.155   3.967  0.6067  0.5478 -0.4952
 1513SOL    HW115998   3.388   3.062   3.981 -0.9974  0.7621 -1.0887
 1513SOL    HW215999   3.327   3.182   4.015 -0.9744 -3.5100 -0.8040
 1514SOL     OW16000   4.428   1.835   3.260 -0.1445  0.0029 -0.2119
 1514SOL    HW116001   4.509   1.860   3.214 -0.4039 -0.4978 -0.9408
 1514SOL    HW216002   4.365   1.883   3.207 -1.4584 -1.6531 -0.1475
 1515SOL     OW16003   0.131   3.787   2.551 -0.4074  0.0306 -0.6584
 1515SOL    HW116004   0.134   3.740   2.468 -1.5840 -2.1166  0.4898
 1515SOL    HW216005   0.055   3.840   2.527 -0.0843  0.9697  0.3844
 1516SOL     OW16006   4.604   4.511   8.582 -0.2203  0.2016 -0.2702
 1516SOL    HW116007   4.554   4.433   8.558 -1.5484  1.0451 -0.1879
 1516SOL    HW216008   4.560   4.588   8.547 -1.3470 -0.6458 -0.7112
 1517SOL     OW16009   2.259   0.779   0.266  0.4222 -0.2247  0.1985
 1517SOL    HW116010   2.176   0.776   0.218  0.8177 -0.8346 -0.4668
 1517SOL    HW216011   2.315   0.725   0.210  0.5125 -1.2835  1.3011
 1518SOL     OW16012   1.230   3.576  11.368 -0.1633  0.9441  0.3460
 1518SOL    HW116013   1.311   3.610  11.408  0.3730  1.3023 -1.0459
 1518SOL    HW216014   1.243   3.612  11.280  0.1471  0.0526  0.0268
 1519SOL     OW16015   2.564   4.228  12.659  0.0369  0.2426  0.2979
 1519SOL    HW116016   2.584   4.136  12.642 -2.6328 -0.3658  0.5497
 1519SOL    HW216017   2.649   4.262  12.630 -0.5991  1.2510 -0.3832
 1520SOL     OW16018   2.322   3.897  11.281  0.2041 -0.3359  0.6429
 1520SOL    HW116019   2.368   3.822  11.319  3.2760  0.2499 -1.9376
 1520SOL    HW216020   2.239   3.856  11.256 -1.6697  2.5235  2.1775
 1521SOL     OW16021   4.453   2.849  10.962  0.0607  0.4640  0.5627
 1521SOL    HW116022   4.545   2.873  10.968  0.5451 -0.7172 -2.0998
 1521SOL    HW216023   4.408   2.932  10.976 -3.1417 -1.2531  0.6367
 1522SOL     OW16024   0.315   4.558   5.760 -0.5421  0.0032  0.2095
 1522SOL    HW116025   0.331   4.650   5.782  2.4090 -0.3392 -0.5513
 1522SOL    HW216026   0.347   4.530   5.845 -0.5974  0.0543  0.2479
 1523SOL     OW16027   2.012   1.973  10.876 -0.3969  0.0830  0.3761
 1523SOL    HW116028   2.055   2.021  10.805  0.8235  1.1966  1.8859
 1523SOL    HW216029   1.933   1.942  10.831  1.2007 -1.4837 -1.3429
 1524SOL     OW16030   1.214   0.232   9.893  0.3955  0.8571 -0.0252
 1524SOL    HW116031   1.255   0.162   9.842 -0.0822  3.3602 -3.8591
 1524SOL    HW216032   1.182   0.173   9.961  0.2536  1.1607  0.1675
 1525SOL     OW16033   4.347   3.722   7.191 -0.0162 -0.0096 -0.7849
 1525SOL    HW116034   4.377   3.758   7.275 -1.0250 -0.0722 -0.3920
 1525SOL    HW216035   4.305   3.638   7.205 -0.4199  0.2390 -0.4942
 1526SOL     OW16036   1.406   0.063   5.746 -0.4282 -0.1471 -0.3451
 1526SOL    HW116037   1.363   0.134   5.698 -1.3173  0.2904  1.1015
 1526SOL    HW216038   1.326   0.024   5.782 -0.2201 -0.0294  0.2557
 1527SOL     OW16039   0.802   0.808   5.751  0.2831  0.3937  0.2165
 1527SOL    HW116040   0.819   0.888   5.800  0.6800  0.6815 -0.3925
 1527SOL    HW216041   0.794   0.742   5.820 -0.9686  0.9088  0.5680
 1528SOL     OW16042   4.466   2.631   8.785  0.4156 -0.4122 -0.0886
 1528SOL    HW116043   4.440   2.585   8.705  1.4473 -1.5421  0.2277
 1528SOL    HW216044   4.559   2.635   8.766  0.0139  1.0666 -1.7125
 1529SOL     OW16045   4.267   0.694   6.427 -0.3036 -0.6857 -0.0959
 1529SOL    HW116046   4.351   0.678   6.384 -0.9869  0.7381 -1.9429
 1529SOL    HW216047   4.269   0.615   6.482  1.1836  0.1488  1.0481
 1530SOL     OW16048   2.332   0.333  14.266  0.2759  0.6836 -0.6752
 1530SOL    HW116049   2.418   0.293  14.276 -0.6236 -1.0976 -0.0394
 1530SOL    HW216050   2.339   0.413  14.214  0.3181  1.6277  0.7755
 1531SOL     OW16051   1.320   0.202   2.071 -0.1392 -0.1325 -0.0406
 1531SOL    HW116052   1.293   0.157   1.991  1.5911 -0.1564 -0.6190
 1531SOL    HW216053   1.401   0.245   2.043  0.1108 -2.1510 -2.4186
 1532SOL     OW16054   4.612   4.617  11.433  0.2511 -0.4285 -0.1867
 1532SOL    HW116055   4.543   4.627  11.498  1.9104  0.8005  1.3909
 1532SOL    HW216056   4.656   4.702  11.435 -2.2702  0.8868 -1.6108
 1533SOL     OW16057   1.176   2.170  15.521  0.4374  0.2833  0.2632
 1533SOL    HW116058   1.115   2.103  15.548  1.3183 -0.1541  1.1762
 1533SOL    HW216059   1.233   2.165  15.598  0.7880  0.9740  0.0508
 1534SOL     OW16060   4.053   1.667   4.584  0.9052  0.3907  0.3951
 1534SOL    HW116061   3.999   1.726   4.530  0.0069 -0.0494  0.8040
 1534SOL    HW216062   4.143   1.698   4.576  0.8416  0.0120 -1.7751
 1535SOL     OW16063   0.722   2.060   4.132 -0.2099  0.4248 -0.2523
 1535SOL    HW116064   0.684   2.147   4.117 -2.7094 -0.2789  2.0895
 1535SOL    HW216065   0.674   1.999   4.076  2.6859 -0.9209 -1.2779
 1536SOL     OW16066   2.754   1.406  12.112 -0.5579 -0.6515 -0.3167
 1536SOL    HW116067   2.706   1.324  12.120 -2.1991  0.2480 -0.9489
 1536SOL    HW216068   2.739   1.449  12.196  1.2642  1.2623 -0.9627
 1537SOL     OW16069   0.258   2.273   6.089  0.2178  0.1256  0.1212
 1537SOL    HW116070   0.182   2.323   6.120  2.0039  1.0568  2.9740
 1537SOL    HW216071   0.269   2.304   6.000 -0.7722  0.9667  0.2859
 1538SOL     OW16072   3.051   0.761   5.836 -0.2059 -0.2756  0.5802
 1538SOL    HW116073   2.967   0.761   5.882 -0.1818  0.2417  0.6289
 1538SOL    HW216074   3.119   0.731   5.898 -0.1685  0.2193  0.7826
 1539SOL     OW16075   1.004   4.491   8.684  0.2224  0.2385 -0.5233
 1539SOL    HW116076   1.041   4.522   8.767  0.7107 -0.3812 -0.5050
 1539SOL    HW216077   0.911   4.509   8.692  0.2174 -0.0437  0.1441
 1540SOL     OW16078   0.617   1.144   5.254  0.1830 -0.3871 -0.8376
 1540SOL    HW116079   0.693   1.200   5.265 -0.3137  0.1343 -0.0770
 1540SOL    HW216080   0.603   1.155   5.160  0.9696 -0.4795 -0.9669
 1541SOL     OW16081   1.343   1.798   6.412 -0.4929  0.3610  0.2937
 1541SOL    HW116082   1.340   1.723   6.352 -0.4209  2.1834 -1.9938
 1541SOL    HW216083   1.427   1.837   6.385 -0.0152  0.2501  1.6161
 1542SOL     OW16084   3.714   3.457   3.853  0.5522  0.3446  0.4731
 1542SOL    HW116085   3.656   3.506   3.912 -1.1152 -2.7691  1.3942
 1542SOL    HW216086   3.741   3.381   3.904 -0.5415 -0.9962 -0.9524
 1543SOL     OW16087   4.454   1.990   3.913  0.2103  0.3014 -0.4274
 1543SOL    HW116088   4.420   1.907   3.946  0.0312  0.3970 -0.3715
 1543SOL    HW216089   4.517   1.955   3.849 -0.4361  0.9329 -1.4040
 1544SOL     OW16090   2.116   4.449   6.464 -0.0482  0.3069  0.3557
 1544SOL    HW116091   2.086   4.482   6.380  1.7093 -0.6521 -0.6715
 1544SOL    HW216092   2.159   4.525   6.503 -3.0277  2.8592 -1.3430
 1545SOL     OW16093   3.760   0.108   3.458  0.1866  0.2721 -0.5877
 1545SOL    HW116094   3.774   0.063   3.375  0.8141  1.8554 -1.3127
 1545SOL    HW216095   3.667   0.091   3.477  0.1504 -0.4748 -1.4216
 1546SOL     OW16096   1.398   3.759   8.037 -0.0954 -0.2780 -0.5640
 1546SOL    HW116097   1.434   3.800   8.116 -1.5611  1.2158 -0.6707
 1546SOL    HW216098   1.337   3.701   8.082  0.7199 -0.3222  0.5002
 1547SOL     OW16099   3.085   1.197   7.080  0.0079  0.1004  0.6083
 1547SOL    HW116100   3.173   1.164   7.064 -0.2932 -0.6361  0.4434
 1547SOL    HW216101   3.072   1.261   7.010  0.1425 -0.8667 -0.3143
 1548SOL     OW16102   0.077   1.339   6.245  0.0010 -0.2828  0.2072
 1548SOL    HW116103   0.130   1.342   6.324  0.5397 -1.1682 -0.1248
 1548SOL    HW216104   4.717   1.341   6.290 -0.8459  0.1709 -1.3735
 1549SOL     OW16105   0.888   1.689   9.423 -0.0013  0.5364  0.3736
 1549SOL    HW116106   0.977   1.701   9.455  0.2489  1.0496 -0.4907
 1549SOL    HW216107   0.847   1.760   9.473 -1.8802  1.3803 -2.3612
 1550SOL     OW16108   0.129   3.886   8.078 -0.4722 -0.2009  0.4566
 1550SOL    HW116109   0.043   3.846   8.062 -1.1459  1.9548 -1.4031
 1550SOL    HW216110   0.176   3.831   8.140 -2.0962 -1.3120  0.7087
 1551SOL     OW16111   1.288   0.469   6.323 -0.5647 -0.0168 -0.6670
 1551SOL    HW116112   1.213   0.410   6.320 -0.6625  0.0335  0.9464
 1551SOL    HW216113   1.235   0.549   6.317 -0.6335 -0.1182 -1.4000
 1552SOL     OW16114   3.789   3.709   5.644 -0.1505 -0.1373  0.2464
 1552SOL    HW116115   3.716   3.760   5.609  1.4944  0.8425 -1.7731
 1552SOL    HW216116   3.770   3.714   5.738 -1.5990 -1.7544  0.0227
 1553SOL     OW16117   4.086   3.847   7.337 -0.2639 -0.2970  0.0013
 1553SOL    HW116118   3.997   3.860   7.370  0.7098  1.0362  2.1176
 1553SOL    HW216119   4.095   3.922   7.279  1.6835 -0.0471  0.6253
 1554SOL     OW16120   1.990   2.669   9.116 -0.2237 -0.1812 -0.1878
 1554SOL    HW116121   2.038   2.689   9.036 -0.3912 -0.2468 -0.3060
 1554SOL    HW216122   1.903   2.663   9.077 -1.1303  1.6120  1.5686
 1555SOL     OW16123   4.477   1.074   2.938  0.1144  0.7795 -0.2566
 1555SOL    HW116124   4.534   1.133   2.987  1.6149  0.2605 -1.3746
 1555SOL    HW216125   4.396   1.125   2.928  0.0289  0.4136 -1.3717
 1556SOL     OW16126   0.665   3.286   5.578  0.1226  0.0197 -0.2589
 1556SOL    HW116127   0.618   3.212   5.541  0.0567 -0.5222  0.9164
 1556SOL    HW216128   0.625   3.359   5.529  0.7452  1.6573  1.6602
 1557SOL     OW16129   1.221   1.575   1.443  0.0987  0.1182 -0.0385
 1557SOL    HW116130   1.127   1.574   1.425 -0.2145  0.2221  1.6403
 1557SOL    HW216131   1.256   1.657   1.408  0.1995 -1.3715 -3.4882
 1558SOL     OW16132   2.504   2.777   8.725  0.0603 -0.3690  0.0876
 1558SOL    HW116133   2.507   2.872   8.712 -1.6756 -0.2300  0.6721
 1558SOL    HW216134   2.467   2.776   8.814 -3.3520 -1.3644 -1.3586
 1559SOL     OW16135   1.597   0.255  15.010 -0.3522  0.1770  0.0545
 1559SOL    HW116136   1.658   0.228  14.941  1.1322  1.3406  0.8967
 1559SOL    HW216137   1.593   0.174  15.063  0.3499 -0.4055 -0.7783
 1560SOL     OW16138   2.664   0.193  14.032  0.1679  0.0590 -0.3481
 1560SOL    HW116139   2.609   0.205  13.955  0.7825  1.6314 -0.5552
 1560SOL    HW216140   2.704   0.280  14.040  1.8610 -0.8720  1.2772
 1561SOL     OW16141   3.736   1.579   6.495 -0.3995  0.1833  0.6976
 1561SOL    HW116142   3.794   1.524   6.547  2.0720  1.0626 -1.1231
 1561SOL    HW216143   3.686   1.626   6.561  0.4433  1.3685  0.4934
 1562SOL     OW16144   3.464   3.397  17.378 -0.1695  0.3646 -0.8323
 1562SOL    HW116145   3.535   3.433  17.430 -1.6079 -0.0289  1.4219
 1562SOL    HW216146   3.490   3.305  17.371  2.2102  0.9844  0.0487
 1563SOL     OW16147   3.707   2.084   8.967 -0.2414  0.3921 -0.1276
 1563SOL    HW116148   3.681   2.142   9.039 -0.1869  1.7974 -1.2483
 1563SOL    HW216149   3.636   2.021   8.956  0.1425 -0.5713  2.9165
 1564SOL     OW16150   1.702   1.942   5.208  0.0764  0.4429  0.2879
 1564SOL    HW116151   1.725   2.025   5.166 -0.9939 -0.8997 -2.9345
 1564SOL    HW216152   1.621   1.912   5.167  0.6671 -0.2340 -0.3797
 1565SOL     OW16153   1.099   1.752   7.270 -0.0296  0.0602  0.4448
 1565SOL    HW116154   1.015   1.742   7.225  0.0046 -2.7473  0.9996
 1565SOL    HW216155   1.153   1.799   7.207  0.0193  0.9063  1.1144
 1566SOL     OW16156   4.663   4.713   7.258 -0.7175 -0.2179  0.3612
 1566SOL    HW116157   4.709   4.640   7.302  1.4993  1.2690  0.5350
 1566SOL    HW216158   4.634   0.041   7.333  3.3055  0.9245  1.1394
 1567SOL     OW16159   4.106   3.676   3.609 -0.3668  0.3535 -0.3645
 1567SOL    HW116160   4.028   3.704   3.656  0.0053  0.9495 -0.0954
 1567SOL    HW216161   4.175   3.677   3.675 -2.6598 -0.8970  2.0475
 1568SOL     OW16162   4.068   4.230  13.058 -0.5814  0.3205  0.2928
 1568SOL    HW116163   4.119   4.195  12.985  2.2826  2.3296  1.3344
 1568SOL    HW216164   3.981   4.226  13.017  0.0171  1.0612 -1.0518
 1569SOL     OW16165   3.378   3.796   5.712  0.2793 -0.0185  0.4719
 1569SOL    HW116166   3.425   3.714   5.695  0.2152 -0.4393  2.3525
 1569SOL    HW216167   3.381   3.807   5.807  2.0393  1.6827  0.2160
 1570SOL     OW16168   1.151   0.182  10.276 -0.2840  0.1695 -0.0509
 1570SOL    HW116169   1.064   0.188  10.315 -1.2003 -1.3335 -1.8449
 1570SOL    HW216170   1.188   0.140  10.353  1.0478 -0.9101 -1.2781
 1571SOL     OW16171   2.441   3.911   8.573  0.7921  0.3063  0.2407
 1571SOL    HW116172   2.346   3.917   8.582  0.8200 -0.9362  1.3582
 1571SOL    HW216173   2.450   4.006   8.570 -2.6795  0.6494  1.4675
 1572SOL     OW16174   1.333   0.677  16.079  0.1989  0.1942 -0.3377
 1572SOL    HW116175   1.362   0.664  15.989 -0.6419  1.7261 -0.8105
 1572SOL    HW216176   1.380   0.755  16.108 -0.4029  1.4224 -2.6573
 1573SOL     OW16177   0.063   1.542  10.601  0.4798 -0.3133  0.3403
 1573SOL    HW116178   4.709   1.592  10.576  1.9671  1.7868 -0.0968
 1573SOL    HW216179   0.020   1.493  10.672 -0.9895  0.5713  0.0741
 1574SOL     OW16180   4.020   2.337   5.184  0.7448  0.0440 -0.3496
 1574SOL    HW116181   4.100   2.286   5.196  2.1099  1.6227 -2.6937
 1574SOL    HW216182   3.947   2.277   5.195  1.1353 -0.3788 -0.0557
 1575SOL     OW16183   1.989   3.637   3.153 -0.6876 -0.1402  0.6551
 1575SOL    HW116184   2.013   3.711   3.097  1.5418 -1.8336 -0.6068
 1575SOL    HW216185   1.911   3.669   3.198 -1.8466 -0.0755 -1.3923
 1576SOL     OW16186   4.629   3.870   7.523  0.6104  0.5416 -0.6181
 1576SOL    HW116187   4.671   3.842   7.604 -0.9356  2.0034  0.6975
 1576SOL    HW216188   4.593   3.786   7.497  0.2327  1.2923 -2.5047
 1577SOL     OW16189   3.140   1.941  12.150  0.2417  0.4920  0.0753
 1577SOL    HW116190   3.145   2.018  12.207  0.2106  0.3188  0.3134
 1577SOL    HW216191   3.178   1.979  12.071  3.2004 -2.1345  0.2717
 1578SOL     OW16192   4.115   3.824   8.675  0.1227 -0.1569 -0.1194
 1578SOL    HW116193   4.038   3.772   8.700  1.3036 -1.7769  0.1405
 1578SOL    HW216194   4.179   3.789   8.737 -4.5259 -2.2725  3.4841
 1579SOL     OW16195   0.720   3.912   1.516 -0.3158  0.0238  0.1048
 1579SOL    HW116196   0.650   3.969   1.548 -2.0029 -2.3189  0.6430
 1579SOL    HW216197   0.797   3.941   1.565  1.4597 -1.4888 -1.8127
 1580SOL     OW16198   4.068   1.379   8.601 -0.2721  0.4150 -0.9699
 1580SOL    HW116199   3.987   1.329   8.605 -0.0645  0.1219 -0.3193
 1580SOL    HW216200   4.134   1.310   8.603  1.2999  1.9835  0.9741
 1581SOL     OW16201   0.640   4.314   4.617 -0.0656 -0.3305 -0.1824
 1581SOL    HW116202   0.610   4.241   4.564 -1.3859  1.0123 -1.2984
 1581SOL    HW216203   0.685   4.270   4.688 -0.6824  0.7318  0.8565
 1582SOL     OW16204   3.940   0.568   3.346  0.0507  0.4447  0.0384
 1582SOL    HW116205   3.954   0.610   3.431  1.5667 -0.9846  0.4959
 1582SOL    HW216206   3.908   0.479   3.367 -0.8490  0.8267  0.3007
 1583SOL     OW16207   3.149   3.462   3.974 -0.1680  0.2237  0.1159
 1583SOL    HW116208   3.078   3.423   4.025 -0.2928 -0.4513 -0.5660
 1583SOL    HW216209   3.204   3.476   4.051 -0.6411  0.1726  0.4653
 1584SOL     OW16210   3.127   3.872  15.156  0.3228  0.5210  0.3313
 1584SOL    HW116211   3.182   3.938  15.114  0.1252  0.8984  0.6684
 1584SOL    HW216212   3.149   3.799  15.098 -2.2193 -2.5602  3.2487
 1585SOL     OW16213   2.224   1.381   9.426 -0.4738 -0.8910 -0.9249
 1585SOL    HW116214   2.222   1.311   9.492  2.1080 -0.2274 -0.1101
 1585SOL    HW216215   2.133   1.407   9.414 -0.4886 -1.4504 -1.9917
 1586SOL     OW16216   2.078   1.669  15.839  0.1992 -0.0131  0.6967
 1586SOL    HW116217   2.042   1.628  15.918  0.0913  0.3390  0.8333
 1586SOL    HW216218   2.014   1.642  15.773 -1.1013  1.5364  1.3176
 1587SOL     OW16219   3.916   0.911  10.842 -0.3548 -0.0064 -0.1162
 1587SOL    HW116220   3.917   0.991  10.790 -0.9312 -0.9843 -1.6319
 1587SOL    HW216221   3.882   0.854  10.773 -0.2514  0.4803 -0.5652
 1588SOL     OW16222   4.368   2.406   4.249  0.2927 -0.1835  0.0709
 1588SOL    HW116223   4.346   2.421   4.157 -1.2011 -1.4151  0.2327
 1588SOL    HW216224   4.415   2.487   4.270  1.0084 -0.6153  0.1487
 1589SOL     OW16225   1.896   4.245  16.426 -0.4149  0.1504  0.1890
 1589SOL    HW116226   1.955   4.279  16.492 -0.1837  0.4615 -0.1771
 1589SOL    HW216227   1.840   4.182  16.471  0.2285  1.0809  2.2592
 1590SOL     OW16228   4.551   2.231  12.651  0.6518 -0.3280 -0.1168
 1590SOL    HW116229   4.561   2.323  12.627  0.5163 -0.5193 -0.9153
 1590SOL    HW216230   4.595   2.221  12.735  2.1972  2.2939 -0.6120
 1591SOL     OW16231   0.475   4.513   4.573  0.0074 -0.3980 -0.6438
 1591SOL    HW116232   0.531   4.437   4.585 -0.3292 -1.0274 -2.9648
 1591SOL    HW216233   0.389   4.475   4.594  0.1872 -1.5563 -1.9962
 1592SOL     OW16234   1.167   3.751   6.959  0.3869  0.1957  0.5621
 1592SOL    HW116235   1.110   3.798   7.020 -1.5952  0.9596 -1.8824
 1592SOL    HW216236   1.173   3.811   6.885 -1.4081  0.1557  0.3670
 1593SOL     OW16237   3.172   4.336   7.330 -0.2135 -0.4158  0.3392
 1593SOL    HW116238   3.250   4.287   7.355  0.4834  0.6254  0.1621
 1593SOL    HW216239   3.114   4.289   7.391  0.0936  0.4827  1.3154
 1594SOL     OW16240   3.913   1.131  14.485  0.0403 -0.0214 -0.0172
 1594SOL    HW116241   3.890   1.043  14.455 -0.3890 -0.3113  1.1526
 1594SOL    HW216242   4.008   1.123  14.498  0.2246 -1.0416 -2.0287
 1595SOL     OW16243   2.816   4.288  15.231  0.1387  0.7838  0.1263
 1595SOL    HW116244   2.871   4.343  15.288  1.4444 -1.7878  1.3649
 1595SOL    HW216245   2.860   4.295  15.146 -1.2797  1.6461 -0.5396
 1596SOL     OW16246   0.059   4.665   4.208  0.0986  0.2274  0.1314
 1596SOL    HW116247   0.007   4.697   4.282 -0.4890 -1.4042  0.4117
 1596SOL    HW216248   0.066   0.023   4.160  0.2836 -0.2482 -0.6499
 1597SOL     OW16249   3.033   1.853   8.327 -0.1356 -0.1145 -0.3813
 1597SOL    HW116250   3.034   1.943   8.295 -0.4451  0.2022  0.5062
 1597SOL    HW216251   2.948   1.817   8.300  1.8161 -3.1293 -2.5137
 1598SOL     OW16252   1.968   3.209   5.399  0.0802 -0.0087 -0.2928
 1598SOL    HW116253   1.986   3.137   5.339  3.3609 -0.0497  0.7504
 1598SOL    HW216254   1.922   3.269   5.341 -0.1183 -0.5770 -0.7253
 1599SOL     OW16255   3.758   1.603  11.380 -0.2606  0.5565  0.4482
 1599SOL    HW116256   3.684   1.643  11.334  0.0851  1.4480  0.6670
 1599SOL    HW216257   3.801   1.672  11.432 -0.0332  2.5052 -2.3582
 1600SOL     OW16258   1.051   4.004   8.171 -0.3040 -0.4653  0.0599
 1600SOL    HW116259   0.991   4.058   8.224  0.1454  1.2872 -1.2320
 1600SOL    HW216260   1.080   4.065   8.104  0.3764  1.3069  1.9517
 1601SOL     OW16261   3.536   1.824  13.276 -0.1768  0.0721 -0.3724
 1601SOL    HW116262   3.503   1.736  13.257 -1.5509 -0.3501  3.9710
 1601SOL    HW216263   3.617   1.801  13.322 -1.3252 -1.7506  0.7410
 1602SOL     OW16264   2.360   4.000   6.860 -0.3167 -0.3367 -0.8267
 1602SOL    HW116265   2.429   3.933   6.859  0.9219  0.9578 -1.7464
 1602SOL    HW216266   2.384   4.032   6.947 -0.8069  0.8519 -1.1379
 1603SOL     OW16267   4.130   0.983   7.566 -0.5575 -0.2319  0.2541
 1603SOL    HW116268   4.058   0.986   7.629  0.1242 -0.8103  1.0663
 1603SOL    HW216269   4.180   0.910   7.603 -0.1580  0.6947  1.5443
 1604SOL     OW16270   0.714   1.777   1.551 -0.0534  0.0615 -0.5455
 1604SOL    HW116271   0.630   1.821   1.564 -0.4130 -0.7043 -0.2854
 1604SOL    HW216272   0.755   1.826   1.479 -1.7684  1.6604 -0.4352
 1605SOL     OW16273   3.173   1.339   7.998 -0.2067  0.2651  0.1608
 1605SOL    HW116274   3.194   1.246   7.986  3.9864  1.2668 -0.2779
 1605SOL    HW216275   3.192   1.344   8.092 -0.5451 -1.3683  0.3135
 1606SOL     OW16276   0.051   4.184   0.768 -0.6297 -0.3672 -0.3329
 1606SOL    HW116277   0.039   4.093   0.742  1.0714 -0.9695  1.0246
 1606SOL    HW216278   0.130   4.177   0.821 -0.7023  2.5407  0.1849
 1607SOL     OW16279   3.814   3.507   5.446  0.3443 -0.3729  0.0688
 1607SOL    HW116280   3.817   3.591   5.492 -0.1180 -0.1722 -0.2775
 1607SOL    HW216281   3.834   3.448   5.519  2.0429  2.0500  1.6179
 1608SOL     OW16282   3.714   0.525   2.478 -0.5126  0.0559  0.0207
 1608SOL    HW116283   3.780   0.459   2.497 -0.7804  0.1253  1.2329
 1608SOL    HW216284   3.691   0.547   2.569 -0.8653  3.1304 -0.8090
 1609SOL     OW16285   2.395   1.590   5.314  0.3141 -0.6113 -0.7463
 1609SOL    HW116286   2.303   1.571   5.296  0.3184 -1.5442  0.2377
 1609SOL    HW216287   2.407   1.573   5.407 -1.4241 -0.6790 -0.5222
 1610SOL     OW16288   4.485   0.959   8.553 -0.2334 -0.1005  0.0306
 1610SOL    HW116289   4.483   1.045   8.595 -1.3344 -1.1270  2.0943
 1610SOL    HW216290   4.452   0.911   8.629  2.2130 -0.2957  0.9516
 1611SOL     OW16291   4.697   4.115  11.038  0.6447 -0.3046  0.0332
 1611SOL    HW116292   4.650   4.128  10.955  0.8575  1.6446  0.2122
 1611SOL    HW216293   0.062   4.134  11.011  0.9654 -0.4941  0.9811
 1612SOL     OW16294   2.166   3.103   7.484 -0.3318  0.1063  0.5599
 1612SOL    HW116295   2.227   3.177   7.478 -0.6839  0.5571  2.4433
 1612SOL    HW216296   2.213   3.065   7.558  1.4672 -1.3426 -1.3415
 1613SOL     OW16297   3.905   1.775   5.291 -0.0320 -0.0028 -0.0210
 1613SOL    HW116298   3.901   1.781   5.387  0.9660  0.9666 -0.0507
 1613SOL    HW216299   3.844   1.705   5.267  0.9388 -1.1102  0.7434
 1614SOL     OW16300   2.451   2.255   8.354 -0.3036 -0.3871 -0.0713
 1614SOL    HW116301   2.356   2.263   8.346 -0.2693 -0.3857 -0.4841
 1614SOL    HW216302   2.464   2.334   8.406  0.5435 -0.8589  0.4374
 1615SOL     OW16303   4.579   1.013  11.020  0.5406 -0.1020  0.0399
 1615SOL    HW116304   4.497   0.967  11.008  0.3778  0.8157 -2.3018
 1615SOL    HW216305   4.642   0.943  11.036  1.4264  0.7362  0.2443
 1616SOL     OW16306   1.701   4.514   3.126 -0.6797 -0.1229  0.1646
 1616SOL    HW116307   1.734   4.515   3.216  0.3040  2.6143 -0.2313
 1616SOL    HW216308   1.663   4.426   3.119  2.1387 -1.3088 -0.5276
 1617SOL     OW16309   2.707   0.590  17.035 -0.0931  0.2793  0.1917
 1617SOL    HW116310   2.766   0.598  17.110 -3.7286 -0.0140  3.0707
 1617SOL    HW216311   2.626   0.567  17.080 -1.3057  2.9746 -0.6547
 1618SOL     OW16312   1.552   0.264   2.836  0.0269 -0.3016  0.0690
 1618SOL    HW116313   1.521   0.200   2.900  2.1168 -1.0517  0.3221
 1618SOL    HW216314   1.645   0.264   2.860 -0.4074  0.6609  1.8313
 1619SOL     OW16315   3.082   1.162   5.476 -0.0289  1.0264 -0.1073
 1619SOL    HW116316   3.004   1.114   5.505 -2.2324  2.0893 -4.3355
 1619SOL    HW216317   3.045   1.241   5.437  0.8501 -0.1690 -3.3165
 1620SOL     OW16318   0.801   1.188   0.631  0.4299 -0.0737  0.4684
 1620SOL    HW116319   0.724   1.171   0.577  1.0841 -0.7843 -0.2256
 1620SOL    HW216320   0.851   1.240   0.569 -1.3855  0.4391 -0.5683
 1621SOL     OW16321   2.291   1.953   9.219 -0.3750 -0.6229 -0.4346
 1621SOL    HW116322   2.224   1.988   9.277 -0.5309  1.2191 -1.7141
 1621SOL    HW216323   2.284   2.004   9.139 -0.5165  0.5781  0.3535
 1622SOL     OW16324   0.915   3.692  12.450  0.4748  0.1772  0.0410
 1622SOL    HW116325   0.916   3.772  12.501 -1.8510 -0.2035  0.6843
 1622SOL    HW216326   0.867   3.631  12.506  0.8915 -2.0957 -2.0301
 1623SOL     OW16327   1.743   1.501   4.992 -0.4974  0.3377  0.3493
 1623SOL    HW116328   1.731   1.559   5.066 -1.2266 -0.5179  0.8989
 1623SOL    HW216329   1.824   1.459   5.020 -0.4385 -0.3207 -0.7793
 1624SOL     OW16330   4.092   4.717   8.192 -0.3647 -0.4480  0.5183
 1624SOL    HW116331   4.053   4.637   8.158 -0.9810 -0.3292  0.9583
 1624SOL    HW216332   4.038   0.031   8.261 -1.1038  2.1533 -1.4956
 1625SOL     OW16333   1.186   3.151   2.600 -0.3037  0.4292  0.0113
 1625SOL    HW116334   1.122   3.112   2.541  2.1830  0.4356 -2.7055
 1625SOL    HW216335   1.145   3.237   2.613 -1.0624  0.3563 -1.8346
 1626SOL     OW16336   1.398   3.265  12.938 -0.4274  0.5140 -0.0209
 1626SOL    HW116337   1.315   3.225  12.963 -0.7641 -0.3261 -2.4772
 1626SOL    HW216338   1.394   3.296  12.847 -1.5370  1.7515  0.4467
 1627SOL     OW16339   2.668   3.641  12.046 -0.0715 -0.1511  0.1012
 1627SOL    HW116340   2.743   3.592  12.013  1.2369  1.0681  1.2108
 1627SOL    HW216341   2.602   3.601  11.990  0.0085  0.7287 -0.6226
 1628SOL     OW16342   1.304   1.077  14.115 -0.3169  0.0442 -0.0870
 1628SOL    HW116343   1.393   1.086  14.150 -0.3436 -1.5498  0.3913
 1628SOL    HW216344   1.306   0.986  14.084 -0.5448 -1.4427  4.3160
 1629SOL     OW16345   3.225   0.850   5.622 -0.0734 -0.0474  0.0429
 1629SOL    HW116346   3.162   0.821   5.557 -2.3102  0.3440  2.0281
 1629SOL    HW216347   3.169   0.843   5.699 -1.8344  0.4165 -1.2213
 1630SOL     OW16348   0.555   4.030   0.639  0.2021  0.2406 -0.0072
 1630SOL    HW116349   0.595   4.098   0.694  0.7767  1.5093 -2.0236
 1630SOL    HW216350   0.470   4.069   0.617 -0.3161  0.2143  1.9169
 1631SOL     OW16351   4.280   3.118   3.746 -0.3740 -0.2566 -0.0261
 1631SOL    HW116352   4.301   3.212   3.740 -0.0746 -0.3372 -0.2021
 1631SOL    HW216353   4.192   3.126   3.708 -0.0715  1.0718 -0.4661
 1632SOL     OW16354   4.279   4.173   9.030 -0.4782 -0.6615  0.5392
 1632SOL    HW116355   4.243   4.171   9.119  2.3705 -0.3049  1.6945
 1632SOL    HW216356   4.332   4.094   9.041  0.3237 -0.4287 -1.7151
 1633SOL     OW16357   0.889   2.657   2.061 -0.2307  0.4583  0.2277
 1633SOL    HW116358   0.866   2.574   2.102  0.7760  0.6049  1.0852
 1633SOL    HW216359   0.927   2.633   1.977 -3.5392 -1.1208 -0.8027
 1634SOL     OW16360   1.919   4.343  11.321  0.2635  0.0861 -0.3809
 1634SOL    HW116361   1.982   4.307  11.384  0.3763  0.4058 -0.3092
 1634SOL    HW216362   1.954   4.307  11.239  0.6329 -1.7351  0.5967
 1635SOL     OW16363   4.311   2.894   5.846  0.3616  0.3661 -0.3461
 1635SOL    HW116364   4.269   2.968   5.802 -1.5414  0.3483  1.4436
 1635SOL    HW216365   4.247   2.869   5.912  1.6698 -0.2703  0.6855
 1636SOL     OW16366   4.141   4.195   6.966  0.4386  0.1965  0.1816
 1636SOL    HW116367   4.143   4.103   6.941  0.2981  0.0837  0.5931
 1636SOL    HW216368   4.196   4.190   7.045  0.1935  0.0966  0.3440
 1637SOL     OW16369   2.802   2.824   4.891 -0.0237  0.4586  1.3267
 1637SOL    HW116370   2.822   2.819   4.984  0.5668 -0.2108  1.1555
 1637SOL    HW216371   2.876   2.880   4.867  0.3618 -0.5454  0.1457
 1638SOL     OW16372   0.970   0.556   4.390 -0.1381  0.4709 -0.0707
 1638SOL    HW116373   0.978   0.467   4.356  0.0319  0.3211  0.3626
 1638SOL    HW216374   0.940   0.538   4.479  2.2492 -1.8084  0.2898
 1639SOL     OW16375   1.075   0.644   8.827  0.1520  0.9464  0.1524
 1639SOL    HW116376   1.137   0.588   8.779 -0.4109 -1.5932  2.3994
 1639SOL    HW216377   0.989   0.609   8.805  1.1721 -1.6962  0.3598
 1640SOL     OW16378   1.728   2.242  15.782 -0.6676 -0.0485  0.1697
 1640SOL    HW116379   1.659   2.206  15.838  0.2845 -0.1388  1.2813
 1640SOL    HW216380   1.701   2.333  15.777  1.2360  0.4681 -0.4984
 1641SOL     OW16381   3.092   0.919   5.338  0.0168  0.4431 -0.8087
 1641SOL    HW116382   3.173   0.887   5.300  1.1657  1.2649  0.9464
 1641SOL    HW216383   3.110   1.011   5.353  1.4692 -0.0086  0.2317
 1642SOL     OW16384   1.937   4.642   7.889  0.2404 -0.1492  0.6384
 1642SOL    HW116385   2.018   4.629   7.839 -0.6006 -1.1883 -0.4453
 1642SOL    HW216386   1.945   4.724   7.938  0.5347  0.4823 -0.4524
 1643SOL     OW16387   0.813   2.979  16.727  1.0766 -0.8695  0.2220
 1643SOL    HW116388   0.818   2.952  16.818  0.8506  0.0106  0.4939
 1643SOL    HW216389   0.724   2.949  16.707  0.2445  2.1331 -0.6845
 1644SOL     OW16390   1.514   4.083   4.632  0.2942  0.3426  0.7071
 1644SOL    HW116391   1.464   4.159   4.602  0.6558  0.4922  0.4943
 1644SOL    HW216392   1.561   4.054   4.554 -0.1260  0.9169  0.2348
 1645SOL     OW16393   2.594   4.183   2.915 -0.1975 -0.0337 -0.4589
 1645SOL    HW116394   2.539   4.214   2.987  0.5409 -0.4717  0.2853
 1645SOL    HW216395   2.595   4.092   2.944 -0.8331  0.1215  0.0683
 1646SOL     OW16396   0.384   3.627   7.559 -0.1832  0.3279 -0.2622
 1646SOL    HW116397   0.437   3.707   7.555 -1.9241  1.3855 -2.2667
 1646SOL    HW216398   0.454   3.563   7.572 -0.4663  0.1271  0.2395
 1647SOL     OW16399   2.221   1.614  15.121 -0.1782 -0.4079  0.0321
 1647SOL    HW116400   2.157   1.671  15.079  0.8442  1.8308  1.5283
 1647SOL    HW216401   2.306   1.636  15.082 -2.5320  1.8197 -3.7742
 1648SOL     OW16402   0.294   0.061  16.278 -0.5159 -0.2980 -0.4218
 1648SOL    HW116403   0.242   0.140  16.266  0.5469  0.3590 -0.7236
 1648SOL    HW216404   0.378   0.082  16.238  0.3289  0.2446  1.6260
 1649SOL     OW16405   1.162   4.497  16.326  0.2250  0.2218  0.5853
 1649SOL    HW116406   1.144   4.463  16.238  1.2826 -1.0436  0.8505
 1649SOL    HW216407   1.248   4.536  16.308  0.8374 -1.7960 -0.8253
 1650SOL     OW16408   4.177   1.376   7.736  0.4341  0.4863  0.1113
 1650SOL    HW116409   4.118   1.432   7.686  0.2621 -0.7997 -1.1437
 1650SOL    HW216410   4.197   1.303   7.677 -1.7618 -0.7246  0.8496
 1651SOL     OW16411   2.454   2.108   6.532  0.5228 -0.2207 -0.1618
 1651SOL    HW116412   2.515   2.108   6.459  1.4046  0.0836  0.5715
 1651SOL    HW216413   2.438   2.201   6.549  1.0219 -0.2066  0.1996
 1652SOL     OW16414   1.333   4.195   3.500 -1.0834  0.0393  0.0221
 1652SOL    HW116415   1.337   4.155   3.413 -0.1378 -3.7847  1.8125
 1652SOL    HW216416   1.280   4.127   3.542  1.3458 -0.3971  2.4167
 1653SOL     OW16417   0.738   2.591  11.244  0.4003  0.1801  0.2160
 1653SOL    HW116418   0.730   2.645  11.324 -1.0061  1.1149 -0.5428
 1653SOL    HW216419   0.800   2.647  11.197  1.5942 -1.8186 -0.5545
 1654SOL     OW16420   2.441   4.127   7.967  0.0067  0.9193 -0.0348
 1654SOL    HW116421   2.388   4.116   7.889 -0.6056 -0.8872  0.6524
 1654SOL    HW216422   2.517   4.175   7.932  1.4233 -1.7522 -0.6158
 1655SOL     OW16423   0.568   4.496   5.661 -0.3661 -0.5514 -0.4649
 1655SOL    HW116424   0.573   4.536   5.573 -1.3282 -2.4063 -1.3605
 1655SOL    HW216425   0.474   4.499   5.680 -0.0058 -2.2140  1.5556
 1656SOL     OW16426   3.482   2.003   3.544  0.8320  0.8937  0.0579
 1656SOL    HW116427   3.505   1.919   3.504 -0.7801 -0.1171  1.2331
 1656SOL    HW216428   3.566   2.025   3.584 -0.1349  3.0193  0.9115
 1657SOL     OW16429   3.274   2.573   8.476  0.1736  0.4257 -0.0588
 1657SOL    HW116430   3.189   2.612   8.499 -0.6424 -1.0711 -0.5270
 1657SOL    HW216431   3.314   2.566   8.562  1.8001  1.6120 -0.7173
 1658SOL     OW16432   4.583   2.092   3.527 -0.3820  0.2578  0.0460
 1658SOL    HW116433   4.648   2.046   3.474 -0.8831  1.8721 -1.9895
 1658SOL    HW216434   4.522   2.021   3.545 -0.5872  0.4185 -0.0245
 1659SOL     OW16435   4.538   4.514   4.290  0.2424 -0.2757 -0.2586
 1659SOL    HW116436   4.468   4.539   4.230  0.7939  0.1400 -0.7363
 1659SOL    HW216437   4.567   4.597   4.328  1.4823 -0.1464 -1.4710
 1660SOL     OW16438   2.188   0.677  16.073 -0.1534  0.6140 -0.0897
 1660SOL    HW116439   2.245   0.700  16.147 -0.7079 -0.0066  0.5316
 1660SOL    HW216440   2.209   0.584  16.062 -0.2179  0.4393  1.2951
 1661SOL     OW16441   0.806   4.629  10.290  0.0088  0.3520 -0.4288
 1661SOL    HW116442   0.793   4.677  10.208 -1.6919 -1.1933 -1.0627
 1661SOL    HW216443   0.790   4.540  10.258 -0.1651  0.3755 -0.4067
 1662SOL     OW16444   4.234   2.093   3.226  0.3353  0.2214  0.0441
 1662SOL    HW116445   4.267   2.160   3.285 -0.1295  0.5955 -0.1239
 1662SOL    HW216446   4.142   2.084   3.252  0.3351 -1.3350 -0.4681
 1663SOL     OW16447   4.070   0.665   2.424 -0.1243  0.4754 -0.4984
 1663SOL    HW116448   4.144   0.674   2.363  0.9878 -0.6700  0.6898
 1663SOL    HW216449   3.997   0.667   2.362  0.3574  0.6235 -1.0618
 1664SOL     OW16450   3.729   4.027   0.866 -0.2061 -0.3489  0.3992
 1664SOL    HW116451   3.692   3.965   0.929 -1.2908 -0.4127 -0.2860
 1664SOL    HW216452   3.654   4.081   0.889 -0.6224  0.0423 -1.8650
 1665SOL     OW16453   4.706   4.446   3.744 -0.1725 -0.3878  0.8207
 1665SOL    HW116454   0.055   4.384   3.744 -0.8869 -1.2241  0.8076
 1665SOL    HW216455   4.683   4.452   3.837  1.0151  1.8595  0.9911
 1666SOL     OW16456   0.849   2.027  16.584 -0.1335 -0.5538 -0.1273
 1666SOL    HW116457   0.922   2.089  16.572  1.1238 -1.8616  0.7803
 1666SOL    HW216458   0.805   2.078  16.653  0.4994 -3.5679  2.4862
 1667SOL     OW16459   1.101   2.294   8.642  0.1347  0.3794  0.2249
 1667SOL    HW116460   1.083   2.386   8.659 -3.6022 -0.1861 -0.5448
 1667SOL    HW216461   1.075   2.249   8.723 -0.5090  0.8659  0.2848
 1668SOL     OW16462   0.540   3.671   9.744  0.1296  0.5505 -0.5454
 1668SOL    HW116463   0.508   3.748   9.790  1.6560  1.0284 -0.2917
 1668SOL    HW216464   0.635   3.679   9.744  0.3831 -2.4385 -1.0505
 1669SOL     OW16465   1.584   2.842   5.086  0.0014 -0.5143  0.0615
 1669SOL    HW116466   1.600   2.926   5.128  2.6907 -0.0530 -1.9117
 1669SOL    HW216467   1.675   2.819   5.068  0.1748  0.2037  0.0277
 1670SOL     OW16468   4.577   0.589  16.616  0.5137  0.0883  0.1366
 1670SOL    HW116469   4.502   0.573  16.674  1.2306 -0.6156  0.8760
 1670SOL    HW216470   4.570   0.685  16.614  0.2938  0.1359  2.3233
 1671SOL     OW16471   4.523   0.077   9.118  0.6598  0.2704  0.6809
 1671SOL    HW116472   4.438   0.102   9.083  0.7614 -0.6557 -0.2051
 1671SOL    HW216473   4.546   0.160   9.161  0.6591 -1.0228  3.2171
 1672SOL     OW16474   3.634   0.065  15.135  0.2353 -0.4364 -0.4244
 1672SOL    HW116475   3.604   4.710  15.179  0.6919 -0.9224 -0.9901
 1672SOL    HW216476   3.704   0.035  15.078 -0.4140 -0.6428 -1.1233
 1673SOL     OW16477   1.086   2.475   4.607 -0.5540  0.1730 -0.0143
 1673SOL    HW116478   1.050   2.563   4.598 -0.0041  0.4477  0.4840
 1673SOL    HW216479   1.161   2.479   4.548 -0.2891 -0.3077  0.2870
 1674SOL     OW16480   4.332   1.492  12.809  0.2109 -0.4862  0.3408
 1674SOL    HW116481   4.400   1.497  12.741 -0.1473 -5.4866 -0.4050
 1674SOL    HW216482   4.259   1.514  12.751  0.1573 -1.6846 -0.0476
 1675SOL     OW16483   3.866   0.189   3.110  0.0859 -0.2164  0.1356
 1675SOL    HW116484   3.940   0.237   3.146 -0.9281  0.1126  1.7828
 1675SOL    HW216485   3.892   0.100   3.135  0.9193 -0.0699 -0.1861
 1676SOL     OW16486   2.846   4.687   3.127  0.3085  0.1815 -0.1842
 1676SOL    HW116487   2.881   4.637   3.054 -0.1630  0.8988 -0.9036
 1676SOL    HW216488   2.758   4.650   3.128  0.7038 -0.7261  1.1581
 1677SOL     OW16489   4.382   3.080  11.743  0.1803  0.1970 -0.1774
 1677SOL    HW116490   4.450   3.031  11.788 -0.9500 -2.0800 -0.9636
 1677SOL    HW216491   4.356   3.015  11.678  2.3021 -0.1038 -0.7063
 1678SOL     OW16492   2.916   4.099   2.883  0.1100  0.0498 -0.5226
 1678SOL    HW116493   2.917   4.004   2.884  1.2453  0.1070  2.5765
 1678SOL    HW216494   2.980   4.111   2.954 -0.1188  1.2169 -0.5066
 1679SOL     OW16495   3.532   1.037   8.814  0.2360  0.0817  0.3842
 1679SOL    HW116496   3.438   1.049   8.829 -0.2241 -1.1125 -1.5337
 1679SOL    HW216497   3.519   1.048   8.720  0.2365 -1.4961  0.1917
 1680SOL     OW16498   4.544   0.813   3.000 -0.1458 -0.3880  0.0760
 1680SOL    HW116499   4.512   0.756   2.930  1.4264 -1.4927  0.2348
 1680SOL    HW216500   4.502   0.898   2.985  0.7371 -0.6295 -3.6251
 1681SOL     OW16501   2.969   1.252   8.274 -0.0813  0.4326  0.5158
 1681SOL    HW116502   2.996   1.228   8.363  1.4315  1.5319  0.3555
 1681SOL    HW216503   3.051   1.292   8.245  0.1849 -0.1323  0.5066
 1682SOL     OW16504   0.577   2.726   3.054  0.2472 -0.1573  0.4613
 1682SOL    HW116505   0.639   2.693   2.988  0.3806 -1.2155  1.1048
 1682SOL    HW216506   0.504   2.665   3.044  0.8203 -0.8393  0.4216
 1683SOL     OW16507   1.097   2.409   2.183 -0.0351  0.5189 -0.8893
 1683SOL    HW116508   1.135   2.346   2.244  1.3423  1.5198 -0.7272
 1683SOL    HW216509   1.011   2.373   2.163  1.5191 -3.7857  0.1536
 1684SOL     OW16510   2.364   1.509   5.597 -0.0913 -0.3284  0.0069
 1684SOL    HW116511   2.287   1.530   5.650  0.2363 -1.7486  1.0717
 1684SOL    HW216512   2.350   1.414   5.596  1.7452 -0.6136  0.9787
 1685SOL     OW16513   0.448   1.946   6.343  0.4284  0.0245 -0.0807
 1685SOL    HW116514   0.458   2.034   6.378  1.6307 -0.8990  1.9511
 1685SOL    HW216515   0.515   1.950   6.275  1.1080  2.1612  0.7179
 1686SOL     OW16516   0.291   4.254   3.257  0.0273  0.4111  0.0628
 1686SOL    HW116517   0.227   4.250   3.186  1.2453  0.2073 -1.0428
 1686SOL    HW216518   0.235   4.224   3.329  0.6468 -2.5213 -0.6581
 1687SOL     OW16519   3.340   3.327   1.470 -0.5573  0.2871  0.2435
 1687SOL    HW116520   3.397   3.259   1.508  0.0759  0.6929  0.0243
 1687SOL    HW216521   3.291   3.344   1.551 -1.1958 -0.6044  0.0510
 1688SOL     OW16522   2.509   2.923   4.950 -0.5362 -0.0059 -0.1289
 1688SOL    HW116523   2.501   2.973   4.869  1.1712 -1.8453 -1.4325
 1688SOL    HW216524   2.594   2.882   4.935 -0.7659  0.0597 -1.5897
 1689SOL     OW16525   2.011   1.690  16.629 -0.4673 -0.1005  0.0484
 1689SOL    HW116526   2.006   1.765  16.688 -0.2448  0.6773 -0.9316
 1689SOL    HW216527   2.069   1.635  16.682 -0.2802  1.4547  1.4363
 1690SOL     OW16528   4.184   3.953   5.755 -0.0540  0.1857  0.3022
 1690SOL    HW116529   4.132   3.875   5.735 -0.1169  0.5717 -1.0282
 1690SOL    HW216530   4.248   3.948   5.684  0.8200  1.1449  1.0266
 1691SOL     OW16531   2.445   3.571   4.777 -0.5578 -0.1016  0.2992
 1691SOL    HW116532   2.426   3.527   4.694 -0.3611  0.4818 -0.0591
 1691SOL    HW216533   2.354   3.588   4.801 -0.5747  2.4418 -1.5233
 1692SOL     OW16534   0.309   3.259   2.968  0.4875 -1.7589  0.0474
 1692SOL    HW116535   0.341   3.173   2.995  0.7073 -1.9757 -0.8992
 1692SOL    HW216536   0.308   3.239   2.874 -4.9298  0.0555 -0.2924
 1693SOL     OW16537   3.594   4.064   0.525 -0.1318  0.0238  0.2874
 1693SOL    HW116538   3.568   3.978   0.559 -0.6176  0.5180  1.1559
 1693SOL    HW216539   3.521   4.117   0.556 -0.0981  0.3333 -0.1659
 1694SOL     OW16540   1.882   4.661  10.871  0.6183  0.0444 -0.0876
 1694SOL    HW116541   1.937   4.673  10.793 -0.7623 -1.9685 -1.3884
 1694SOL    HW216542   1.878   4.565  10.877  2.2402  0.0885  1.6776
 1695SOL     OW16543   4.515   2.219   8.144  0.2498 -0.3788 -0.0321
 1695SOL    HW116544   4.454   2.293   8.134 -1.0941 -1.4956 -0.0659
 1695SOL    HW216545   4.577   2.236   8.073  1.0931 -1.6345  0.4188
 1696SOL     OW16546   2.037   1.192  13.957 -0.1496 -0.6081 -0.0983
 1696SOL    HW116547   1.997   1.114  13.916 -2.4441  0.6809 -0.3136
 1696SOL    HW216548   2.064   1.241  13.879 -0.5282 -2.6661 -1.5354
 1697SOL     OW16549   1.454   2.730   4.151 -0.2050 -0.2591  0.6698
 1697SOL    HW116550   1.542   2.713   4.183  0.2499 -0.3883 -0.6355
 1697SOL    HW216551   1.459   2.823   4.127  0.1141 -0.2359  0.8326
 1698SOL     OW16552   3.350   3.210   7.031  0.6026 -0.0291  0.3971
 1698SOL    HW116553   3.271   3.185   6.984  0.5129  1.9364 -0.5209
 1698SOL    HW216554   3.412   3.225   6.960  1.0511  0.6089  0.9133
 1699SOL     OW16555   1.462   2.549   7.958 -0.1444  0.2786 -0.0578
 1699SOL    HW116556   1.515   2.475   7.986 -3.0990 -1.5697  0.7001
 1699SOL    HW216557   1.466   2.525   7.865 -0.5017  2.4849 -0.6387
 1700SOL     OW16558   4.658   4.487  11.180  0.7682  0.2158 -0.4537
 1700SOL    HW116559   4.694   4.406  11.218  4.2061  0.4637 -3.1608
 1700SOL    HW216560   4.625   4.528  11.260  0.5565  2.0732 -1.5160
 1701SOL     OW16561   1.108   3.375   1.723  0.3659  0.2408  0.0933
 1701SOL    HW116562   1.162   3.351   1.799  0.0190 -0.1859  0.2010
 1701SOL    HW216563   1.171   3.404   1.657  1.5795 -0.6426  0.8497
 1702SOL     OW16564   3.721   4.109   5.739 -0.1088  0.4967 -0.0775
 1702SOL    HW116565   3.729   4.198   5.704  0.4028  0.2151 -0.6631
 1702SOL    HW216566   3.643   4.074   5.696  0.4044 -1.4846  0.6201
 1703SOL     OW16567   3.769   0.348   8.559  0.6518 -1.1414  0.6657
 1703SOL    HW116568   3.815   0.393   8.488  2.7802  0.4129  3.0255
 1703SOL    HW216569   3.756   0.424   8.616  0.8527 -1.0519  0.5922
 1704SOL     OW16570   3.655   0.538   8.741  0.5636  0.1315  0.2138
 1704SOL    HW116571   3.611   0.502   8.817  0.6479 -1.4988 -0.5169
 1704SOL    HW216572   3.650   0.632   8.759  1.8302  0.2461 -0.0385
 1705SOL     OW16573   4.690   0.822   6.591  0.2094  0.1353  0.5080
 1705SOL    HW116574   4.720   0.734   6.613  0.0843 -0.2832 -1.0414
 1705SOL    HW216575   4.694   0.865   6.677 -0.0927 -0.8379  1.0044
 1706SOL     OW16576   0.560   4.308   0.729 -0.1242  0.4222  0.1401
 1706SOL    HW116577   0.604   4.302   0.814 -0.4382 -1.8468  0.1430
 1706SOL    HW216578   0.493   4.373   0.752  1.2174  1.7327  0.3330
 1707SOL     OW16579   4.625   2.308   2.367  0.2847 -0.2587 -0.1684
 1707SOL    HW116580   4.666   2.337   2.286 -1.5450  0.2660 -0.8976
 1707SOL    HW216581   4.703   2.290   2.419 -0.0539 -0.7116  0.1847
 1708SOL     OW16582   4.394   0.749   4.499  0.0210  0.5507  0.3475
 1708SOL    HW116583   4.461   0.817   4.503 -0.2108  0.7041  1.6624
 1708SOL    HW216584   4.416   0.710   4.415 -1.5763 -0.6307  0.4833
 1709SOL     OW16585   0.426   0.605   7.395 -0.2938 -0.2215 -0.0336
 1709SOL    HW116586   0.508   0.639   7.359 -0.6412  1.4173  0.7043
 1709SOL    HW216587   0.363   0.668   7.361 -1.8704 -1.7802 -0.0137
 1710SOL     OW16588   3.825   0.966  14.716  0.1168  0.1685 -0.2653
 1710SOL    HW116589   3.773   0.919  14.651 -1.2338 -0.2463  1.1231
 1710SOL    HW216590   3.873   1.030  14.662  3.3250 -1.9550  0.0519
 1711SOL     OW16591   2.712   0.697  13.806  0.3257  0.2757  0.2000
 1711SOL    HW116592   2.644   0.661  13.863 -0.4190  0.9064 -0.2921
 1711SOL    HW216593   2.796   0.689  13.852  0.4622  0.4696 -0.0181
 1712SOL     OW16594   0.166   1.519   4.731 -0.6037  0.4290 -0.3766
 1712SOL    HW116595   0.172   1.611   4.705  1.7573  0.0127 -1.3497
 1712SOL    HW216596   0.160   1.521   4.826 -0.4558 -0.8717 -0.3442
 1713SOL     OW16597   4.419   2.691   9.630  0.4540 -0.0896  0.1519
 1713SOL    HW116598   4.338   2.719   9.673 -0.9122 -2.3663 -0.9161
 1713SOL    HW216599   4.476   2.659   9.700  0.1425  2.1274  1.4148
 1714SOL     OW16600   4.529   2.265   0.329 -0.0466 -0.7001 -0.1889
 1714SOL    HW116601   4.515   2.333   0.264  1.3025 -0.0392  0.2149
 1714SOL    HW216602   4.477   2.193   0.291  1.2191 -1.2896 -0.7915
 1715SOL     OW16603   0.221   3.283   1.755 -0.3641 -0.1728 -0.2123
 1715SOL    HW116604   0.300   3.240   1.787 -0.0625  1.7639  1.6505
 1715SOL    HW216605   0.176   3.321   1.830  0.4884  2.7363 -1.1519
 1716SOL     OW16606   4.282   3.644   4.784 -0.2433  0.1366  0.1523
 1716SOL    HW116607   4.241   3.670   4.866 -0.8717 -1.7710  0.4453
 1716SOL    HW216608   4.331   3.570   4.820 -1.0986 -0.8852 -0.7494
 1717SOL     OW16609   1.146   0.591  14.338 -0.1912 -0.4708  0.0740
 1717SOL    HW116610   1.162   0.501  14.310  0.6283 -0.1795 -0.3915
 1717SOL    HW216611   1.238   0.613  14.324 -0.9501  2.4529 -0.1824
 1718SOL     OW16612   1.127   1.530   0.655  0.1169 -0.1868 -0.0845
 1718SOL    HW116613   1.208   1.544   0.703  2.2387 -0.6843 -3.5564
 1718SOL    HW216614   1.092   1.619   0.651 -1.9833 -1.0351 -0.9240
 1719SOL     OW16615   3.537   2.881  16.301 -0.8622  0.4077 -0.8429
 1719SOL    HW116616   3.545   2.957  16.358 -0.3070  0.8674 -1.5291
 1719SOL    HW216617   3.616   2.895  16.249 -0.2453  0.7443  0.1888
 1720SOL     OW16618   3.074   2.925   3.621 -0.6005  0.5397  0.0756
 1720SOL    HW116619   2.983   2.895   3.620  0.6578 -3.2001 -0.9116
 1720SOL    HW216620   3.116   2.843   3.646 -1.9432 -0.3558 -0.5847
 1721SOL     OW16621   1.253   3.133   5.285 -0.0774 -0.6188  0.2708
 1721SOL    HW116622   1.265   3.065   5.218 -1.0263  0.0229 -0.5604
 1721SOL    HW216623   1.174   3.096   5.324  0.3400 -0.0365  1.6367
 1722SOL     OW16624   4.312   3.421   8.933 -0.5173 -0.5263 -0.5811
 1722SOL    HW116625   4.324   3.471   9.014  0.0500 -0.4031 -0.7395
 1722SOL    HW216626   4.278   3.341   8.974 -0.7953 -0.1659 -0.1085
 1723SOL     OW16627   0.458   3.947   1.629 -0.5299  0.4724 -0.5175
 1723SOL    HW116628   0.396   3.925   1.559 -1.5449  0.3044  0.4400
 1723SOL    HW216629   0.401   4.002   1.683 -1.5568 -0.9210 -0.1711
 1724SOL     OW16630   1.868   3.222  17.227  0.1368 -0.2366  0.0928
 1724SOL    HW116631   1.792   3.271  17.196  0.4801  0.3801  0.2348
 1724SOL    HW216632   1.928   3.293  17.204  0.5207  0.0541  1.9702
 1725SOL     OW16633   4.287   3.471  14.173  0.4315  0.4307 -0.0436
 1725SOL    HW116634   4.271   3.546  14.117 -0.6861 -1.4001 -2.1877
 1725SOL    HW216635   4.289   3.511  14.260 -0.0020 -1.5677  0.9018
 1726SOL     OW16636   2.656   3.416   8.599 -0.3092  0.1808  0.8965
 1726SOL    HW116637   2.645   3.356   8.525 -0.7114 -1.0176  1.9322
 1726SOL    HW216638   2.674   3.356   8.672 -0.7528  0.2376  1.0525
 1727SOL     OW16639   1.470   3.070  10.240  0.3313 -0.2742 -0.0873
 1727SOL    HW116640   1.404   3.060  10.171  0.1117 -1.0724  0.2379
 1727SOL    HW216641   1.546   3.017  10.215 -0.6517 -1.8969  0.3506
 1728SOL     OW16642   3.955   3.766   1.152  0.9221  0.5208  0.2727
 1728SOL    HW116643   3.896   3.715   1.207  0.3738  2.4662  1.5174
 1728SOL    HW216644   3.995   3.702   1.094  0.6897  0.5341  0.0978
 1729SOL     OW16645   1.616   3.468   2.545  0.0928 -0.2810 -0.3341
 1729SOL    HW116646   1.631   3.418   2.465  1.7638  0.0345 -0.2106
 1729SOL    HW216647   1.677   3.430   2.609  0.8806 -0.3367 -1.1236
 1730SOL     OW16648   0.803   0.905   6.816 -0.2676 -0.0917  0.3485
 1730SOL    HW116649   0.733   0.895   6.880 -0.8143  0.4664 -0.1585
 1730SOL    HW216650   0.838   0.993   6.829  1.7860 -0.5791 -1.9810
 1731SOL     OW16651   3.457   4.499  15.089  0.0668 -0.2597 -1.0306
 1731SOL    HW116652   3.396   4.486  15.162 -1.1690 -1.5702 -2.2818
 1731SOL    HW216653   3.388   4.516  15.024  0.0869  2.7524 -0.2457
 1732SOL     OW16654   1.556   1.568  17.181  0.0792  0.4370  0.2222
 1732SOL    HW116655   1.644   1.584  17.215  0.0545 -0.8615  0.8978
 1732SOL    HW216656   1.546   1.647  17.128  1.7331 -0.0471 -0.8305
 1733SOL     OW16657   1.109   0.722   1.169  0.4635  0.0212 -0.1110
 1733SOL    HW116658   1.136   0.769   1.091  0.3007 -1.6963 -1.2022
 1733SOL    HW216659   1.021   0.758   1.180  0.7537  0.6484  0.1485
 1734SOL     OW16660   0.251   0.675   5.558  0.0764 -0.3904  0.2406
 1734SOL    HW116661   0.206   0.743   5.507  2.4768  1.6531  0.8773
 1734SOL    HW216662   0.177   0.620   5.584  0.4086 -0.3129  1.3097
 1735SOL     OW16663   1.217   4.472   7.897 -0.4804 -0.6803  0.4878
 1735SOL    HW116664   1.308   4.484   7.924 -0.7170  0.8974  0.5686
 1735SOL    HW216665   1.195   4.560   7.865 -0.4724 -0.4452  1.1437
 1736SOL     OW16666   0.937   0.530   0.253 -0.1195  0.6476 -0.3087
 1736SOL    HW116667   1.028   0.519   0.228  0.0286  0.9956  0.0750
 1736SOL    HW216668   0.937   0.623   0.278  2.4588  0.6110 -0.2119
 1737SOL     OW16669   4.114   2.943   4.974 -0.3570  0.0926 -0.1704
 1737SOL    HW116670   4.138   2.856   4.941 -0.9707  0.2649 -1.0738
 1737SOL    HW216671   4.193   2.973   5.019  0.8001 -1.1211 -1.3846
 1738SOL     OW16672   3.924   1.865   2.481  0.2143  0.0472 -0.2503
 1738SOL    HW116673   3.908   1.790   2.424  0.1961 -0.3803  0.3182
 1738SOL    HW216674   3.845   1.914   2.459 -0.2887 -1.0590 -0.9098
 1739SOL     OW16675   2.546   3.769   6.830  0.1134  0.5042 -0.4617
 1739SOL    HW116676   2.527   3.700   6.894 -0.6580 -0.0068 -1.2568
 1739SOL    HW216677   2.635   3.745   6.804  0.4602  1.6894 -0.3689
 1740SOL     OW16678   1.600   4.204   4.986 -0.1891 -0.5892 -0.0362
 1740SOL    HW116679   1.688   4.220   4.951  0.4089  0.3976  1.9169
 1740SOL    HW216680   1.559   4.287   4.959  1.0538 -0.3535 -1.2189
 1741SOL     OW16681   0.088   4.625   6.078 -0.1022  0.4533  0.2604
 1741SOL    HW116682   0.084   4.546   6.023 -0.4428  1.2723 -0.8975
 1741SOL    HW216683   0.141   4.592   6.151 -0.4219 -0.6579  0.0041
 1742SOL     OW16684   1.142   0.874   7.457  0.2451 -0.1728 -0.0309
 1742SOL    HW116685   1.196   0.930   7.513  1.9794 -0.4788 -1.4132
 1742SOL    HW216686   1.111   0.809   7.521  0.7306 -1.0910 -0.7220
 1743SOL     OW16687   1.854   3.812  10.300  0.3998  0.2709  0.1963
 1743SOL    HW116688   1.866   3.802  10.394 -0.3254  1.3466  0.4007
 1743SOL    HW216689   1.885   3.902  10.291 -0.0520  0.4685  0.6079
 1744SOL     OW16690   4.154   2.477  10.873 -0.1034  0.0273  0.0378
 1744SOL    HW116691   4.154   2.520  10.788 -0.0492  1.8179  0.9296
 1744SOL    HW216692   4.192   2.392  10.855  0.2018  0.0647  0.4865
 1745SOL     OW16693   3.010   3.796   6.558  0.3237  0.3890 -0.0068
 1745SOL    HW116694   3.044   3.872   6.510  0.1835  0.0911 -0.5840
 1745SOL    HW216695   2.979   3.732   6.494 -0.5992 -0.3386  1.1667
 1746SOL     OW16696   3.961   0.239   5.319 -0.4695  0.1633 -0.5950
 1746SOL    HW116697   3.998   0.308   5.263 -0.9785  1.0646  0.1717
 1746SOL    HW216698   4.047   0.209   5.349 -0.1355  0.5969 -1.1058
 1747SOL     OW16699   0.108   1.219   3.361 -0.7170  0.3183 -0.3935
 1747SOL    HW116700   0.167   1.277   3.313  0.4821 -0.9049 -0.3982
 1747SOL    HW216701   0.168   1.146   3.378 -1.2804  0.4925  2.4015
 1748SOL     OW16702   1.129   1.218   8.115 -0.4082  0.1676  0.5183
 1748SOL    HW116703   1.178   1.145   8.152 -0.7687  0.1271  0.9214
 1748SOL    HW216704   1.206   1.270   8.092 -2.3045  0.6496 -4.8441
 1749SOL     OW16705   3.203   1.947   5.776 -0.1250  0.9381 -0.0668
 1749SOL    HW116706   3.127   1.889   5.777 -0.8069  1.8823  3.1848
 1749SOL    HW216707   3.186   1.993   5.858  4.2444 -3.1190  3.1119
 1750SOL     OW16708   2.468   1.395   6.207  0.1563 -0.2300 -0.5772
 1750SOL    HW116709   2.488   1.363   6.119  2.3651  0.6423 -0.3924
 1750SOL    HW216710   2.396   1.340   6.238  0.9241 -0.4676  0.7875
 1751SOL     OW16711   1.281   4.492   1.868 -0.5030  0.0850  0.1613
 1751SOL    HW116712   1.298   4.467   1.959  2.2466 -0.2343 -0.4265
 1751SOL    HW216713   1.201   4.447   1.843 -1.2724  0.9153  1.1073
 1752SOL     OW16714   1.615   2.831   8.776 -0.0004 -0.3172  0.1660
 1752SOL    HW116715   1.569   2.800   8.697  0.8698 -2.8896  0.6718
 1752SOL    HW216716   1.561   2.905   8.803  0.9026 -0.1499  1.4769
 1753SOL     OW16717   3.654   3.486   1.555 -0.7897 -0.6186 -0.2301
 1753SOL    HW116718   3.603   3.538   1.617 -0.3797  1.7914 -1.9335
 1753SOL    HW216719   3.676   3.408   1.606 -0.0696 -0.0376  0.3464
 1754SOL     OW16720   0.045   3.771   7.766  0.0494  0.0034  0.0358
 1754SOL    HW116721   4.698   3.767   7.830  1.0386  2.9238  1.3374
 1754SOL    HW216722   0.093   3.694   7.798 -0.4444 -0.7549 -1.0342
 1755SOL     OW16723   0.385   0.463   2.522 -0.2935  0.5284 -0.3169
 1755SOL    HW116724   0.313   0.418   2.478 -0.0756 -0.9025  0.8008
 1755SOL    HW216725   0.360   0.555   2.519 -1.0973  0.2221 -3.2434
 1756SOL     OW16726   0.595   4.619   8.471 -0.5308  0.3063  0.6359
 1756SOL    HW116727   0.505   4.608   8.501 -0.5294  3.0286  1.6703
 1756SOL    HW216728   0.645   4.625   8.553 -0.7645  1.9218  0.6743
 1757SOL     OW16729   2.324   2.373   7.902  0.4183 -1.2159 -0.9572
 1757SOL    HW116730   2.327   2.277   7.897  1.0761 -1.3350  1.6074
 1757SOL    HW216731   2.325   2.377   7.998  5.3064 -2.8534 -0.9004
 1758SOL     OW16732   0.579   4.253   5.224 -0.0155  0.3292 -0.0501
 1758SOL    HW116733   0.574   4.324   5.160  1.3105  1.0122  0.6000
 1758SOL    HW216734   0.526   4.193   5.171  1.1975 -2.2806  1.6897
 1759SOL     OW16735   2.368   1.169  14.668  0.7398  0.0761  0.6620
 1759SOL    HW116736   2.382   1.221  14.589  0.7234 -0.1572  0.5063
 1759SOL    HW216737   2.417   1.224  14.729  0.7194  0.0009  0.7454
 1760SOL     OW16738   1.126   0.147   1.621  0.0631 -0.0417  0.3178
 1760SOL    HW116739   1.204   0.187   1.583  0.3676 -0.6404  0.3154
 1760SOL    HW216740   1.127   0.200   1.701 -0.8073 -2.6120  2.0298
 1761SOL     OW16741   2.368   1.324   7.529 -0.2916 -0.3751  0.2502
 1761SOL    HW116742   2.418   1.275   7.595 -1.4876 -1.4525  0.3526
 1761SOL    HW216743   2.409   1.410   7.521 -1.0644  0.1892  2.3512
 1762SOL     OW16744   0.846   3.682   8.588  0.0379 -0.0785  0.0126
 1762SOL    HW116745   0.766   3.721   8.623  0.1971 -1.0734  1.4937
 1762SOL    HW216746   0.808   3.604   8.547 -0.5481 -0.8532  2.0637
 1763SOL     OW16747   1.396   3.239   6.905 -0.2616 -0.1632  0.4644
 1763SOL    HW116748   1.463   3.202   6.962 -0.7741  0.2087  1.3106
 1763SOL    HW216749   1.409   3.331   6.927 -1.1657  0.5702 -1.9464
 1764SOL     OW16750   2.702   4.047   0.595  0.1202  0.1657 -0.0007
 1764SOL    HW116751   2.663   4.037   0.682  0.1028  0.2626  0.0030
 1764SOL    HW216752   2.775   4.108   0.608  0.6351 -0.5769  0.5399
 1765SOL     OW16753   2.928   3.736  17.449 -0.0529 -0.1279 -0.2133
 1765SOL    HW116754   2.849   3.682  17.441  0.0317 -0.5287  1.6274
 1765SOL    HW216755   2.904   3.806  17.509 -1.6060  0.6127 -1.6893
 1766SOL     OW16756   0.422   2.189   9.427  0.0327  0.0129  0.4389
 1766SOL    HW116757   0.514   2.173   9.449 -0.7338 -0.6933  3.0312
 1766SOL    HW216758   0.413   2.113   9.369 -0.7245 -0.9067  1.7908
 1767SOL     OW16759   2.127   2.755   2.410 -0.1847 -0.1358 -0.0858
 1767SOL    HW116760   2.172   2.835   2.383  1.5541 -0.7336  1.0236
 1767SOL    HW216761   2.121   2.761   2.505 -1.2902  0.6396 -0.2027
 1768SOL     OW16762   4.195   1.757   4.897  0.0530  0.1421  0.2976
 1768SOL    HW116763   4.232   1.728   4.814  1.1916  2.5656 -0.0550
 1768SOL    HW216764   4.229   1.847   4.892  1.6857 -0.5374 -0.7761
 1769SOL     OW16765   2.039   1.174   6.591 -0.1805 -0.0680 -0.3953
 1769SOL    HW116766   1.948   1.150   6.574  0.0616 -2.3722  1.6473
 1769SOL    HW216767   2.022   1.223   6.671  1.1727 -1.7108  0.8737
 1770SOL     OW16768   3.757   3.397   2.647 -0.1759 -0.1822 -0.2719
 1770SOL    HW116769   3.671   3.415   2.609 -1.2230 -1.4641  1.4888
 1770SOL    HW216770   3.779   3.488   2.666 -2.1951  0.1636  0.4146
 1771SOL     OW16771   3.991   2.640   3.027  0.4401  0.8882  0.0316
 1771SOL    HW116772   4.062   2.626   2.964  1.7001 -0.1673  1.6843
 1771SOL    HW216773   3.954   2.551   3.028  1.5592  0.4080 -1.7739
 1772SOL     OW16774   2.523   3.121   6.427 -0.4179  0.2790 -0.3414
 1772SOL    HW116775   2.484   3.038   6.400 -0.4899  0.9565 -2.2937
 1772SOL    HW216776   2.611   3.101   6.395 -0.5247 -0.6529 -0.0594
 1773SOL     OW16777   1.935   3.419   3.622 -0.0413 -0.0992 -0.5521
 1773SOL    HW116778   1.889   3.350   3.670  0.6707  0.7222  1.2900
 1773SOL    HW216779   1.905   3.429   3.531  0.4903 -0.7651 -0.8056
 1774SOL     OW16780   2.290   3.928  10.277 -0.3940  0.3330  0.1782
 1774SOL    HW116781   2.319   3.951  10.189  1.8587 -1.4178  0.4568
 1774SOL    HW216782   2.352   3.857  10.291  0.1116  0.5456 -0.9848
 1775SOL     OW16783   2.617   3.247   8.390 -0.1428 -0.2309  0.0829
 1775SOL    HW116784   2.565   3.241   8.311  0.4437 -0.1855 -0.3096
 1775SOL    HW216785   2.651   3.158   8.380 -1.7995 -0.7687 -0.6475
 1776SOL     OW16786   1.713   0.695   5.814 -0.1965  0.0158  0.4018
 1776SOL    HW116787   1.734   0.612   5.770 -1.2036 -0.3811  0.6554
 1776SOL    HW216788   1.619   0.692   5.797 -0.2222 -0.1495  0.5708
 1777SOL     OW16789   1.324   1.428   3.123 -0.1380  0.4863  0.0541
 1777SOL    HW116790   1.278   1.345   3.139  0.9718  0.2299  1.8627
 1777SOL    HW216791   1.256   1.489   3.151 -1.4757 -1.0569  0.1400
 1778SOL     OW16792   3.716   4.719   4.037 -0.3227  0.3127 -0.4003
 1778SOL    HW116793   3.687   4.676   4.117  0.3573  1.6228  0.5489
 1778SOL    HW216794   3.752   0.081   4.059 -1.7113  1.2200 -1.6393
 1779SOL     OW16795   2.073   3.814  10.090 -0.9173 -0.8604 -0.1307
 1779SOL    HW116796   2.072   3.877  10.162 -0.3640 -0.6900 -0.2721
 1779SOL    HW216797   2.157   3.772  10.109 -0.8178 -1.3155 -1.5618
 1780SOL     OW16798   2.845   4.145   4.640 -0.1213  0.0521 -0.1265
 1780SOL    HW116799   2.755   4.124   4.666  0.5831 -0.7107  1.6451
 1780SOL    HW216800   2.856   4.234   4.675 -2.9619  0.5911 -0.6233
 1781SOL     OW16801   0.523   2.946   0.465 -0.0236  0.3643  0.0487
 1781SOL    HW116802   0.585   3.016   0.446  1.8433 -1.2283  0.2812
 1781SOL    HW216803   0.471   2.937   0.386 -0.2280 -0.4331  0.2748
 1782SOL     OW16804   1.097   2.995   2.830 -0.6441 -0.0651 -0.1925
 1782SOL    HW116805   1.081   2.939   2.754  0.4339  0.2338 -0.6519
 1782SOL    HW216806   1.175   3.039   2.795 -1.8022 -0.1247 -2.8939
 1783SOL     OW16807   0.932   3.374   8.207  0.1575 -0.2898  0.2213
 1783SOL    HW116808   1.006   3.404   8.258 -0.1503 -0.4670  0.7714
 1783SOL    HW216809   0.914   3.460   8.169 -1.6708 -0.9995 -0.5458
 1784SOL     OW16810   0.539   2.619  12.655  0.1820 -0.8703  0.7773
 1784SOL    HW116811   0.532   2.672  12.575 -1.2613 -1.3805  0.5547
 1784SOL    HW216812   0.450   2.617  12.690 -1.0277 -0.2404 -2.2163
 1785SOL     OW16813   4.366   3.069  11.097 -0.2954  0.3341 -0.2765
 1785SOL    HW116814   4.276   3.052  11.125 -0.4121  0.6050 -0.4917
 1785SOL    HW216815   4.400   3.118  11.172  1.8335 -0.8447 -0.4618
 1786SOL     OW16816   2.305   4.250   0.224  0.2625 -0.3230 -0.5742
 1786SOL    HW116817   2.317   4.343   0.240  1.1437 -0.3600 -1.0026
 1786SOL    HW216818   2.257   4.259   0.142 -0.1650  1.0876 -0.1705
 1787SOL     OW16819   0.610   1.556   7.312  0.4066  0.8043  0.6668
 1787SOL    HW116820   0.580   1.640   7.277 -1.1489 -0.7563 -1.8079
 1787SOL    HW216821   0.635   1.508   7.232  0.7692 -1.3560  2.0738
 1788SOL     OW16822   2.655   3.845   9.612 -0.5394 -0.5486  0.0799
 1788SOL    HW116823   2.674   3.893   9.531  2.5057 -0.5279  0.7904
 1788SOL    HW216824   2.615   3.770   9.569 -2.3634 -1.2828  3.0890
 1789SOL     OW16825   2.573   4.639   5.737  0.3245 -0.0508  0.3224
 1789SOL    HW116826   2.650   4.631   5.680  0.2841 -0.2209  0.2918
 1789SOL    HW216827   2.565   0.010   5.739 -0.3359 -0.1141  0.7643
 1790SOL     OW16828   3.482   2.333   0.847  0.0727 -0.4226 -0.0582
 1790SOL    HW116829   3.538   2.263   0.815  1.0962  0.3649  0.0339
 1790SOL    HW216830   3.422   2.286   0.905 -1.3086 -1.1827 -2.1068
 1791SOL     OW16831   4.020   0.431   9.592 -0.2627  0.0625 -0.8729
 1791SOL    HW116832   3.970   0.374   9.651  0.0563  1.1667  0.4609
 1791SOL    HW216833   4.108   0.412   9.624  0.8162  1.6478 -2.8997
 1792SOL     OW16834   3.049   3.051   7.771  0.0692 -0.0127  0.2137
 1792SOL    HW116835   3.143   3.037   7.760  0.5142  1.7231  1.8022
 1792SOL    HW216836   3.005   2.989   7.714 -0.2152 -0.1229  0.5520
 1793SOL     OW16837   2.349   4.412  11.569  0.2474 -0.5552  0.1466
 1793SOL    HW116838   2.419   4.477  11.566 -0.4514  0.1208 -1.6169
 1793SOL    HW216839   2.296   4.452  11.500  0.5549  1.1017  0.8754
 1794SOL     OW16840   2.829   1.334   9.650  0.0391 -0.0026 -0.4300
 1794SOL    HW116841   2.736   1.337   9.625 -0.3947 -3.1246  0.8910
 1794SOL    HW216842   2.832   1.244   9.680 -3.4917 -0.0736 -0.3138
 1795SOL     OW16843   1.297   4.456   6.250 -0.2169  0.1181 -0.1912
 1795SOL    HW116844   1.255   4.476   6.333  1.7464  2.0866  0.3296
 1795SOL    HW216845   1.257   4.373   6.224  0.6820 -0.6873  1.0415
 1796SOL     OW16846   2.825   2.998   3.315  0.6822  0.1200 -0.0611
 1796SOL    HW116847   2.854   3.088   3.300  0.0413  0.8854  3.2189
 1796SOL    HW216848   2.907   2.952   3.335 -0.0034 -0.1821  2.0329
 1797SOL     OW16849   1.386   4.232   7.760  0.1800  0.0090  0.0882
 1797SOL    HW116850   1.398   4.315   7.806 -1.8965 -0.9605  2.3573
 1797SOL    HW216851   1.399   4.163   7.825  2.9072 -0.3527 -0.8495
 1798SOL     OW16852   1.121   3.988   6.798 -0.2487  0.8338 -0.5770
 1798SOL    HW116853   1.195   4.016   6.744  0.3752  1.6919  0.7206
 1798SOL    HW216854   1.152   4.005   6.886  1.5873  1.2205 -1.3012
 1799SOL     OW16855   2.223   4.672   9.815  0.2317 -0.3424 -0.1728
 1799SOL    HW116856   2.150   4.610   9.805 -0.4741  0.5868 -0.7323
 1799SOL    HW216857   2.177   0.030   9.801  1.4274  0.4365  0.5580
 1800SOL     OW16858   0.628   0.571   3.229  0.1295  0.1453 -0.2203
 1800SOL    HW116859   0.632   0.487   3.273  2.5228  1.7413  2.6209
 1800SOL    HW216860   0.608   0.640   3.293 -1.5989  1.6107 -2.3420
 1801SOL     OW16861   2.848   1.143  15.945 -0.0928  0.5598 -0.2241
 1801SOL    HW116862   2.805   1.097  15.873  1.0360 -0.6965 -0.1129
 1801SOL    HW216863   2.863   1.062  15.993 -0.1697  0.6453 -0.0554
 1802SOL     OW16864   1.404   2.387   1.934 -0.2706 -0.1221 -0.0788
 1802SOL    HW116865   1.359   2.464   1.969  1.4500  1.6580 -1.7761
 1802SOL    HW216866   1.398   2.316   1.998  1.3412  1.3189  1.6790
 1803SOL     OW16867   3.129   4.291   6.008  0.0802  0.4427  0.4037
 1803SOL    HW116868   3.189   4.275   5.935 -1.9325  1.2458 -1.4246
 1803SOL    HW216869   3.180   4.250   6.078 -1.6796 -1.6873  0.4244
 1804SOL     OW16870   3.527   2.136   5.359  0.2149  0.1898 -0.1563
 1804SOL    HW116871   3.471   2.213   5.348 -0.7287 -0.2735  1.3733
 1804SOL    HW216872   3.519   2.106   5.450 -1.6391  0.0644 -0.3492
 1805SOL     OW16873   1.764   3.121   9.433  0.8331 -0.3710  0.1096
 1805SOL    HW116874   1.838   3.067   9.404  0.8175 -0.6060  0.5145
 1805SOL    HW216875   1.701   3.093   9.366 -1.0646  1.7359  1.0315
 1806SOL     OW16876   3.374   0.014   9.856  0.2645 -0.0092  0.9548
 1806SOL    HW116877   3.322   0.070   9.798  0.7208  1.3013  1.8178
 1806SOL    HW216878   3.423   0.077   9.908  1.5126  0.2360 -0.5163
 1807SOL     OW16879   0.281   0.864   5.932 -0.5870 -0.3731 -0.3785
 1807SOL    HW116880   0.222   0.880   6.006 -0.7545 -0.0455 -0.5805
 1807SOL    HW216881   0.224   0.907   5.867  0.4967  2.5548  0.5896
 1808SOL     OW16882   0.693   4.285  11.614 -0.1697  0.0419  0.0547
 1808SOL    HW116883   0.724   4.375  11.621  2.3117 -0.9709  2.3719
 1808SOL    HW216884   0.777   4.238  11.608 -0.6888 -1.1722  2.4361
 1809SOL     OW16885   3.532   1.660   6.174 -0.3680 -0.1232 -0.2431
 1809SOL    HW116886   3.537   1.691   6.264 -0.5785 -1.4108  0.2145
 1809SOL    HW216887   3.622   1.630   6.161  0.1152  0.2796  2.1539
 1810SOL     OW16888   2.894   0.896   1.534  0.0704  0.0997 -0.1370
 1810SOL    HW116889   2.838   0.849   1.473 -0.0951  1.1495 -0.8067
 1810SOL    HW216890   2.980   0.860   1.511  0.5006  0.9983  0.0315
 1811SOL     OW16891   4.111   1.817   0.496  0.0946 -0.0710 -0.1866
 1811SOL    HW116892   4.137   1.898   0.541 -0.5537 -1.0603  1.9426
 1811SOL    HW216893   4.144   1.741   0.542  1.2354 -0.2694 -1.3100
 1812SOL     OW16894   1.255   1.341   5.086  0.2896 -0.3729 -0.2434
 1812SOL    HW116895   1.247   1.257   5.040  0.3617 -0.3049 -0.3818
 1812SOL    HW216896   1.252   1.397   5.007  0.8163 -1.4592 -1.0291
 1813SOL     OW16897   3.027   3.307  15.450 -0.1777  0.6631 -0.3157
 1813SOL    HW116898   3.102   3.317  15.392  0.2448 -1.2599 -0.1045
 1813SOL    HW216899   3.049   3.235  15.510  1.0794 -0.2881 -1.8916
 1814SOL     OW16900   2.460   1.538   8.127 -0.5192 -0.2203 -0.4013
 1814SOL    HW116901   2.396   1.487   8.078 -0.0905 -0.7894 -0.3704
 1814SOL    HW216902   2.531   1.555   8.066  0.2061 -0.7494  0.2946
 1815SOL     OW16903   4.008   3.443   3.373  0.6255 -0.5967 -0.1407
 1815SOL    HW116904   3.953   3.383   3.425  0.1255 -0.0129  0.0008
 1815SOL    HW216905   4.002   3.411   3.283  0.5626  0.1489 -0.3958
 1816SOL     OW16906   3.115   1.283   9.003  0.7877  0.2525 -0.2500
 1816SOL    HW116907   3.058   1.273   8.927 -1.3753  1.0432  1.2943
 1816SOL    HW216908   3.126   1.378   9.013 -2.2770  0.5482  0.2240
 1817SOL     OW16909   1.424   2.257   1.269 -0.3034 -0.1065 -0.0112
 1817SOL    HW116910   1.423   2.352   1.255  1.4181 -0.2379 -0.9743
 1817SOL    HW216911   1.439   2.259   1.363  1.3684 -0.6849 -0.2726
 1818SOL     OW16912   0.453   1.546  16.217  0.0603 -0.2125 -0.2202
 1818SOL    HW116913   0.528   1.555  16.159 -0.5591  0.5447 -0.9094
 1818SOL    HW216914   0.483   1.602  16.288 -2.3164  0.9101 -0.0919
 1819SOL     OW16915   4.398   1.459   6.402 -0.0630  0.3969 -0.5089
 1819SOL    HW116916   4.442   1.410   6.332 -1.1992  1.0155 -1.6568
 1819SOL    HW216917   4.306   1.436   6.389  0.4821 -0.7798 -2.3255
 1820SOL     OW16918   1.758   2.283   4.680  0.5381  0.1049 -0.0793
 1820SOL    HW116919   1.830   2.288   4.742 -1.1333 -0.4863  1.9225
 1820SOL    HW216920   1.679   2.316   4.723  0.9991 -1.1168  1.7098
 1821SOL     OW16921   0.156   0.042   4.873 -0.3575 -0.1718 -0.0383
 1821SOL    HW116922   0.184   0.095   4.947  0.4148  1.1462 -1.2859
 1821SOL    HW216923   0.085   4.713   4.909 -0.5323 -0.4285 -0.7592
 1822SOL     OW16924   4.271   4.189   2.999  0.3701 -0.5911  0.1806
 1822SOL    HW116925   4.320   4.252   2.946  1.2800 -1.2397  0.2458
 1822SOL    HW216926   4.268   4.111   2.943  2.4596  0.1548 -0.9678
 1823SOL     OW16927   4.455   1.015  16.761  0.1728 -0.2718  0.4321
 1823SOL    HW116928   4.479   0.931  16.799 -2.4683 -1.1201  0.2336
 1823SOL    HW216929   4.544   1.050  16.748  1.1151 -2.7922  0.1261
 1824SOL     OW16930   4.628   2.208  16.351  0.1531  0.5994  0.9359
 1824SOL    HW116931   4.587   2.226  16.266  1.3947 -1.6639 -0.1296
 1824SOL    HW216932   4.571   2.256  16.411 -0.6493  2.3720 -1.2176
 1825SOL     OW16933   0.922   1.718   2.700 -0.0274 -0.3950  0.3699
 1825SOL    HW116934   0.855   1.775   2.661  0.1052 -2.4660 -2.8613
 1825SOL    HW216935   0.966   1.705   2.616 -1.0265  0.2382 -0.2524
 1826SOL     OW16936   2.380   3.800   7.597  0.4754  0.5056  0.2577
 1826SOL    HW116937   2.380   3.886   7.555  1.3355  0.5390  0.3419
 1826SOL    HW216938   2.343   3.829   7.681 -0.6478  3.1843 -1.1712
 1827SOL     OW16939   4.686   4.583   1.535  0.2355 -0.2674  0.3353
 1827SOL    HW116940   4.672   4.672   1.502  1.3558  0.2856  1.3506
 1827SOL    HW216941   4.701   4.605   1.628  4.1646  1.5729 -0.7069
 1828SOL     OW16942   0.221   2.900  13.993 -0.5976  0.0595 -0.1771
 1828SOL    HW116943   0.295   2.904  14.053 -0.2170  1.1570 -0.7239
 1828SOL    HW216944   0.233   2.978  13.938  1.3906  1.0505  1.6868
 1829SOL     OW16945   2.455   3.544   8.526 -0.4493 -0.2165 -0.7089
 1829SOL    HW116946   2.392   3.549   8.598  0.4223  0.1547  0.0349
 1829SOL    HW216947   2.528   3.495   8.564 -0.4112 -1.2808 -2.1403
 1830SOL     OW16948   3.183   2.863   6.781 -0.3118  0.3198  0.0810
 1830SOL    HW116949   3.176   2.861   6.876  0.7310 -0.8387  0.1312
 1830SOL    HW216950   3.089   2.845   6.772  0.1616 -2.4752  0.8073
 1831SOL     OW16951   3.519   1.985   4.677  0.0948  0.4704 -0.2612
 1831SOL    HW116952   3.571   1.911   4.647  0.2114  0.7023 -0.6273
 1831SOL    HW216953   3.446   1.969   4.617 -1.2572  0.4363  1.3949
 1832SOL     OW16954   2.052   1.850   5.335 -0.1213  0.3271 -0.1058
 1832SOL    HW116955   2.108   1.788   5.289  0.1379  0.5919 -0.1396
 1832SOL    HW216956   2.012   1.893   5.260  0.4041  0.4421 -0.3189
 1833SOL     OW16957   3.165   2.418   8.162  0.0974  0.5325  0.2480
 1833SOL    HW116958   3.231   2.484   8.144 -1.5124  2.4717  1.4115
 1833SOL    HW216959   3.217   2.338   8.161  0.6450  0.8951  0.0828
 1834SOL     OW16960   2.471   3.451   6.769 -0.2820 -0.1007 -0.2304
 1834SOL    HW116961   2.413   3.400   6.712 -1.1101 -1.4732  1.8638
 1834SOL    HW216962   2.467   3.537   6.726  1.0831 -0.0204 -0.1811
 1835SOL     OW16963   0.988   0.452   7.867  0.0989  0.0810  0.1434
 1835SOL    HW116964   1.030   0.386   7.922  1.5707 -0.9917 -2.2686
 1835SOL    HW216965   0.935   0.500   7.930  0.2637  0.7266 -0.2162
 1836SOL     OW16966   4.099   3.409   7.590 -0.0756 -0.4894 -0.4533
 1836SOL    HW116967   4.017   3.437   7.629  0.4231  1.0628 -0.5405
 1836SOL    HW216968   4.121   3.491   7.547 -0.6258  0.1575  0.5134
 1837SOL     OW16969   1.264   0.647   2.901 -0.2337  0.3886 -0.1351
 1837SOL    HW116970   1.307   0.728   2.872  1.3450  0.3281  2.0340
 1837SOL    HW216971   1.204   0.645   2.826 -0.3210  0.5445 -0.0686
 1838SOL     OW16972   4.248   4.313   1.873 -0.3015  0.1029 -0.0758
 1838SOL    HW116973   4.183   4.382   1.860  0.7318  1.6537  3.0013
 1838SOL    HW216974   4.303   4.313   1.795 -2.0891 -0.6036 -1.3411
 1839SOL     OW16975   4.142   1.267   6.587  0.1062 -0.1636  0.1941
 1839SOL    HW116976   4.178   1.198   6.531  0.8388  1.3185 -1.1704
 1839SOL    HW216977   4.067   1.230   6.634  0.2299  0.9070  1.2352
 1840SOL     OW16978   1.884   1.345   0.996 -0.2204 -0.8307 -0.2148
 1840SOL    HW116979   1.927   1.430   1.005 -2.5055  0.3243 -0.1861
 1840SOL    HW216980   1.900   1.311   0.908  0.4064  1.0415 -0.8404
 1841SOL     OW16981   4.452   1.996   4.827  0.3046  0.6621 -0.6122
 1841SOL    HW116982   4.465   1.956   4.741  2.0492 -1.9497  0.8752
 1841SOL    HW216983   4.512   1.942   4.878  1.7156  1.6301 -1.2494
 1842SOL     OW16984   2.642   4.468   1.647 -0.0417  0.2633 -0.0800
 1842SOL    HW116985   2.655   4.552   1.604  0.8122  0.3029  0.2440
 1842SOL    HW216986   2.682   4.405   1.587 -2.7890 -0.5265 -1.0504
 1843SOL     OW16987   0.511   0.920   4.451  0.5984  0.2893  0.1345
 1843SOL    HW116988   0.479   0.972   4.525 -0.3726  3.4424 -2.4906
 1843SOL    HW216989   0.537   0.839   4.495 -1.6571 -0.8091 -0.5569
 1844SOL     OW16990   1.362   3.411   1.885 -0.1360 -0.1577  0.5958
 1844SOL    HW116991   1.359   3.419   1.981 -1.5647 -0.8570  0.6212
 1844SOL    HW216992   1.445   3.364   1.876  0.3581  0.3011  2.7123
 1845SOL     OW16993   4.468   1.860  10.053  0.3287 -0.6536  0.0422
 1845SOL    HW116994   4.471   1.897   9.964  2.1071  0.8018  0.7178
 1845SOL    HW216995   4.379   1.827  10.064  0.2264 -0.2795  0.3152
 1846SOL     OW16996   1.734   0.716   8.016  0.5379 -0.1952 -0.4473
 1846SOL    HW116997   1.705   0.650   7.953 -0.4438 -0.4466  0.2550
 1846SOL    HW216998   1.689   0.672   8.089  0.4704  2.0302  0.8501
 1847SOL     OW16999   3.527   1.785   2.542  0.1965 -0.3645 -0.6156
 1847SOL    HW117000   3.588   1.846   2.501 -0.9355 -0.4169 -2.3910
 1847SOL    HW217001   3.468   1.849   2.579  0.0961 -1.5032  1.1788
 1848SOL     OW17002   3.803   0.060   0.444  0.2982 -0.0272 -0.6010
 1848SOL    HW117003   3.753   4.714   0.402  0.3262 -1.0867  1.0975
 1848SOL    HW217004   3.784   0.050   0.538 -0.2004 -0.7283 -0.7761
 1849SOL     OW17005   1.053   1.387   2.407 -0.0794 -0.2413  0.3749
 1849SOL    HW117006   0.996   1.435   2.347 -0.6040 -2.9115 -1.2684
 1849SOL    HW217007   1.110   1.458   2.435 -1.9155  1.3791 -0.0114
 1850SOL     OW17008   3.233   0.703   3.247 -0.7034 -0.6108  0.3854
 1850SOL    HW117009   3.140   0.696   3.223 -1.0048  1.8817  0.7808
 1850SOL    HW217010   3.269   0.618   3.222  1.8667  0.2327  1.2719
 1851SOL     OW17011   3.089   1.190   2.505  0.5039 -0.0752  0.4431
 1851SOL    HW117012   3.130   1.103   2.503 -1.0992 -0.8098 -0.7134
 1851SOL    HW217013   3.124   1.226   2.424  1.2475  3.0976  2.1907
 1852SOL     OW17014   3.025   0.128  17.674 -0.0979 -0.4517 -0.0518
 1852SOL    HW117015   3.054   0.047  17.633  1.5154 -0.5867  1.3598
 1852SOL    HW217016   2.965   0.161  17.607  0.1162  0.1580  0.0515
 1853SOL     OW17017   2.244   4.489   1.180  0.2236 -0.3302  0.7071
 1853SOL    HW117018   2.310   4.520   1.117 -0.0041  1.8593  1.5233
 1853SOL    HW217019   2.287   4.501   1.265  1.9957  0.4471 -0.2784
 1854SOL     OW17020   4.129   2.360  12.537  0.7951  0.0145 -0.6802
 1854SOL    HW117021   4.143   2.273  12.501  1.4809 -0.2843  0.3078
 1854SOL    HW217022   4.128   2.405  12.452  0.7231 -0.5436 -0.9760
 1855SOL     OW17023   3.658   1.563   2.659  0.5448  0.7440 -0.1453
 1855SOL    HW117024   3.615   1.641   2.624  2.6379  1.3441 -1.4220
 1855SOL    HW217025   3.747   1.592   2.683  1.1093 -2.2525  1.4672
 1856SOL     OW17026   4.321   4.423   7.411 -0.2621 -0.2285 -0.5308
 1856SOL    HW117027   4.378   4.357   7.451 -1.1443 -0.9056 -0.4164
 1856SOL    HW217028   4.230   4.398   7.422  0.4227 -2.5920 -0.1099
 1857SOL     OW17029   3.275   3.537  15.246 -0.6517  0.8234  0.0315
 1857SOL    HW117030   3.338   3.477  15.206 -0.9158  1.5868 -1.5141
 1857SOL    HW217031   3.273   3.608  15.182 -0.4794  0.5986 -0.2257
 1858SOL     OW17032   3.028   0.256  16.295  0.1403 -0.1243 -0.3854
 1858SOL    HW117033   3.044   0.338  16.341 -2.0681  0.4238 -0.5823
 1858SOL    HW217034   3.039   0.191  16.364 -2.2058  1.1795  1.1937
 1859SOL     OW17035   0.497   0.523   2.993  0.2625 -0.8056 -0.3415
 1859SOL    HW117036   0.422   0.556   3.043  0.5339 -2.0953  0.9078
 1859SOL    HW217037   0.563   0.514   3.061  0.8327 -1.1368 -0.9431
 1860SOL     OW17038   2.499   0.176  16.067 -0.4644 -0.2708  0.8071
 1860SOL    HW117039   2.439   0.152  15.996  0.8214  0.7103 -0.6154
 1860SOL    HW217040   2.447   0.229  16.127  1.7037  1.3562  1.2406
 1861SOL     OW17041   1.483   1.761   3.880  0.0611  0.4086 -0.5180
 1861SOL    HW117042   1.469   1.718   3.796  1.4287 -0.2220 -0.4279
 1861SOL    HW217043   1.534   1.691   3.921 -0.0764  0.9361  0.5554
 1862SOL     OW17044   0.146   0.969   9.971 -0.2408  0.1526  0.2896
 1862SOL    HW117045   0.145   1.062   9.948 -0.8543 -0.3342 -1.7073
 1862SOL    HW217046   0.213   0.972  10.039  1.8865  1.2453 -1.8078
 1863SOL     OW17047   2.152   2.360  12.959 -0.0576 -0.3662  0.2624
 1863SOL    HW117048   2.202   2.302  13.016 -0.1153 -0.2421  0.4389
 1863SOL    HW217049   2.161   2.305  12.881  0.5149 -0.5357  0.4476
 1864SOL     OW17050   0.838   3.521   6.952  0.4846  0.2711  0.3110
 1864SOL    HW117051   0.867   3.508   6.861 -1.4424  0.8277 -0.3913
 1864SOL    HW217052   0.917   3.513   7.005  1.6371  1.3804 -1.1962
 1865SOL     OW17053   3.651   0.691   8.179  0.4807 -0.2693 -0.6470
 1865SOL    HW117054   3.577   0.630   8.188 -1.2889  1.9219 -0.4870
 1865SOL    HW217055   3.723   0.632   8.199  1.1112  0.5403 -0.5513
 1866SOL     OW17056   2.328   2.922   2.085 -0.5320  0.4603 -0.2321
 1866SOL    HW117057   2.254   2.867   2.060  2.1481 -3.1224 -0.3301
 1866SOL    HW217058   2.305   2.944   2.175 -0.0515 -3.3019  0.8216
 1867SOL     OW17059   4.277   0.856   5.890  0.1724  0.0831 -0.3559
 1867SOL    HW117060   4.244   0.773   5.927 -0.1399  0.2985 -0.1485
 1867SOL    HW217061   4.349   0.873   5.950 -1.1861  0.2880  1.2300
 1868SOL     OW17062   4.119   2.308   9.292 -0.2442  0.1136 -0.1958
 1868SOL    HW117063   4.085   2.318   9.204  2.1116  0.2496 -1.1000
 1868SOL    HW217064   4.203   2.354   9.294 -0.3609  0.3425 -0.6811
 1869SOL     OW17065   3.286   0.550  14.259 -0.7181 -0.2229 -0.6159
 1869SOL    HW117066   3.354   0.562  14.325 -1.6868  0.4178  0.2632
 1869SOL    HW217067   3.336   0.500  14.195 -2.1409 -2.2407 -0.1570
 1870SOL     OW17068   3.923   1.855   4.420  0.0796 -0.1438  0.1701
 1870SOL    HW117069   3.847   1.849   4.362  0.0935 -0.5071  0.1937
 1870SOL    HW217070   3.989   1.857   4.351  0.6206 -1.7032  0.6422
 1871SOL     OW17071   4.391   4.297   1.610 -0.1380 -0.0535  0.4604
 1871SOL    HW117072   4.484   4.298   1.630  0.0623  1.1791 -0.5141
 1871SOL    HW217073   4.388   4.204   1.587 -1.5787  0.2965 -0.7690
 1872SOL     OW17074   0.759   0.605   5.566 -0.2303 -0.4577  0.7207
 1872SOL    HW117075   0.736   0.678   5.625 -2.2861  0.4727 -1.2512
 1872SOL    HW217076   0.674   0.561   5.567  0.5969 -2.0902 -1.2917
 1873SOL     OW17077   0.582   3.918  13.149  0.1715 -0.0063  0.5983
 1873SOL    HW117078   0.626   4.003  13.154  1.3838 -0.6453  0.7112
 1873SOL    HW217079   0.614   3.894  13.062 -0.9897  1.8604 -0.3445
 1874SOL     OW17080   3.789   4.101   4.083  0.0831  0.0058  0.0098
 1874SOL    HW117081   3.875   4.143   4.083  0.6499 -1.1970  1.8207
 1874SOL    HW217082   3.812   4.011   4.107  0.4686  0.2919  0.7006
 1875SOL     OW17083   2.161   1.259   2.853 -0.2319 -0.3866 -0.0941
 1875SOL    HW117084   2.078   1.212   2.858 -0.9995  1.1372  1.4708
 1875SOL    HW217085   2.196   1.258   2.943 -1.3459 -1.4160  0.3238
 1876SOL     OW17086   3.225   0.126  13.159  0.2572 -0.1757 -0.0490
 1876SOL    HW117087   3.289   0.055  13.157  1.1638  0.4775  4.4482
 1876SOL    HW217088   3.259   0.187  13.094 -0.7539  0.4247 -0.0098
 1877SOL     OW17089   0.512   4.430   1.848 -0.6177  0.0144  0.9520
 1877SOL    HW117090   0.420   4.435   1.822 -0.3000 -0.1169 -0.1794
 1877SOL    HW217091   0.538   4.522   1.838  1.7324 -0.6634  0.7176
 1878SOL     OW17092   3.566   4.325   1.817  0.0127 -0.3767  0.2577
 1878SOL    HW117093   3.605   4.386   1.880 -2.4425  1.7180 -0.2422
 1878SOL    HW217094   3.640   4.268   1.796 -0.2670 -0.0815 -1.5235
 1879SOL     OW17095   2.871   3.246  12.404 -0.0798 -0.3514 -0.0234
 1879SOL    HW117096   2.822   3.312  12.357 -2.0733 -1.5141  0.4052
 1879SOL    HW217097   2.957   3.285  12.393 -2.2617  4.0462 -1.3729
 1880SOL     OW17098   1.603   3.472   6.353  0.0579 -0.0800 -0.3446
 1880SOL    HW117099   1.681   3.521   6.375 -0.1501  0.1639 -0.1535
 1880SOL    HW217100   1.634   3.417   6.281  3.4920 -2.0965  2.6745
 1881SOL     OW17101   3.355   4.531   7.227 -0.0286  0.4063 -0.0463
 1881SOL    HW117102   3.435   4.560   7.271  1.0121 -0.5898 -1.2737
 1881SOL    HW217103   3.300   4.486   7.290  1.2350  2.6175  2.6175
 1882SOL     OW17104   0.148   4.686   1.969 -0.2251  0.2262 -0.3352
 1882SOL    HW117105   0.096   4.716   2.043 -0.9050 -0.5675 -0.4904
 1882SOL    HW217106   0.134   0.030   1.904  0.3091  2.6127  2.0524
 1883SOL     OW17107   2.938   2.290   4.359 -0.2889  0.2204  0.1170
 1883SOL    HW117108   2.846   2.267   4.365 -0.1475 -0.4078 -0.1711
 1883SOL    HW217109   2.952   2.370   4.410  0.3692 -1.2409  2.2019
 1884SOL     OW17110   3.938   3.935   1.676  0.1033 -0.2745  0.1913
 1884SOL    HW117111   3.977   3.916   1.591  3.1437  1.2137  1.2715
 1884SOL    HW217112   3.845   3.912   1.668 -0.2448  1.6450 -1.2129
 1885SOL     OW17113   3.904   3.708   6.104 -0.1554 -0.4320 -0.1578
 1885SOL    HW117114   3.892   3.774   6.172 -2.1568 -1.9079  0.9418
 1885SOL    HW217115   3.960   3.651   6.156 -0.8826  0.3556  1.4767
 1886SOL     OW17116   1.298   1.996  16.376 -0.2692 -0.0675  0.1808
 1886SOL    HW117117   1.235   1.929  16.351 -1.8753  0.6671  2.2720
 1886SOL    HW217118   1.375   1.940  16.364  1.5232  2.4296 -0.0575
 1887SOL     OW17119   2.807   0.803   7.031  0.0088 -0.0487 -0.0418
 1887SOL    HW117120   2.869   0.866   6.994 -0.3225  0.4499  0.2550
 1887SOL    HW217121   2.777   0.856   7.104 -1.4311 -1.3244  0.2938
 1888SOL     OW17122   3.099   4.593  16.301  0.0996  0.3156 -0.4156
 1888SOL    HW117123   3.069   4.665  16.357  1.1934 -0.2955  0.9621
 1888SOL    HW217124   3.073   4.631  16.217  0.4879  2.1632  0.3022
 1889SOL     OW17125   1.540   1.803  17.044 -0.3636  0.6607  0.0443
 1889SOL    HW117126   1.513   1.833  16.957 -0.6954 -0.8510 -0.3721
 1889SOL    HW217127   1.544   1.891  17.082 -1.9537  0.9169 -0.3550
 1890SOL     OW17128   4.389   1.828   8.364 -0.6774 -0.6583  0.1407
 1890SOL    HW117129   4.453   1.895   8.341 -0.7994 -1.4316 -2.4382
 1890SOL    HW217130   4.319   1.885   8.397  2.1430  1.4097  2.5826
 1891SOL     OW17131   3.929   0.692   2.952 -0.1599  0.1896  0.1911
 1891SOL    HW117132   4.011   0.675   2.998 -0.3846  1.0733  0.9399
 1891SOL    HW217133   3.942   0.777   2.909 -1.1011 -0.7049 -1.8429
 1892SOL     OW17134   1.259   3.100  15.170 -0.9677  0.2080 -0.5787
 1892SOL    HW117135   1.258   3.112  15.075  2.2124  0.3546 -0.5959
 1892SOL    HW217136   1.335   3.043  15.183 -1.0025  0.3030  0.0605
 1893SOL     OW17137   2.809   4.411   4.760  0.1566 -0.4390  0.0037
 1893SOL    HW117138   2.778   4.468   4.689  3.4043  0.5380 -0.5893
 1893SOL    HW217139   2.798   4.477   4.829 -0.1375  1.2450 -1.6670
 1894SOL     OW17140   1.014   0.402   9.826  0.1450  0.0531  0.2855
 1894SOL    HW117141   1.090   0.344   9.820 -0.4462 -0.6958  0.1032
 1894SOL    HW217142   0.994   0.398   9.919 -1.4510  0.1969 -0.0438
 1895SOL     OW17143   1.814   0.394  11.118 -0.4261 -0.5574 -0.4177
 1895SOL    HW117144   1.828   0.459  11.049 -0.2874 -0.8320 -0.6444
 1895SOL    HW217145   1.753   0.340  11.068 -1.0556 -0.0054 -0.2477
 1896SOL     OW17146   3.566   1.422   2.457  0.3349 -0.4475  0.3253
 1896SOL    HW117147   3.501   1.478   2.417  2.3190  0.4823 -1.5785
 1896SOL    HW217148   3.588   1.476   2.533  0.2790  1.8942 -1.3435
 1897SOL     OW17149   2.101   0.772   6.496 -0.1442  0.5463  0.2450
 1897SOL    HW117150   2.054   0.697   6.533  0.8809  0.6546  1.7336
 1897SOL    HW217151   2.049   0.850   6.516  0.0942  0.4507  1.2078
 1898SOL     OW17152   3.397   1.878   3.072  0.5284 -0.0489 -0.4304
 1898SOL    HW117153   3.454   1.802   3.065  1.3039  0.7443 -2.6974
 1898SOL    HW217154   3.360   1.858   3.158  0.7067 -0.0704 -0.3596
 1899SOL     OW17155   3.595   4.258   9.186  0.4744 -0.3475  0.3300
 1899SOL    HW117156   3.606   4.204   9.108 -0.2273 -1.7519  1.2153
 1899SOL    HW217157   3.625   4.342   9.150 -1.2027  0.2762  0.3614
 1900SOL     OW17158   4.459   0.583   6.829  0.0140 -0.2454  0.2756
 1900SOL    HW117159   4.397   0.651   6.854 -0.7116 -0.3488 -1.3007
 1900SOL    HW217160   4.415   0.538   6.757 -2.5457  1.8970  0.4839
 1901SOL     OW17161   0.749   2.939  13.088 -0.4495 -0.5099  0.2003
 1901SOL    HW117162   0.733   2.864  13.031  0.6630  0.0221 -0.8257
 1901SOL    HW217163   0.694   2.920  13.164 -0.5744  1.0155  0.5018
 1902SOL     OW17164   2.914   4.481   6.960  0.0992 -0.4849 -0.2427
 1902SOL    HW117165   2.937   4.573   6.951 -1.5791  0.0259  0.8575
 1902SOL    HW217166   2.909   4.466   7.054 -2.5763  1.2772 -0.1137
 1903SOL     OW17167   0.548   3.647   2.590 -0.2003  0.5361 -0.4283
 1903SOL    HW117168   0.474   3.586   2.596 -1.3921  1.6845 -3.2024
 1903SOL    HW217169   0.610   3.592   2.637 -1.3042 -2.6817 -2.7373
 1904SOL     OW17170   4.063   0.489   4.731  0.1624 -0.1309  0.6285
 1904SOL    HW117171   4.010   0.502   4.652  0.6946 -0.4816  0.2187
 1904SOL    HW217172   4.149   0.522   4.705 -0.6539  0.0472 -1.8529
 1905SOL     OW17173   2.143   3.593   6.414 -0.2760 -0.1085 -0.1125
 1905SOL    HW117174   2.208   3.581   6.345 -0.6964  0.9536 -0.6962
 1905SOL    HW217175   2.132   3.688   6.416 -0.2577 -0.1318  1.1904
 1906SOL     OW17176   2.662   2.063  16.513  0.3988  0.6021  0.5845
 1906SOL    HW117177   2.609   2.139  16.489 -1.4298 -1.2575 -1.1439
 1906SOL    HW217178   2.616   1.994  16.467  0.1425  1.5006 -0.5139
 1907SOL     OW17179   2.971   0.303  13.147 -0.7453  0.1805  0.1769
 1907SOL    HW117180   2.883   0.333  13.127 -0.2826  0.3933 -1.4924
 1907SOL    HW217181   3.011   0.386  13.174 -1.7605 -0.0794  2.4614
 1908SOL     OW17182   2.121   2.560   3.956  0.0442 -0.0986  0.0763
 1908SOL    HW117183   2.053   2.592   4.016  0.8888  1.0707  0.3917
 1908SOL    HW217184   2.148   2.641   3.914 -2.7757  1.3980  1.0859
 1909SOL     OW17185   3.181   4.265   4.014  0.4726 -0.0348  0.1853
 1909SOL    HW117186   3.222   4.345   4.046 -0.6055  1.4799 -2.2294
 1909SOL    HW217187   3.253   4.203   4.005  0.1602 -0.1571 -1.5329
 1910SOL     OW17188   0.688   4.476  10.044  0.5194 -0.4201 -0.7912
 1910SOL    HW117189   0.743   4.550  10.018 -0.0058 -0.0864 -0.9443
 1910SOL    HW217190   0.747   4.415  10.090 -2.2575 -0.8973  2.1368
 1911SOL     OW17191   3.813   0.386   7.965  0.7548  0.3322  0.4721
 1911SOL    HW117192   3.796   0.330   8.040  0.8698 -1.1542 -0.6046
 1911SOL    HW217193   3.799   0.326   7.891 -0.0496  1.1177 -0.0189
 1912SOL     OW17194   0.223   0.415   7.168 -0.6725 -0.3178 -0.7565
 1912SOL    HW117195   0.282   0.398   7.241 -0.1480 -0.7916 -1.2917
 1912SOL    HW217196   0.247   0.504   7.144 -2.4675 -0.3354 -2.6758
 1913SOL     OW17197   1.315   3.554  17.452 -0.1881  0.1420  0.4069
 1913SOL    HW117198   1.313   3.618  17.524  0.3083 -0.4114  0.9101
 1913SOL    HW217199   1.403   3.516  17.460  0.1080  0.3144 -2.1223
 1914SOL     OW17200   0.301   3.641  11.764 -0.2414  0.1476  0.6773
 1914SOL    HW117201   0.324   3.706  11.831 -2.3681  0.6364  0.9494
 1914SOL    HW217202   0.381   3.635  11.713  0.4177 -0.1935  1.7480
 1915SOL     OW17203   0.665   1.290   4.693 -0.6973 -0.8388  0.2138
 1915SOL    HW117204   0.740   1.233   4.707 -0.6111 -1.1555 -1.5906
 1915SOL    HW217205   0.596   1.224   4.700 -1.0619 -0.5320 -0.5212
 1916SOL     OW17206   2.205   4.324   2.806 -0.3117  0.0157  0.0062
 1916SOL    HW117207   2.272   4.305   2.872 -0.4875  0.6558  0.3721
 1916SOL    HW217208   2.248   4.317   2.721  0.3233 -2.1564  0.4927
 1917SOL     OW17209   3.611   0.575  14.996  0.1884 -0.0923 -0.0126
 1917SOL    HW117210   3.647   0.509  15.055  0.8713  1.4511  1.2917
 1917SOL    HW217211   3.517   0.562  15.007 -0.1625  2.3514 -0.0951
 1918SOL     OW17212   1.670   0.559  15.397 -0.0097  0.0219  0.3476
 1918SOL    HW117213   1.729   0.494  15.360 -1.0793  0.8687 -2.7883
 1918SOL    HW217214   1.592   0.508  15.417  0.0666 -0.1769  0.1302
 1919SOL     OW17215   0.794   0.503   7.597  0.1374 -0.7556  0.1976
 1919SOL    HW117216   0.883   0.535   7.587  0.1466 -0.0310  2.5180
 1919SOL    HW217217   0.792   0.512   7.692  1.6395  1.0804  0.0536
 1920SOL     OW17218   1.671   0.152   6.265 -0.1063 -0.0720  1.0229
 1920SOL    HW117219   1.603   0.198   6.315  1.0532 -1.2296  3.6401
 1920SOL    HW217220   1.653   0.177   6.174 -1.4046  0.8262  1.5250
 1921SOL     OW17221   0.181   1.381   5.571 -0.6436 -0.0070 -0.4220
 1921SOL    HW117222   0.115   1.451   5.577  0.0466  0.8535 -2.7004
 1921SOL    HW217223   0.214   1.411   5.486  1.3280 -0.4613  0.1849
 1922SOL     OW17224   3.942   2.024   6.206 -0.3740  0.3520  0.5054
 1922SOL    HW117225   3.865   2.067   6.169  0.4900  1.5904  0.1375
 1922SOL    HW217226   3.936   1.934   6.174 -0.6193 -0.2295  2.2212
 1923SOL     OW17227   3.293   1.507   7.523 -0.0959 -0.5377  0.7201
 1923SOL    HW117228   3.223   1.443   7.506 -0.3681  0.4586 -1.8385
 1923SOL    HW217229   3.302   1.487   7.616  0.4806  1.2748  1.0500
 1924SOL     OW17230   1.413   0.605   6.555 -0.4677  0.4246  0.2767
 1924SOL    HW117231   1.457   0.539   6.609 -1.6678 -1.7530 -1.3878
 1924SOL    HW217232   1.335   0.560   6.523  0.4024  0.5754 -2.0535
 1925SOL     OW17233   1.029   1.488   9.747 -0.0802  0.0946 -0.1451
 1925SOL    HW117234   1.051   1.448   9.663  0.4694 -1.4249  0.7032
 1925SOL    HW217235   0.999   1.414   9.800 -1.7010  0.6865 -0.2340
 1926SOL     OW17236   2.702   1.094   5.217 -0.1261  0.1036 -0.1716
 1926SOL    HW117237   2.666   1.122   5.133  0.6420  0.8144 -0.2638
 1926SOL    HW217238   2.764   1.030   5.182  0.0152  1.7734 -2.9572
 1927SOL     OW17239   4.287   1.763   0.790  0.1406  0.2709 -0.0403
 1927SOL    HW117240   4.332   1.748   0.873 -0.3465 -0.4867  0.0858
 1927SOL    HW217241   4.350   1.813   0.738  1.8828 -0.3843  1.4428
 1928SOL     OW17242   0.277   3.801  10.124  0.2206  0.5216  0.0091
 1928SOL    HW117243   0.338   3.775  10.194 -1.0187 -0.2653  0.7892
 1928SOL    HW217244   0.331   3.797  10.045 -0.1824 -2.2634 -0.1152
 1929SOL     OW17245   0.263   2.911   6.548  0.2765  0.8969  0.2086
 1929SOL    HW117246   0.290   2.830   6.591  1.2319  0.4413 -1.2199
 1929SOL    HW217247   0.298   2.898   6.460 -0.9905 -0.4104 -0.0990
 1930SOL     OW17248   2.882   3.858   3.189  0.1477  0.2497 -0.0680
 1930SOL    HW117249   2.969   3.820   3.175 -1.2895 -2.3545 -1.8016
 1930SOL    HW217250   2.839   3.812   3.260  0.9232  1.1691  0.9928
 1931SOL     OW17251   2.336   3.130   4.622 -0.3312 -0.2668  0.2312
 1931SOL    HW117252   2.308   3.064   4.559 -2.3557  1.4566 -0.6630
 1931SOL    HW217253   2.429   3.108   4.626  0.1500  1.4476 -1.3446
 1932SOL     OW17254   2.365   3.252  12.364 -0.6108 -0.2404  0.6588
 1932SOL    HW117255   2.293   3.314  12.350  0.3589  0.2835 -2.0817
 1932SOL    HW217256   2.370   3.271  12.458 -0.9814 -1.0655  0.8443
 1933SOL     OW17257   1.227   0.163   4.366 -0.1258  0.0986  0.0341
 1933SOL    HW117258   1.228   0.248   4.411  1.6658  1.8663 -3.3299
 1933SOL    HW217259   1.213   0.189   4.275 -0.4949 -1.7128 -0.4295
 1934SOL     OW17260   1.499   3.879   3.568 -0.0677  0.1240  0.1170
 1934SOL    HW117261   1.410   3.906   3.589  0.4525  0.7500  1.5709
 1934SOL    HW217262   1.524   3.849   3.655  2.1024  0.7329 -0.2922
 1935SOL     OW17263   1.389   0.120  14.135 -0.1199  0.1139  0.2383
 1935SOL    HW117264   1.420   0.135  14.225 -3.1667  1.1154  1.1165
 1935SOL    HW217265   1.468   0.091  14.089  1.3200  1.3714  1.9051
 1936SOL     OW17266   0.609   2.547   7.879  0.2446 -0.1487 -0.9206
 1936SOL    HW117267   0.581   2.638   7.878  1.6837  0.3217  1.8205
 1936SOL    HW217268   0.573   2.521   7.794  1.0157 -1.9722 -0.7035
 1937SOL     OW17269   3.783   0.223   7.752  0.3557 -0.7605  0.9774
 1937SOL    HW117270   3.781   0.302   7.699 -0.2459 -1.6403 -0.3046
 1937SOL    HW217271   3.820   0.164   7.686 -2.9228  0.5927 -2.0499
 1938SOL     OW17272   4.621   0.386   3.321 -0.8788 -0.4962  0.0871
 1938SOL    HW117273   4.674   0.464   3.341 -0.0034 -0.8581 -0.7863
 1938SOL    HW217274   4.681   0.316   3.345  0.7850  0.8906  0.0029
 1939SOL     OW17275   2.577   1.611   4.190  0.0074 -0.5707 -0.0158
 1939SOL    HW117276   2.672   1.614   4.179  0.0002  0.0237  0.0566
 1939SOL    HW217277   2.575   1.601   4.285 -0.3759 -2.4891 -0.2364
 1940SOL     OW17278   1.640   3.683   4.950 -0.2206 -0.1900  0.3287
 1940SOL    HW117279   1.633   3.721   5.037 -0.1429  0.7153 -0.0579
 1940SOL    HW217280   1.596   3.752   4.900 -0.6442  1.3237  2.7961
 1941SOL     OW17281   1.869   4.224  11.748  0.1864 -0.2878  0.5319
 1941SOL    HW117282   1.790   4.278  11.748  0.3576 -0.0422  1.2770
 1941SOL    HW217283   1.884   4.199  11.839  0.1447 -0.0893  0.5939
 1942SOL     OW17284   1.993   2.525   3.716 -0.8662 -0.1381  0.8261
 1942SOL    HW117285   2.012   2.536   3.809 -2.2146 -0.3075  1.1331
 1942SOL    HW217286   2.048   2.448   3.701 -0.7255 -0.0864  1.0682
 1943SOL     OW17287   0.467   2.963   8.360  0.8757  0.2072 -0.4645
 1943SOL    HW117288   0.502   3.023   8.294  0.0211  0.3121 -0.8202
 1943SOL    HW217289   0.373   2.972   8.346  1.1371 -0.4446 -2.5281
 1944SOL     OW17290   4.278   0.805   6.959 -0.3890  0.5688  0.0829
 1944SOL    HW117291   4.254   0.856   7.036  1.5252  0.6849  0.5966
 1944SOL    HW217292   4.243   0.720   6.986  2.7172 -0.1665  1.7659
 1945SOL     OW17293   1.467   4.352   3.714 -0.0050 -0.3108  0.4352
 1945SOL    HW117294   1.415   4.415   3.765  0.1135 -1.7044  2.2798
 1945SOL    HW217295   1.416   4.339   3.634  2.4045  1.3749 -1.3736
 1946SOL     OW17296   2.144   1.983   5.579  0.3774  0.1631 -0.1679
 1946SOL    HW117297   2.184   1.916   5.635 -1.0832 -1.6413 -1.2880
 1946SOL    HW217298   2.108   1.944   5.500  0.5791  2.0402 -1.1752
 1947SOL     OW17299   0.026   4.695   2.214  1.0476  0.1766  0.4072
 1947SOL    HW117300   4.698   0.042   2.251 -0.0026 -0.8907  0.9779
 1947SOL    HW217301   0.059   4.649   2.291  1.8694  0.5492  0.2776
 1948SOL     OW17302   2.095   4.709   3.451  0.0796 -0.2438  0.1356
 1948SOL    HW117303   2.014   4.723   3.401  0.6048 -0.7179 -0.8356
 1948SOL    HW217304   2.123   0.075   3.469  2.6039 -1.0826  0.2946
 1949SOL     OW17305   3.783   3.032  14.767 -0.4773  0.3580  0.1415
 1949SOL    HW117306   3.780   3.095  14.695  0.7671  1.3347  0.9476
 1949SOL    HW217307   3.855   2.978  14.735  0.3279  3.2389 -2.9435
 1950SOL     OW17308   2.719   2.924   6.299 -0.8430 -0.6929  0.5950
 1950SOL    HW117309   2.795   2.873   6.272  0.2890  1.4421 -0.2418
 1950SOL    HW217310   2.730   3.011   6.259 -3.5331 -0.4534  0.3357
 1951SOL     OW17311   1.376   2.466  10.947  0.1031 -0.0043 -0.2250
 1951SOL    HW117312   1.351   2.424  11.030  0.5268  1.4102  0.6327
 1951SOL    HW217313   1.341   2.555  10.954 -0.6640 -0.3015 -0.3376
 1952SOL     OW17314   1.810   1.196   4.786 -0.0378 -0.4692  0.0210
 1952SOL    HW117315   1.769   1.281   4.774  0.5957 -0.2238 -0.4316
 1952SOL    HW217316   1.756   1.154   4.852 -0.7840 -1.5195 -1.2615
 1953SOL     OW17317   3.748   0.858   4.990 -0.0178  0.1100  0.3729
 1953SOL    HW117318   3.673   0.819   5.035  0.0130  0.2927  0.5837
 1953SOL    HW217319   3.799   0.902   5.057  0.0291 -1.3931  1.3301
 1954SOL     OW17320   3.817   4.686   4.703 -0.5058  0.0460  0.2088
 1954SOL    HW117321   3.755   4.616   4.683  0.0429 -0.7968  1.4655
 1954SOL    HW217322   3.871   4.634   4.762  0.3441  0.1586 -0.4647
 1955SOL     OW17323   4.644   1.240   8.907 -0.2376 -0.1528 -0.1241
 1955SOL    HW117324   4.588   1.283   8.972 -1.5453  0.8070 -1.8756
 1955SOL    HW217325   4.580   1.224   8.837  0.5160  0.2320 -0.8914
 1956SOL     OW17326   0.221   1.273   4.602  0.6755  0.2046 -0.2396
 1956SOL    HW117327   0.200   1.356   4.644 -2.1003 -1.0831  0.8809
 1956SOL    HW217328   0.177   1.221   4.669 -1.4842  0.6956 -1.2931
 1957SOL     OW17329   1.166   2.801   3.812  0.0219  0.0726  0.0590
 1957SOL    HW117330   1.156   2.848   3.894 -0.6873 -1.7772  1.0409
 1957SOL    HW217331   1.078   2.775   3.784  0.6673  0.0939 -1.9936
 1958SOL     OW17332   0.140   2.940   1.197 -0.1885  0.0769  0.4211
 1958SOL    HW117333   0.173   2.869   1.142  1.2032  0.7889  0.3473
 1958SOL    HW217334   0.165   2.919   1.287 -0.1064 -0.7979  0.1962
 1959SOL     OW17335   1.103   2.971  13.769 -0.4884  0.4637 -0.0760
 1959SOL    HW117336   1.191   2.947  13.742 -0.3164  0.5056  0.4591
 1959SOL    HW217337   1.102   3.058  13.728  0.0163  0.1128 -0.8362
 1960SOL     OW17338   0.602   4.354   7.665 -0.1184  0.2021 -0.1545
 1960SOL    HW117339   0.550   4.275   7.650 -0.3949  0.1982  0.8163
 1960SOL    HW217340   0.661   4.361   7.590  0.3317  1.1228  0.2930
 1961SOL     OW17341   3.754   4.183   8.355  0.1781  0.9295 -0.3905
 1961SOL    HW117342   3.749   4.180   8.260 -3.5053 -0.6546 -0.1333
 1961SOL    HW217343   3.832   4.235   8.375  1.2657 -1.7395  2.3096
 1962SOL     OW17344   1.791   1.005   4.595  0.0045  0.3341  0.8806
 1962SOL    HW117345   1.780   1.062   4.519  0.7735 -1.9985 -0.9697
 1962SOL    HW217346   1.835   1.058   4.661  0.7088 -0.3202  0.9352
 1963SOL     OW17347   4.644   3.020   2.947  0.0700  0.0609  0.1431
 1963SOL    HW117348   4.588   2.948   2.917 -1.5565  1.5732 -0.4641
 1963SOL    HW217349   4.633   3.088   2.881  0.0466  0.1887  0.2804
 1964SOL     OW17350   3.008   1.416  12.015 -0.1671  0.5222  0.3486
 1964SOL    HW117351   3.024   1.497  12.065  0.9200 -0.5375  1.7011
 1964SOL    HW217352   2.921   1.399  12.051  0.0136 -1.4154 -0.1374
 1965SOL     OW17353   2.980   3.954   7.571 -0.3460 -0.5550  0.3473
 1965SOL    HW117354   3.051   3.978   7.630  0.6308  3.0677 -2.2809
 1965SOL    HW217355   2.998   4.007   7.493 -2.9571 -2.2249 -1.3964
 1966SOL     OW17356   2.488   1.507  16.040  0.4476 -0.0720  0.0454
 1966SOL    HW117357   2.444   1.457  16.108  1.1534 -1.4001 -0.4773
 1966SOL    HW217358   2.443   1.591  16.048  0.3461 -0.2292  1.0519
 1967SOL     OW17359   2.263   2.580   6.510  0.2484 -0.2059 -0.2647
 1967SOL    HW117360   2.215   2.580   6.427  0.6266 -0.5081 -0.4861
 1967SOL    HW217361   2.225   2.654   6.556 -0.1899  0.6267 -1.9794
 1968SOL     OW17362   4.289   4.396   1.354  0.0519  0.9094  0.0141
 1968SOL    HW117363   4.197   4.396   1.382  1.0038  1.1001  3.1188
 1968SOL    HW217364   4.333   4.360   1.431 -1.4528 -1.9162 -0.4152
 1969SOL     OW17365   1.827   1.344   3.435  0.3926 -0.2210 -0.1091
 1969SOL    HW117366   1.809   1.393   3.355  1.4911 -0.3729 -0.4549
 1969SOL    HW217367   1.858   1.259   3.405 -0.7938  0.2868 -2.7757
 1970SOL     OW17368   3.767   3.330   5.637  0.1626  0.1539 -0.2084
 1970SOL    HW117369   3.686   3.366   5.601  0.3596  1.4321  0.6363
 1970SOL    HW217370   3.729   3.243   5.640 -0.7273  0.4918 -1.7543
 1971SOL     OW17371   2.231   0.781  15.826 -0.4937  0.3528 -0.5095
 1971SOL    HW117372   2.152   0.787  15.773 -0.4734  1.1428 -0.4452
 1971SOL    HW217373   2.201   0.749  15.911 -0.0140 -0.1258 -0.5171
 1972SOL     OW17374   0.917   0.312   1.537 -0.5193  0.3167 -0.1765
 1972SOL    HW117375   0.955   0.335   1.622  0.7651 -1.6776 -0.2167
 1972SOL    HW217376   0.952   0.227   1.513 -0.6590 -0.0716  1.0069
 1973SOL     OW17377   1.646   1.927   9.258 -0.5983  0.0738 -0.7728
 1973SOL    HW117378   1.575   1.914   9.196 -0.2244 -2.2267 -0.7193
 1973SOL    HW217379   1.628   1.860   9.324  0.5635  1.1464  0.6654
 1974SOL     OW17380   2.979   4.130  11.482  0.0304  0.3548  0.0890
 1974SOL    HW117381   3.004   4.197  11.545 -1.5266  1.5182 -0.5385
 1974SOL    HW217382   3.017   4.052  11.521 -3.3543  0.1848  3.0886
 1975SOL     OW17383   3.020   3.786  10.342 -0.4183  0.3550 -0.1169
 1975SOL    HW117384   2.945   3.840  10.317 -0.3769  0.2271 -0.5200
 1975SOL    HW217385   2.978   3.700  10.341  1.0234 -0.3612  0.8419
 1976SOL     OW17386   0.170   2.774   8.911  0.9442 -0.5511  0.4247
 1976SOL    HW117387   0.082   2.811   8.919  0.8204 -0.8836  0.5954
 1976SOL    HW217388   0.187   2.767   8.817 -0.5742 -1.0291  0.1857
 1977SOL     OW17389   2.966   1.458   5.081  0.1895  0.1956 -0.7898
 1977SOL    HW117390   3.004   1.545   5.066 -0.7170  0.8471  0.6093
 1977SOL    HW217391   3.010   1.406   5.014  0.2624 -3.0230  1.7450
 1978SOL     OW17392   1.476   1.928   6.736 -0.6553  0.5826  0.2327
 1978SOL    HW117393   1.528   1.999   6.773  0.9691 -1.1428  1.2497
 1978SOL    HW217394   1.482   1.953   6.644  2.1430  1.2343  0.6186
 1979SOL     OW17395   2.246   3.811   7.835 -0.4009  0.4527  0.7173
 1979SOL    HW117396   2.318   3.841   7.892  1.5006 -2.8497  0.0207
 1979SOL    HW217397   2.176   3.800   7.899  0.5904 -1.0115  1.5484
 1980SOL     OW17398   1.973   2.245   4.856  0.6957 -0.2357 -0.0095
 1980SOL    HW117399   2.043   2.181   4.845  0.0638 -1.2055  1.6983
 1980SOL    HW217400   2.025   2.317   4.891  1.4237 -1.4172  1.3155
 1981SOL     OW17401   3.492   2.192  15.511 -0.7090  0.0695 -0.2098
 1981SOL    HW117402   3.526   2.194  15.422  0.9146 -2.3246  0.3460
 1981SOL    HW217403   3.535   2.272  15.542 -1.1643 -0.4875  1.8986
 1982SOL     OW17404   1.109   1.604   3.120 -0.0876 -0.1931  0.2615
 1982SOL    HW117405   1.168   1.620   3.045 -0.1848 -0.8233  0.0468
 1982SOL    HW217406   1.027   1.634   3.081 -0.8672 -0.5105  1.7005
 1983SOL     OW17407   1.750   0.627   0.614  0.3005  0.2300 -0.0966
 1983SOL    HW117408   1.817   0.593   0.673  1.3684  0.5142 -1.1611
 1983SOL    HW217409   1.809   0.657   0.545 -0.0128 -1.6579 -1.1882
 1984SOL     OW17410   0.808   3.267   3.575 -0.6235 -0.3050  0.3816
 1984SOL    HW117411   0.814   3.354   3.615 -2.7118  0.1988 -0.3851
 1984SOL    HW217412   0.786   3.289   3.484  2.2381 -0.2564 -0.2908
 1985SOL     OW17413   0.281   1.669   5.607  0.4648  0.6181 -0.3117
 1985SOL    HW117414   0.276   1.752   5.655 -0.2141 -0.7285  1.9534
 1985SOL    HW217415   0.190   1.663   5.577  0.6059  1.6595 -0.9563
 1986SOL     OW17416   1.762   2.712   5.954  0.2021 -0.0155  0.1904
 1986SOL    HW117417   1.743   2.679   5.866 -0.1799 -1.8833  0.9630
 1986SOL    HW217418   1.705   2.664   6.014 -1.8718  0.3878 -1.4595
 1987SOL     OW17419   2.970   3.451  10.812 -0.2532 -0.2835 -0.1116
 1987SOL    HW117420   3.029   3.421  10.743  2.3372 -0.8247  2.3206
 1987SOL    HW217421   2.983   3.378  10.872 -1.5788  1.1261  1.8809
 1988SOL     OW17422   1.544   0.475   3.486  0.0140  0.4549 -0.4051
 1988SOL    HW117423   1.498   0.418   3.423 -2.6031  0.7747  1.2375
 1988SOL    HW217424   1.478   0.511   3.545  0.6066  0.5968  0.1706
 1989SOL     OW17425   2.884   1.361   2.296  0.0032  0.1637 -0.4831
 1989SOL    HW117426   2.864   1.349   2.203 -0.9178  1.4767 -0.4535
 1989SOL    HW217427   2.853   1.275   2.323  1.2868 -0.5784 -1.3798
 1990SOL     OW17428   1.738   0.252  14.247 -0.3289 -0.4915 -0.2624
 1990SOL    HW117429   1.661   0.285  14.202  0.5105 -1.7617 -2.6485
 1990SOL    HW217430   1.704   0.201  14.320 -0.1275  0.6443  0.6162
 1991SOL     OW17431   0.602   1.174   0.454 -0.3611 -0.3237 -0.6178
 1991SOL    HW117432   0.507   1.188   0.452 -0.0489  1.8220  0.7220
 1991SOL    HW217433   0.630   1.215   0.372 -3.7518  0.5325 -1.3698
 1992SOL     OW17434   3.873   1.380   8.373  0.5803 -0.0373  0.2718
 1992SOL    HW117435   3.936   1.403   8.305 -0.0670 -0.7885 -0.6036
 1992SOL    HW217436   3.809   1.451   8.370  2.2245  1.5124  2.7127
 1993SOL     OW17437   2.326   2.580   2.742  0.7775 -0.0938 -0.6390
 1993SOL    HW117438   2.237   2.555   2.716 -0.1332  0.6551  1.7164
 1993SOL    HW217439   2.373   2.502   2.713 -0.9077 -0.6738 -1.8055
 1994SOL     OW17440   2.381   0.833   6.495  0.2056 -0.2531 -0.1094
 1994SOL    HW117441   2.361   0.925   6.508  0.0998 -0.1160 -1.1855
 1994SOL    HW217442   2.292   0.798   6.498  0.3034 -0.3014  2.1892
 1995SOL     OW17443   0.867   1.598   5.258  0.2638  0.1635  0.1954
 1995SOL    HW117444   0.814   1.550   5.194 -0.2796  1.5261 -0.3859
 1995SOL    HW217445   0.799   1.649   5.303  0.3467 -1.1496  1.7814
 1996SOL     OW17446   4.470   0.624   5.271 -0.0028  0.4973  0.6205
 1996SOL    HW117447   4.384   0.667   5.260  0.3783  1.2783  0.6644
 1996SOL    HW217448   4.532   0.697   5.277  0.4025  0.2945 -0.9526
 1997SOL     OW17449   2.732   0.340   3.642 -0.0460 -0.0638 -0.3282
 1997SOL    HW117450   2.783   0.279   3.588  1.6035 -1.1229  2.4172
 1997SOL    HW217451   2.750   0.428   3.611  0.6301  0.0352  0.3576
 1998SOL     OW17452   0.697   4.190   4.862 -0.5470  0.2663 -0.2822
 1998SOL    HW117453   0.606   4.214   4.846 -0.9232  0.1794  1.7617
 1998SOL    HW217454   0.686   4.140   4.943 -0.5250  1.0184  0.1812
 1999SOL     OW17455   3.254   1.041  15.637 -0.2743  0.2718 -0.1973
 1999SOL    HW117456   3.343   1.030  15.604 -0.6099  0.0944 -1.0549
 1999SOL    HW217457   3.234   1.128  15.600  1.9942  0.7397 -0.3118
 2000SOL     OW17458   1.732   1.979  14.712 -0.2137  0.1806  0.4784
 2000SOL    HW117459   1.806   1.922  14.692  0.6572  1.8996 -1.1619
 2000SOL    HW217460   1.700   2.005  14.626 -1.7209  2.3964  1.6888
 2001SOL     OW17461   0.169   1.482   7.390  0.5631 -0.2967  0.5503
 2001SOL    HW117462   0.150   1.535   7.467  0.8149  2.5117 -1.3162
 2001SOL    HW217463   0.261   1.466   7.412  1.0271 -0.1821 -1.2467
 2002SOL     OW17464   1.896   3.391   5.065 -0.6660 -0.0934  0.2609
 2002SOL    HW117465   1.926   3.430   5.147 -1.5656 -1.0177  1.0314
 2002SOL    HW217466   1.973   3.336   5.053 -0.2961  0.4221  0.2914
 2003SOL     OW17467   4.071   3.528   2.975 -0.2393  0.0291  0.0665
 2003SOL    HW117468   4.155   3.543   3.019 -0.0873  1.5464 -0.7247
 2003SOL    HW217469   4.016   3.498   3.046 -1.1760  1.1655 -0.1783
 2004SOL     OW17470   1.091   1.715   8.898 -0.4318  0.3298 -0.5784
 2004SOL    HW117471   1.038   1.711   8.819 -2.6049 -1.5589  0.9762
 2004SOL    HW217472   1.052   1.649   8.955  1.0963 -0.3050 -0.2633
 2005SOL     OW17473   2.100   1.365   6.391 -0.3649  0.0096 -0.2267
 2005SOL    HW117474   2.064   1.292   6.440 -2.3012  0.6090 -0.7799
 2005SOL    HW217475   2.166   1.311   6.347  0.2439  1.3011 -0.9207
 2006SOL     OW17476   1.963   4.127   7.773 -0.2361  0.2085  0.3936
 2006SOL    HW117477   1.870   4.147   7.767 -0.3833  0.2272  2.8445
 2006SOL    HW217478   1.966   4.062   7.703 -1.6064 -0.5742  1.0676
 2007SOL     OW17479   3.332   4.108   6.072  0.2058 -0.0122  0.1386
 2007SOL    HW117480   3.376   4.023   6.062 -1.7994 -1.1485  0.9578
 2007SOL    HW217481   3.367   4.138   6.155  0.1974  2.0176 -0.6035
 2008SOL     OW17482   0.439   2.564   1.720 -0.5276  0.2498  0.4711
 2008SOL    HW117483   0.432   2.552   1.626 -1.3879  1.4012  0.3892
 2008SOL    HW217484   0.478   2.650   1.735 -1.7075  0.7549  0.5631
 2009SOL     OW17485   0.693   2.732   2.678 -0.2100 -0.1461  0.5642
 2009SOL    HW117486   0.690   2.692   2.765 -0.3743  2.5565  1.7924
 2009SOL    HW217487   0.734   2.660   2.629 -0.1679 -0.7207  1.4589
 2010SOL     OW17488   2.965   4.701   0.495 -0.5237  0.0723 -0.3387
 2010SOL    HW117489   2.917   0.043   0.446  0.4679  1.1620  0.1421
 2010SOL    HW217490   2.928   4.621   0.459 -1.9202  0.2112  0.7612
 2011SOL     OW17491   1.626   4.445   5.923 -0.1022 -0.1631 -0.3921
 2011SOL    HW117492   1.711   4.406   5.943 -1.1290 -1.5267  1.1801
 2011SOL    HW217493   1.595   4.392   5.850 -1.7374  1.3801 -0.8238
 2012SOL     OW17494   2.151   0.574  14.325 -0.3073 -1.0070 -0.3753
 2012SOL    HW117495   2.176   0.664  14.346 -2.9947 -0.0434 -1.3977
 2012SOL    HW217496   2.212   0.565  14.252 -0.6085  0.0944 -0.7580
 2013SOL     OW17497   4.332   0.955  14.334 -0.3363 -0.7741  0.0260
 2013SOL    HW117498   4.425   0.963  14.351 -0.1575 -2.4092 -0.2230
 2013SOL    HW217499   4.318   0.863  14.356 -1.5280 -1.0375 -1.8328
 2014SOL     OW17500   3.529   4.235   7.933 -0.2016 -1.0382  0.1791
 2014SOL    HW117501   3.466   4.304   7.914  0.1564  0.2716  3.6961
 2014SOL    HW217502   3.518   4.185   7.852  1.4615 -3.0056  1.1692
 2015SOL     OW17503   3.457   0.070   6.618 -0.1744 -0.2781  0.0178
 2015SOL    HW117504   3.385   0.128   6.645 -1.4529 -1.7761 -0.1863
 2015SOL    HW217505   3.419   0.028   6.541 -2.2888  0.5679  0.5892
 2016SOL     OW17506   4.343   1.222   5.847 -0.2445 -0.3588 -0.5393
 2016SOL    HW117507   4.370   1.181   5.929  0.0790  2.3773  0.7007
 2016SOL    HW217508   4.402   1.297   5.841 -0.8775  0.2010  0.3347
 2017SOL     OW17509   2.357   4.134   5.872 -0.2899  0.0839  0.9729
 2017SOL    HW117510   2.346   4.191   5.796  1.2016 -0.9542 -0.0221
 2017SOL    HW217511   2.451   4.137   5.885 -0.1364  4.1530 -1.0491
 2018SOL     OW17512   0.259   4.256   4.269 -0.7782 -0.3293 -0.1284
 2018SOL    HW117513   0.196   4.231   4.337  0.6010 -0.2262  1.2036
 2018SOL    HW217514   0.208   4.326   4.228  0.2997 -0.1590 -1.1686
 2019SOL     OW17515   1.395   0.658   9.779  0.1689 -0.2833 -0.3002
 2019SOL    HW117516   1.417   0.614   9.696  1.6432 -1.0485  0.5015
 2019SOL    HW217517   1.450   0.736   9.776  0.7554 -0.6782  0.3130
 2020SOL     OW17518   4.226   3.723   5.061 -0.1162  0.1277 -0.1796
 2020SOL    HW117519   4.160   3.668   5.103  0.8288 -0.3750  0.6535
 2020SOL    HW217520   4.308   3.701   5.104  0.7787  0.9837 -1.4484
 2021SOL     OW17521   3.066   4.594   7.382 -0.3881 -0.0688 -0.3572
 2021SOL    HW117522   3.066   4.501   7.359 -0.0308 -0.2365  0.3257
 2021SOL    HW217523   3.139   4.644   7.346  2.2529 -1.8966  2.4827
 2022SOL     OW17524   1.637   0.276  11.760 -0.1116 -0.1621  0.3753
 2022SOL    HW117525   1.728   0.248  11.773 -0.1426 -0.9277 -1.0255
 2022SOL    HW217526   1.629   0.245  11.670  1.4429  0.0570  0.1521
 2023SOL     OW17527   0.863   1.628  11.446  0.1567 -0.1352 -0.5629
 2023SOL    HW117528   0.909   1.703  11.408  0.1895  0.0833 -0.0805
 2023SOL    HW217529   0.784   1.631  11.391  0.8762 -0.6344 -1.6203
 2024SOL     OW17530   2.920   3.684   5.168 -0.5679 -0.0461 -0.0657
 2024SOL    HW117531   3.016   3.686   5.171 -0.6443  1.6355  1.3733
 2024SOL    HW217532   2.900   3.593   5.189  1.2163 -0.0123  1.8591
 2025SOL     OW17533   2.422   3.372  10.782  0.1751 -0.4345  0.0411
 2025SOL    HW117534   2.477   3.338  10.853 -2.4877 -2.5112  1.1079
 2025SOL    HW217535   2.449   3.308  10.716 -0.6757 -0.3633 -0.3768
 2026SOL     OW17536   0.741   1.710  16.003 -0.4313  0.7777 -0.2339
 2026SOL    HW117537   0.775   1.696  16.091 -3.9755 -0.1109  0.9718
 2026SOL    HW217538   0.827   1.717  15.961  0.1179 -0.1461  0.7262
 2027SOL     OW17539   0.466   3.687  12.724 -0.2027  0.0612 -0.0114
 2027SOL    HW117540   0.464   3.596  12.693 -1.2118 -0.5842  1.9095
 2027SOL    HW217541   0.465   3.664  12.817 -1.4240 -0.8488 -0.2461
 2028SOL     OW17542   3.144   2.229   7.850  0.0424 -0.2969  0.1405
 2028SOL    HW117543   3.125   2.163   7.916 -1.1777 -4.0495 -3.9537
 2028SOL    HW217544   3.053   2.224   7.822 -0.2012  1.2128  0.6355
 2029SOL     OW17545   2.620   3.119  14.896  0.2653 -0.6896  0.6994
 2029SOL    HW117546   2.557   3.059  14.934  0.3523 -2.0280 -1.2810
 2029SOL    HW217547   2.668   3.143  14.976  1.2300  0.5419 -0.2404
 2030SOL     OW17548   0.464   2.869   2.423  0.2797  0.0113 -0.7918
 2030SOL    HW117549   0.415   2.807   2.478  0.0348  0.5090 -0.4355
 2030SOL    HW217550   0.410   2.866   2.344 -1.9345  2.2620  0.6119
 2031SOL     OW17551   2.288   3.590   5.157 -0.4569  0.3344  0.9827
 2031SOL    HW117552   2.266   3.522   5.220  1.4093 -1.1956  0.0308
 2031SOL    HW217553   2.291   3.669   5.210  1.7061  0.9132  0.0256
 2032SOL     OW17554   3.287   1.687   0.748 -0.1558 -0.2349 -0.3571
 2032SOL    HW117555   3.368   1.698   0.798 -0.3078  2.9254 -0.7952
 2032SOL    HW217556   3.251   1.613   0.796 -0.7233  3.4780  4.8943
 2033SOL     OW17557   0.778   2.331   8.625 -0.4543 -0.3058 -0.6602
 2033SOL    HW117558   0.871   2.314   8.641 -0.7698 -0.7245  0.8368
 2033SOL    HW217559   0.729   2.296   8.700 -0.1985  2.0274  0.5887
 2034SOL     OW17560   3.298   0.514  17.554  0.0168  0.3432 -0.1097
 2034SOL    HW117561   3.320   0.421  17.562 -0.1980  0.3411  0.4811
 2034SOL    HW217562   3.384   0.556  17.550  0.3195 -0.3609 -0.8888
 2035SOL     OW17563   2.706   4.443   8.390  0.7781 -0.1344  0.1720
 2035SOL    HW117564   2.612   4.432   8.377  0.8517  2.1370 -2.2697
 2035SOL    HW217565   2.722   4.502   8.316  2.2833 -1.8119 -0.8581
 2036SOL     OW17566   0.215   3.959   6.335 -0.2105 -0.2498 -0.0796
 2036SOL    HW117567   0.209   3.943   6.240 -3.0528  0.8825 -0.0893
 2036SOL    HW217568   0.267   3.881   6.352 -0.6064 -0.5961 -0.4387
 2037SOL     OW17569   4.707   2.121   4.402 -0.4927  0.0119  0.7815
 2037SOL    HW117570   0.041   2.140   4.328  0.7331  2.4506  2.3614
 2037SOL    HW217571   4.641   2.081   4.345  0.4309 -0.4670  0.0419
 2038SOL     OW17572   3.843   3.951   0.632  0.2763  0.0194  0.6848
 2038SOL    HW117573   3.776   3.987   0.574  2.1049 -0.1475 -1.5145
 2038SOL    HW217574   3.808   3.984   0.714  0.8713  1.3001  0.4166
 2039SOL     OW17575   2.165   4.477   8.505 -0.3895 -0.5846 -0.1391
 2039SOL    HW117576   2.128   4.388   8.503 -0.5579 -0.4960 -1.5976
 2039SOL    HW217577   2.214   4.481   8.587  1.6247 -0.7921 -1.3312
 2040SOL     OW17578   3.930   3.383   9.048 -0.0796  0.8433 -0.5280
 2040SOL    HW117579   3.898   3.404   8.960  1.9276  0.0957 -1.4318
 2040SOL    HW217580   3.869   3.313   9.071 -2.1469  3.3233  1.5649
 2041SOL     OW17581   0.891   1.011   9.459  0.4616 -0.1239 -0.0584
 2041SOL    HW117582   0.903   0.977   9.371 -1.2485  1.8992 -1.0575
 2041SOL    HW217583   0.945   0.953   9.514  2.4100  1.0077 -0.7500
 2042SOL     OW17584   2.503   3.696   2.835 -0.3501 -0.4205  0.0391
 2042SOL    HW117585   2.582   3.713   2.783 -1.7441  1.9278 -1.2801
 2042SOL    HW217586   2.511   3.776   2.887  1.2448 -0.3875 -0.2388
 2043SOL     OW17587   4.193   3.804   9.527  0.1214 -0.3688 -0.2171
 2043SOL    HW117588   4.126   3.809   9.459  0.3581 -1.5624 -0.5391
 2043SOL    HW217589   4.206   3.897   9.549 -0.9899 -0.5503  1.1662
 2044SOL     OW17590   0.575   1.504   9.816 -0.2346  0.5973 -0.1416
 2044SOL    HW117591   0.526   1.586   9.823 -2.9009 -1.1068  0.6444
 2044SOL    HW217592   0.665   1.536   9.806  0.5252 -1.7306 -0.7339
 2045SOL     OW17593   4.469   3.510   3.922 -0.2907  0.4705 -0.3521
 2045SOL    HW117594   4.488   3.471   4.007 -1.1987  0.1773 -0.2773
 2045SOL    HW217595   4.546   3.478   3.876  1.4684  3.5119  0.5080
 2046SOL     OW17596   0.790   4.380   4.270 -0.1787 -0.3905  0.1247
 2046SOL    HW117597   0.785   4.387   4.175 -1.1287 -0.6439  0.1651
 2046SOL    HW217598   0.736   4.455   4.294  0.5422  1.4961 -4.1170
 2047SOL     OW17599   3.643   1.104  10.674 -0.0882  0.3855 -0.3464
 2047SOL    HW117600   3.606   1.139  10.593  0.4009  0.8456 -0.3702
 2047SOL    HW217601   3.591   1.137  10.747 -0.9709  2.5993 -1.9785
 2048SOL     OW17602   3.512   2.457   5.047 -0.0921 -0.3382 -0.2565
 2048SOL    HW117603   3.576   2.414   4.991  0.2665 -2.3193  1.6709
 2048SOL    HW217604   3.467   2.516   4.986  1.6425  1.4353  0.1736
 2049SOL     OW17605   0.692   1.200  10.602  0.5470  0.2449  0.1554
 2049SOL    HW117606   0.662   1.224  10.689 -2.9083  0.9677 -1.2493
 2049SOL    HW217607   0.629   1.237  10.541  0.3163  0.4911  0.5468
 2050SOL     OW17608   1.920   3.947   4.158  0.2520 -0.6727 -0.0830
 2050SOL    HW117609   1.879   3.897   4.087  0.2571  0.2600 -0.7352
 2050SOL    HW217610   1.876   4.032   4.158  1.5518 -0.0198 -1.5961
 2051SOL     OW17611   4.090   0.852   4.098  0.1040 -0.3358 -0.0232
 2051SOL    HW117612   4.055   0.940   4.108  0.1454 -0.1061 -1.8858
 2051SOL    HW217613   4.035   0.797   4.154 -0.2337  0.1145  0.0920
 2052SOL     OW17614   0.250   2.376   7.107 -0.3776  0.5055 -0.3036
 2052SOL    HW117615   0.171   2.407   7.151  0.2435 -0.1958  1.3018
 2052SOL    HW217616   0.277   2.315   7.176 -3.2635 -0.4143  0.0372
 2053SOL     OW17617   0.112   0.701  17.303  0.2694  0.5079  0.4773
 2053SOL    HW117618   0.075   0.784  17.331 -0.8857 -0.3390  1.4562
 2053SOL    HW217619   0.029   0.657  17.289  1.9216 -2.4596  0.0071
 2054SOL     OW17620   0.717   1.990   2.855 -0.2292 -0.2147 -0.6913
 2054SOL    HW117621   0.671   1.990   2.771 -0.0937 -0.2498 -0.7656
 2054SOL    HW217622   0.808   1.983   2.826 -0.0504 -3.7051  0.7573
 2055SOL     OW17623   4.244   1.243  14.248  0.4203 -0.1797 -0.6139
 2055SOL    HW117624   4.296   1.280  14.176  1.0483  0.2086  0.0344
 2055SOL    HW217625   4.284   1.156  14.241 -0.7157 -0.7794  0.3627
 2056SOL     OW17626   0.434   3.978   5.925 -0.1147  0.0286  0.4705
 2056SOL    HW117627   0.511   3.981   5.982 -2.3426  2.0865  3.3137
 2056SOL    HW217628   0.454   4.039   5.853  1.0980  0.2576  0.9895
 2057SOL     OW17629   1.947   0.695   7.055 -0.1014  0.4456 -0.5240
 2057SOL    HW117630   1.982   0.732   6.974  2.4727  0.1804  0.4698
 2057SOL    HW217631   1.855   0.720   7.053 -0.2908 -0.2043 -0.1519
 2058SOL     OW17632   0.849   4.443   8.267  0.4584 -0.4170  0.3738
 2058SOL    HW117633   0.860   4.536   8.287 -3.8399  0.5163 -1.4478
 2058SOL    HW217634   0.940   4.416   8.270  0.0909 -1.6558  0.2001
 2059SOL     OW17635   0.761   2.204   1.515 -0.3031 -0.1729 -0.5314
 2059SOL    HW117636   0.748   2.129   1.456  1.4646 -0.5497 -0.4523
 2059SOL    HW217637   0.761   2.279   1.455 -2.3963 -0.0435 -0.3748
 2060SOL     OW17638   1.080   2.627   7.373  0.0015  0.2709 -0.1747
 2060SOL    HW117639   1.129   2.688   7.428 -1.7980  0.3989  1.2630
 2060SOL    HW217640   1.087   2.678   7.292  0.8148 -1.9765 -1.5211
 2061SOL     OW17641   4.166   2.484  12.304 -0.0508  0.1325 -0.0112
 2061SOL    HW117642   4.256   2.514  12.306 -0.1930  0.5359  0.3844
 2061SOL    HW217643   4.116   2.549  12.255  0.9227  2.0291  1.5069
 2062SOL     OW17644   2.878   0.105   5.197 -0.1918 -0.1449 -0.3411
 2062SOL    HW117645   2.886   0.198   5.174  0.9272  0.5133  2.6685
 2062SOL    HW217646   2.958   0.068   5.159  1.2052  1.4410  1.0499
 2063SOL     OW17647   1.994   1.338   9.632  0.5836  0.6054 -0.2444
 2063SOL    HW117648   1.919   1.280   9.616  0.2009  1.1091 -0.2750
 2063SOL    HW217649   1.963   1.406   9.573 -0.8875 -0.2155 -0.4369
 2064SOL     OW17650   2.856   3.714  11.764  0.1036 -0.0349 -0.2069
 2064SOL    HW117651   2.794   3.725  11.692  1.9170 -0.0467 -1.7636
 2064SOL    HW217652   2.798   3.664  11.821 -1.9030  0.0813 -2.1636
 2065SOL     OW17653   4.491   4.112   4.674  0.7597  0.0019 -0.2736
 2065SOL    HW117654   4.422   4.172   4.645  0.5939 -0.1330 -0.1641
 2065SOL    HW217655   4.456   4.022   4.672 -1.6815  1.0047 -2.1994
 2066SOL     OW17656   1.145   2.455   8.190 -0.0542 -0.3563  0.1696
 2066SOL    HW117657   1.083   2.528   8.194  0.8537  0.4667 -0.6995
 2066SOL    HW217658   1.226   2.488   8.230 -1.8577  1.5053  2.3093
 2067SOL     OW17659   2.929   4.476   3.637 -0.0288 -0.0917  0.5808
 2067SOL    HW117660   3.007   4.424   3.616  0.7755  0.7549  1.4596
 2067SOL    HW217661   2.856   4.420   3.613  1.1525 -0.8999 -1.1370
 2068SOL     OW17662   0.330   1.405   3.291 -0.4861 -0.5636 -0.2393
 2068SOL    HW117663   0.418   1.416   3.255  0.0632  0.2165  1.3320
 2068SOL    HW217664   0.304   1.497   3.301  1.4034 -0.2890  2.2490
 2069SOL     OW17665   1.016   3.543   5.823  0.1444  0.8836  0.0392
 2069SOL    HW117666   0.977   3.623   5.856 -0.0467  0.8968 -0.2212
 2069SOL    HW217667   0.953   3.472   5.838  2.2228 -0.8408  0.6201
 2070SOL     OW17668   1.144   4.334  13.715  0.0720 -0.0269  0.1703
 2070SOL    HW117669   1.142   4.362  13.623  2.6590  0.0732  0.1473
 2070SOL    HW217670   1.161   4.418  13.759 -0.3168  0.2511 -0.2071
 2071SOL     OW17671   0.860   1.281   9.799  0.5862  0.4070 -0.5167
 2071SOL    HW117672   0.797   1.305   9.867  2.0478 -0.4863  1.1440
 2071SOL    HW217673   0.799   1.269   9.726 -0.6385 -1.5704  0.8366
 2072SOL     OW17674   3.642   1.074   5.133  0.5977 -0.2729  0.1364
 2072SOL    HW117675   3.734   1.083   5.106  0.1707  0.4069 -1.0289
 2072SOL    HW217676   3.586   1.120   5.072  1.0119 -0.3007 -0.2700
 2073SOL     OW17677   4.507   4.071   8.671  0.1324  0.0574  0.4376
 2073SOL    HW117678   4.561   4.036   8.601  1.3262  0.2683  1.2413
 2073SOL    HW217679   4.471   3.995   8.717 -0.2647  1.2437  2.1020
 2074SOL     OW17680   2.924   3.403   5.252 -0.3346  0.0953 -0.0719
 2074SOL    HW117681   2.889   3.328   5.203 -0.4136  0.3028 -0.3359
 2074SOL    HW217682   3.016   3.388   5.229  0.3535  2.7052  1.0166
 2075SOL     OW17683   1.979   2.312   5.916  0.0342 -0.9490 -0.4130
 2075SOL    HW117684   1.924   2.273   5.848  0.8979 -1.2371 -0.9420
 2075SOL    HW217685   2.008   2.235   5.965  0.2874  1.5842  3.4054
 2076SOL     OW17686   2.554   2.105  13.069  0.2958  0.1638  0.6573
 2076SOL    HW117687   2.572   2.195  13.040  2.0721 -0.0019  1.2670
 2076SOL    HW217688   2.549   2.117  13.164 -0.6435  1.7962  0.4122
 2077SOL     OW17689   1.276   2.666  14.350 -0.8451 -0.3553  0.3636
 2077SOL    HW117690   1.294   2.580  14.387 -0.5342 -0.2877  0.3774
 2077SOL    HW217691   1.360   2.704  14.323 -1.8903 -0.7020 -3.4595
 2078SOL     OW17692   3.677   3.525   3.138  0.3080 -0.4630 -0.0688
 2078SOL    HW117693   3.655   3.569   3.056 -0.9343  0.9991  1.0449
 2078SOL    HW217694   3.692   3.599   3.197 -2.4366 -0.2199  0.3374
 2079SOL     OW17695   2.007   1.968   2.903 -0.4371  0.4625  0.0053
 2079SOL    HW117696   2.063   1.979   2.979 -0.4381 -2.4112  0.4196
 2079SOL    HW217697   2.068   1.913   2.855 -0.5608  0.5075 -0.2031
 2080SOL     OW17698   3.427   0.083   3.529  0.6843 -0.2730  1.0076
 2080SOL    HW117699   3.388   0.074   3.616  0.3908 -0.9254  0.8135
 2080SOL    HW217700   3.415   4.719   3.496  0.4139  0.1123  0.0831
 2081SOL     OW17701   0.140   1.772   0.578  0.2323  0.5299 -0.0923
 2081SOL    HW117702   0.184   1.716   0.642 -0.4701 -1.1457 -1.0626
 2081SOL    HW217703   0.207   1.777   0.509 -1.3038  1.0391 -1.5518
 2082SOL     OW17704   2.226   0.538  15.429  0.2240 -0.4776  0.6557
 2082SOL    HW117705   2.201   0.457  15.385  0.7409  0.6521 -1.7260
 2082SOL    HW217706   2.274   0.587  15.363 -0.8563  1.3762  1.2515
 2083SOL     OW17707   1.102   0.341   1.797 -0.5687 -0.0642  0.3836
 2083SOL    HW117708   1.061   0.427   1.800 -0.2239  0.1381 -0.6598
 2083SOL    HW217709   1.179   0.353   1.854 -3.0942  0.2071  3.7160
 2084SOL     OW17710   0.701   1.329  14.799  0.2771 -0.1167 -0.2494
 2084SOL    HW117711   0.647   1.256  14.768  1.8541 -1.3171 -0.1413
 2084SOL    HW217712   0.776   1.286  14.839  1.0218  2.0363  0.6437
 2085SOL     OW17713   1.101   2.789   5.925 -0.5561  0.1110  0.0388
 2085SOL    HW117714   1.104   2.871   5.875 -0.7215  1.1119  1.6876
 2085SOL    HW217715   1.010   2.776   5.951 -0.5627 -0.3663 -0.2344
 2086SOL     OW17716   2.318   0.441   2.237 -0.1900 -0.0384 -0.7886
 2086SOL    HW117717   2.327   0.346   2.238  2.2295  0.1870 -0.1940
 2086SOL    HW217718   2.264   0.451   2.158 -1.1002 -0.2919 -0.2001
 2087SOL     OW17719   4.619   1.586   3.805  0.0496  0.0713  0.2921
 2087SOL    HW117720   4.609   1.648   3.732 -1.4360  0.0691  0.4860
 2087SOL    HW217721   4.678   1.519   3.772 -0.5042  0.0728 -0.6893
 2088SOL     OW17722   3.609   1.026   2.336  0.6542 -0.2288  0.7130
 2088SOL    HW117723   3.694   1.007   2.296  0.0874  0.9565 -1.0374
 2088SOL    HW217724   3.643   1.090   2.399 -0.6546  3.1662 -2.0534
 2089SOL     OW17725   2.187   0.441   0.172  0.4392  0.2441  0.0064
 2089SOL    HW117726   2.255   0.501   0.141 -0.6926  1.4280 -0.1411
 2089SOL    HW217727   2.242   0.409   0.244  0.0216  1.5589  0.9022
 2090SOL     OW17728   0.840   1.645   7.484  0.0022  0.3163  0.0815
 2090SOL    HW117729   0.873   1.556   7.466  2.0176  1.0278  0.1839
 2090SOL    HW217730   0.752   1.644   7.448 -0.2603 -0.0424  0.7401
 2091SOL     OW17731   3.441   3.876   3.034 -0.6090 -0.0814  0.2607
 2091SOL    HW117732   3.476   3.957   2.998 -1.5695  0.2731  0.1125
 2091SOL    HW217733   3.488   3.815   2.977  0.9722  2.4343 -1.1213
 2092SOL     OW17734   1.630   0.197  15.387  0.3502 -0.5095  0.1154
 2092SOL    HW117735   1.642   0.253  15.310 -0.4421 -0.9968 -0.3597
 2092SOL    HW217736   1.537   0.206  15.405  0.7933 -1.2655  2.7911
 2093SOL     OW17737   0.780   3.076   5.263 -0.0506 -0.0257  0.1616
 2093SOL    HW117738   0.745   3.157   5.225  0.5543 -0.6462 -1.7254
 2093SOL    HW217739   0.763   3.009   5.197 -1.0577  1.9229 -1.5643
 2094SOL     OW17740   4.312   2.492   8.965  0.1545  0.4244 -0.2908
 2094SOL    HW117741   4.314   2.407   8.921 -3.4340  0.9522 -1.4826
 2094SOL    HW217742   4.367   2.547   8.909  0.9056 -1.8365 -1.8049
 2095SOL     OW17743   1.972   3.019   3.632 -0.6496 -0.7182 -0.1450
 2095SOL    HW117744   1.895   3.062   3.595  0.5745  1.6424  0.1126
 2095SOL    HW217745   1.930   2.976   3.707 -0.1606 -0.9473 -0.0006
 2096SOL     OW17746   2.231   3.659   2.906 -0.1070  0.2116 -0.1054
 2096SOL    HW117747   2.323   3.662   2.880  0.3437 -0.1449  1.4519
 2096SOL    HW217748   2.209   3.567   2.920 -0.4694 -0.0097 -2.0420
 2097SOL     OW17749   0.613   0.431   4.654 -0.0374  0.3402 -0.8308
 2097SOL    HW117750   0.571   0.355   4.612 -0.5149 -0.8570  1.8313
 2097SOL    HW217751   0.600   0.402   4.744 -0.4678  0.0526 -0.9832
 2098SOL     OW17752   4.065   2.245   4.156  0.3765  0.0867 -0.1008
 2098SOL    HW117753   4.069   2.297   4.076 -2.8022  0.2169 -0.1457
 2098SOL    HW217754   3.975   2.213   4.155  1.1551 -2.0822 -1.0792
 2099SOL     OW17755   0.254   1.354   6.438  0.1350 -0.1390 -0.4629
 2099SOL    HW117756   0.272   1.442   6.474  0.2718  1.1667 -3.7062
 2099SOL    HW217757   0.284   1.303   6.512  1.9067  2.5020  0.6618
 2100SOL     OW17758   2.367   2.599  12.226  0.1796  0.0335  0.6334
 2100SOL    HW117759   2.295   2.631  12.172  0.7210  0.1419 -0.0302
 2100SOL    HW217760   2.310   2.578  12.299 -1.2205 -0.5481 -0.6398
 2101SOL     OW17761   0.494   3.519   2.898 -0.3132  0.3094 -0.3452
 2101SOL    HW117762   0.474   3.467   2.820  0.8806  1.2991 -1.3067
 2101SOL    HW217763   0.434   3.475   2.958  0.7990  0.2772  0.7531
 2102SOL     OW17764   0.510   2.371   1.180 -0.0427 -0.3312  0.6408
 2102SOL    HW117765   0.589   2.380   1.235 -1.6658 -0.7089  3.0436
 2102SOL    HW217766   0.550   2.324   1.107 -1.2662  0.3862 -0.4828
 2103SOL     OW17767   2.427   0.966   5.280  0.2982  0.6421 -0.2113
 2103SOL    HW117768   2.375   0.957   5.360  0.3717 -2.3887 -0.5145
 2103SOL    HW217769   2.510   0.999   5.315  0.2862  1.4525 -0.9470
 2104SOL     OW17770   2.168   3.237  11.901  0.0586  0.1344 -0.4370
 2104SOL    HW117771   2.172   3.212  11.808 -1.1785 -2.3874  0.1686
 2104SOL    HW217772   2.204   3.325  11.902 -1.4805  0.7882 -2.2949
 2105SOL     OW17773   4.524   3.224   7.862  0.5513  0.4986  0.1605
 2105SOL    HW117774   4.560   3.306   7.829  2.1032 -0.4458 -0.4959
 2105SOL    HW217775   4.456   3.218   7.795  0.4641 -0.6655  0.3539
 2106SOL     OW17776   1.462   2.533   1.713  0.1924  0.0832  0.0005
 2106SOL    HW117777   1.422   2.619   1.730  0.6255  0.2688  0.0650
 2106SOL    HW217778   1.436   2.480   1.788  1.5483 -1.7908 -0.8635
 2107SOL     OW17779   1.905   2.308   7.911  0.1491  0.5938  0.5281
 2107SOL    HW117780   1.969   2.277   7.976 -0.6808 -2.6515 -0.2347
 2107SOL    HW217781   1.920   2.401   7.932 -0.9996  0.5986  1.3264
 2108SOL     OW17782   0.261   0.802   7.316 -0.3690  0.1323  0.3569
 2108SOL    HW117783   0.196   0.767   7.255 -0.1771  0.6017 -0.1108
 2108SOL    HW217784   0.212   0.881   7.341 -0.8803 -1.1712  3.5470
 2109SOL     OW17785   2.103   1.386   7.519 -0.7033  0.4344 -0.2116
 2109SOL    HW117786   2.051   1.326   7.572 -0.4769  0.4283  0.0025
 2109SOL    HW217787   2.191   1.360   7.546 -0.9625 -1.0535 -0.8417
 2110SOL     OW17788   4.103   2.977   2.888  0.4861  0.0774 -0.0936
 2110SOL    HW117789   4.040   2.929   2.834  0.1584  0.3864  0.0206
 2110SOL    HW217790   4.107   2.923   2.966 -1.9593  1.5894  1.0717
 2111SOL     OW17791   4.456   1.034   3.269 -0.9067  0.0648  0.2371
 2111SOL    HW117792   4.512   1.110   3.259 -0.4949 -0.1203  1.1457
 2111SOL    HW217793   4.424   1.044   3.359 -2.6488  1.3831 -0.5520
 2112SOL     OW17794   3.431   3.525   5.161 -0.0783  0.4399 -0.1709
 2112SOL    HW117795   3.490   3.564   5.226 -0.0879  2.2034 -1.2039
 2112SOL    HW217796   3.470   3.550   5.078 -0.4149  0.7793 -0.2306
 2113SOL     OW17797   1.664   3.618   8.380 -0.1701 -0.4102 -0.1805
 2113SOL    HW117798   1.622   3.703   8.367  1.6973  0.5172 -0.1169
 2113SOL    HW217799   1.628   3.585   8.462 -1.5095  0.6325 -0.3406
 2114SOL     OW17800   1.481   1.878   5.039 -0.2419  0.1421 -0.8610
 2114SOL    HW117801   1.439   1.964   5.042  1.7663  1.0659  0.5018
 2114SOL    HW217802   1.430   1.836   4.970  1.9139 -1.6997 -1.3373
 2115SOL     OW17803   4.669   3.431   2.546 -0.2803 -0.1424 -0.2951
 2115SOL    HW117804   4.696   3.421   2.637  0.7184 -0.6890 -0.6461
 2115SOL    HW217805   0.026   3.459   2.503 -0.4271  0.9775  0.1669
 2116SOL     OW17806   0.196   0.209   5.093  0.5844 -0.2089 -0.1120
 2116SOL    HW117807   0.271   0.263   5.068  2.0180 -1.5626  1.3126
 2116SOL    HW217808   0.147   0.289   5.113 -0.2201 -1.0524  1.3137
 2117SOL     OW17809   1.956   1.125   1.276  0.0832  0.4507 -0.6964
 2117SOL    HW117810   1.990   1.095   1.192 -2.7336 -2.5384 -0.7615
 2117SOL    HW217811   1.925   1.043   1.314 -1.0172  1.3462  0.3603
 2118SOL     OW17812   1.959   4.096   6.642  0.6009  0.9458  0.2885
 2118SOL    HW117813   2.051   4.095   6.666  0.9064 -0.8477 -0.9056
 2118SOL    HW217814   1.964   4.173   6.585  1.7881  1.1286  0.6395
 2119SOL     OW17815   1.197   1.753   1.748  0.3904  0.1287 -0.0537
 2119SOL    HW117816   1.107   1.728   1.726  0.6772 -1.9355  1.1271
 2119SOL    HW217817   1.198   1.848   1.735  0.0435  0.2416  0.7330
 2120SOL     OW17818   3.501   0.124   5.882  0.0165  0.0376 -0.1342
 2120SOL    HW117819   3.578   0.176   5.906 -0.5985  0.6933  0.4131
 2120SOL    HW217820   3.532   0.034   5.883  1.1657  0.4316  0.3416
 2121SOL     OW17821   3.515   3.643   0.010 -0.3831  0.2762 -0.3995
 2121SOL    HW117822   3.552   3.585  17.642 -1.1016 -0.6870  0.0423
 2121SOL    HW217823   3.595   3.660   0.060 -0.7762 -1.1731  0.7047
 2122SOL     OW17824   3.733   1.824   7.700 -0.3527 -0.1042 -0.5341
 2122SOL    HW117825   3.662   1.872   7.658  0.5149  0.5119 -1.3039
 2122SOL    HW217826   3.696   1.797   7.784  1.8002 -0.0571  0.4288
 2123SOL     OW17827   4.354   4.374  16.410 -1.1120  0.1424  0.3854
 2123SOL    HW117828   4.437   4.326  16.412 -0.2305  1.5305 -2.6198
 2123SOL    HW217829   4.351   4.391  16.316 -1.0439 -2.1608 -0.0411
 2124SOL     OW17830   2.092   0.428   1.603  0.0339 -0.3017 -0.4504
 2124SOL    HW117831   2.128   0.512   1.574 -1.7652  1.7945  3.4727
 2124SOL    HW217832   2.147   0.370   1.550 -1.0032 -0.3648 -1.4575
 2125SOL     OW17833   3.831   1.610   7.211  0.2200  0.3818  0.5844
 2125SOL    HW117834   3.759   1.589   7.270 -0.5539 -1.6338 -1.0717
 2125SOL    HW217835   3.828   1.537   7.150  0.4725  1.8376 -1.1787
 2126SOL     OW17836   3.086   1.909   6.752 -0.3325  0.0311 -0.4501
 2126SOL    HW117837   3.134   1.941   6.676 -2.6953  1.3390 -1.4206
 2126SOL    HW217838   2.995   1.920   6.722 -0.8462 -1.3341  0.6091
 2127SOL     OW17839   0.074   1.231   5.999  0.3503  0.1335  0.3970
 2127SOL    HW117840   0.035   1.316   6.019 -0.4708 -0.1557  0.0070
 2127SOL    HW217841   0.079   1.192   6.086 -2.0286 -0.5245  0.2411
 2128SOL     OW17842   2.656   3.779   8.459  0.3495  0.6774 -0.0932
 2128SOL    HW117843   2.616   3.710   8.513 -0.7987  2.2712  1.0674
 2128SOL    HW217844   2.598   3.853   8.475  2.9113  2.7127 -0.3282
 2129SOL     OW17845   3.784   0.600   7.794 -0.2931 -0.0505  0.0583
 2129SOL    HW117846   3.764   0.539   7.865 -1.7601  0.9079  0.4509
 2129SOL    HW217847   3.823   0.544   7.727  0.9533 -0.9849  1.5415
 2130SOL     OW17848   4.550   2.681  10.514  0.0773  0.1849 -0.0286
 2130SOL    HW117849   4.487   2.708  10.581 -0.2213  0.5904 -0.4688
 2130SOL    HW217850   4.610   2.625  10.563  0.8622  1.5437  0.5683
 2131SOL     OW17851   4.400   3.429   8.685  0.1288 -0.1148  0.1990
 2131SOL    HW117852   4.380   3.412   8.777  0.7521 -0.4690  0.2721
 2131SOL    HW217853   4.374   3.347   8.642  0.7992 -2.2675  3.8583
 2132SOL     OW17854   0.811   1.596  10.120  0.0710  0.1342 -0.4574
 2132SOL    HW117855   0.761   1.598  10.202  0.5208 -0.4382 -0.1726
 2132SOL    HW217856   0.829   1.503  10.114 -0.4598 -0.1664  2.4595
 2133SOL     OW17857   4.470   0.707   0.910 -0.3687  0.1442 -0.4130
 2133SOL    HW117858   4.437   0.769   0.975 -1.0025  2.0582 -2.5979
 2133SOL    HW217859   4.561   0.696   0.938 -0.9783  0.0849  1.5402
 2134SOL     OW17860   2.467   2.719  14.979  0.0139  0.8246  1.1262
 2134SOL    HW117861   2.541   2.670  14.942 -2.9714  0.1510 -4.0225
 2134SOL    HW217862   2.500   2.751  15.063  1.2463 -0.6765  1.2213
 2135SOL     OW17863   2.245   0.214   0.357  1.1205 -0.3350 -0.5259
 2135SOL    HW117864   2.216   0.262   0.435  1.0038 -1.1677 -0.0515
 2135SOL    HW217865   2.337   0.237   0.344  0.4423  1.8625 -1.5002
 2136SOL     OW17866   3.296   2.231  14.197 -0.5018 -0.3226  0.4969
 2136SOL    HW117867   3.248   2.215  14.116  1.5902  2.2038 -1.2426
 2136SOL    HW217868   3.249   2.176  14.260  0.6330  1.3354  2.8234
 2137SOL     OW17869   3.629   4.308   4.208  0.0686 -0.0067  0.7150
 2137SOL    HW117870   3.614   4.293   4.301  0.8029  0.0774  0.8447
 2137SOL    HW217871   3.676   4.230   4.178 -2.0816 -1.2202  0.4887
 2138SOL     OW17872   4.591   3.280   9.200 -0.0960  0.6406 -0.0097
 2138SOL    HW117873   4.589   3.292   9.105  0.2531  1.0556  0.0365
 2138SOL    HW217874   4.498   3.270   9.223  0.6959 -0.7294  2.5138
 2139SOL     OW17875   4.675   2.462   9.205  0.5620  0.5094 -0.0954
 2139SOL    HW117876   4.629   2.479   9.287  0.0609  0.3457 -0.3418
 2139SOL    HW217877   0.014   2.534   9.207  0.3072  0.7899 -2.3915
 2140SOL     OW17878   2.179   0.212   2.480  0.5500 -0.0568  0.0682
 2140SOL    HW117879   2.119   0.183   2.411 -1.5812  1.4528  1.2663
 2140SOL    HW217880   2.217   0.126   2.500  0.3832  0.3087  2.0305
 2141SOL     OW17881   1.788   1.326  10.085 -0.6332 -0.2205  0.5365
 2141SOL    HW117882   1.875   1.361  10.070 -0.7276 -1.0441 -1.8631
 2141SOL    HW217883   1.728   1.359  10.018 -0.7568 -2.3089 -0.3787
 2142SOL     OW17884   2.805   0.250  11.537  0.2378 -0.2191  0.3003
 2142SOL    HW117885   2.864   0.175  11.523 -1.8109 -1.6918 -0.4098
 2142SOL    HW217886   2.733   0.228  11.479  1.0264  0.4588 -0.9343
 2143SOL     OW17887   2.270   1.376   7.906  0.1681  0.5126  0.1008
 2143SOL    HW117888   2.336   1.321   7.862  0.7544  2.0308 -0.9292
 2143SOL    HW217889   2.254   1.452   7.850 -1.7490  1.1844  1.5661
 2144SOL     OW17890   4.277   2.609   3.369 -0.6492  0.0631 -0.3456
 2144SOL    HW117891   4.313   2.653   3.446 -2.1984  0.3845  0.1888
 2144SOL    HW217892   4.194   2.656   3.370 -0.1185  1.0062 -0.9944
 2145SOL     OW17893   2.977   0.674   0.250 -0.4382 -0.3632  0.3662
 2145SOL    HW117894   3.059   0.648   0.207  0.3176 -0.4918  1.8957
 2145SOL    HW217895   2.912   0.641   0.187 -1.5553 -1.2819  2.0213
 2146SOL     OW17896   1.141   2.086   5.508 -0.1232  0.2540  0.1115
 2146SOL    HW117897   1.190   2.167   5.523  0.5736 -0.4770  1.8336
 2146SOL    HW217898   1.164   2.037   5.587  1.8325 -0.4301 -0.8629
 2147SOL     OW17899   1.410   0.770  13.438 -0.2686 -0.1424  0.5963
 2147SOL    HW117900   1.325   0.805  13.463 -0.2766  0.0700  0.2733
 2147SOL    HW217901   1.463   0.827  13.494  1.6579  0.9444 -2.3271
 2148SOL     OW17902   2.935   2.786  14.250  0.1937 -0.4434 -0.9892
 2148SOL    HW117903   2.951   2.864  14.304 -1.4794 -0.7443 -0.0828
 2148SOL    HW217904   3.026   2.757  14.239  0.3716  0.5735 -2.1850
 2149SOL     OW17905   2.120   1.510   1.568  0.0712 -0.2261 -0.0249
 2149SOL    HW117906   2.095   1.538   1.657 -2.0916 -3.3111  0.3684
 2149SOL    HW217907   2.208   1.474   1.580  0.4697 -0.1547 -2.8656
 2150SOL     OW17908   2.085   2.423   5.302  0.3195  0.1326  0.1789
 2150SOL    HW117909   2.056   2.443   5.391 -0.4431 -0.4387  0.0568
 2150SOL    HW217910   2.001   2.437   5.257  2.2282 -1.3251 -3.8751
 2151SOL     OW17911   3.469   3.089  11.628  0.1334 -0.1479 -0.1555
 2151SOL    HW117912   3.475   3.090  11.532 -1.7616  0.8206 -0.2636
 2151SOL    HW217913   3.560   3.067  11.645 -1.4062 -4.3644  2.6135
 2152SOL     OW17914   1.250   0.250   5.553 -0.1251 -0.4305  0.4636
 2152SOL    HW117915   1.291   0.209   5.477  0.3649  0.5816  0.1899
 2152SOL    HW217916   1.161   0.214   5.549 -0.3965  0.1600  1.1960
 2153SOL     OW17917   0.458   3.684  13.017  0.3928  0.0106  0.2989
 2153SOL    HW117918   0.505   3.728  13.088  0.9541  2.5895 -1.7081
 2153SOL    HW217919   0.371   3.724  13.023  0.0929 -0.6489  0.4415
 2154SOL     OW17920   0.047   0.436  13.792 -0.0442  0.5510  0.1876
 2154SOL    HW117921   0.122   0.377  13.798 -1.6987 -1.3760  1.7280
 2154SOL    HW217922   0.062   0.490  13.714  0.8086 -0.8151 -0.5842
 2155SOL     OW17923   4.578   0.555   7.187  0.1870  0.0291  0.3078
 2155SOL    HW117924   4.561   0.503   7.109  0.3209 -1.2437  1.1237
 2155SOL    HW217925   4.668   0.526   7.204  0.5739  0.8121 -0.3970
 2156SOL     OW17926   2.734   3.702   8.221 -0.2598  0.0320 -0.1591
 2156SOL    HW117927   2.713   3.738   8.307  2.1634  0.2565  0.3388
 2156SOL    HW217928   2.667   3.752   8.173  0.5291 -1.3785 -2.7567
 2157SOL     OW17929   2.873   0.763   6.055 -0.1742  0.1249 -0.0198
 2157SOL    HW117930   2.784   0.726   6.057  0.0010 -0.3624 -1.1456
 2157SOL    HW217931   2.862   0.827   6.126 -1.3866 -0.4791  0.3372
 2158SOL     OW17932   0.071   0.642   3.356 -0.8358 -0.1847 -0.5019
 2158SOL    HW117933   0.077   0.645   3.451 -1.6502  1.9257 -0.5327
 2158SOL    HW217934   4.721   0.702   3.346  0.2372  1.1993 -0.0800
 2159SOL     OW17935   3.779   1.089   8.910  0.0342  0.1132 -0.0333
 2159SOL    HW117936   3.722   1.019   8.876  1.0322 -0.8146  0.2147
 2159SOL    HW217937   3.715   1.142   8.958  0.5364  0.8723 -0.2015
 2160SOL     OW17938   0.152   0.645  16.441 -0.7512  0.4030 -0.7568
 2160SOL    HW117939   0.179   0.707  16.509 -2.5135 -0.0301  0.3095
 2160SOL    HW217940   0.150   0.569  16.499  0.0089  1.7457  1.0335
 2161SOL     OW17941   2.704   3.645  10.530  0.0672  0.3633  0.8479
 2161SOL    HW117942   2.651   3.710  10.576  0.6028  1.7447 -0.4576
 2161SOL    HW217943   2.651   3.601  10.464 -0.8571  3.2652 -0.3563
 2162SOL     OW17944   2.436   0.746  12.799 -0.1854 -0.3400 -0.3449
 2162SOL    HW117945   2.487   0.672  12.832 -1.9033 -0.2911  2.3598
 2162SOL    HW217946   2.504   0.800  12.760 -0.0643  1.7334  2.8056
 2163SOL     OW17947   1.481   0.433   1.151 -0.1826 -0.6297 -0.1708
 2163SOL    HW117948   1.516   0.478   1.227 -0.7000 -1.2243  0.4195
 2163SOL    HW217949   1.478   0.509   1.093 -0.9252 -1.2232 -0.9189
 2164SOL     OW17950   1.301   2.815   2.134 -0.1034  0.6280 -0.2290
 2164SOL    HW117951   1.239   2.876   2.094 -1.0946 -0.4161 -0.2729
 2164SOL    HW217952   1.261   2.729   2.118  1.1463 -0.0835  0.4263
 2165SOL     OW17953   3.613   4.371   6.014  0.0645 -0.5548 -0.4559
 2165SOL    HW117954   3.706   4.392   6.010 -0.0908  0.1723 -0.2658
 2165SOL    HW217955   3.570   4.419   6.085  1.9507 -1.6688  1.4267
 2166SOL     OW17956   0.376   1.021  11.709  0.2574 -0.3035 -0.0373
 2166SOL    HW117957   0.403   1.063  11.791 -2.2086  2.4251 -0.5891
 2166SOL    HW217958   0.282   1.008  11.722  0.4285 -0.5006  1.0579
 2167SOL     OW17959   3.611   1.328   4.421 -0.0278  0.0661 -0.2019
 2167SOL    HW117960   3.556   1.403   4.444 -1.2893 -1.0719  0.5505
 2167SOL    HW217961   3.634   1.359   4.334  1.7062 -2.5509 -0.6670
 2168SOL     OW17962   2.337   3.878   6.494  0.4863 -0.1969 -0.3410
 2168SOL    HW117963   2.245   3.901   6.482  0.9161  2.0783  0.6140
 2168SOL    HW217964   2.359   3.845   6.407 -1.8158  1.5468 -1.5992
 2169SOL     OW17965   2.585   3.061   7.812 -0.1197 -0.4054  0.5312
 2169SOL    HW117966   2.640   2.990   7.779 -1.1510 -0.9111 -0.0931
 2169SOL    HW217967   2.647   3.131   7.832  0.8720 -1.2696  0.4837
 2170SOL     OW17968   0.017   2.815  11.488 -0.1838 -0.0186 -0.3111
 2170SOL    HW117969   4.712   2.859  11.408 -0.2873  0.1726 -0.1700
 2170SOL    HW217970   4.716   2.874  11.560  0.6927 -1.3073  1.0501
 2171SOL     OW17971   0.198   4.332   0.084  0.2191  0.1527 -0.0103
 2171SOL    HW117972   0.175   4.292   0.000 -1.7005 -0.0762  0.6183
 2171SOL    HW217973   0.260   4.397   0.053  0.5399  0.0198  0.3404
 2172SOL     OW17974   4.263   4.384  15.326 -0.7330 -0.2425  0.0498
 2172SOL    HW117975   4.350   4.351  15.349 -0.2772  2.0529  1.6960
 2172SOL    HW217976   4.274   4.469  15.368 -1.1931  0.8003 -1.9359
 2173SOL     OW17977   1.570   0.815   7.301  0.9790 -0.1687 -0.5660
 2173SOL    HW117978   1.504   0.879   7.327 -0.8717 -1.3976 -2.1704
 2173SOL    HW217979   1.620   0.801   7.381  0.0010  2.6674  0.5494
 2174SOL     OW17980   3.649   2.532   5.440 -0.4357 -0.1216 -0.4374
 2174SOL    HW117981   3.686   2.444   5.440  0.5744  0.2959  0.8242
 2174SOL    HW217982   3.720   2.588   5.474  0.1627 -1.4665  0.5306
 2175SOL     OW17983   2.470   2.929   3.992  0.1767  0.1421  0.2758
 2175SOL    HW117984   2.523   2.904   4.068  0.5957  1.1632  0.3181
 2175SOL    HW217985   2.502   3.019   3.986  1.5949 -0.3856  0.1126
 2176SOL     OW17986   2.324   3.316   7.485  0.7214  0.5527  0.4028
 2176SOL    HW117987   2.415   3.293   7.503  0.5751 -0.7141 -0.4781
 2176SOL    HW217988   2.335   3.389   7.545 -0.8689 -0.2723  1.7103
 2177SOL     OW17989   3.146   0.065  15.691 -0.4965  0.8154 -0.0244
 2177SOL    HW117990   3.213   0.010  15.650  0.2145  3.2481 -2.1312
 2177SOL    HW217991   3.188   0.089  15.773  1.3281 -2.2493 -0.0268
 2178SOL     OW17992   3.232   2.477   7.006  0.2832  0.3132 -0.0831
 2178SOL    HW117993   3.223   2.402   6.946 -1.3846 -0.6117  1.3270
 2178SOL    HW217994   3.226   2.556   6.953  0.2391  0.7485  0.5852
 2179SOL     OW17995   2.765   3.872   9.282  0.3545 -0.5141 -0.4086
 2179SOL    HW117996   2.721   3.936   9.225  0.2887  1.7294  2.1545
 2179SOL    HW217997   2.707   3.798   9.264 -0.9629  0.8480 -1.8100
 2180SOL     OW17998   1.237   0.091   3.500  0.7970 -0.4907 -0.2123
 2180SOL    HW117999   1.256   0.111   3.592 -2.0671  0.2524  0.1975
 2180SOL    HW218000   1.196   0.174   3.476  0.3556 -1.2657 -2.1196
 2181SOL     OW18001   3.740   0.866   4.466 -0.0601  0.0173  0.0355
 2181SOL    HW118002   3.758   0.873   4.560 -2.0102  3.2654  0.1475
 2181SOL    HW218003   3.686   0.944   4.452 -1.2166 -0.6126  0.9860
 2182SOL     OW18004   2.328   0.436   4.623  0.1662  0.0606 -0.1178
 2182SOL    HW118005   2.385   0.466   4.551  1.0100  0.5690  0.7643
 2182SOL    HW218006   2.254   0.495   4.608  0.1291  0.4745  1.6807
 2183SOL     OW18007   3.018   4.023   9.113 -0.1551 -0.0744 -0.6131
 2183SOL    HW118008   2.945   4.083   9.100 -2.1002 -2.3544 -0.1536
 2183SOL    HW218009   3.075   4.035   9.037  0.3760  1.5972  0.0264
 2184SOL     OW18010   2.585   0.220   3.293  0.1268 -0.2258 -0.0468
 2184SOL    HW118011   2.658   0.161   3.311 -3.0903 -4.2010  0.1138
 2184SOL    HW218012   2.628   0.282   3.234 -0.3647  0.4486  0.3004
 2185SOL     OW18013   2.378   0.654  14.548  0.8438  0.0623 -0.2410
 2185SOL    HW118014   2.387   0.645  14.453 -0.0203 -0.1810 -0.2974
 2185SOL    HW218015   2.413   0.742  14.560  0.6883 -0.0206  0.8146
 2186SOL     OW18016   2.848   4.636  15.298  0.3172  0.0600 -0.0032
 2186SOL    HW118017   2.861   4.604  15.209 -1.7912  1.1791 -0.7245
 2186SOL    HW218018   2.936   4.664  15.322 -0.1059  1.2315  0.1890
 2187SOL     OW18019   0.650   0.872  10.551 -0.6754  0.2170  0.3617
 2187SOL    HW118020   0.683   0.929  10.620  2.5652 -0.5208 -0.5889
 2187SOL    HW218021   0.690   0.918  10.477 -2.1840  1.4502  0.3087
 2188SOL     OW18022   3.228   2.511   7.306  0.3512  0.1405 -0.3575
 2188SOL    HW118023   3.238   2.416   7.303  3.0394  0.4208 -0.6330
 2188SOL    HW218024   3.195   2.527   7.218  1.8930  0.2727 -0.9278
 2189SOL     OW18025   0.464   3.009   1.223 -0.6264 -0.2862 -0.1995
 2189SOL    HW118026   0.530   3.067   1.262 -2.6795  1.3088  0.8877
 2189SOL    HW218027   0.421   3.072   1.166  1.8768  1.1737 -0.4653
 2190SOL     OW18028   0.177   2.866   8.253 -0.5050  0.7324 -0.8008
 2190SOL    HW118029   0.162   2.772   8.253 -0.2756  0.7040  0.7027
 2190SOL    HW218030   0.189   2.880   8.159 -1.6128  0.7095 -0.9423
 2191SOL     OW18031   3.866   1.287   7.323  0.5241 -0.1943 -0.1078
 2191SOL    HW118032   3.870   1.339   7.242 -0.3621 -0.8634 -0.5744
 2191SOL    HW218033   3.930   1.336   7.374  1.5336 -1.2035 -0.3994
 2192SOL     OW18034   1.786   3.359   2.720 -0.2834  0.3259 -0.5370
 2192SOL    HW118035   1.768   3.400   2.804 -0.0324  1.2276 -0.9251
 2192SOL    HW218036   1.880   3.340   2.731 -0.4842  0.9571  2.1090
 2193SOL     OW18037   3.180   1.932   1.248  0.2707  0.4078  0.3297
 2193SOL    HW118038   3.217   1.854   1.206  0.4191 -0.5108  2.1528
 2193SOL    HW218039   3.181   1.895   1.337  1.4562 -0.1305  0.0899
 2194SOL     OW18040   2.844   1.198   2.915 -0.0920 -0.4814  0.7776
 2194SOL    HW118041   2.773   1.204   2.851  0.6680 -1.3030 -0.1481
 2194SOL    HW218042   2.919   1.189   2.856 -2.8170 -1.1847 -2.5448
 2195SOL     OW18043   4.066   3.583   6.283  0.4497  0.3938  0.0017
 2195SOL    HW118044   4.071   3.493   6.254 -0.3789  0.0691  0.8491
 2195SOL    HW218045   4.147   3.604   6.330  0.3425  0.1917  0.2795
 2196SOL     OW18046   2.566   4.224   4.993 -0.3198  0.2814  0.2659
 2196SOL    HW118047   2.566   4.319   4.981  1.3299  0.4871  1.8658
 2196SOL    HW218048   2.581   4.198   4.902  1.1725 -3.6979  1.6646
 2197SOL     OW18049   4.268   1.920  10.334 -0.0835  0.1298  0.1490
 2197SOL    HW118050   4.257   1.831  10.365  0.7135 -0.1592 -0.3892
 2197SOL    HW218051   4.223   1.924  10.250 -0.4208 -1.8399  0.2558
 2198SOL     OW18052   2.085   0.682   8.462 -0.3179  0.1345 -0.1641
 2198SOL    HW118053   2.042   0.628   8.395  0.7606  0.1081 -0.8385
 2198SOL    HW218054   2.033   0.658   8.539  0.0064  2.1324  0.6820
 2199SOL     OW18055   0.813   3.496   7.858  0.0038  0.0994  0.1216
 2199SOL    HW118056   0.907   3.483   7.846 -0.2526 -1.1735 -0.4743
 2199SOL    HW218057   0.802   3.446   7.939  0.5693 -1.2453 -0.6308
 2200SOL     OW18058   3.214   1.515   9.374  0.3445  0.5927 -0.3923
 2200SOL    HW118059   3.251   1.592   9.330 -1.4461  0.6355 -1.8352
 2200SOL    HW218060   3.266   1.521   9.454  1.3602 -1.4660 -0.8949
 2201SOL     OW18061   1.080   0.753   4.240  0.8170  0.3025  0.1274
 2201SOL    HW118062   1.019   0.698   4.289 -0.0688  0.6096 -0.6341
 2201SOL    HW218063   1.040   0.838   4.257 -0.2268  0.5479 -3.5424
 2202SOL     OW18064   2.964   4.498  15.099 -0.3085  0.5206  1.0022
 2202SOL    HW118065   2.946   4.439  15.026 -0.5749 -0.9732  2.2637
 2202SOL    HW218066   3.009   4.574  15.063 -1.6122  0.0421 -1.6581
 2203SOL     OW18067   3.019   2.467  13.839  0.8258 -0.0750  0.0714
 2203SOL    HW118068   2.969   2.538  13.879 -0.9057 -1.3755  0.1863
 2203SOL    HW218069   2.996   2.391  13.893  3.7547 -1.7690 -1.0281
 2204SOL     OW18070   1.147   0.156   7.245  0.4747 -0.1597 -0.3581
 2204SOL    HW118071   1.146   0.233   7.300  0.2274  1.0735 -2.0912
 2204SOL    HW218072   1.222   0.168   7.187 -0.0347 -1.8932 -1.3819
 2205SOL     OW18073   1.201   2.938   4.277  0.2980 -0.4418  0.0935
 2205SOL    HW118074   1.211   3.009   4.341  0.4568  0.9807 -1.4963
 2205SOL    HW218075   1.232   2.868   4.333  1.8844 -0.4961 -0.8309
 2206SOL     OW18076   2.443   2.098  11.231 -0.0681 -0.1969 -0.4853
 2206SOL    HW118077   2.370   2.062  11.282 -1.6363  0.3189 -2.3815
 2206SOL    HW218078   2.490   2.142  11.302 -0.4128 -0.2365 -0.2351
 2207SOL     OW18079   2.121   1.144   0.538 -0.2032  0.3341  0.5558
 2207SOL    HW118080   2.050   1.082   0.521  1.1506 -1.3210  0.8427
 2207SOL    HW218081   2.182   1.121   0.467 -0.5845  1.1833 -0.0420
 2208SOL     OW18082   1.110   4.380  12.040  0.6329 -0.3793  0.4393
 2208SOL    HW118083   1.052   4.408  12.111  1.1768 -1.5167  1.3198
 2208SOL    HW218084   1.102   4.285  12.050 -1.3138 -0.1376  1.2219
 2209SOL     OW18085   3.055   3.324   6.155  0.1652 -0.3174  0.0785
 2209SOL    HW118086   3.113   3.396   6.182 -0.5762  0.0433  0.7000
 2209SOL    HW218087   3.023   3.353   6.069  0.5229  1.9972  0.7117
 2210SOL     OW18088   0.502   3.164  15.124 -0.3150 -0.0681  0.0425
 2210SOL    HW118089   0.487   3.128  15.037 -0.6066  2.8080 -1.0936
 2210SOL    HW218090   0.598   3.168  15.124 -0.2445 -1.4708  0.7395
 2211SOL     OW18091   3.092   1.889  14.665 -0.7812  0.4204  0.1601
 2211SOL    HW118092   3.059   1.978  14.656 -0.5161  0.6274  1.1836
 2211SOL    HW218093   3.023   1.837  14.707 -1.9681  2.2343  0.4615
 2212SOL     OW18094   2.779   2.901  11.105 -0.0936 -0.6095  0.3143
 2212SOL    HW118095   2.785   2.996  11.091  0.3990 -1.0518 -2.4249
 2212SOL    HW218096   2.815   2.895  11.194  1.1135 -2.2612 -0.2759
 2213SOL     OW18097   1.147   1.409  14.478 -0.2173  0.2143  0.0534
 2213SOL    HW118098   1.085   1.338  14.460  2.3932 -1.6115 -1.6536
 2213SOL    HW218099   1.226   1.368  14.445  1.0867  0.5810  2.7486
 2214SOL     OW18100   3.031   0.459   6.198  0.5694  0.7031  0.1830
 2214SOL    HW118101   3.026   0.453   6.102 -2.2305 -2.6189  0.5299
 2214SOL    HW218102   2.937   0.456   6.210  0.3268 -0.3723 -1.8723
 2215SOL     OW18103   1.902   3.695   3.640 -0.3856  0.1445 -0.0369
 2215SOL    HW118104   1.890   3.600   3.639 -0.8403  0.2017  0.1960
 2215SOL    HW218105   1.888   3.723   3.731  0.9441 -1.3449  0.6254
 2216SOL     OW18106   1.329   0.269   1.465 -0.7198  0.4518  0.3590
 2216SOL    HW118107   1.371   0.347   1.504 -1.1937 -0.0453  1.8460
 2216SOL    HW218108   1.404   0.231   1.419 -1.0597 -0.2034  0.3583
 2217SOL     OW18109   1.192   4.012   6.329  0.1320  0.2314 -0.1418
 2217SOL    HW118110   1.286   3.994   6.330  0.2493  0.9253  2.8108
 2217SOL    HW218111   1.170   3.999   6.422 -0.7840  3.9323  0.1473
 2218SOL     OW18112   3.459   3.857   0.668  0.6245 -0.4931  0.5404
 2218SOL    HW118113   3.473   3.771   0.628 -0.7130  0.1015 -1.2229
 2218SOL    HW218114   3.465   3.846   0.763  0.4816 -1.4688  0.4335
 2219SOL     OW18115   1.031   0.573  16.115 -0.5014 -0.2890  0.1473
 2219SOL    HW118116   0.989   0.569  16.200 -2.1828  3.7740 -0.4941
 2219SOL    HW218117   1.116   0.614  16.131 -0.6877  0.6025 -1.1635
 2220SOL     OW18118   0.148   2.682   9.178 -0.0352 -0.2227  0.1865
 2220SOL    HW118119   0.131   2.743   9.106 -0.0740  2.2023  2.2497
 2220SOL    HW218120   0.210   2.733   9.231 -0.1809 -0.1006  0.2400
 2221SOL     OW18121   2.432   3.301   4.110 -0.4833 -0.5197 -0.1224
 2221SOL    HW118122   2.482   3.254   4.043  2.1269  0.9838  0.7543
 2221SOL    HW218123   2.375   3.226   4.125 -1.3804  0.0877 -0.5396
 2222SOL     OW18124   0.121   3.622   4.978  0.2316  0.4069  0.3056
 2222SOL    HW118125   0.066   3.696   5.005  1.8858  1.8630 -0.2947
 2222SOL    HW218126   0.202   3.666   4.955 -0.0110  0.9994  0.5800
 2223SOL     OW18127   3.146   2.026   2.286 -0.0246 -0.0241 -0.0260
 2223SOL    HW118128   3.076   1.968   2.315  1.4422 -0.6947  2.2331
 2223SOL    HW218129   3.091   2.103   2.284 -0.4660 -0.3417 -0.0073
 2224SOL     OW18130   4.500   3.966  16.566  0.2429 -0.2046 -0.5885
 2224SOL    HW118131   4.534   4.037  16.512  0.1750  0.8812  0.7967
 2224SOL    HW218132   4.562   3.897  16.543 -0.7587 -1.4400  0.3610
 2225SOL     OW18133   1.029   2.076   3.599 -0.2157 -0.1000 -0.2073
 2225SOL    HW118134   1.058   2.030   3.678  0.5651  0.8741  0.0896
 2225SOL    HW218135   1.081   2.029   3.535  1.8176  1.0431  0.5834
 2226SOL     OW18136   1.690   0.048   0.032 -0.5330 -0.2614 -0.1253
 2226SOL    HW118137   1.635   0.008  17.663 -0.2841 -0.9259  0.0663
 2226SOL    HW218138   1.617   0.060   0.093  0.4473  2.3437  0.5129
 2227SOL     OW18139   2.303   2.355   4.702 -0.3518  0.1996  0.2932
 2227SOL    HW118140   2.287   2.263   4.681  0.6155  0.5871 -2.0931
 2227SOL    HW218141   2.243   2.364   4.776  1.5252 -2.6737  2.1529
 2228SOL     OW18142   0.445   2.725   4.182  0.1224 -0.2665 -0.5341
 2228SOL    HW118143   0.483   2.802   4.139 -0.9978  1.3539  1.3885
 2228SOL    HW218144   0.422   2.660   4.116 -0.3251 -0.5214 -0.1241
 2229SOL     OW18145   3.873   2.731   9.056  0.0346 -0.2509  0.1634
 2229SOL    HW118146   3.934   2.686   8.999  0.5201  0.8964 -0.2204
 2229SOL    HW218147   3.789   2.693   9.030 -0.8578  1.2820  0.7786
 2230SOL     OW18148   0.002   3.934   5.882 -0.0186  0.3514  0.3686
 2230SOL    HW118149   4.662   3.997   5.850  0.2382 -0.4703 -1.7514
 2230SOL    HW218150   0.055   3.931   5.802 -3.2153 -1.7056 -1.6684
 2231SOL     OW18151   1.852   3.037   7.052  0.0075  0.4075 -0.3951
 2231SOL    HW118152   1.900   3.014   7.131 -1.0996  0.5449  0.3280
 2231SOL    HW218153   1.891   3.124   7.042 -1.6067  1.2653  0.7102
 2232SOL     OW18154   0.272   2.113  15.986  0.6736 -0.3026  0.3957
 2232SOL    HW118155   0.338   2.054  16.022  0.1218 -0.9712  0.3077
 2232SOL    HW218156   0.314   2.144  15.905  2.2386 -3.3966  0.0343
 2233SOL     OW18157   1.746   1.698   4.694  0.3654 -0.6205  0.2319
 2233SOL    HW118158   1.725   1.714   4.786 -0.8061 -0.1004 -0.1239
 2233SOL    HW218159   1.746   1.603   4.696  1.2004 -0.6627 -1.5500
 2234SOL     OW18160   1.953   1.859   3.420 -0.0356 -0.3066 -0.3201
 2234SOL    HW118161   1.932   1.854   3.327  3.1510 -0.2259 -1.0348
 2234SOL    HW218162   2.044   1.830   3.425  0.6290  1.7777 -0.5836
 2235SOL     OW18163   4.609   3.107  13.794 -0.5245  0.1795 -0.2728
 2235SOL    HW118164   4.521   3.116  13.830  0.1534 -1.1454  1.6598
 2235SOL    HW218165   4.661   3.092  13.873  1.3337  1.5850 -1.2277
 2236SOL     OW18166   0.366   1.036  16.740  0.7366  0.2798 -0.0530
 2236SOL    HW118167   0.384   1.060  16.831  0.2848  2.0859 -0.4403
 2236SOL    HW218168   0.430   1.088  16.689  3.3888 -3.0804 -0.1227
 2237SOL     OW18169   1.677   2.375   6.222 -0.7080  0.3360  0.0180
 2237SOL    HW118170   1.669   2.402   6.313 -2.3869  1.6319 -0.5042
 2237SOL    HW218171   1.628   2.439   6.170 -2.4200 -1.0445 -0.0770
 2238SOL     OW18172   2.720   2.316   3.305 -0.1567  0.0516  0.2772
 2238SOL    HW118173   2.691   2.230   3.274  0.9381  0.3417 -1.4993
 2238SOL    HW218174   2.781   2.334   3.234 -0.2608 -2.6592 -0.5167
 2239SOL     OW18175   3.532   4.014   2.497 -0.0289  0.2682 -0.3123
 2239SOL    HW118176   3.506   3.941   2.441 -0.5635  0.5859 -0.4824
 2239SOL    HW218177   3.621   4.034   2.470 -0.3341  0.0977 -1.4456
 2240SOL     OW18178   2.717   3.649   9.883 -0.8123 -0.2514 -0.2738
 2240SOL    HW118179   2.702   3.737   9.917  0.1100 -0.5202  0.8052
 2240SOL    HW218180   2.722   3.670   9.789 -2.8194  0.8129 -0.1373
 2241SOL     OW18181   3.300   4.245  14.064 -0.2619 -0.5965 -0.2929
 2241SOL    HW118182   3.324   4.205  14.148 -1.8848 -0.0112  0.4399
 2241SOL    HW218183   3.385   4.262  14.022  0.1695 -1.7211  0.1261
 2242SOL     OW18184   4.343   2.579  12.929 -0.7606  0.2089  0.7427
 2242SOL    HW118185   4.358   2.585  12.835  2.0118 -0.9063  1.1220
 2242SOL    HW218186   4.289   2.500  12.938 -1.6067  0.7656  0.4768
 2243SOL     OW18187   1.148   2.815   6.188 -0.2196 -0.4537 -0.1267
 2243SOL    HW118188   1.197   2.898   6.190  0.8989 -1.1362  0.8187
 2243SOL    HW218189   1.155   2.792   6.096 -0.2090 -1.2535  0.0735
 2244SOL     OW18190   2.946   1.644   8.521 -0.0162 -0.1096 -0.1035
 2244SOL    HW118191   2.902   1.574   8.569  0.2537 -1.8582 -2.4031
 2244SOL    HW218192   2.927   1.606   8.435 -2.3536 -1.7614  1.1418
 2245SOL     OW18193   4.701   3.228   7.318 -0.6451  0.2875  0.1979
 2245SOL    HW118194   0.065   3.265   7.309 -0.9342  1.1168  0.8358
 2245SOL    HW218195   4.724   3.136   7.300 -2.5614 -0.5567  2.1116
 2246SOL     OW18196   3.732   3.250   7.065 -0.2268 -0.1556 -0.7028
 2246SOL    HW118197   3.689   3.262   6.980  0.7829  0.2807 -1.1667
 2246SOL    HW218198   3.791   3.176   7.053  1.1258  0.9556 -0.9916
 2247SOL     OW18199   4.202   1.519   7.239  0.0549 -0.1691 -0.1271
 2247SOL    HW118200   4.297   1.525   7.230  0.0435  1.1394  0.5138
 2247SOL    HW218201   4.166   1.602   7.206  1.3093 -1.2900 -4.3069
 2248SOL     OW18202   4.176   2.944   1.123  0.0676  0.6959  0.2600
 2248SOL    HW118203   4.248   2.899   1.168 -2.4801 -3.4487  0.2172
 2248SOL    HW218204   4.203   2.962   1.033  0.8911  0.9288  0.5486
 2249SOL     OW18205   4.007   3.408   5.753 -0.1827  1.1647  0.1988
 2249SOL    HW118206   4.004   3.422   5.848 -0.3092  0.2741  0.3214
 2249SOL    HW218207   3.912   3.417   5.743 -0.0600  0.4357 -1.6697
 2250SOL     OW18208   3.478   0.909  15.916 -0.3925  0.1986 -0.1271
 2250SOL    HW118209   3.553   0.881  15.863 -1.9715 -1.4428 -1.4875
 2250SOL    HW218210   3.433   0.972  15.860 -1.2844 -1.5751 -1.4356
 2251SOL     OW18211   0.317   0.874   3.997  0.1756 -0.3370 -0.0463
 2251SOL    HW118212   0.401   0.886   3.952 -1.0126  0.6419 -2.0127
 2251SOL    HW218213   0.338   0.886   4.090  0.8818 -3.8683  0.2542
 2252SOL     OW18214   0.623   0.540  14.482  0.0384  0.0405  0.4358
 2252SOL    HW118215   0.665   0.465  14.440 -0.2507 -1.2487  2.4181
 2252SOL    HW218216   0.639   0.604  14.413 -1.0104  2.1341  2.1304
 2253SOL     OW18217   2.859   4.463  11.439  0.2238 -0.2142  0.0782
 2253SOL    HW118218   2.777   4.496  11.405  0.2896  1.6561  1.7216
 2253SOL    HW218219   2.831   4.402  11.507 -1.3970  0.6521  0.1710
 2254SOL     OW18220   3.044   0.621  11.383  0.1140  0.0663 -0.4301
 2254SOL    HW118221   3.052   0.547  11.323  0.7451  1.1059 -1.6293
 2254SOL    HW218222   2.965   0.601  11.433  0.9639 -2.6755 -0.2143
 2255SOL     OW18223   1.083   2.187  16.522 -0.2583  0.0059  0.8332
 2255SOL    HW118224   1.139   2.123  16.566  1.7207  0.4675 -1.0477
 2255SOL    HW218225   1.139   2.264  16.515  0.9691 -1.0117 -0.6270
 2256SOL     OW18226   4.584   1.800   0.010 -0.5178  0.6653  1.1839
 2256SOL    HW118227   4.561   1.710   0.032 -0.2837  0.3243 -0.0100
 2256SOL    HW218228   4.664   1.807   0.062 -0.2036  0.2485  0.7455
 2257SOL     OW18229   1.270   0.536   4.302  0.0766  0.2805 -0.3948
 2257SOL    HW118230   1.272   0.502   4.391 -1.6499  4.5488  1.2524
 2257SOL    HW218231   1.194   0.593   4.307 -0.0375  0.2907 -2.2626
 2258SOL     OW18232   0.729   4.263   8.547  0.0679  0.0616 -0.0514
 2258SOL    HW118233   0.724   4.248   8.641  0.0614 -1.6789 -0.3360
 2258SOL    HW218234   0.636   4.276   8.526 -0.6051 -1.9877  1.6684
 2259SOL     OW18235   3.942   4.398   1.622 -0.3068 -0.2091  0.1668
 2259SOL    HW118236   4.008   4.436   1.680 -0.6982  1.9062 -0.7572
 2259SOL    HW218237   3.892   4.342   1.681  1.3717 -0.5677  1.2733
 2260SOL     OW18238   1.833   3.438   3.372  0.2999 -0.2465 -0.2241
 2260SOL    HW118239   1.839   3.533   3.366 -0.5938 -0.2101 -0.4830
 2260SOL    HW218240   1.866   3.416   3.284  3.4280  0.1617  0.8519
 2261SOL     OW18241   0.411   3.453   5.972 -0.4998 -0.0742  0.7037
 2261SOL    HW118242   0.402   3.531   5.917  2.4632 -0.3474 -0.1446
 2261SOL    HW218243   0.345   3.462   6.041  1.6645  0.2191  2.7024
 2262SOL     OW18244   3.073   1.382   5.351  0.7398 -0.7213 -0.3533
 2262SOL    HW118245   2.982   1.410   5.348  1.0066  0.3696  1.5690
 2262SOL    HW218246   3.111   1.466   5.376 -0.3848 -0.2462 -0.2440
 2263SOL     OW18247   0.368   0.092   3.672 -0.3632 -0.0453  0.1565
 2263SOL    HW118248   0.421   0.156   3.625 -0.7778 -0.0651 -0.3328
 2263SOL    HW218249   0.282   0.119   3.642 -0.9329 -0.9583  0.9752
 2264SOL     OW18250   1.222   2.578   1.991 -0.0002 -0.1917  0.1517
 2264SOL    HW118251   1.159   2.616   1.930  0.7045  0.6242 -0.0680
 2264SOL    HW218252   1.154   2.547   2.051 -0.7056 -0.2481 -0.6691
 2265SOL     OW18253   2.866   0.221  15.308  0.0284 -0.2423 -0.1042
 2265SOL    HW118254   2.844   0.188  15.220  0.8902  0.7353 -0.6795
 2265SOL    HW218255   2.944   0.166  15.314 -0.3222 -0.2501  3.8717
 2266SOL     OW18256   0.988   1.964   8.618  0.5645 -0.4144 -0.0518
 2266SOL    HW118257   0.932   1.918   8.681  0.0998  0.8696  0.4791
 2266SOL    HW218258   0.943   1.954   8.534  3.1567 -1.4049 -1.2992
 2267SOL     OW18259   3.034   2.685  12.608  0.4302 -0.2957  0.0809
 2267SOL    HW118260   3.126   2.658  12.606  0.0968 -1.4029  0.1220
 2267SOL    HW218261   3.013   2.701  12.516 -1.1500  2.5926  0.9344
 2268SOL     OW18262   1.179   3.315  15.341  0.1481  0.8156  0.0573
 2268SOL    HW118263   1.249   3.332  15.404  1.5437 -0.7673 -1.0591
 2268SOL    HW218264   1.211   3.244  15.286 -1.7028 -0.0785  0.1259
 2269SOL     OW18265   3.798   1.944   6.479  0.2401 -0.4599  0.2199
 2269SOL    HW118266   3.712   1.959   6.518  0.6060  2.3838 -0.1013
 2269SOL    HW218267   3.827   2.026   6.438  0.6933 -0.1471  1.1635
 2270SOL     OW18268   1.674   2.132   6.843 -0.4101 -0.7727  0.6566
 2270SOL    HW118269   1.747   2.071   6.847 -1.6686 -2.3764 -1.3640
 2270SOL    HW218270   1.727   2.212   6.839 -0.8449 -0.4873  0.5781
 2271SOL     OW18271   4.564   4.157   4.140  0.2991 -0.1481  0.1919
 2271SOL    HW118272   4.628   4.162   4.069  0.5009 -3.3653  0.1450
 2271SOL    HW218273   4.492   4.214   4.113  1.5839  2.1056  1.4739
 2272SOL     OW18274   4.188   0.391   5.823 -0.0601  0.1845  0.3748
 2272SOL    HW118275   4.264   0.354   5.779 -0.9942 -0.5093 -0.6771
 2272SOL    HW218276   4.173   0.334   5.898 -2.2996 -1.4088 -1.2748
 2273SOL     OW18277   1.885   2.207   5.271  0.3393  0.4543 -0.3237
 2273SOL    HW118278   1.963   2.169   5.231 -0.5068  0.3485 -1.8391
 2273SOL    HW218279   1.911   2.234   5.360 -0.6198  0.7074 -0.1154
 2274SOL     OW18280   0.680   3.812   0.256  0.4658  0.2810  0.0686
 2274SOL    HW118281   0.602   3.818   0.311  1.3006 -0.6004  1.3399
 2274SOL    HW218282   0.659   3.741   0.195 -1.5450  1.0603 -0.1419
 2275SOL     OW18283   0.966   4.070  14.577 -0.8290  0.1494 -0.5227
 2275SOL    HW118284   0.871   4.073  14.590 -0.7455 -0.4937  0.2260
 2275SOL    HW218285   0.978   4.010  14.503 -1.2183 -1.2500  0.5467
 2276SOL     OW18286   1.766   1.990   4.331 -0.0418 -0.2584  0.2240
 2276SOL    HW118287   1.750   1.985   4.425 -1.2412  0.7754  0.0774
 2276SOL    HW218288   1.783   1.898   4.315 -1.0215 -0.6242  1.3126
 2277SOL     OW18289   3.380   2.141   3.015  0.2062  0.0731 -0.3788
 2277SOL    HW118290   3.387   2.046   3.023 -0.5852  0.1951  1.7942
 2277SOL    HW218291   3.360   2.160   3.107  1.4010 -1.4511  0.1899
 2278SOL     OW18292   2.688   4.320   2.066 -0.0297 -0.2945  0.1360
 2278SOL    HW118293   2.754   4.254   2.045  0.4258  0.5995 -1.2053
 2278SOL    HW218294   2.729   4.366   2.139  0.0891  0.7899 -0.6090
 2279SOL     OW18295   0.819   0.399  11.755 -0.6833  0.2689 -0.1436
 2279SOL    HW118296   0.798   0.480  11.801  0.0602  1.1280 -1.2886
 2279SOL    HW218297   0.891   0.357  11.802 -0.8919  0.7648  0.6174
 2280SOL     OW18298   1.255   4.635   6.711  0.6343  0.0840  0.3009
 2280SOL    HW118299   1.309   4.596   6.780  0.5209 -1.2840 -0.3860
 2280SOL    HW218300   1.205   4.696   6.765  0.8833  0.2840  0.3091
 2281SOL     OW18301   0.148   3.422   7.557  0.4129  0.0501 -0.3306
 2281SOL    HW118302   0.227   3.471   7.580  0.0290  0.6318 -0.2313
 2281SOL    HW218303   0.111   3.471   7.483  0.5349 -0.3082 -0.6282
 2282SOL     OW18304   4.035   3.496   4.311 -0.5770 -0.4115  0.7154
 2282SOL    HW118305   4.116   3.451   4.285  0.3607  1.2979  0.6898
 2282SOL    HW218306   4.061   3.537   4.394  2.3773  1.4233 -1.1560
 2283SOL     OW18307   4.360   1.789  16.647  0.3551 -0.4820 -0.7939
 2283SOL    HW118308   4.323   1.730  16.581  0.9496 -1.7252 -0.0263
 2283SOL    HW218309   4.305   1.767  16.722 -0.1224 -1.1945 -1.3465
 2284SOL     OW18310   0.501   2.519   3.822 -0.0778 -0.4532 -0.4430
 2284SOL    HW118311   0.423   2.509   3.768  0.8477 -1.6233 -1.5579
 2284SOL    HW218312   0.535   2.606   3.801 -0.6018  0.1660  1.2556
 2285SOL     OW18313   1.374   4.050   4.990 -0.7628 -0.0154 -0.4585
 2285SOL    HW118314   1.443   4.116   4.991  0.1085 -0.9432  1.8660
 2285SOL    HW218315   1.396   3.998   4.913 -0.8508  1.0088 -1.1723
 2286SOL     OW18316   4.076   3.130   3.556  0.6646 -0.1573 -0.3263
 2286SOL    HW118317   4.115   3.158   3.473  2.8643  0.3485  0.9001
 2286SOL    HW218318   3.987   3.116   3.523  1.1184 -0.7929 -1.2813
 2287SOL     OW18319   3.826   0.628   3.987 -0.3612 -0.0930  0.3163
 2287SOL    HW118320   3.850   0.673   4.068  1.3342  0.5551 -0.5354
 2287SOL    HW218321   3.824   0.691   3.914 -1.5894 -2.3867 -1.6514
 2288SOL     OW18322   0.226   3.739   3.105  0.4551 -0.5387 -0.2361
 2288SOL    HW118323   0.312   3.775   3.081  0.0889  0.0129 -0.7324
 2288SOL    HW218324   0.196   3.688   3.030 -0.3716 -0.7683  0.2618
 2289SOL     OW18325   3.959   1.310  17.144  0.3574 -0.2558  0.4244
 2289SOL    HW118326   3.984   1.375  17.209  0.3501 -1.7356  1.8934
 2289SOL    HW218327   3.902   1.361  17.087 -1.5246 -2.4604  0.3408
 2290SOL     OW18328   2.352   3.438   3.027  0.3856  0.1308  0.0889
 2290SOL    HW118329   2.392   3.460   3.111  1.0840 -1.3266  0.1383
 2290SOL    HW218330   2.263   3.428   3.060  0.3685  1.9609  0.5722
 2291SOL     OW18331   0.181   2.705   0.581  0.6993  0.1741 -0.3342
 2291SOL    HW118332   0.091   2.685   0.557  0.3190  0.8088  0.5904
 2291SOL    HW218333   0.203   2.613   0.591  0.4883  0.2441  0.6752
 2292SOL     OW18334   2.480   3.406   8.953  0.4661  0.5522  0.0230
 2292SOL    HW118335   2.468   3.374   9.042  1.1275 -2.1084 -0.8416
 2292SOL    HW218336   2.564   3.368   8.925 -0.9450  0.8690 -4.5804
 2293SOL     OW18337   4.572   1.376   5.923 -0.1117  0.2221  0.7467
 2293SOL    HW118338   4.631   1.349   5.853 -1.2555 -0.5934  0.0769
 2293SOL    HW218339   4.603   1.466   5.927  0.7221 -0.0591  0.5457
 2294SOL     OW18340   3.212   1.796   8.850 -0.3829 -0.2234 -0.3874
 2294SOL    HW118341   3.296   1.772   8.813 -0.1171  0.1553 -0.0266
 2294SOL    HW218342   3.173   1.841   8.775  0.2839 -2.6739 -2.2089
 2295SOL     OW18343   1.023   0.646   9.224  0.1603 -0.2312  0.4446
 2295SOL    HW118344   1.025   0.741   9.224  0.8744 -0.2476  0.1786
 2295SOL    HW218345   1.099   0.629   9.168  2.4060  5.5180  1.7856
 2296SOL     OW18346   1.414   0.189   8.990 -0.6809 -0.4894  0.0964
 2296SOL    HW118347   1.486   0.177   8.928 -1.1258  2.0781 -0.8994
 2296SOL    HW218348   1.456   0.265   9.031  0.1245  0.0277 -1.6792
 2297SOL     OW18349   0.039   2.001   7.377 -0.1015 -0.1113 -0.0273
 2297SOL    HW118350   4.686   1.947   7.394 -0.2358 -0.3199 -1.2687
 2297SOL    HW218351   0.055   1.972   7.287  1.0819 -0.1195  0.1916
 2298SOL     OW18352   4.114   2.756  10.393 -0.5461  0.2092  0.2465
 2298SOL    HW118353   4.196   2.709  10.383 -2.1666 -3.0373  2.3050
 2298SOL    HW218354   4.072   2.738  10.309  2.0770 -2.6051 -0.4341
 2299SOL     OW18355   0.060   0.196   5.658 -0.4085 -0.3293  0.4713
 2299SOL    HW118356   4.715   0.131   5.662 -0.3119 -0.5096 -0.8751
 2299SOL    HW218357   0.098   0.187   5.745  1.1088  0.2192 -0.1183
 2300SOL     OW18358   3.186   0.122   7.290  0.2278  0.1388 -0.5765
 2300SOL    HW118359   3.238   0.092   7.216  0.7701 -1.8669  0.6205
 2300SOL    HW218360   3.106   0.157   7.252 -0.6653 -3.5383 -2.0530
 2301SOL     OW18361   3.976   4.495   4.850 -0.1312 -0.1237 -0.0951
 2301SOL    HW118362   4.046   4.535   4.799 -0.9584 -0.4477 -1.5140
 2301SOL    HW218363   4.016   4.428   4.905 -1.2719 -0.5244  0.2530
 2302SOL     OW18364   3.478   4.536   8.336 -0.5440 -0.2082 -0.5360
 2302SOL    HW118365   3.400   4.480   8.342 -2.0331  1.7861 -1.1056
 2302SOL    HW218366   3.501   4.532   8.429 -2.7233 -0.3851  0.0055
 2303SOL     OW18367   0.131   3.995   4.949 -0.0640 -0.0886  0.0773
 2303SOL    HW118368   0.201   4.001   5.013 -0.9840  2.3532  0.8492
 2303SOL    HW218369   0.175   3.996   4.864 -0.3320 -0.4787 -0.0688
 2304SOL     OW18370   3.430   3.884  13.619 -0.1500 -0.3712  0.3828
 2304SOL    HW118371   3.395   3.972  13.601 -0.4166 -0.5974 -0.1922
 2304SOL    HW218372   3.414   3.843  13.534  1.0368  1.4783 -0.7452
 2305SOL     OW18373   1.475   3.655  16.821  0.7060  0.0976  0.3649
 2305SOL    HW118374   1.473   3.650  16.726  0.6506 -1.3239  0.4482
 2305SOL    HW218375   1.402   3.717  16.829  1.5424  1.0342  0.7085
 2306SOL     OW18376   0.772   0.617  14.990 -0.3739  0.3597 -0.5081
 2306SOL    HW118377   0.793   0.559  15.064  2.1917  0.1184 -1.4322
 2306SOL    HW218378   0.746   0.560  14.918  3.6095 -1.7126 -0.3005
 2307SOL     OW18379   0.446   2.526   7.638 -0.1724  0.1112  0.4158
 2307SOL    HW118380   0.447   2.614   7.675  1.3205  0.0891  0.4155
 2307SOL    HW218381   0.355   2.498   7.651 -0.2715 -0.1028 -0.6749
 2308SOL     OW18382   2.386   1.620  14.337  0.3830  0.1378 -0.2328
 2308SOL    HW118383   2.426   1.653  14.257  2.3045 -1.0776  0.2495
 2308SOL    HW218384   2.339   1.543  14.304 -1.2177  1.6079 -1.3827
 2309SOL     OW18385   1.808   3.611   0.517 -0.1509  0.4518  0.1883
 2309SOL    HW118386   1.738   3.570   0.468  1.0569  2.1687 -3.0243
 2309SOL    HW218387   1.830   3.676   0.450 -0.2117 -0.1692 -0.4322
 2310SOL     OW18388   1.874   2.910   6.089  0.4672 -0.1034 -0.0995
 2310SOL    HW118389   1.818   2.856   6.034 -0.9597 -0.2116  1.4642
 2310SOL    HW218390   1.952   2.927   6.036  1.8087  1.1809  2.2628
 2311SOL     OW18391   2.266   0.012  14.379  0.1473 -0.2297  0.6148
 2311SOL    HW118392   2.190   0.065  14.402  0.5983  0.6741  0.0184
 2311SOL    HW218393   2.334   0.034  14.443 -2.1326  0.1103  2.9036
 2312SOL     OW18394   1.959   4.535  15.285  0.1757 -0.3499  0.2695
 2312SOL    HW118395   1.952   4.483  15.204  0.2219  0.1123 -0.0350
 2312SOL    HW218396   1.992   4.476  15.352  0.8788 -0.6737 -0.3639
 2313SOL     OW18397   3.591   0.615   2.985 -0.2970  0.3211  0.2159
 2313SOL    HW118398   3.652   0.640   3.055  0.1498 -0.9765  0.2893
 2313SOL    HW218399   3.513   0.579   3.027 -1.7352 -0.9568 -3.5793
 2314SOL     OW18400   2.409   1.650   6.171 -0.1194  0.0743  0.1761
 2314SOL    HW118401   2.404   1.557   6.196 -1.6080  0.6898  2.1115
 2314SOL    HW218402   2.351   1.677   6.242 -0.2571  0.3046 -0.0259
 2315SOL     OW18403   4.613   3.774   8.006  0.3875  0.0526 -0.3299
 2315SOL    HW118404   4.569   3.795   8.089 -1.0718  0.9063 -1.3061
 2315SOL    HW218405   4.564   3.824   7.941 -0.3967 -0.1531  0.1055
 2316SOL     OW18406   1.398   0.717  10.211 -0.1643  0.1473  0.1410
 2316SOL    HW118407   1.409   0.685  10.121  0.7337 -3.1012  1.4175
 2316SOL    HW218408   1.439   0.646  10.260  0.7176 -0.7807 -1.9437
 2317SOL     OW18409   2.195   0.769   7.684 -0.5370  0.2929  0.5614
 2317SOL    HW118410   2.272   0.730   7.644 -2.0357 -0.8157 -1.2318
 2317SOL    HW218411   2.154   0.690   7.720 -2.3759  0.4105 -1.2860
 2318SOL     OW18412   2.066   2.056   5.116  0.4102  0.2535  0.1612
 2318SOL    HW118413   2.066   1.985   5.052 -1.1132  2.0966 -1.8731
 2318SOL    HW218414   2.156   2.088   5.108 -0.2814  2.1709 -0.1242
 2319SOL     OW18415   0.839   2.103   2.120 -0.2676  0.2116 -0.3261
 2319SOL    HW118416   0.765   2.096   2.060 -1.1304  1.5796  0.5594
 2319SOL    HW218417   0.909   2.089   2.056 -1.4396  0.9042 -1.7484
 2320SOL     OW18418   1.256   4.069   2.985  0.2506  0.0627 -0.4298
 2320SOL    HW118419   1.253   4.153   2.940  1.3559 -1.2076 -2.8926
 2320SOL    HW218420   1.215   4.018   2.914  2.4696 -2.2988 -0.0229
 2321SOL     OW18421   4.128   0.076   2.398  0.1381  0.3580 -0.3803
 2321SOL    HW118422   4.128   4.718   2.447 -2.2149 -1.1508 -2.9011
 2321SOL    HW218423   4.171   0.136   2.459  0.3140 -0.7242  0.5555
 2322SOL     OW18424   0.340   2.435   2.201  0.1821  0.4110 -0.6083
 2322SOL    HW118425   0.257   2.474   2.229  0.9347  1.5009  0.0996
 2322SOL    HW218426   0.396   2.441   2.279  1.6651  0.0636 -1.6481
 2323SOL     OW18427   2.175   1.409   4.897  0.2107 -0.3016  0.8155
 2323SOL    HW118428   2.257   1.439   4.858  0.0912 -2.1888 -0.8985
 2323SOL    HW218429   2.157   1.330   4.846 -3.0038  0.7495  0.2966
 2324SOL     OW18430   1.130   2.069   3.899  0.2126 -0.0494 -0.3120
 2324SOL    HW118431   1.207   2.032   3.942  0.9451 -1.3179 -2.6547
 2324SOL    HW218432   1.063   2.064   3.967 -1.6447  0.1203 -2.1300
 2325SOL     OW18433   2.082   2.618   5.522  0.1582 -0.0063 -0.6321
 2325SOL    HW118434   1.987   2.616   5.511  0.1406 -0.5870 -0.3507
 2325SOL    HW218435   2.097   2.692   5.581  0.7851  0.4310 -1.3400
 2326SOL     OW18436   3.540   2.318   2.592  0.7158  0.0236  0.6112
 2326SOL    HW118437   3.516   2.288   2.504  0.1770  2.1726  0.0185
 2326SOL    HW218438   3.456   2.345   2.629  0.8805  0.6472  0.5309
 2327SOL     OW18439   2.230   4.679   6.571  0.3255  1.0859  0.2562
 2327SOL    HW118440   2.255   0.015   6.501  3.0183 -0.5440 -0.2121
 2327SOL    HW218441   2.275   4.719   6.645  2.8472 -0.0419 -0.6632
 2328SOL     OW18442   3.682   3.882  13.770 -0.7142 -0.0353  0.0369
 2328SOL    HW118443   3.668   3.965  13.724  2.1877 -0.0570 -0.8776
 2328SOL    HW218444   3.602   3.847  13.729 -0.0959 -2.6758  1.1396
 2329SOL     OW18445   3.350   1.474   4.717  0.5111  0.2757 -0.0097
 2329SOL    HW118446   3.423   1.518   4.760  0.7698  0.3274 -0.4951
 2329SOL    HW218447   3.384   1.483   4.628 -1.3664 -0.1415 -0.7715
 2330SOL     OW18448   2.427   1.854   5.303 -0.1185 -0.3822 -0.4979
 2330SOL    HW118449   2.416   1.759   5.307 -1.7167 -0.2086 -0.6898
 2330SOL    HW218450   2.447   1.874   5.394 -0.3367 -0.5035 -0.4223
 2331SOL     OW18451   1.965   0.355   3.524  0.0148  0.9969 -0.4488
 2331SOL    HW118452   1.879   0.346   3.483  0.9817 -0.2193 -2.2071
 2331SOL    HW218453   1.995   0.436   3.481  1.4405  0.7549  0.0902
 2332SOL     OW18454   1.586   2.924   2.899  0.3107 -0.0535  0.2036
 2332SOL    HW118455   1.546   2.979   2.831 -0.1449  2.2042  2.3218
 2332SOL    HW218456   1.506   2.881   2.929 -0.6611  2.1711  0.8005
 2333SOL     OW18457   3.110   0.045  15.318  0.1170  0.4100 -0.0918
 2333SOL    HW118458   3.198   0.012  15.336  0.5499  1.0829 -0.9468
 2333SOL    HW218459   3.115   0.019  15.226 -0.4434  0.6350 -0.1881
 2334SOL     OW18460   3.034   1.118  13.082 -0.1021 -0.2196 -0.2023
 2334SOL    HW118461   3.032   1.057  13.156  5.3336 -0.1503  0.0593
 2334SOL    HW218462   3.010   1.197  13.129 -0.5069  0.0231 -0.8181
 2335SOL     OW18463   0.768   2.896   6.674 -0.4066 -0.0711  0.0594
 2335SOL    HW118464   0.811   2.956   6.735  1.6287  0.7627 -2.1592
 2335SOL    HW218465   0.834   2.827   6.662 -0.9193 -0.6203  0.4494
 2336SOL     OW18466   3.025   0.463   8.401 -0.6491  0.3636 -0.5958
 2336SOL    HW118467   3.086   0.429   8.336 -2.6337  0.0834 -2.3188
 2336SOL    HW218468   3.088   0.469   8.472 -1.5692 -0.5870  0.2952
 2337SOL     OW18469   1.432   3.902   4.185  0.0309  0.3011  0.0124
 2337SOL    HW118470   1.367   3.855   4.238  0.9815 -0.1519  0.7815
 2337SOL    HW218471   1.381   3.938   4.113  0.9225  0.7633 -0.3905
 2338SOL     OW18472   4.614   0.565   7.976 -0.0452  0.1312 -0.1204
 2338SOL    HW118473   4.678   0.497   7.998 -2.2324 -1.1825  2.1893
 2338SOL    HW218474   4.598   0.604   8.062  0.3642 -1.5767  0.7314
 2339SOL     OW18475   3.228   3.423  11.386 -0.9506  0.4622 -0.0064
 2339SOL    HW118476   3.235   3.472  11.468  0.4579  1.4675 -0.7247
 2339SOL    HW218477   3.202   3.492  11.325  0.5769  0.9455 -0.1204
 2340SOL     OW18478   2.907   3.557   2.918  0.0885 -0.2834  0.1982
 2340SOL    HW118479   2.938   3.498   2.849  1.6268  0.4045  0.3208
 2340SOL    HW218480   2.814   3.538   2.907  0.2511 -2.0080  1.6603
 2341SOL     OW18481   2.071   4.241   2.258 -0.4320  0.7209 -0.3223
 2341SOL    HW118482   2.028   4.160   2.285 -0.6623  0.6405 -0.9378
 2341SOL    HW218483   2.029   4.267   2.176  1.1693 -2.1908 -2.0636
 2342SOL     OW18484   2.502   4.147  11.565  0.5671  0.0816 -0.0936
 2342SOL    HW118485   2.524   4.138  11.473  0.8436  3.3689 -0.3682
 2342SOL    HW218486   2.435   4.216  11.564 -0.8432 -1.2879 -0.9436
 2343SOL     OW18487   2.607   4.460  11.325 -0.7751 -0.3489  1.1979
 2343SOL    HW118488   2.577   4.492  11.240  1.1750 -0.7638  0.3710
 2343SOL    HW218489   2.583   4.368  11.314 -1.3867 -0.1628  0.9807
 2344SOL     OW18490   1.287   1.109  13.603  0.2380  0.2642 -0.1929
 2344SOL    HW118491   1.264   1.183  13.547  2.0155  0.9667  0.0288
 2344SOL    HW218492   1.240   1.036  13.563 -1.0115  1.1127 -0.2817
 2345SOL     OW18493   2.169   3.051   3.827 -0.1318  0.9091  0.1958
 2345SOL    HW118494   2.108   3.066   3.754 -0.4080  0.6884  0.3791
 2345SOL    HW218495   2.239   3.115   3.814  1.5634 -1.0654 -0.3651
 2346SOL     OW18496   0.454   4.157  11.099 -0.6701  0.1643  0.4111
 2346SOL    HW118497   0.515   4.214  11.051 -0.7186  0.7249  1.0135
 2346SOL    HW218498   0.474   4.198  11.183  1.3710 -0.7760  0.3784
 2347SOL     OW18499   0.458   4.459   3.167  0.1017 -0.0873 -0.4633
 2347SOL    HW118500   0.536   4.410   3.191 -0.2825 -0.4417  0.0841
 2347SOL    HW218501   0.407   4.417   3.237  1.3970 -0.2410  0.3777
 2348SOL     OW18502   0.087   4.104   5.622  0.0138 -0.1179 -0.2490
 2348SOL    HW118503   0.131   4.170   5.675 -1.7199 -0.5712  1.7885
 2348SOL    HW218504   0.014   4.152   5.582  1.4251  0.5501 -1.9823
 2349SOL     OW18505   2.675   3.075   3.526  0.0426 -0.2670  0.1960
 2349SOL    HW118506   2.650   3.144   3.464  1.9367  0.5586  0.3504
 2349SOL    HW218507   2.713   3.016   3.460  0.9883 -0.7053  1.1384
 2350SOL     OW18508   2.398   0.410   5.646  0.1025 -0.1545  0.4324
 2350SOL    HW118509   2.310   0.427   5.680  0.1690  0.3645  0.3417
 2350SOL    HW218510   2.453   0.458   5.707  0.6423  2.0587 -1.8086
 2351SOL     OW18511   4.413   4.331   8.494  0.2427 -0.1099  0.2442
 2351SOL    HW118512   4.335   4.365   8.451 -0.0744 -0.1276  0.7987
 2351SOL    HW218513   4.405   4.237   8.477 -0.5062 -0.2359  1.3270
 2352SOL     OW18514   2.130   3.301   6.397 -0.1918  0.7454 -0.2228
 2352SOL    HW118515   2.123   3.283   6.304 -0.6285  0.8188 -0.2005
 2352SOL    HW218516   2.097   3.390   6.402  1.3830  1.2874  0.5755
 2353SOL     OW18517   1.187   0.311   2.268  0.0100  0.1017 -0.1725
 2353SOL    HW118518   1.204   0.399   2.233  3.2062 -1.0042 -1.4188
 2353SOL    HW218519   1.234   0.258   2.204 -2.5646 -1.2284 -0.9535
 2354SOL     OW18520   1.497   1.838   4.615 -0.5919 -0.2853  0.5044
 2354SOL    HW118521   1.454   1.923   4.628 -0.7129 -0.3212  0.3428
 2354SOL    HW218522   1.589   1.864   4.621 -0.4325 -0.5517 -0.8181
 2355SOL     OW18523   1.397   2.098   4.679  0.5791 -0.2540  0.4007
 2355SOL    HW118524   1.442   2.148   4.611 -1.1869 -0.2867 -0.8150
 2355SOL    HW218525   1.423   2.146   4.757 -0.5428  2.0268 -0.6237
 2356SOL     OW18526   2.670   2.553   4.358  0.5840  0.2005 -0.2141
 2356SOL    HW118527   2.763   2.539   4.376  0.5267  2.2524  1.6581
 2356SOL    HW218528   2.636   2.517   4.440 -1.3627  2.4764 -0.0106
 2357SOL     OW18529   0.908   1.865   0.851 -0.0923  0.0788 -0.3556
 2357SOL    HW118530   0.882   1.784   0.894  1.9694  0.1290  0.9931
 2357SOL    HW218531   0.955   1.904   0.924 -0.3103 -1.5740  0.6546
 2358SOL     OW18532   3.710   4.224   3.842 -0.6565 -0.3975  0.3762
 2358SOL    HW118533   3.708   4.208   3.936  0.1262  0.5790  0.5595
 2358SOL    HW218534   3.772   4.164   3.802 -1.2472 -0.5706 -0.2876
 2359SOL     OW18535   0.494   2.012   5.863 -0.5661  0.5996  0.0564
 2359SOL    HW118536   0.564   2.065   5.900 -1.0788  1.1477  0.2253
 2359SOL    HW218537   0.503   1.931   5.913  0.4869  0.8588  0.2887
 2360SOL     OW18538   1.748   0.305   6.654 -0.1319 -0.3685 -0.2183
 2360SOL    HW118539   1.762   0.400   6.646 -2.1019  0.0852  1.7711
 2360SOL    HW218540   1.830   0.272   6.617 -1.2411 -0.1200 -2.9094
 2361SOL     OW18541   2.494   1.626   3.587  0.5471 -0.9210  0.0425
 2361SOL    HW118542   2.536   1.685   3.650  1.1030 -0.4981 -0.7255
 2361SOL    HW218543   2.441   1.565   3.637  0.8897  1.3147  3.1598
 2362SOL     OW18544   2.629   0.455   1.393  0.4547  0.4863 -0.3552
 2362SOL    HW118545   2.704   0.414   1.435 -0.4074 -0.1708  0.5357
 2362SOL    HW218546   2.594   0.512   1.461  1.4544 -0.9737  1.3519
 2363SOL     OW18547   4.439   2.239   7.637  0.1880 -0.2107 -0.3741
 2363SOL    HW118548   4.353   2.249   7.596 -1.0535  0.7284  2.4858
 2363SOL    HW218549   4.457   2.318   7.687 -1.3415  0.4312 -0.8391
 2364SOL     OW18550   1.711   4.155   8.061  0.2890 -0.2901 -0.2871
 2364SOL    HW118551   1.751   4.074   8.032  3.0975  1.0860 -0.3121
 2364SOL    HW218552   1.760   4.175   8.141  1.8441 -0.3914 -1.2200
 2365SOL     OW18553   0.867   2.570   3.914 -0.1918 -0.0991 -0.3291
 2365SOL    HW118554   0.815   2.538   3.840  1.4451 -0.0549 -1.4728
 2365SOL    HW218555   0.847   2.663   3.923  0.7699  0.1464 -0.7263
 2366SOL     OW18556   2.826   1.413   2.009  0.3116  0.0580  0.3299
 2366SOL    HW118557   2.739   1.438   1.978  1.2716  0.2987 -2.1816
 2366SOL    HW218558   2.881   1.462   1.947 -0.6200 -0.6257 -1.0442
 2367SOL     OW18559   0.831   0.500   8.733 -0.2620 -0.1283 -0.0247
 2367SOL    HW118560   0.743   0.473   8.706 -0.3875  1.0227 -0.7867
 2367SOL    HW218561   0.863   0.540   8.653  0.2875 -4.1259 -1.7709
 2368SOL     OW18562   3.465   1.810   9.468  1.2461  0.8176  0.3706
 2368SOL    HW118563   3.413   1.751   9.523 -0.7023  0.9479 -1.3039
 2368SOL    HW218564   3.424   1.789   9.383  0.9631 -0.8369  0.9074
 2369SOL     OW18565   1.140   3.603   6.704 -0.0683 -0.2766  0.0520
 2369SOL    HW118566   1.196   3.663   6.655  0.7762 -0.0368  1.3174
 2369SOL    HW218567   1.179   3.623   6.789  0.1187  0.5150 -0.2208
 2370SOL     OW18568   4.723   4.607   5.098  0.1088  0.0273  0.3427
 2370SOL    HW118569   4.629   4.617   5.116  0.2845  3.1276 -0.4994
 2370SOL    HW218570   0.034   4.675   5.155  1.4934 -0.0677 -0.4049
 2371SOL     OW18571   0.243   3.280  12.453  0.0498  0.4089  0.5813
 2371SOL    HW118572   0.213   3.313  12.368  0.4011  0.1169  0.3430
 2371SOL    HW218573   0.162   3.236  12.480 -0.7825  0.6885 -1.4727
 2372SOL     OW18574   3.781   4.435   5.068 -0.2034  0.2474  0.2886
 2372SOL    HW118575   3.816   4.426   5.157 -0.4081 -1.4345  0.2050
 2372SOL    HW218576   3.863   4.456   5.024 -0.6685  1.3965 -0.0218
 2373SOL     OW18577   1.975   4.070  10.886 -0.0525  0.4777 -0.2556
 2373SOL    HW118578   1.886   4.046  10.914 -0.0069  1.0438  0.3701
 2373SOL    HW218579   1.957   4.077  10.792 -0.4053 -0.8735 -0.2965
 2374SOL     OW18580   3.203   1.583   3.268 -0.5701 -0.4191  0.3449
 2374SOL    HW118581   3.183   1.560   3.177 -0.9098  0.6362  0.1527
 2374SOL    HW218582   3.236   1.499   3.300  1.6405  0.7163  1.0453
 2375SOL     OW18583   2.563   3.003   3.267  0.3644  0.7036 -0.0974
 2375SOL    HW118584   2.658   2.998   3.267  0.2901 -1.1089  0.7467
 2375SOL    HW218585   2.549   3.090   3.304  0.9703  0.1362  1.4936
 2376SOL     OW18586   3.409   1.508  11.531  0.2269 -0.0998  0.1813
 2376SOL    HW118587   3.410   1.488  11.438  2.0576 -0.9179  0.3725
 2376SOL    HW218588   3.498   1.477  11.546  0.4871  0.0252 -1.1455
 2377SOL     OW18589   1.515   2.950   4.754  0.0511  0.0254  0.5630
 2377SOL    HW118590   1.603   2.954   4.793  0.0792 -1.5740  0.6850
 2377SOL    HW218591   1.491   3.039   4.780  1.3341  0.9517 -1.4740
 2378SOL     OW18592   2.159   3.204   4.800 -0.1390 -0.4655 -0.0275
 2378SOL    HW118593   2.107   3.246   4.732  1.7644  0.9414 -0.6131
 2378SOL    HW218594   2.233   3.174   4.747 -0.6990 -1.0177 -0.4898
 2379SOL     OW18595   3.756   1.796   5.859 -0.2419  0.4050 -0.1956
 2379SOL    HW118596   3.742   1.890   5.857  2.6012  0.7976 -1.8256
 2379SOL    HW218597   3.799   1.785   5.944  0.7614 -2.8163 -1.1151
 2380SOL     OW18598   0.243   1.166   2.740 -0.1250  0.0928  0.4489
 2380SOL    HW118599   0.334   1.196   2.736 -0.0116 -0.7028 -2.5740
 2380SOL    HW218600   0.202   1.230   2.682 -1.7529  1.8692  3.5327
 2381SOL     OW18601   2.284   4.435   0.817  0.3928  0.3103 -0.4437
 2381SOL    HW118602   2.372   4.403   0.833  0.1308 -0.6577 -0.9290
 2381SOL    HW218603   2.232   4.390   0.884  1.4389  0.9412  0.7891
 2382SOL     OW18604   3.862   3.960  11.918 -0.4200 -0.4139 -0.2320
 2382SOL    HW118605   3.919   3.926  11.849  2.1059  1.9401  0.6853
 2382SOL    HW218606   3.837   3.877  11.960  0.2588 -1.7875 -2.5625
 2383SOL     OW18607   3.524   3.330   4.229  0.2851  0.0652 -0.2201
 2383SOL    HW118608   3.612   3.367   4.234  1.3251 -2.3874 -0.0504
 2383SOL    HW218609   3.508   3.315   4.322 -3.5365 -0.3465 -0.9407
 2384SOL     OW18610   0.323   3.242   5.211  0.2745 -0.1995  0.7338
 2384SOL    HW118611   0.377   3.254   5.133  0.5773  1.0781  1.1393
 2384SOL    HW218612   0.256   3.306   5.189  0.4725 -0.2491 -0.0120
 2385SOL     OW18613   1.588   1.091   2.308 -0.3711  0.0211  0.2758
 2385SOL    HW118614   1.545   1.009   2.281  0.5101  0.5539 -2.7817
 2385SOL    HW218615   1.535   1.161   2.271  2.8781  2.2158 -0.2176
 2386SOL     OW18616   1.609   2.315   2.216  0.6278 -0.2178 -0.1416
 2386SOL    HW118617   1.695   2.301   2.257  1.8744  0.7867 -2.4110
 2386SOL    HW218618   1.617   2.391   2.159 -1.3764  1.7043  2.1760
 2387SOL     OW18619   0.764   0.071   3.448  0.3833  0.1823  0.0416
 2387SOL    HW118620   0.714   4.715   3.435  1.7356 -0.6504 -0.0127
 2387SOL    HW218621   0.857   0.049   3.447  0.9878  2.6533  1.8479
 2388SOL     OW18622   2.362   3.889   2.465  0.1193  0.2306  0.0002
 2388SOL    HW118623   2.330   3.941   2.539 -0.6512  1.3085 -1.0945
 2388SOL    HW218624   2.349   3.802   2.503 -0.8230 -1.8032 -5.0435
 2389SOL     OW18625   3.612   0.285   5.660  0.1721  0.0582  0.5444
 2389SOL    HW118626   3.594   0.377   5.682 -1.2037 -0.8722  3.2183
 2389SOL    HW218627   3.532   0.243   5.692 -0.0880  0.7789  0.8395
 2390SOL     OW18628   0.892   3.519   1.701 -0.5283  0.5815  0.3552
 2390SOL    HW118629   0.918   3.589   1.760  0.6674 -0.0727  0.6095
 2390SOL    HW218630   0.978   3.475   1.696 -1.1789 -0.9915  2.9817
 2391SOL     OW18631   2.721   0.471  14.090 -0.1224 -0.5789 -0.0368
 2391SOL    HW118632   2.756   0.559  14.076 -1.1408 -0.6890 -3.3004
 2391SOL    HW218633   2.632   0.506  14.093  0.1782  0.0083  1.8062
 2392SOL     OW18634   2.777   3.426   7.196 -0.0851 -0.0909  0.0165
 2392SOL    HW118635   2.694   3.427   7.150  0.7069 -1.2598 -1.4026
 2392SOL    HW218636   2.827   3.355   7.157  0.9265  0.1663  0.8366
 2393SOL     OW18637   1.039   3.037  10.670 -0.6707 -0.3787  0.3852
 2393SOL    HW118638   0.963   3.006  10.621  2.0556 -0.8382 -3.5269
 2393SOL    HW218639   1.019   3.130  10.676  2.7548  0.3508  0.7112
 2394SOL     OW18640   4.433   4.428  15.578 -0.1735 -0.4666 -0.0361
 2394SOL    HW118641   4.497   4.500  15.576 -2.0547  1.2146 -0.1719
 2394SOL    HW218642   4.354   4.482  15.571 -0.6300 -1.0875  0.3754
 2395SOL     OW18643   0.964   2.100   1.692 -0.4542  0.0469  0.5034
 2395SOL    HW118644   0.909   2.123   1.617  0.8788 -1.9713 -1.1054
 2395SOL    HW218645   1.045   2.077   1.646 -0.0009  0.9041  0.8526
 2396SOL     OW18646   4.184   4.175  12.618  0.1739  0.0609  0.1912
 2396SOL    HW118647   4.246   4.165  12.545  0.6444 -0.1376  0.6177
 2396SOL    HW218648   4.148   4.087  12.607  2.6023 -1.1830  2.2952
 2397SOL     OW18649   2.319   3.155   1.726 -0.6596 -0.4187  0.1984
 2397SOL    HW118650   2.360   3.180   1.809 -1.4089  1.8095 -0.1041
 2397SOL    HW218651   2.229   3.150   1.758 -0.2272 -2.7141  1.0381
 2398SOL     OW18652   3.079   1.288   0.278  0.1377 -0.9681 -0.3981
 2398SOL    HW118653   3.049   1.348   0.210  0.6017 -0.9818 -0.6154
 2398SOL    HW218654   3.074   1.349   0.351 -0.6047 -1.3074 -0.1697
 2399SOL     OW18655   2.970   2.782  12.323 -0.0849 -0.3169  0.2429
 2399SOL    HW118656   2.934   2.870  12.311  1.5866  0.1841 -0.9784
 2399SOL    HW218657   2.949   2.742  12.239  2.5231  0.2432 -0.6677
 2400SOL     OW18658   3.638   0.064  16.339  0.3650 -0.2697  0.0870
 2400SOL    HW118659   3.593   0.146  16.360  0.4825 -0.0803 -0.4037
 2400SOL    HW218660   3.583   4.721  16.380 -1.1779  0.4478 -0.7839
 2401SOL     OW18661   0.137   2.072   8.230  0.1567  0.6061  0.0723
 2401SOL    HW118662   0.102   2.160   8.219 -0.1686  0.5952  0.9853
 2401SOL    HW218663   0.228   2.087   8.253  0.1706  1.6443 -0.6573
 2402SOL     OW18664   1.666   3.482   2.948  0.4081  0.1666 -0.1440
 2402SOL    HW118665   1.602   3.491   3.019 -0.3501 -0.4162 -0.7520
 2402SOL    HW218666   1.720   3.560   2.953  2.3847 -1.2334  0.3729
 2403SOL     OW18667   0.217   1.312   4.341  0.2094  0.1932  0.1552
 2403SOL    HW118668   0.249   1.309   4.431  1.6777  1.2716 -0.3330
 2403SOL    HW218669   0.268   1.382   4.301  0.8937 -0.4843 -0.1650
 2404SOL     OW18670   4.357   4.668  15.273 -0.1934  0.0915 -0.3056
 2404SOL    HW118671   4.424   0.013  15.274  0.7797 -0.8457  0.1765
 2404SOL    HW218672   4.289   4.703  15.330  1.1603  0.8973  0.8079
 2405SOL     OW18673   2.141   0.912   8.334 -0.1390  0.0268  0.5336
 2405SOL    HW118674   2.139   0.833   8.389 -0.7705 -0.0550  0.3897
 2405SOL    HW218675   2.131   0.985   8.394 -0.4081 -1.5065  2.3628
 2406SOL     OW18676   4.696   4.311   4.329 -0.4962  0.1046 -0.2116
 2406SOL    HW118677   4.657   4.394   4.300 -1.7208 -0.4371 -0.1148
 2406SOL    HW218678   4.630   4.250   4.298  0.5040 -0.1377 -1.8440
 2407SOL     OW18679   0.275   0.028  16.781  0.5826 -0.4139  0.6665
 2407SOL    HW118680   0.282   0.050  16.688 -2.3341  2.3429  1.0645
 2407SOL    HW218681   0.192   0.075  16.796  0.7943  0.3293 -0.5003
 2408SOL     OW18682   0.732   0.018   8.042  0.5261 -0.6313  0.0814
 2408SOL    HW118683   0.700   0.080   7.976 -0.3973  0.4860  1.5857
 2408SOL    HW218684   0.663   0.026   8.109  0.6480 -0.2144  0.1547
 2409SOL     OW18685   2.604   0.478   0.510 -0.3595 -0.1728  0.1290
 2409SOL    HW118686   2.573   0.504   0.597 -0.2848 -0.8314  0.3521
 2409SOL    HW218687   2.695   0.460   0.533 -0.4352 -1.6720 -0.7551
 2410SOL     OW18688   1.602   0.246   9.492 -0.4496 -0.3539 -0.8577
 2410SOL    HW118689   1.534   0.183   9.468  1.5368 -0.9929 -4.7860
 2410SOL    HW218690   1.663   0.243   9.418  1.2469 -0.2077  0.5242
 2411SOL     OW18691   0.544   1.410  10.497 -0.7095 -0.6793 -0.2611
 2411SOL    HW118692   0.479   1.401  10.427  0.6959 -0.2179 -1.6181
 2411SOL    HW218693   0.500   1.475  10.551  0.7115 -0.0324  0.1121
 2412SOL     OW18694   1.675   1.539   1.116 -0.0346  0.2310  0.1779
 2412SOL    HW118695   1.732   1.616   1.122 -0.2212  0.4716 -1.0847
 2412SOL    HW218696   1.683   1.513   1.024  1.1293  0.5775  0.1831
 2413SOL     OW18697   4.337   0.385   1.428 -0.4763 -0.0377 -0.7646
 2413SOL    HW118698   4.393   0.367   1.352  0.2130 -1.1227  0.0059
 2413SOL    HW218699   4.279   0.309   1.426 -0.6309  0.0673 -0.0830
 2414SOL     OW18700   4.079   1.077  17.327  0.3335  0.0811  0.4143
 2414SOL    HW118701   4.154   1.124  17.291  0.2153  2.1147  2.7813
 2414SOL    HW218702   4.038   1.048  17.246  2.1828  0.0620 -0.5021
 2415SOL     OW18703   3.294   3.711   8.151 -0.0101 -0.1871 -0.4640
 2415SOL    HW118704   3.206   3.720   8.187  1.4505  3.6225  2.2310
 2415SOL    HW218705   3.284   3.625   8.110 -0.0949 -0.6912  0.6064
 2416SOL     OW18706   2.127   0.959   8.059 -0.0587 -0.3407 -0.5487
 2416SOL    HW118707   2.217   0.929   8.057  0.2320  0.4121  1.1224
 2416SOL    HW218708   2.116   0.952   8.154 -0.2058  2.4615 -0.3299
 2417SOL     OW18709   2.847   4.071   6.620  0.0567 -0.2542  1.0062
 2417SOL    HW118710   2.779   4.018   6.578 -0.9137  0.6526  1.4376
 2417SOL    HW218711   2.798   4.136   6.670  1.7546  0.8097  1.2925
 2418SOL     OW18712   2.801   0.158  16.541  0.4345 -0.3141  0.0284
 2418SOL    HW118713   2.715   0.142  16.579  1.7585 -2.4245  2.2120
 2418SOL    HW218714   2.815   0.244  16.581 -2.3753 -0.1531  0.6804
 2419SOL     OW18715   1.762   3.464   7.988  0.2537 -0.2331 -0.1658
 2419SOL    HW118716   1.853   3.492   7.989  0.1040  0.2859 -1.0555
 2419SOL    HW218717   1.728   3.449   8.076  0.9796 -0.2063  0.1155
 2420SOL     OW18718   0.450   0.851  13.643  0.1878 -0.5191 -0.0934
 2420SOL    HW118719   0.456   0.756  13.653 -3.7815 -1.0279 -2.2551
 2420SOL    HW218720   0.470   0.855  13.550 -0.2438  1.4624 -0.1086
 2421SOL     OW18721   2.889   0.393  11.256  0.2565 -0.4700  0.0908
 2421SOL    HW118722   2.921   0.303  11.267  0.5847 -0.1922  1.4320
 2421SOL    HW218723   2.795   0.390  11.239  0.1809 -1.3241  0.6399
 2422SOL     OW18724   0.336   0.150   6.193 -0.6668  0.5202  0.3672
 2422SOL    HW118725   0.349   0.066   6.150  1.5566  0.7056  0.6309
 2422SOL    HW218726   0.387   0.140   6.274 -0.8813 -0.3947  0.3904
 2423SOL     OW18727   2.285   0.823  13.007 -0.4007  0.2811 -1.0713
 2423SOL    HW118728   2.320   0.749  13.055  1.2758  2.1662  0.6340
 2423SOL    HW218729   2.339   0.820  12.928  0.1393 -0.0794 -0.6778
 2424SOL     OW18730   2.360   3.592   5.553  0.4324 -0.1658 -0.8280
 2424SOL    HW118731   2.447   3.633   5.556  0.2687  0.0348  0.7787
 2424SOL    HW218732   2.364   3.539   5.473  0.1610 -0.2078 -0.8134
 2425SOL     OW18733   0.668   4.322   3.276 -0.4572 -0.2991 -0.3293
 2425SOL    HW118734   0.643   4.250   3.333  0.0033 -0.2575 -0.0759
 2425SOL    HW218735   0.720   4.271   3.213 -0.5653 -0.5630 -0.2035
 2426SOL     OW18736   3.533   0.807   7.466  0.0170 -0.2981 -0.9861
 2426SOL    HW118737   3.496   0.877   7.413 -0.0383  0.1974 -0.2958
 2426SOL    HW218738   3.567   0.854   7.542 -2.6527  0.5720 -0.3670
 2427SOL     OW18739   0.863   0.792   6.137  0.3001  0.1856  0.2975
 2427SOL    HW118740   0.772   0.816   6.124  0.4038  1.3198  1.6472
 2427SOL    HW218741   0.869   0.733   6.062 -1.0750 -0.6415  0.8506
 2428SOL     OW18742   2.197   2.996   9.454 -0.1723 -0.5121 -0.3142
 2428SOL    HW118743   2.172   3.027   9.541 -1.0241 -1.2031 -0.3231
 2428SOL    HW218744   2.108   2.978   9.425  0.2527 -1.2723 -1.1458
 2429SOL     OW18745   2.243   0.004   4.076  0.6426 -0.1375 -0.2218
 2429SOL    HW118746   2.269   4.717   3.984 -0.8632 -2.5886 -0.3478
 2429SOL    HW218747   2.152   4.703   4.084  0.7472 -0.3784  0.2177
 2430SOL     OW18748   3.065   1.685  12.116 -0.4129 -0.3041 -0.4424
 2430SOL    HW118749   3.029   1.682  12.205 -0.1656  2.3065 -0.2389
 2430SOL    HW218750   3.086   1.779  12.121 -0.0238 -0.4141  0.0676
 2431SOL     OW18751   1.501   0.120   0.263  0.9005  0.1326  0.3745
 2431SOL    HW118752   1.427   0.116   0.324 -0.2254 -0.2677 -0.9970
 2431SOL    HW218753   1.475   0.195   0.210 -3.3039  0.7321  3.2928
 2432SOL     OW18754   4.059   3.566   0.990 -0.1632  0.0853  0.3968
 2432SOL    HW118755   4.054   3.519   0.908  2.9869 -0.4941  0.5084
 2432SOL    HW218756   4.116   3.508   1.041  0.8584  0.4126 -0.3662
 2433SOL     OW18757   2.307   0.574   0.459  0.8042  0.0399  0.1255
 2433SOL    HW118758   2.381   0.549   0.403  0.8730 -0.3988  0.4160
 2433SOL    HW218759   2.303   0.668   0.440  1.2562 -0.3690 -2.0135
 2434SOL     OW18760   0.967   2.642   8.273 -0.0853 -0.0092  0.1471
 2434SOL    HW118761   0.930   2.679   8.354  4.3237  1.1465  1.6046
 2434SOL    HW218762   0.891   2.591   8.245  0.7341 -0.4841 -1.1813
 2435SOL     OW18763   3.795   3.949   5.123 -0.2587  0.1558 -0.2099
 2435SOL    HW118764   3.762   3.951   5.033 -0.6618  0.0215 -0.0641
 2435SOL    HW218765   3.757   4.026   5.166 -0.7750 -0.7460  0.9618
 2436SOL     OW18766   4.315   2.278   8.769 -0.5232 -0.4285  0.3877
 2436SOL    HW118767   4.312   2.183   8.781 -1.7101 -0.5689 -0.9536
 2436SOL    HW218768   4.396   2.285   8.719  0.3024  3.3481  2.2480
 2437SOL     OW18769   4.110   0.151   6.813  0.6139 -0.2829 -0.0039
 2437SOL    HW118770   4.152   0.070   6.783 -1.2169 -1.3773  0.3631
 2437SOL    HW218771   4.041   0.114   6.868 -0.2414 -2.3658 -2.4783
 2438SOL     OW18772   4.090   0.340   3.182  0.0540  0.3968 -0.2452
 2438SOL    HW118773   4.041   0.379   3.254 -0.0863 -2.8031  1.3609
 2438SOL    HW218774   4.178   0.359   3.215  0.8433 -0.9071 -1.5706
 2439SOL     OW18775   1.679   1.409   0.589  0.4621 -0.2505 -0.0795
 2439SOL    HW118776   1.653   1.357   0.665  0.4297 -0.4831 -0.2498
 2439SOL    HW218777   1.724   1.478   0.638  0.1275 -1.5644  2.0665
 2440SOL     OW18778   2.584   0.385  11.692  0.0788  0.4154 -0.3855
 2440SOL    HW118779   2.673   0.352  11.698 -0.0314 -0.0376 -1.3367
 2440SOL    HW218780   2.553   0.364  11.780  0.6873  2.0715  0.2269
 2441SOL     OW18781   1.047   3.669   2.662  0.1082  0.6066 -0.0907
 2441SOL    HW118782   0.994   3.671   2.583  0.4363  1.7656 -0.2691
 2441SOL    HW218783   1.001   3.736   2.712 -0.7553 -0.6964  0.8914
 2442SOL     OW18784   2.568   0.476   4.491 -0.3636 -0.2332 -0.3748
 2442SOL    HW118785   2.578   0.419   4.415 -1.6448 -0.9565 -0.0033
 2442SOL    HW218786   2.658   0.466   4.522  0.4023  0.5121 -2.3777
 2443SOL     OW18787   2.517   0.592   2.313 -0.0153 -0.7899 -0.8612
 2443SOL    HW118788   2.545   0.547   2.392 -0.9288 -0.7219 -0.4967
 2443SOL    HW218789   2.444   0.536   2.285 -0.8528  0.3701 -0.9885
 2444SOL     OW18790   4.444   3.306   9.790 -0.5692  0.0215 -0.1992
 2444SOL    HW118791   4.536   3.305   9.816  0.0642  0.3011 -2.3977
 2444SOL    HW218792   4.423   3.390   9.830 -0.2415  0.9729 -2.0043
 2445SOL     OW18793   4.148   4.433   7.772 -0.3164  0.0111  1.2000
 2445SOL    HW118794   4.061   4.404   7.743 -0.6796  0.5690  1.7301
 2445SOL    HW218795   4.176   4.350   7.810  0.6880  0.3619  1.2276
 2446SOL     OW18796   0.268   3.834   2.094  0.0835  0.1220  0.2956
 2446SOL    HW118797   0.233   3.749   2.068 -0.6284  0.3361  0.5681
 2446SOL    HW218798   0.355   3.806   2.123 -0.6278 -3.4579 -1.1199
 2447SOL     OW18799   4.356   2.080   0.839  0.5120 -0.5914 -0.0126
 2447SOL    HW118800   4.294   2.153   0.840  1.0858 -0.1154  0.7653
 2447SOL    HW218801   4.395   2.078   0.927 -2.1543 -1.2285  1.1741
 2448SOL     OW18802   0.293   3.490   1.574 -0.3203  0.1597  0.3524
 2448SOL    HW118803   0.322   3.444   1.496  0.2683  1.4653 -0.1938
 2448SOL    HW218804   0.273   3.415   1.630  1.5825  0.5453  1.5653
 2449SOL     OW18805   3.819   4.257   8.978 -0.2550 -0.3108 -0.7874
 2449SOL    HW118806   3.865   4.185   8.935 -2.5015 -1.8832 -0.5428
 2449SOL    HW218807   3.737   4.249   8.929 -1.1568  0.5152  0.5752
 2450SOL     OW18808   2.816   2.086   8.551 -0.0638  0.1335  0.1792
 2450SOL    HW118809   2.840   2.029   8.625 -1.2705 -2.5337 -1.4610
 2450SOL    HW218810   2.726   2.109   8.571 -0.0318 -0.7371  1.3182
 2451SOL     OW18811   3.790   0.317  14.918 -0.3983  0.1294  0.0277
 2451SOL    HW118812   3.720   0.340  14.857 -1.4350  1.6119  1.7739
 2451SOL    HW218813   3.811   0.234  14.875 -1.9952 -0.0642 -0.3762
 2452SOL     OW18814   4.321   3.571   9.167  0.1216 -0.4547 -0.0685
 2452SOL    HW118815   4.310   3.543   9.258  1.5126 -0.3132  0.1482
 2452SOL    HW218816   4.233   3.601   9.146 -1.2744 -3.0837  2.0317
 2453SOL     OW18817   2.985   1.977  13.171 -0.2124 -0.4081 -0.6680
 2453SOL    HW118818   2.975   1.974  13.266 -0.2538  0.6263 -0.6404
 2453SOL    HW218819   3.078   1.999  13.166 -0.1007 -0.7175 -0.0578
 2454SOL     OW18820   2.328   3.298   5.990 -0.0329 -0.0886  0.1634
 2454SOL    HW118821   2.390   3.339   6.050  0.8175  0.4209 -1.0640
 2454SOL    HW218822   2.311   3.375   5.936 -0.3282 -0.9377 -0.9350
 2455SOL     OW18823   2.663   0.662  11.912 -0.4963 -0.5014  0.4239
 2455SOL    HW118824   2.622   0.695  11.992  2.5963  1.4392  1.2039
 2455SOL    HW218825   2.586   0.666  11.854 -0.2119 -1.2768  0.0042
 2456SOL     OW18826   4.493   2.112   4.158 -0.5624  0.5160 -0.2466
 2456SOL    HW118827   4.484   2.067   4.074 -0.8252  2.9327 -1.5209
 2456SOL    HW218828   4.518   2.198   4.124  0.4152  0.2929 -0.0890
 2457SOL     OW18829   1.483   1.603   3.601  0.2869  0.5205  0.1104
 2457SOL    HW118830   1.505   1.664   3.531 -0.7428 -0.3829 -0.9972
 2457SOL    HW218831   1.509   1.516   3.570  2.4502  1.8506 -1.7837
 2458SOL     OW18832   1.218   0.580   1.865 -0.2185 -0.2965 -0.6672
 2458SOL    HW118833   1.211   0.652   1.927 -0.6409 -0.4156 -0.5742
 2458SOL    HW218834   1.311   0.561   1.850 -0.5416 -1.6539 -0.9350
 2459SOL     OW18835   1.139   0.557   1.376  0.5124  0.1673  0.2429
 2459SOL    HW118836   1.156   0.622   1.308  0.8350 -1.0913 -0.8821
 2459SOL    HW218837   1.156   0.474   1.331 -0.0921  0.6104 -0.7899
 2460SOL     OW18838   0.145   2.152  12.672  0.2432  0.0313 -0.0179
 2460SOL    HW118839   0.174   2.181  12.758  0.0725  0.5449 -0.1374
 2460SOL    HW218840   0.213   2.190  12.616 -0.9452 -0.6119 -1.9004
 2461SOL     OW18841   4.012   2.808   1.824 -0.2562  0.9194  1.4703
 2461SOL    HW118842   4.035   2.886   1.875  1.6151  1.3561 -0.0257
 2461SOL    HW218843   4.080   2.741   1.831 -1.7563 -0.6322  1.2528
 2462SOL     OW18844   4.511   4.049   5.736  0.0155  0.1869  0.0042
 2462SOL    HW118845   4.509   4.082   5.646 -2.6130  1.6431  0.5863
 2462SOL    HW218846   4.486   4.125   5.788  2.6865  0.1528  1.3510
 2463SOL     OW18847   1.216   4.387   4.758  0.2321  0.5361 -0.2135
 2463SOL    HW118848   1.146   4.384   4.692  0.2108 -0.9092 -0.1345
 2463SOL    HW218849   1.284   4.335   4.715  0.6280  0.0222  1.0506
 2464SOL     OW18850   1.226   3.523   2.370  0.0053  0.5835  0.4426
 2464SOL    HW118851   1.138   3.540   2.403 -0.7307  0.6574 -1.5755
 2464SOL    HW218852   1.270   3.535   2.454 -0.0356  2.2374  0.2264
 2465SOL     OW18853   0.925   3.265   5.677 -0.3810 -0.0557 -0.1724
 2465SOL    HW118854   0.915   3.247   5.770  0.1526  3.4362  0.5700
 2465SOL    HW218855   0.835   3.264   5.643 -0.9554  1.5925  1.3060
 2466SOL     OW18856   4.423   3.729   6.717  0.5872  0.3787  0.3363
 2466SOL    HW118857   4.396   3.803   6.771  1.2780  1.3015 -0.5861
 2466SOL    HW218858   4.376   3.650   6.744  0.2287  0.8240  0.9944
 2467SOL     OW18859   1.784   2.711   3.657  0.0434 -0.6614  0.0720
 2467SOL    HW118860   1.849   2.653   3.696  0.8126 -0.2720 -0.6290
 2467SOL    HW218861   1.723   2.730   3.728  1.3904 -1.8292  1.5446
 2468SOL     OW18862   3.254   0.776   4.032 -0.1637  0.2295 -0.1393
 2468SOL    HW118863   3.230   0.684   4.047  0.8998  0.0216  0.2854
 2468SOL    HW218864   3.314   0.764   3.958 -1.1888 -1.1543 -0.7493
 2469SOL     OW18865   3.832   2.343   3.049 -0.4787  0.0238  0.4336
 2469SOL    HW118866   3.873   2.267   3.008 -0.5670  0.1246  0.1569
 2469SOL    HW218867   3.760   2.365   2.989 -0.9138 -0.5455  0.7554
 2470SOL     OW18868   1.349   0.989   5.628  0.4921 -0.4570  0.1417
 2470SOL    HW118869   1.255   0.991   5.645  0.8861 -1.0101  2.4146
 2470SOL    HW218870   1.351   0.975   5.534  2.2442 -1.5780  0.3328
 2471SOL     OW18871   0.625   1.214  15.767  0.3311  0.0249  0.0595
 2471SOL    HW118872   0.600   1.303  15.742  0.7682  0.0122 -0.4220
 2471SOL    HW218873   0.614   1.223  15.861 -1.0523 -0.5088 -0.0523
 2472SOL     OW18874   3.553   2.679   4.848  0.4916 -0.6735  0.4222
 2472SOL    HW118875   3.566   2.727   4.930 -1.1727  2.2002 -1.0069
 2472SOL    HW218876   3.511   2.742   4.790  2.9208  0.7197  0.1418
 2473SOL     OW18877   3.601   3.257  14.364  0.1760 -0.7518 -0.0143
 2473SOL    HW118878   3.581   3.349  14.348 -0.4193 -1.4022 -3.0341
 2473SOL    HW218879   3.532   3.239  14.427  0.3529  0.7693  0.6084
 2474SOL     OW18880   1.477   4.444   4.973 -0.1431 -0.4954  0.1128
 2474SOL    HW118881   1.407   4.452   5.037  0.2378  2.4264  0.1747
 2474SOL    HW218882   1.474   4.525   4.922  0.8819  0.4234  1.5047
 2475SOL     OW18883   1.522   2.027   8.765 -0.0578 -0.3987 -0.1754
 2475SOL    HW118884   1.479   2.110   8.785  0.3417  0.1300 -1.4824
 2475SOL    HW218885   1.612   2.057   8.775 -0.0840 -0.4030  0.0603
 2476SOL     OW18886   0.129   4.398   4.959 -1.0868  0.1261 -0.4323
 2476SOL    HW118887   0.093   4.469   5.012  0.6835  0.7358 -0.0478
 2476SOL    HW218888   0.062   4.331   4.975 -1.8286  0.8609 -0.4384
 2477SOL     OW18889   3.876   1.966   8.336  0.6363  0.7056 -0.5963
 2477SOL    HW118890   3.869   1.898   8.268  3.7901  0.3780 -0.6368
 2477SOL    HW218891   3.800   1.950   8.391 -0.8075  2.1792 -2.1793
 2478SOL     OW18892   4.111   0.410  12.671  0.7519 -0.3314  0.1228
 2478SOL    HW118893   4.177   0.343  12.658  1.7258  0.5780  0.3690
 2478SOL    HW218894   4.050   0.397  12.599  0.1095 -1.5397  0.8906
 2479SOL     OW18895   3.694   1.923   2.161  0.3688  0.4876  0.0228
 2479SOL    HW118896   3.652   1.971   2.090  0.4890 -3.4279 -2.6566
 2479SOL    HW218897   3.783   1.911   2.128  0.4100  0.6375  0.0776
 2480SOL     OW18898   4.390   4.655   5.393 -0.8917 -0.2075  0.0069
 2480SOL    HW118899   4.366   4.568   5.425 -2.1168  0.1764  0.1600
 2480SOL    HW218900   4.398   4.627   5.302 -0.7318 -0.9962  0.2619
 2481SOL     OW18901   4.329   1.508  13.091  0.0513  0.0608  0.1515
 2481SOL    HW118902   4.237   1.507  13.116 -0.2453  0.1154 -0.9360
 2481SOL    HW218903   4.324   1.507  12.996  3.3684 -1.7927 -0.0074
 2482SOL     OW18904   0.083   4.401   5.930 -0.2124 -0.0021  0.1486
 2482SOL    HW118905   0.012   4.339   5.943  0.8153 -1.3508 -0.6788
 2482SOL    HW218906   0.151   4.337   5.909  0.7533  1.9787 -2.8177
 2483SOL     OW18907   0.896   2.099   4.536 -0.1840 -0.6519  0.0889
 2483SOL    HW118908   0.991   2.100   4.548  0.0223  0.3567 -1.5907
 2483SOL    HW218909   0.891   2.188   4.501  0.9365 -1.2528 -1.5534
 2484SOL     OW18910   0.955   2.763   5.514 -0.6693 -0.1608  0.2000
 2484SOL    HW118911   0.990   2.751   5.426  2.4797  2.9186  1.0628
 2484SOL    HW218912   0.870   2.804   5.494 -1.1778 -0.9328  0.7943
 2485SOL     OW18913   0.242   2.375   4.396  0.1581 -0.0363  0.4985
 2485SOL    HW118914   0.277   2.462   4.378 -0.8769  0.0778 -0.8781
 2485SOL    HW218915   0.174   2.367   4.330  0.4509 -2.0745  0.4286
 2486SOL     OW18916   0.644   4.374   3.790 -0.3104  0.4302 -0.3771
 2486SOL    HW118917   0.579   4.436   3.757  2.1894  1.8476 -2.6035
 2486SOL    HW218918   0.595   4.293   3.776 -0.4290  0.4643 -0.1661
 2487SOL     OW18919   1.558   1.456   0.167 -0.5151 -0.1094  0.2187
 2487SOL    HW118920   1.569   1.434   0.075  0.1109  1.3087 -0.0497
 2487SOL    HW218921   1.488   1.517   0.144 -0.7149 -0.2737  0.3907
 2488SOL     OW18922   3.171   1.012   8.654  0.1228 -0.2205 -0.4188
 2488SOL    HW118923   3.196   1.026   8.745  0.5830 -1.9625 -0.2851
 2488SOL    HW218924   3.136   0.923   8.652  0.5820 -0.4445  1.4269
 2489SOL     OW18925   1.132   1.676   3.750  0.7487  0.4104  0.3586
 2489SOL    HW118926   1.100   1.709   3.834  0.5141  1.4328 -0.1321
 2489SOL    HW218927   1.195   1.607   3.770 -1.0536 -1.1089  0.7472
 2490SOL     OW18928   4.719   2.419   9.705 -0.5558  0.2631  0.3596
 2490SOL    HW118929   0.064   2.480   9.730 -1.7797  1.3121  1.1860
 2490SOL    HW218930   0.007   2.425   9.610  0.5736  0.2715  0.5047
 2491SOL     OW18931   3.512   2.013   7.589 -0.2309  0.0195 -0.4776
 2491SOL    HW118932   3.435   1.958   7.602  0.6891 -1.6715 -2.3164
 2491SOL    HW218933   3.487   2.097   7.629  2.2926  0.8472 -0.6360
 2492SOL     OW18934   2.939   3.517   3.356 -0.5705  0.1519  0.3108
 2492SOL    HW118935   2.867   3.579   3.347  0.2655  0.8125 -1.7677
 2492SOL    HW218936   3.006   3.561   3.303 -0.3193 -2.5609 -1.6324
 2493SOL     OW18937   1.935   3.738   5.799  0.1440  0.0660  0.2880
 2493SOL    HW118938   1.900   3.679   5.732  0.4199 -1.2669  1.3195
 2493SOL    HW218939   1.883   3.818   5.796 -0.2192 -0.1755  0.1489
 2494SOL     OW18940   1.764   3.012   6.312 -0.5136 -0.5178 -0.2689
 2494SOL    HW118941   1.849   3.044   6.344 -0.3067 -3.6545  2.3090
 2494SOL    HW218942   1.798   2.973   6.232  1.6245  0.7837 -0.0011
 2495SOL     OW18943   1.491   2.443   5.593  0.4421  0.1614 -0.7738
 2495SOL    HW118944   1.488   2.537   5.575 -2.9063  0.0415 -0.8910
 2495SOL    HW218945   1.494   2.443   5.688  0.2187 -0.7641 -0.7674
 2496SOL     OW18946   0.038   1.734  10.079 -0.5961 -0.1657  0.2905
 2496SOL    HW118947   4.668   1.727  10.060 -0.5726 -2.4040  0.9352
 2496SOL    HW218948   0.067   1.815  10.037 -2.2641  1.0424  1.4711
 2497SOL     OW18949   2.694   3.887   5.339 -0.3270  0.0818  0.0179
 2497SOL    HW118950   2.695   3.792   5.341  0.4493  0.0822 -0.6149
 2497SOL    HW218951   2.619   3.908   5.283  0.6518 -1.4459 -1.8590
 2498SOL     OW18952   3.222   0.005  16.990  0.4439 -0.2850 -0.0754
 2498SOL    HW118953   3.277   0.083  17.000  1.3791 -1.2875  2.7120
 2498SOL    HW218954   3.279   4.664  17.031  0.8604 -0.7119 -1.3386
 2499SOL     OW18955   0.144   2.715   9.538  0.3095 -0.2123  0.0256
 2499SOL    HW118956   0.216   2.733   9.477  0.3016 -0.3717 -0.0320
 2499SOL    HW218957   0.120   2.799   9.577 -1.9890 -1.7711  1.9953
 2500SOL     OW18958   4.564   0.603  12.712 -0.1004  0.5764 -0.1219
 2500SOL    HW118959   4.535   0.530  12.767  2.6080 -0.4716 -0.0713
 2500SOL    HW218960   4.655   0.607  12.743  0.7713 -0.3237 -2.5298
 2501SOL     OW18961   2.365   4.088   8.850  0.1554  0.0943  0.7787
 2501SOL    HW118962   2.367   4.067   8.756 -0.9151 -0.1443  0.8079
 2501SOL    HW218963   2.405   4.175   8.856 -1.6247  1.0839 -2.0498
 2502SOL     OW18964   2.861   4.401  14.036 -0.4960  0.4650 -0.3392
 2502SOL    HW118965   2.861   4.486  13.991  2.8461 -0.3666 -1.9913
 2502SOL    HW218966   2.789   4.356  13.992 -0.5448  0.1225  0.0829
 2503SOL     OW18967   2.394   4.084   2.263 -0.2229 -0.2385 -0.0892
 2503SOL    HW118968   2.442   4.054   2.340 -1.2676  0.8387  0.9681
 2503SOL    HW218969   2.304   4.097   2.292 -0.6960  0.0144 -1.6707
 2504SOL     OW18970   3.881   0.606  11.344  0.3442  0.2596  0.3866
 2504SOL    HW118971   3.903   0.557  11.265  1.3987  0.4571  0.5698
 2504SOL    HW218972   3.816   0.551  11.389  1.9494 -1.7911  0.1876
 2505SOL     OW18973   1.941   1.900   9.221  0.0839  0.5805  0.0668
 2505SOL    HW118974   1.972   1.988   9.240 -0.6585  0.7629  0.4305
 2505SOL    HW218975   1.846   1.912   9.222 -0.2051 -1.6626 -0.4938
 2506SOL     OW18976   0.724   4.278   6.920 -0.4662 -0.0378  0.5899
 2506SOL    HW118977   0.786   4.276   6.847  0.2299 -2.8525  1.2346
 2506SOL    HW218978   0.658   4.337   6.885  0.3083  0.4152 -0.1014
 2507SOL     OW18979   2.639   3.501   3.183  0.0616 -0.0952  0.3925
 2507SOL    HW118980   2.727   3.507   3.148 -0.1204  1.9974  0.3051
 2507SOL    HW218981   2.630   3.581   3.235  0.0329  0.4913 -0.5091
 2508SOL     OW18982   0.235   4.194   5.868  0.8974 -0.6218 -0.6242
 2508SOL    HW118983   0.305   4.217   5.807  0.1852  0.4363 -1.0275
 2508SOL    HW218984   0.265   4.109   5.901 -0.2124 -1.2310 -1.1943
 2509SOL     OW18985   0.924   4.106   4.767  0.5323  0.1140 -0.0865
 2509SOL    HW118986   0.959   4.043   4.830 -1.1540  0.1143  0.8511
 2509SOL    HW218987   0.844   4.141   4.806  1.7232  0.6497  1.9375
 2510SOL     OW18988   0.804   2.756   9.410 -0.8862  0.1476  0.0072
 2510SOL    HW118989   0.817   2.764   9.315  1.1696  0.9921  0.3525
 2510SOL    HW218990   0.738   2.688   9.406 -0.9222  0.1278  1.2273
 2511SOL     OW18991   1.801   1.204   1.732  0.1849 -0.2011 -0.6915
 2511SOL    HW118992   1.844   1.263   1.670  0.3590  0.6644  0.2431
 2511SOL    HW218993   1.848   1.224   1.813  1.9218 -1.1256 -1.4922
 2512SOL     OW18994   0.737   2.137   0.761 -0.1080  0.4803  0.1725
 2512SOL    HW118995   0.736   2.054   0.808 -0.3096  1.2756  1.6061
 2512SOL    HW218996   0.721   2.198   0.834 -2.7617 -1.0458  0.8977
 2513SOL     OW18997   2.670   1.169   2.634  0.0614 -1.1191  0.0286
 2513SOL    HW118998   2.600   1.106   2.655 -0.2911 -0.8026 -0.2044
 2513SOL    HW218999   2.745   1.112   2.617  2.1996  1.3553  1.1839
 2514SOL     OW19000   3.005   4.420   1.765  0.2984  0.3123  0.6491
 2514SOL    HW119001   2.929   4.404   1.821  1.7067 -0.6181  2.3226
 2514SOL    HW219002   3.070   4.378   1.821 -0.4327 -1.8841 -0.1297
 2515SOL     OW19003   2.384   2.635  15.502  0.2289 -0.0949  0.3248
 2515SOL    HW119004   2.403   2.569  15.569 -2.2908 -0.1907  0.9278
 2515SOL    HW219005   2.302   2.600  15.469  0.6042 -0.9788  0.3374
 2516SOL     OW19006   3.457   2.817   3.739 -0.1719 -0.1276 -0.2471
 2516SOL    HW119007   3.500   2.775   3.665 -0.9281  0.9609 -1.2991
 2516SOL    HW219008   3.499   2.901   3.723  0.0395 -0.2098 -0.1282
 2517SOL     OW19009   4.075   3.549   2.705  0.2718 -0.0732 -0.2050
 2517SOL    HW119010   4.120   3.465   2.716 -2.8316 -1.7314 -0.2028
 2517SOL    HW219011   4.056   3.559   2.798  4.5078  0.3857  0.6128
 2518SOL     OW19012   0.513   1.723   1.826 -0.2448  0.0436  0.7723
 2518SOL    HW119013   0.432   1.772   1.836 -0.7325 -0.6695  0.3221
 2518SOL    HW219014   0.580   1.792   1.822 -0.4422 -0.1057 -4.7648
 2519SOL     OW19015   3.795   4.480   2.654  0.2508  0.0325  0.3587
 2519SOL    HW119016   3.760   4.555   2.703  0.4185 -0.3258  1.0247
 2519SOL    HW219017   3.714   4.430   2.650 -1.1077  2.4667 -2.7862
 2520SOL     OW19018   4.605   3.012   6.129  0.2039  0.2180 -0.6786
 2520SOL    HW119019   4.527   3.037   6.078  0.6509  2.5714 -0.1762
 2520SOL    HW219020   4.572   2.960   6.203 -2.1941  1.2877 -0.9983
 2521SOL     OW19021   1.299   4.372   6.597 -0.0905  0.1282  0.5828
 2521SOL    HW119022   1.259   4.456   6.621 -1.6250 -0.8911  1.6433
 2521SOL    HW219023   1.394   4.378   6.607  0.1238 -2.1090 -0.0384
 2522SOL     OW19024   4.305   2.478   0.346 -0.1346  0.1361  0.4230
 2522SOL    HW119025   4.259   2.402   0.382  1.2176 -0.5197  0.7607
 2522SOL    HW219026   4.257   2.542   0.398 -1.0745  0.9799 -1.4921
 2523SOL     OW19027   3.105   0.020   4.714 -0.5069  0.3625 -0.0894
 2523SOL    HW119028   3.126   0.067   4.795  0.2353  1.4871 -0.9493
 2523SOL    HW219029   3.066   0.092   4.664 -0.7442 -0.2712 -0.8192
 2524SOL     OW19030   0.335   4.391   7.161 -0.3094  0.4823 -0.4921
 2524SOL    HW119031   0.253   4.344   7.144 -0.5252  0.1502  1.5779
 2524SOL    HW219032   0.302   4.478   7.182  0.2870  0.9881 -1.6175
 2525SOL     OW19033   2.938   2.817   4.327 -0.0418 -0.7645 -0.2919
 2525SOL    HW119034   2.987   2.893   4.297 -1.3597  1.0721  2.2263
 2525SOL    HW219035   2.943   2.764   4.247 -0.5960 -0.7592 -0.3313
 2526SOL     OW19036   0.961   0.266   3.886  0.3343 -0.1934  0.4333
 2526SOL    HW119037   0.940   0.275   3.979 -1.9590 -0.5410 -0.0529
 2526SOL    HW219038   1.010   0.348   3.885 -1.2873  0.7667 -1.2152
 2527SOL     OW19039   1.054   4.093  14.208  0.4603  0.3406  0.7867
 2527SOL    HW119040   1.141   4.107  14.172  0.5246 -2.0986 -0.0825
 2527SOL    HW219041   1.060   4.007  14.250  4.1866 -0.7768 -2.0918
 2528SOL     OW19042   2.657   4.694   6.960  0.3087  0.5286  0.5666
 2528SOL    HW119043   2.670   4.714   6.867 -1.5941 -0.4665  0.0974
 2528SOL    HW219044   2.744   4.706   6.998  0.7589  2.5391 -1.0906
 2529SOL     OW19045   4.046   3.423  11.156 -0.4791  0.3353  0.1143
 2529SOL    HW119046   4.016   3.332  11.164 -0.9179  0.5024  0.3585
 2529SOL    HW219047   4.009   3.449  11.072  0.2895 -0.3101 -0.4190
 2530SOL     OW19048   0.181   0.033   9.744  0.0278 -0.1106 -0.8427
 2530SOL    HW119049   0.254   0.061   9.689  1.6438  1.3504  2.0562
 2530SOL    HW219050   0.200   4.664   9.737 -1.8542 -0.4173 -1.8464
 2531SOL     OW19051   3.117   1.671   5.032  0.1570  0.0048 -0.3651
 2531SOL    HW119052   3.073   1.738   5.085  1.0602  1.0269 -0.9209
 2531SOL    HW219053   3.131   1.707   4.944 -0.7457 -0.5046 -0.7189
 2532SOL     OW19054   3.094   1.567   8.998 -0.4475  0.4276 -0.3551
 2532SOL    HW119055   3.003   1.595   9.010  0.1212  2.6942 -1.3727
 2532SOL    HW219056   3.129   1.632   8.937  0.3597  0.4192  0.1018
 2533SOL     OW19057   3.533   4.471  13.544 -0.1617  0.1517  0.4333
 2533SOL    HW119058   3.617   4.436  13.572  1.1852  1.9087 -1.4094
 2533SOL    HW219059   3.497   4.413  13.477  0.6604  1.3745 -1.0652
 2534SOL     OW19060   2.028   0.199   7.595 -0.3435 -0.1747 -0.5169
 2534SOL    HW119061   1.992   0.276   7.550 -2.8160 -0.1812  1.4955
 2534SOL    HW219062   2.095   0.163   7.537  1.4686  1.4883  0.5611
 2535SOL     OW19063   3.719   0.854  10.643  1.0244 -0.3256  0.0755
 2535SOL    HW119064   3.708   0.949  10.637  0.4538 -0.5304 -2.1386
 2535SOL    HW219065   3.640   0.822  10.601  0.7888 -0.2870  0.4902
 2536SOL     OW19066   3.190   4.354  14.629 -0.4892 -0.5150 -0.1854
 2536SOL    HW119067   3.119   4.312  14.581 -0.7043  0.3061 -0.5885
 2536SOL    HW219068   3.264   4.299  14.602  0.7958  1.6146 -1.0364
 2537SOL     OW19069   2.703   2.786  14.090 -0.1083  0.1451  0.1873
 2537SOL    HW119070   2.707   2.876  14.059  1.3499  0.2509  0.6576
 2537SOL    HW219071   2.764   2.792  14.164  0.3464 -0.1275 -0.1653
 2538SOL     OW19072   0.885   3.925   6.188  0.1500  0.2921 -0.2198
 2538SOL    HW119073   0.948   3.855   6.203  0.7048  0.5068 -1.4756
 2538SOL    HW219074   0.936   3.984   6.132  1.5297 -0.8549 -0.1752
 2539SOL     OW19075   4.325   0.326   8.810  0.6753 -0.2832 -0.4886
 2539SOL    HW119076   4.314   0.250   8.867 -2.9817 -0.1555 -1.0074
 2539SOL    HW219077   4.419   0.344   8.815  0.4922  0.8688 -1.1893
 2540SOL     OW19078   1.567   3.780   3.834 -0.0015  0.1436  0.6114
 2540SOL    HW119079   1.534   3.705   3.784 -1.1051  2.2679 -1.8064
 2540SOL    HW219080   1.486   3.811   3.874  0.2253  0.8816  0.4878
 2541SOL     OW19081   2.320   3.490   3.513  0.0263  0.0669  0.1207
 2541SOL    HW119082   2.308   3.398   3.492 -1.3609  0.9705 -3.1388
 2541SOL    HW219083   2.279   3.516   3.430 -1.4032  1.1876  1.1868
 2542SOL     OW19084   3.593   0.610  10.078 -0.3028  0.1144 -0.2523
 2542SOL    HW119085   3.577   0.650   9.992  1.8823 -2.4647 -1.8528
 2542SOL    HW219086   3.536   0.665  10.131 -0.7942  2.5946 -3.3152
 2543SOL     OW19087   2.206   0.098   1.511  0.3963 -0.1225  0.1516
 2543SOL    HW119088   2.113   0.078   1.505 -0.2443  2.8130  0.6060
 2543SOL    HW219089   2.236   0.007   1.502 -1.3510 -0.6907 -0.0196
 2544SOL     OW19090   1.035   4.011   5.665  0.1086  0.5235  0.5442
 2544SOL    HW119091   1.056   3.922   5.638  1.4382  0.5179  1.6408
 2544SOL    HW219092   0.974   3.993   5.735  0.9615  0.7290  1.3397
 2545SOL     OW19093   0.536   3.736  17.533 -0.2394 -0.3168 -0.2060
 2545SOL    HW119094   0.468   3.689  17.484 -0.6826  1.3013 -1.1345
 2545SOL    HW219095   0.489   3.818  17.549 -0.9894 -1.2619  2.6004
 2546SOL     OW19096   4.684   3.454   8.674  0.5819  0.6516  0.6078
 2546SOL    HW119097   4.658   3.489   8.760  0.4593  1.3413  0.2919
 2546SOL    HW219098   4.598   3.466   8.634  0.9260 -1.9123 -0.8820
 2547SOL     OW19099   3.753   2.971   3.150  0.5350 -0.4899 -0.5605
 2547SOL    HW119100   3.847   2.952   3.146  0.9467  1.1942  1.0376
 2547SOL    HW219101   3.746   3.054   3.101  0.3843 -0.3223 -0.2535
 2548SOL     OW19102   3.386   3.468   6.420 -0.5788 -0.0498  0.1005
 2548SOL    HW119103   3.375   3.491   6.512 -0.3637 -0.1178  0.1432
 2548SOL    HW219104   3.306   3.506   6.383 -0.4095  1.2042  0.9960
 2549SOL     OW19105   3.558   1.760   7.985  0.3610 -0.2997  0.1212
 2549SOL    HW119106   3.489   1.827   7.984  1.6420  1.0239  0.0880
 2549SOL    HW219107   3.625   1.817   8.023  0.0023  0.6952 -0.7273
 2550SOL     OW19108   0.668   3.109   4.333 -0.1607  0.0395 -0.4092
 2550SOL    HW119109   0.701   3.191   4.368  0.3533 -0.4928  0.3359
 2550SOL    HW219110   0.631   3.138   4.249 -1.2858  2.3024  0.8726
 2551SOL     OW19111   3.785   4.124   3.555  0.2822 -0.0614 -0.2945
 2551SOL    HW119112   3.834   4.100   3.634  1.3793  3.9096  0.2205
 2551SOL    HW219113   3.723   4.052   3.545  0.3034 -0.0564 -0.4543
 2552SOL     OW19114   0.978   2.557  15.027 -0.6440 -0.2880  0.0287
 2552SOL    HW119115   1.070   2.561  15.000 -0.3007 -3.8145  0.6219
 2552SOL    HW219116   0.986   2.497  15.102  1.6588  1.1754  0.9549
 2553SOL     OW19117   2.737   2.058   2.912  0.1473 -0.4639 -0.4278
 2553SOL    HW119118   2.723   2.075   2.819  0.9097 -0.8960 -0.6168
 2553SOL    HW219119   2.655   2.015   2.937 -1.3351  1.6920 -1.5953
 2554SOL     OW19120   3.266   4.044   4.333  0.4119  0.0722 -0.0990
 2554SOL    HW119121   3.276   4.139   4.326 -0.5661  0.0380 -1.9809
 2554SOL    HW219122   3.191   4.031   4.391  0.3461 -2.1241 -0.6757
 2555SOL     OW19123   2.191   0.602   3.863  0.1169 -0.1771  0.3238
 2555SOL    HW119124   2.254   0.607   3.935  1.1698  0.7247 -0.6764
 2555SOL    HW219125   2.253   0.588   3.792  0.0898  0.9637  0.0863
 2556SOL     OW19126   2.376   2.538   3.608  0.0046  0.9299  0.5470
 2556SOL    HW119127   2.433   2.493   3.546  0.0331  2.5962 -0.6282
 2556SOL    HW219128   2.436   2.540   3.683  0.0674  2.4213  0.4564
 2557SOL     OW19129   0.080   2.644   8.105 -0.3141 -0.4321 -0.0022
 2557SOL    HW119130   0.175   2.646   8.116 -0.6227  0.6880  2.3804
 2557SOL    HW219131   0.073   2.626   8.011 -0.6482 -0.7423  0.0821
 2558SOL     OW19132   3.440   3.061   2.492 -0.0001 -0.5534  0.2894
 2558SOL    HW119133   3.427   3.029   2.403 -0.9894  1.7909 -0.3938
 2558SOL    HW219134   3.534   3.080   2.491  0.0921 -0.7862  3.0374
 2559SOL     OW19135   1.091   0.009  10.022 -0.7342  0.8754  0.4583
 2559SOL    HW119136   1.080   4.640  10.003  1.1687  0.1471  2.8655
 2559SOL    HW219137   1.119   0.013  10.114 -1.3879 -0.0347  0.6985
 2560SOL     OW19138   3.958   2.612   5.891  0.4841  0.0159  0.2238
 2560SOL    HW119139   3.981   2.590   5.801 -1.3192 -0.4636 -0.1293
 2560SOL    HW219140   4.001   2.547   5.948  0.3717  0.2098  0.5309
 2561SOL     OW19141   3.657   1.201   4.654 -0.5324  0.2607 -0.2012
 2561SOL    HW119142   3.655   1.259   4.578 -0.1633  1.8551  1.0264
 2561SOL    HW219143   3.655   1.260   4.729 -0.1395  0.4242 -0.3198
 2562SOL     OW19144   1.718   1.795   7.118 -0.2086  0.0941  0.3462
 2562SOL    HW119145   1.707   1.765   7.027  0.3187 -2.7149  1.2156
 2562SOL    HW219146   1.670   1.878   7.115 -0.1817  0.0582 -1.4785
 2563SOL     OW19147   0.022   1.827  14.847  0.5560 -0.0020 -0.5760
 2563SOL    HW119148   4.687   1.778  14.789 -1.6887  3.9856 -1.6658
 2563SOL    HW219149   4.714   1.917  14.842 -0.0305 -0.2251 -0.8786
 2564SOL     OW19150   1.855   2.320   6.591 -0.2703  0.1885 -0.3159
 2564SOL    HW119151   1.819   2.403   6.560  0.7439  0.6318 -0.3030
 2564SOL    HW219152   1.836   2.320   6.684  0.1453  0.5876 -0.2334
 2565SOL     OW19153   0.626   3.591  16.991  0.0149  0.1102 -0.4469
 2565SOL    HW119154   0.718   3.569  16.975  0.3067  1.1304 -0.2053
 2565SOL    HW219155   0.578   3.516  16.957 -0.0965  1.0427 -2.3624
 2566SOL     OW19156   2.070   0.276  13.847  0.1467 -1.0060 -0.3467
 2566SOL    HW119157   2.157   0.289  13.885 -0.1300  1.7468 -0.6724
 2566SOL    HW219158   2.043   0.367  13.836 -0.8154 -1.2919 -0.3515
 2567SOL     OW19159   2.796   4.321   1.447 -0.2097  0.1045  0.0242
 2567SOL    HW119160   2.753   4.283   1.371 -1.8891  1.6287  0.2158
 2567SOL    HW219161   2.822   4.235   1.480 -1.6363 -0.7545 -1.0794
 2568SOL     OW19162   0.629   2.135   4.875 -0.5463 -0.4948  0.1165
 2568SOL    HW119163   0.542   2.140   4.914 -0.1306 -1.9264  1.2214
 2568SOL    HW219164   0.687   2.122   4.951  0.3167 -1.5109 -0.7245
 2569SOL     OW19165   1.103   2.502   9.424  0.5924 -0.2265  0.2192
 2569SOL    HW119166   1.168   2.553   9.473 -0.8372  0.0669  1.8054
 2569SOL    HW219167   1.097   2.411   9.454 -1.5790 -0.2283 -0.2154
 2570SOL     OW19168   2.603   0.415  11.295 -0.7178  0.9762 -0.7122
 2570SOL    HW119169   2.582   0.458  11.212 -0.6825  1.8537 -0.2701
 2570SOL    HW219170   2.591   0.483  11.361  0.5922  0.6775 -0.1618
 2571SOL     OW19171   1.371   0.130   6.584  0.3647 -0.1922  0.3045
 2571SOL    HW119172   1.322   0.063   6.631 -1.5539 -0.2922 -1.8253
 2571SOL    HW219173   1.312   0.156   6.514 -0.5674  0.7321  1.4304
 2572SOL     OW19174   1.845   2.945   8.658  0.0224 -0.2331  0.5350
 2572SOL    HW119175   1.779   2.893   8.705 -0.8844 -0.9838 -1.5575
 2572SOL    HW219176   1.907   2.883   8.620  0.2992  0.1735  0.3326
 2573SOL     OW19177   0.347   3.078   4.243 -0.0232  0.2696 -0.2126
 2573SOL    HW119178   0.317   3.149   4.187  0.1321 -0.1554 -0.8311
 2573SOL    HW219179   0.395   3.026   4.178  0.3485 -0.1825  0.4142
 2574SOL     OW19180   2.265   4.683   2.557  0.3032 -0.1272 -0.3014
 2574SOL    HW119181   2.259   4.675   2.653 -1.9605  0.8059 -0.3423
 2574SOL    HW219182   2.338   4.626   2.538 -0.2127 -0.7211 -0.4884
 2575SOL     OW19183   1.693   3.717   6.677  0.4155  0.5240  0.0027
 2575SOL    HW119184   1.769   3.765   6.711 -1.8581  2.7702  1.8795
 2575SOL    HW219185   1.694   3.740   6.584 -0.2374  0.0840 -0.1118
 2576SOL     OW19186   1.330   3.388   3.413 -0.0604 -0.8707 -0.4820
 2576SOL    HW119187   1.303   3.464   3.465  2.0211  1.8685 -3.3968
 2576SOL    HW219188   1.425   3.401   3.415 -0.3586  0.9546  2.8155
 2577SOL     OW19189   3.294   4.328   8.401 -0.0022 -0.5320  0.2891
 2577SOL    HW119190   3.273   4.237   8.423  1.8859 -0.7649  1.1514
 2577SOL    HW219191   3.212   4.352   8.358  0.9212  1.3024 -0.4424
 2578SOL     OW19192   1.155   2.254   7.765 -0.2646 -0.0461  0.3862
 2578SOL    HW119193   1.086   2.320   7.769  0.7873  1.0373  0.9759
 2578SOL    HW219194   1.176   2.241   7.858  1.5538 -3.5700 -0.5206
 2579SOL     OW19195   2.098   1.382   5.541  0.5652 -0.1022  0.3962
 2579SOL    HW119196   2.091   1.370   5.636 -0.4825  0.3256  0.3686
 2579SOL    HW219197   2.009   1.404   5.514  1.1088 -1.8499 -2.7812
 2580SOL     OW19198   1.251   4.172  17.086  0.0068  0.6166 -0.5462
 2580SOL    HW119199   1.247   4.247  17.027 -0.8468  1.3757  0.4636
 2580SOL    HW219200   1.159   4.152  17.104 -0.1441  0.9975 -0.9152
 2581SOL     OW19201   2.815   3.085   3.769 -0.2106 -0.7708 -0.7096
 2581SOL    HW119202   2.784   3.068   3.679 -0.7250  3.1764 -1.2527
 2581SOL    HW219203   2.907   3.105   3.755 -0.2848 -0.7817 -1.2170
 2582SOL     OW19204   3.138   2.578   7.543 -0.2522 -0.2369  0.4941
 2582SOL    HW119205   3.163   2.495   7.585  0.1106 -0.5899 -0.4236
 2582SOL    HW219206   3.172   2.567   7.454 -1.5482  0.4919 -0.0877
 2583SOL     OW19207   4.513   3.681  13.122  0.0005 -0.3324 -0.4156
 2583SOL    HW119208   4.485   3.771  13.141 -0.5089 -0.6371  0.3007
 2583SOL    HW219209   4.600   3.695  13.085  1.0552 -0.5225  2.0004
 2584SOL     OW19210   1.187   2.617   4.189  0.1673 -0.5280 -0.2748
 2584SOL    HW119211   1.272   2.646   4.156  0.1361 -0.7873 -0.5834
 2584SOL    HW219212   1.150   2.585   4.107 -1.0522 -2.0727  0.8628
 2585SOL     OW19213   3.348   4.689   6.398  0.2360 -0.2780  0.5255
 2585SOL    HW119214   3.384   4.606   6.367  1.4893  0.3820  0.2280
 2585SOL    HW219215   3.350   0.025   6.324 -0.5242 -2.6057 -1.4101
 2586SOL     OW19216   3.887   3.490  14.487  0.7276 -0.4013 -0.6003
 2586SOL    HW119217   3.982   3.476  14.492  0.6926  0.6710  2.9921
 2586SOL    HW219218   3.863   3.530  14.403  2.6210 -0.3717 -1.1320
 2587SOL     OW19219   2.435   1.628  11.051  0.2280 -0.0301 -0.2673
 2587SOL    HW119220   2.440   1.670  11.137  0.5817  1.5559 -1.0652
 2587SOL    HW219221   2.446   1.536  11.076  0.5145 -0.3933 -1.7550
 2588SOL     OW19222   0.919   2.212  16.300 -0.6103  0.9067 -0.5745
 2588SOL    HW119223   0.976   2.224  16.375  0.9754 -0.7416 -1.5211
 2588SOL    HW219224   0.872   2.295  16.305 -1.9138  0.3190 -2.9920
 2589SOL     OW19225   4.183   1.124   8.716  0.0633  0.0551 -0.3128
 2589SOL    HW119226   4.118   1.062   8.682  0.6041  0.3352 -1.8084
 2589SOL    HW219227   4.155   1.122   8.808  0.0052 -1.3676 -0.3469
 2590SOL     OW19228   1.553   0.861   9.707  0.1535  0.5485 -0.2341
 2590SOL    HW119229   1.629   0.906   9.670  0.2505  0.0006 -0.6838
 2590SOL    HW219230   1.486   0.925   9.681 -0.2666  0.1345 -0.1661
 2591SOL     OW19231   4.523   0.382   9.175  0.1762  0.6325 -0.2328
 2591SOL    HW119232   4.501   0.358   9.085 -2.5272  2.4464 -0.0622
 2591SOL    HW219233   4.465   0.456   9.195 -2.6667 -1.3184 -1.3792
 2592SOL     OW19234   3.405   2.402   6.325  0.2074 -0.0540 -0.6425
 2592SOL    HW119235   3.396   2.314   6.359  0.0673  0.0135 -0.5041
 2592SOL    HW219236   3.325   2.439   6.363 -0.8527 -1.4574 -1.5225
 2593SOL     OW19237   3.042   1.297   3.732  0.1663  0.6259  0.2051
 2593SOL    HW119238   3.063   1.247   3.653 -0.5246  3.4856 -1.8155
 2593SOL    HW219239   3.039   1.388   3.701 -3.2265  0.1529 -0.8940
 2594SOL     OW19240   3.392   0.255  16.215 -0.1283  0.1323 -0.3009
 2594SOL    HW119241   3.337   0.302  16.153  0.6111  1.9170  0.3948
 2594SOL    HW219242   3.374   0.163  16.197 -1.7738  0.2042  1.0202
 2595SOL     OW19243   1.128   3.714   5.642 -0.0728  0.0031  0.1930
 2595SOL    HW119244   1.195   3.746   5.702 -0.6718  2.2144 -0.3017
 2595SOL    HW219245   1.070   3.667   5.702 -2.2948  0.2668 -1.7334
 2596SOL     OW19246   2.134   2.111  13.713  0.4073 -0.0208 -0.3285
 2596SOL    HW119247   2.042   2.137  13.708 -0.0236 -1.5148 -0.0861
 2596SOL    HW219248   2.175   2.193  13.740 -0.3642  0.5389 -0.8599
 2597SOL     OW19249   1.839   4.202   8.701  1.0120  0.0795 -0.2438
 2597SOL    HW119250   1.857   4.207   8.795 -0.1787 -1.2875  0.0535
 2597SOL    HW219251   1.791   4.119   8.698 -0.7896  1.1989 -2.1641
 2598SOL     OW19252   3.097   0.449   2.590  0.2386  0.3389 -0.4806
 2598SOL    HW119253   3.190   0.464   2.575 -0.0449  2.4018 -0.1582
 2598SOL    HW219254   3.053   0.457   2.506 -0.0023  1.7843 -0.2208
 2599SOL     OW19255   3.005   2.999  11.971 -0.0451  0.4499 -0.0961
 2599SOL    HW119256   3.026   3.056  12.045  0.6111  2.9393 -2.2141
 2599SOL    HW219257   2.912   2.979  11.983  0.4233 -1.5853  0.1825
 2600SOL     OW19258   3.365   0.579   7.408 -0.5832  0.0620  0.3254
 2600SOL    HW119259   3.366   0.608   7.317 -1.9121 -1.0787 -0.0502
 2600SOL    HW219260   3.411   0.647   7.457 -3.0221  1.7721  0.2073
 2601SOL     OW19261   3.794   4.609   7.387 -0.5568  0.1407  0.3542
 2601SOL    HW119262   3.757   4.535   7.436  1.8431 -1.0486  0.3757
 2601SOL    HW219263   3.722   4.669   7.368  0.4067  1.6872  1.5908
 2602SOL     OW19264   3.011   2.159   5.518  0.1184 -0.0179  0.2861
 2602SOL    HW119265   3.042   2.214   5.591 -1.8132  1.3233  0.1050
 2602SOL    HW219266   3.023   2.220   5.446 -2.5176  1.0647  0.7242
 2603SOL     OW19267   2.999   0.603   5.635 -0.0102  0.1728 -0.3161
 2603SOL    HW119268   3.031   0.661   5.703  0.4997 -1.5718  0.9341
 2603SOL    HW219269   2.979   0.671   5.570  0.4626  1.1050  0.5265
 2604SOL     OW19270   2.034   3.402   4.339 -0.3166 -0.2717  0.2587
 2604SOL    HW119271   2.034   3.456   4.418  2.3677 -0.1380  0.1532
 2604SOL    HW219272   2.014   3.318   4.380  2.5718 -0.3634  1.5143
 2605SOL     OW19273   2.604   3.238   5.391 -0.5074 -0.0625 -0.2298
 2605SOL    HW119274   2.592   3.168   5.327 -1.3774 -0.9282  0.9109
 2605SOL    HW219275   2.595   3.317   5.337  1.1419 -0.1294 -0.6022
 2606SOL     OW19276   4.096   0.993   0.005 -1.0261  0.3919  0.3641
 2606SOL    HW119277   4.031   1.024   0.069  0.8354  1.3383  1.8283
 2606SOL    HW219278   4.146   0.938   0.066 -1.2841 -0.2473 -0.0103
 2607SOL     OW19279   2.277   0.481  14.737 -0.0055 -0.0063  0.4166
 2607SOL    HW119280   2.309   0.546  14.674  0.6068 -1.4073 -0.7158
 2607SOL    HW219281   2.282   0.402  14.683 -2.1781  0.0638  0.1152
 2608SOL     OW19282   3.351   4.685   4.883 -0.3998 -0.7272  0.6035
 2608SOL    HW119283   3.432   0.011   4.893 -1.0104  0.6244 -1.0790
 2608SOL    HW219284   3.283   0.027   4.871 -0.1706 -0.4455  0.8727
 2609SOL     OW19285   1.775   0.927   1.053 -0.1782  0.1480  0.0930
 2609SOL    HW119286   1.814   0.959   1.135  1.9157  0.1902 -0.9065
 2609SOL    HW219287   1.781   0.836   1.083 -0.0141  0.0929 -0.1045
 2610SOL     OW19288   4.070   1.903   3.916 -0.8568 -0.3334 -0.1884
 2610SOL    HW119289   4.057   1.840   3.845  0.7866  0.1845 -0.9558
 2610SOL    HW219290   4.154   1.876   3.953 -0.3283 -1.4515 -2.1872
 2611SOL     OW19291   2.577   3.953   4.546 -0.1099  0.1348 -0.0552
 2611SOL    HW119292   2.639   3.892   4.506 -0.0040 -0.0635  0.4080
 2611SOL    HW219293   2.510   3.956   4.477 -1.1142  0.2366  0.9139
 2612SOL     OW19294   2.539   1.808   2.663  0.2989  0.1513 -0.2702
 2612SOL    HW119295   2.539   1.904   2.663  0.3497  0.1456  0.3439
 2612SOL    HW219296   2.445   1.792   2.676  0.4314  0.1032  0.5856
 2613SOL     OW19297   2.493   2.942  15.491 -0.8231 -0.1403  0.8614
 2613SOL    HW119298   2.401   2.964  15.477  0.3297  3.6339 -0.6158
 2613SOL    HW219299   2.479   2.879  15.562 -0.0147  0.5603  1.6365
 2614SOL     OW19300   3.725   4.470   3.251  0.2552  0.1960  0.6161
 2614SOL    HW119301   3.674   4.447   3.328  0.2382  1.5461  1.0040
 2614SOL    HW219302   3.771   4.388   3.231  0.9006  1.1842 -1.9400
 2615SOL     OW19303   0.691   0.005   6.970  0.1340  0.1471 -0.0780
 2615SOL    HW119304   0.663   4.675   7.044 -0.9350 -1.0121 -1.3197
 2615SOL    HW219305   0.758   4.684   6.919  1.5118 -0.1768  2.0203
 2616SOL     OW19306   3.839   2.577   7.864 -0.1159  0.6778  0.1855
 2616SOL    HW119307   3.790   2.646   7.820 -0.9371 -0.2907 -0.3960
 2616SOL    HW219308   3.759   2.536   7.896 -0.4148  0.8677 -0.3277
 2617SOL     OW19309   1.164   1.611   5.227  0.2151 -0.0735 -0.0312
 2617SOL    HW119310   1.070   1.610   5.242 -0.0243 -1.2852 -1.6863
 2617SOL    HW219311   1.174   1.561   5.146 -0.8186  1.9224 -1.3947
 2618SOL     OW19312   0.978   1.054   6.178 -0.4111  0.0059 -0.3035
 2618SOL    HW119313   1.060   1.059   6.129 -0.5128 -0.6940 -0.5418
 2618SOL    HW219314   0.958   0.962   6.163  1.3552 -0.4519  0.1440
 2619SOL     OW19315   1.929   1.909  15.278 -0.0821  0.1462 -0.0202
 2619SOL    HW119316   1.909   1.851  15.352 -1.6217  2.7018  1.5655
 2619SOL    HW219317   1.983   1.972  15.327 -0.7653  0.8605 -0.1936
 2620SOL     OW19318   3.859   3.767   6.627  0.4037  0.5945  0.0557
 2620SOL    HW119319   3.914   3.831   6.583  0.6453  0.4279  0.1149
 2620SOL    HW219320   3.786   3.824   6.651  0.7695 -0.2830  3.3370
 2621SOL     OW19321   2.472   2.982  15.101 -0.1081  0.4131 -0.1928
 2621SOL    HW119322   2.431   3.061  15.136 -2.3547 -0.7330 -0.2085
 2621SOL    HW219323   2.393   2.954  15.054 -1.2571  1.0959  1.3337
 2622SOL     OW19324   1.518   3.580   4.320 -0.2940  0.1298 -0.6673
 2622SOL    HW119325   1.562   3.580   4.235 -3.2489  0.8772 -2.1998
 2622SOL    HW219326   1.573   3.526   4.377  0.0989  2.7517  1.4430
 2623SOL     OW19327   0.512   4.687  10.075  0.9398 -0.7820 -0.2639
 2623SOL    HW119328   0.431   4.660  10.118  1.5922 -1.9753  0.2206
 2623SOL    HW219329   0.573   4.626  10.115  1.0147 -0.1128  0.6532
 2624SOL     OW19330   2.644   3.949   1.896  0.0681 -0.2891 -0.2421
 2624SOL    HW119331   2.706   4.023   1.893  0.5842 -0.6733  0.8775
 2624SOL    HW219332   2.677   3.898   1.970 -2.3189 -3.0423 -1.1066
 2625SOL     OW19333   2.229   0.983   6.126  0.2330  0.4720 -0.1080
 2625SOL    HW119334   2.159   1.015   6.068  0.3239 -0.9277 -0.9726
 2625SOL    HW219335   2.307   0.998   6.073  0.1346 -0.3602 -0.4888
 2626SOL     OW19336   3.397   2.959   7.476 -0.1548 -0.0632  0.6265
 2626SOL    HW119337   3.443   2.883   7.440 -1.5374  0.1319 -1.5890
 2626SOL    HW219338   3.336   2.923   7.540  0.8034  2.3906  2.8720
 2627SOL     OW19339   3.625   0.104   8.364 -0.5946  0.6205 -0.1177
 2627SOL    HW119340   3.664   0.125   8.450  1.4975 -0.2974 -0.8473
 2627SOL    HW219341   3.587   0.017   8.372 -0.6993  0.4634 -2.3609
 2628SOL     OW19342   3.096   2.571   8.859  0.0211  0.1783 -0.0815
 2628SOL    HW119343   3.110   2.476   8.869 -0.2624  0.0294 -1.0708
 2628SOL    HW219344   3.095   2.599   8.950  0.7727  0.6708 -0.2238
 2629SOL     OW19345   2.867   4.549  17.695 -0.5532 -0.4553  0.1625
 2629SOL    HW119346   2.836   4.480   0.055 -0.5196 -0.9347 -0.3753
 2629SOL    HW219347   2.947   4.503  17.667 -0.4736 -1.1270  1.5280
 2630SOL     OW19348   2.804   3.608   8.812  0.0523  0.0603  0.6462
 2630SOL    HW119349   2.745   3.542   8.776  0.4552  0.9060 -1.5747
 2630SOL    HW219350   2.755   3.688   8.791 -3.1701 -1.6800  1.4839
 2631SOL     OW19351   2.247   0.610  16.741  0.4259 -0.1374 -0.0339
 2631SOL    HW119352   2.203   0.527  16.753  1.0810 -0.6914 -1.3905
 2631SOL    HW219353   2.202   0.687  16.776  1.1762  0.6109 -0.6831
 2632SOL     OW19354   4.341   2.867   8.730 -0.0728  0.7204  0.2093
 2632SOL    HW119355   4.410   2.932   8.742  0.8238  0.1895 -2.0449
 2632SOL    HW219356   4.371   2.792   8.782 -0.9685 -0.0074 -0.3071
 2633SOL     OW19357   3.283   1.689   5.639  0.3827 -0.2921  0.3061
 2633SOL    HW119358   3.379   1.693   5.642  0.3380  1.4954 -0.4337
 2633SOL    HW219359   3.267   1.736   5.721 -3.2132  0.2673 -0.7147
 2634SOL     OW19360   0.335   2.911  11.388  0.4309  0.0388 -0.0238
 2634SOL    HW119361   0.415   2.889  11.342  0.1425 -3.0428  0.9429
 2634SOL    HW219362   0.330   2.853  11.465 -0.6866 -0.5406 -0.5289
 2635SOL     OW19363   0.410   1.945   9.288 -0.0389  0.1404  0.1696
 2635SOL    HW119364   0.500   1.933   9.318 -0.2549 -1.2469  0.2538
 2635SOL    HW219365   0.403   1.864   9.238 -0.3455 -0.1347  0.6533
 2636SOL     OW19366   4.135   1.356   2.352  0.4143  0.1478 -0.2049
 2636SOL    HW119367   4.138   1.439   2.303 -1.9299  0.5822  0.4017
 2636SOL    HW219368   4.223   1.321   2.342  0.6969  0.5290  0.9827
 2637SOL     OW19369   3.077   4.350   9.232 -0.3951 -0.0130  0.3594
 2637SOL    HW119370   3.148   4.307   9.280 -0.3282  0.6479  0.8692
 2637SOL    HW219371   3.002   4.298   9.258 -1.5504  1.3509 -0.2488
 2638SOL     OW19372   0.218   3.105   9.412 -0.2470  0.7046 -0.2761
 2638SOL    HW119373   0.148   3.079   9.472  0.4883  1.8642  1.1082
 2638SOL    HW219374   0.171   3.123   9.331 -0.9776 -1.4613 -0.3240
 2639SOL     OW19375   2.833   0.038   7.889 -0.6202 -0.6839 -0.3180
 2639SOL    HW119376   2.914   0.018   7.841 -0.7350 -0.8616 -0.4367
 2639SOL    HW219377   2.873   0.104   7.946 -0.3989  0.9534 -2.3685
 2640SOL     OW19378   2.191   2.762   7.942 -0.0411 -0.3040  0.0163
 2640SOL    HW119379   2.262   2.770   8.004 -0.0865 -2.5086  0.3603
 2640SOL    HW219380   2.238   2.699   7.887  1.5196  1.7778 -1.0345
 2641SOL     OW19381   0.110   4.169  13.290  0.1530 -0.4343 -0.2970
 2641SOL    HW119382   0.074   4.179  13.202  0.9181  0.9227 -0.4523
 2641SOL    HW219383   0.168   4.246  13.288  0.5322 -0.6901  0.5967
 2642SOL     OW19384   3.178   3.829  15.508 -0.0683  0.1800  0.0832
 2642SOL    HW119385   3.160   3.864  15.595  0.3736 -1.5375  0.8579
 2642SOL    HW219386   3.199   3.740  15.536  0.4708 -0.1902 -1.5110
 2643SOL     OW19387   3.120   2.964  15.848 -0.0219  0.1803 -0.1533
 2643SOL    HW119388   3.147   3.031  15.786  1.8122 -0.5570 -0.1377
 2643SOL    HW219389   3.044   3.009  15.887 -0.1332  0.9852 -1.3068
 2644SOL     OW19390   3.106   2.317   6.360 -0.3456  0.5134 -0.6106
 2644SOL    HW119391   3.056   2.242   6.328  2.7327 -1.0756 -1.6658
 2644SOL    HW219392   3.055   2.353   6.433  0.2458 -1.7310  0.9173
 2645SOL     OW19393   0.406   2.524   8.523 -0.2777 -0.3883  0.6738
 2645SOL    HW119394   0.493   2.540   8.487 -0.4377 -0.1017  0.4183
 2645SOL    HW219395   0.420   2.439   8.565  0.1736 -0.4479  0.3987
 2646SOL     OW19396   3.484   4.083   5.604 -0.2947  0.5413 -0.3564
 2646SOL    HW119397   3.412   4.090   5.667 -0.1174  1.2703 -0.2378
 2646SOL    HW219398   3.454   4.142   5.535 -0.1819  1.9890  0.8410
 2647SOL     OW19399   0.930   2.496   3.613  0.0388  0.3689 -0.0998
 2647SOL    HW119400   1.024   2.512   3.609  0.1689  0.0159  1.4974
 2647SOL    HW219401   0.898   2.520   3.526 -1.1082 -0.9073 -0.0268
 2648SOL     OW19402   1.453   1.950   1.990 -0.9142 -0.5974 -0.1439
 2648SOL    HW119403   1.472   1.888   2.060  0.8467 -0.4918 -0.5254
 2648SOL    HW219404   1.436   2.022   2.051  0.8014 -0.5624  0.2879
 2649SOL     OW19405   4.175   1.747  16.222 -0.1614 -0.7224 -0.1272
 2649SOL    HW119406   4.161   1.792  16.139 -1.1447 -0.5173  0.1553
 2649SOL    HW219407   4.105   1.683  16.212 -0.1079 -0.2903 -3.1655
 2650SOL     OW19408   3.541   2.932   1.776 -0.3570  0.2799  0.5890
 2650SOL    HW119409   3.603   2.905   1.844 -0.7940 -0.0272  0.8693
 2650SOL    HW219410   3.514   2.846   1.744 -1.1731  1.2780 -1.3916
 2651SOL     OW19411   1.118   4.197   3.929  0.0108  0.3043  0.3113
 2651SOL    HW119412   1.084   4.246   3.854  1.4648 -0.1117 -0.6276
 2651SOL    HW219413   1.035   4.165   3.964  1.1034 -2.0904  0.7712
 2652SOL     OW19414   3.265   0.191   8.512 -0.1052 -0.0439  0.5879
 2652SOL    HW119415   3.305   0.277   8.523  0.3502 -0.0453 -1.0529
 2652SOL    HW219416   3.320   0.133   8.564 -2.0664 -1.4644  1.0556
 2653SOL     OW19417   3.902   0.540   8.405 -0.7105  0.3893  0.1731
 2653SOL    HW119418   3.980   0.492   8.377 -1.2555 -0.7918  0.6414
 2653SOL    HW219419   3.953   0.618   8.427 -0.6104  0.5741 -0.7139
 2654SOL     OW19420   0.366   4.511   5.300 -0.0140  0.1184  0.3717
 2654SOL    HW119421   0.427   4.517   5.226  0.1917 -0.7366  0.4650
 2654SOL    HW219422   0.333   4.601   5.303 -1.2530 -0.3417  0.7746
 2655SOL     OW19423   3.371   2.849  13.174 -0.3388  0.3827 -0.3523
 2655SOL    HW119424   3.436   2.848  13.104  0.7637 -1.3200  0.6905
 2655SOL    HW219425   3.320   2.921  13.136 -3.1015 -0.0162  2.6293
 2656SOL     OW19426   1.326   0.876   1.838  0.0192 -0.2332 -0.6929
 2656SOL    HW119427   1.277   0.841   1.763  2.4375 -1.5107 -1.6708
 2656SOL    HW219428   1.374   0.958   1.824 -0.7785  0.4544  0.6776
 2657SOL     OW19429   1.715   1.526   2.615  0.7319  0.2051 -0.0311
 2657SOL    HW119430   1.728   1.433   2.595  0.7968  0.0104  0.9278
 2657SOL    HW219431   1.805   1.539   2.646  1.5068 -1.0983 -1.7428
 2658SOL     OW19432   0.821   2.571   8.735  0.8912 -0.4830 -0.4351
 2658SOL    HW119433   0.806   2.496   8.677 -0.9464  1.6041 -2.6419
 2658SOL    HW219434   0.892   2.531   8.786  0.5361 -2.4917 -1.5114
 2659SOL     OW19435   3.974   2.007  13.334 -0.2382  0.0857  0.0822
 2659SOL    HW119436   3.985   1.969  13.420  2.1772  0.7821  0.0646
 2659SOL    HW219437   4.002   1.940  13.272  0.3438  1.5200 -1.2145
 2660SOL     OW19438   0.939   4.461  14.800  0.1552  0.0138 -0.1177
 2660SOL    HW119439   0.849   4.461  14.831 -0.1646 -0.7751 -1.0409
 2660SOL    HW219440   0.957   4.368  14.819 -3.0352 -0.6694 -0.5535
 2661SOL     OW19441   3.502   3.244   3.132 -0.5220 -0.4188  0.0937
 2661SOL    HW119442   3.572   3.243   3.067  0.9316  0.6652  1.6608
 2661SOL    HW219443   3.485   3.339   3.133 -0.8551 -0.4886  1.6141
 2662SOL     OW19444   2.799   0.282   2.795  0.4548 -0.3958  0.1431
 2662SOL    HW119445   2.879   0.332   2.811  0.6739 -1.1795  1.5470
 2662SOL    HW219446   2.841   0.199   2.774  1.4359  0.1041  0.1185
 2663SOL     OW19447   3.579   2.726  12.388  0.1060 -0.1096 -0.0763
 2663SOL    HW119448   3.661   2.737  12.435  0.3138  1.6804 -0.8638
 2663SOL    HW219449   3.518   2.725  12.461 -1.6072  0.1081 -1.4905
 2664SOL     OW19450   4.284   3.011   8.259  0.5871 -0.2188 -0.0742
 2664SOL    HW119451   4.249   2.945   8.318 -1.0126  1.5978  1.0311
 2664SOL    HW219452   4.208   3.068   8.243  0.2580 -0.4476  0.6938
 2665SOL     OW19453   2.217   3.535   3.269 -0.0711 -0.8339  0.1242
 2665SOL    HW119454   2.270   3.614   3.276 -0.3387 -1.0128  3.9942
 2665SOL    HW219455   2.125   3.561   3.268 -0.1028 -0.9526 -0.5714
 2666SOL     OW19456   4.626   1.893  13.306 -0.0952 -0.3088 -0.2034
 2666SOL    HW119457   4.580   1.813  13.281 -1.8505  0.4929  0.3964
 2666SOL    HW219458   4.571   1.924  13.378  1.9150  0.5260  0.9636
 2667SOL     OW19459   3.662   3.205   2.191  0.7153 -0.0366 -0.0492
 2667SOL    HW119460   3.681   3.287   2.237  1.0736 -0.6317  0.8768
 2667SOL    HW219461   3.657   3.242   2.103 -1.5692  0.9467  0.4672
 2668SOL     OW19462   0.549   2.168   3.107 -0.1962  0.2896 -0.1788
 2668SOL    HW119463   0.502   2.180   3.024 -0.2682  1.3776  0.0156
 2668SOL    HW219464   0.630   2.214   3.086 -1.0548  2.1337  0.5590
 2669SOL     OW19465   2.016   2.964   3.109  0.2171  0.2183  0.4051
 2669SOL    HW119466   1.965   2.927   3.037  1.3348 -1.5955  0.5537
 2669SOL    HW219467   2.023   2.886   3.165 -1.3832 -0.5962 -0.5182
 2670SOL     OW19468   2.905   4.232  15.554  0.2079  0.6348 -0.1783
 2670SOL    HW119469   2.962   4.201  15.484  0.9990 -0.7806  1.1021
 2670SOL    HW219470   2.969   4.293  15.591 -0.5157 -0.0075  2.1111
 2671SOL     OW19471   4.528   2.170  17.285 -0.7422  0.2732 -0.1220
 2671SOL    HW119472   4.495   2.259  17.277  0.1818  0.7972  1.7973
 2671SOL    HW219473   4.587   2.188  17.358  0.3290  0.5239 -1.0606
 2672SOL     OW19474   1.509   4.061   5.996 -0.2350  0.0756  0.6091
 2672SOL    HW119475   1.518   4.121   6.070  2.5148  0.0509  0.3124
 2672SOL    HW219476   1.599   4.054   5.963  0.3196 -0.6551  2.2542
 2673SOL     OW19477   3.815   2.115   4.220  0.1293 -0.1606  0.0552
 2673SOL    HW119478   3.857   2.030   4.202 -2.2484 -1.1801 -0.7095
 2673SOL    HW219479   3.756   2.094   4.292  0.0803 -1.2655 -0.3074
 2674SOL     OW19480   0.826   1.936   0.477 -0.3201 -0.2176 -0.1523
 2674SOL    HW119481   0.781   2.019   0.492 -2.2579 -1.0543 -1.3812
 2674SOL    HW219482   0.835   1.922   0.382 -0.7492 -1.4296 -0.0072
 2675SOL     OW19483   0.176   2.256   0.721  0.2609  0.2485 -0.3648
 2675SOL    HW119484   0.256   2.249   0.774 -0.7275 -0.3852  1.0295
 2675SOL    HW219485   0.170   2.170   0.680  2.5136  0.6487 -1.5547
 2676SOL     OW19486   4.169   0.753   5.417  0.1335  0.0926  0.0167
 2676SOL    HW119487   4.120   0.795   5.488  2.6201  0.7501  1.3802
 2676SOL    HW219488   4.169   0.662   5.444 -0.4108  0.1818  0.3069
 2677SOL     OW19489   1.585   3.208   7.111 -0.4528 -0.1884 -0.6840
 2677SOL    HW119490   1.679   3.191   7.111 -0.3355  0.4409  1.9926
 2677SOL    HW219491   1.573   3.179   7.202  1.6358 -0.1472 -0.3991
 2678SOL     OW19492   4.305   2.759   2.624 -0.2536 -0.3871  0.3028
 2678SOL    HW119493   4.297   2.712   2.541 -0.4839  0.7547 -0.3154
 2678SOL    HW219494   4.283   2.684   2.679  2.6336 -1.1101  0.4367
 2679SOL     OW19495   0.591   1.831   3.020  0.1716  0.1531 -0.2600
 2679SOL    HW119496   0.637   1.905   2.982 -0.0826 -0.4347 -1.7124
 2679SOL    HW219497   0.595   1.790   2.934  0.1884  0.3044 -0.3312
 2680SOL     OW19498   2.852   1.508   4.706 -1.2490 -0.3093  0.4933
 2680SOL    HW119499   2.806   1.497   4.789 -0.0656 -2.6695  0.8522
 2680SOL    HW219500   2.834   1.600   4.689  2.0083  0.1671 -0.2410
 2681SOL     OW19501   4.145   3.714   8.313 -0.3091  0.0158  1.2076
 2681SOL    HW119502   4.202   3.750   8.245  0.6393 -2.6941  0.5331
 2681SOL    HW219503   4.207   3.694   8.384  1.3408  0.1866 -0.1782
 2682SOL     OW19504   2.631   2.503  10.140 -0.1221 -0.5900  0.1225
 2682SOL    HW119505   2.721   2.474  10.154  0.7732  1.8268 -0.5403
 2682SOL    HW219506   2.622   2.486  10.046  2.0358 -2.1387  0.1870
 2683SOL     OW19507   0.983   4.272   4.570  0.3849 -0.0329  0.3315
 2683SOL    HW119508   0.958   4.215   4.643 -3.3850  0.5213 -0.5276
 2683SOL    HW219509   0.902   4.281   4.519  0.6919 -1.2868 -0.3714
 2684SOL     OW19510   4.442   3.949   9.080 -0.1201  0.6910  0.2096
 2684SOL    HW119511   4.513   4.012   9.100  0.1635  0.9930 -1.7734
 2684SOL    HW219512   4.455   3.898   9.160 -0.9411 -0.0171 -0.1219
 2685SOL     OW19513   0.410   3.976  10.441  0.1215 -0.0577 -0.6380
 2685SOL    HW119514   0.446   3.909  10.383 -0.3790 -0.5203 -0.4134
 2685SOL    HW219515   0.489   4.013  10.480 -1.0465  0.4111  1.3270
 2686SOL     OW19516   3.899   0.176  16.429  0.2387  0.2352  0.1593
 2686SOL    HW119517   3.826   0.147  16.374  0.1615  1.6290 -0.4824
 2686SOL    HW219518   3.914   0.267  16.403 -1.6498  0.0685 -1.4824
 2687SOL     OW19519   2.330   3.220   2.347 -0.3845  0.4332  0.2534
 2687SOL    HW119520   2.312   3.304   2.303 -2.2685 -0.4437 -0.6203
 2687SOL    HW219521   2.424   3.211   2.332 -0.4930  0.4730 -0.4876
 2688SOL     OW19522   2.802   3.581   9.478 -0.0457 -0.2480 -0.6912
 2688SOL    HW119523   2.710   3.589   9.502  0.2232 -2.9108  1.1749
 2688SOL    HW219524   2.794   3.573   9.383 -1.8408 -2.2557 -0.3706
 2689SOL     OW19525   0.683   2.714   3.759 -0.0144  0.0491  0.0394
 2689SOL    HW119526   0.665   2.774   3.686  2.2844 -1.9524 -2.1944
 2689SOL    HW219527   0.750   2.768   3.802 -0.2410  0.2960  0.0822
 2690SOL     OW19528   0.678   3.307   7.369  0.5196  0.7146 -0.2288
 2690SOL    HW119529   0.676   3.362   7.448  0.7007  1.3123 -0.6361
 2690SOL    HW219530   0.739   3.236   7.390  0.8846  1.2289  0.4771
 2691SOL     OW19531   1.272   3.903   8.899  0.0792  0.4035  0.4848
 2691SOL    HW119532   1.256   3.968   8.831  1.5564 -0.0090 -0.2665
 2691SOL    HW219533   1.238   3.953   8.974 -2.2594  0.4951 -0.6416
 2692SOL     OW19534   0.426   4.280   4.836  0.2023 -0.1776  0.4839
 2692SOL    HW119535   0.415   4.375   4.836 -0.2611 -0.2230  2.1678
 2692SOL    HW219536   0.397   4.264   4.747  0.8875 -0.5103  0.3183
 2693SOL     OW19537   3.072   3.523   8.795 -0.2178 -0.0821  0.8422
 2693SOL    HW119538   2.994   3.573   8.818  0.6340  0.9349  1.5508
 2693SOL    HW219539   3.057   3.495   8.705 -1.2634  1.8855  0.3970
 2694SOL     OW19540   1.653   2.374  16.614 -0.3015  0.5373  0.2635
 2694SOL    HW119541   1.566   2.343  16.638 -1.0350  2.4921  0.1490
 2694SOL    HW219542   1.678   2.412  16.698 -0.6098 -0.5271  0.8444
 2695SOL     OW19543   4.116   4.497  13.007 -0.1800 -0.4256 -0.1766
 2695SOL    HW119544   4.077   4.424  13.055  0.1477 -1.1249 -0.9669
 2695SOL    HW219545   4.167   4.447  12.943 -0.9983 -0.3211 -0.9127
 2696SOL     OW19546   3.283   3.845  10.397  0.1958 -0.0502  0.2251
 2696SOL    HW119547   3.196   3.817  10.371  0.1823  0.3656 -0.1899
 2696SOL    HW219548   3.311   3.907  10.329 -0.0535  0.9052  0.9976
 2697SOL     OW19549   2.728   2.045   8.076 -0.2448  0.3615  0.0210
 2697SOL    HW119550   2.760   1.955   8.071  0.8517  0.8846 -2.2811
 2697SOL    HW219551   2.686   2.043   8.162 -0.4543  0.7232 -0.0708
 2698SOL     OW19552   0.268   3.766  16.467  0.3787 -0.2524  0.0074
 2698SOL    HW119553   0.349   3.775  16.417 -0.3210  0.2230 -1.0324
 2698SOL    HW219554   0.259   3.854  16.504  1.0006 -0.2688  0.1893
 2699SOL     OW19555   3.773   0.094  11.711  0.8075 -0.4669  0.3002
 2699SOL    HW119556   3.735   0.014  11.677  1.6424 -0.9098  0.3985
 2699SOL    HW219557   3.691   0.128  11.747  0.7994 -0.4009  0.2183
 2700SOL     OW19558   2.854   0.738   6.498  0.2021  0.0670  0.3907
 2700SOL    HW119559   2.769   0.709   6.464  0.5155  1.2898 -1.4295
 2700SOL    HW219560   2.834   0.830   6.516  2.5294  0.6403  0.0878
 2701SOL     OW19561   0.862   3.043  17.634 -0.1263  0.2396 -0.4375
 2701SOL    HW119562   0.834   3.089   0.014 -3.7310  0.1736 -1.6821
 2701SOL    HW219563   0.953   3.020  17.653  0.0788  1.1391 -0.3359
 2702SOL     OW19564   2.880   3.620   9.075  0.2174  0.3615  0.6398
 2702SOL    HW119565   2.849   3.620   8.984 -2.1441 -0.8163  1.4414
 2702SOL    HW219566   2.801   3.592   9.121 -0.0801 -3.6216 -2.3047
 2703SOL     OW19567   3.661   1.627   7.442  0.2185 -0.4067  0.0635
 2703SOL    HW119568   3.645   1.579   7.523 -0.6998  0.1330  0.2014
 2703SOL    HW219569   3.572   1.645   7.414 -0.5813 -1.8201  1.6945
 2704SOL     OW19570   4.321   4.278   2.135 -0.1433  0.6694 -0.1442
 2704SOL    HW119571   4.367   4.356   2.165  1.1684 -0.2616  0.3050
 2704SOL    HW219572   4.286   4.299   2.049 -0.2268  2.1983  0.2606
 2705SOL     OW19573   2.158   4.286  15.237 -0.5507 -0.0589 -0.7497
 2705SOL    HW119574   2.127   4.257  15.152  1.8375  0.0139 -1.6376
 2705SOL    HW219575   2.183   4.200  15.271  1.0716  0.8838  0.5046
 2706SOL     OW19576   4.506   2.593  15.127 -0.1088 -0.0964  0.2136
 2706SOL    HW119577   4.523   2.651  15.053  0.7628 -0.2597  0.2801
 2706SOL    HW219578   4.597   2.575  15.152 -0.2426 -0.0062  0.7704
 2707SOL     OW19579   2.799   1.793   8.230  0.4786  0.6019 -0.1961
 2707SOL    HW119580   2.797   1.698   8.223  1.5400  0.5975 -0.4321
 2707SOL    HW219581   2.716   1.801   8.277  1.7128  0.2552  1.9817
 2708SOL     OW19582   0.076   3.166   7.772 -0.6455  0.1461  0.3448
 2708SOL    HW119583   0.072   3.078   7.734 -1.9699 -0.2097  1.3033
 2708SOL    HW219584   4.712   3.180   7.807 -0.8692  0.3137 -0.2868
 2709SOL     OW19585   0.522   4.264  11.331 -0.1062  0.2078  0.2846
 2709SOL    HW119586   0.477   4.263  11.416 -0.7805  2.1867 -0.0517
 2709SOL    HW219587   0.614   4.262  11.359 -0.3723 -1.2339  1.0339
 2710SOL     OW19588   2.594   3.055   6.720 -0.5687  0.3356  0.2848
 2710SOL    HW119589   2.529   3.002   6.765  1.3722 -0.3125  2.2829
 2710SOL    HW219590   2.547   3.109   6.656  0.4777  1.5722  0.5611
 2711SOL     OW19591   0.046   0.667  11.953 -0.0114 -0.7228 -0.5059
 2711SOL    HW119592   0.133   0.665  11.913 -0.2440 -0.1411 -1.0435
 2711SOL    HW219593   0.022   0.575  11.942 -0.8195 -0.5121 -0.5199
 2712SOL     OW19594   4.239   1.152   1.701 -0.3158  0.2740  0.1950
 2712SOL    HW119595   4.234   1.088   1.631 -0.4561  1.0669 -0.5128
 2712SOL    HW219596   4.317   1.202   1.680 -0.3393 -0.6288 -2.0392
 2713SOL     OW19597   1.890   2.903   3.884 -0.8497  0.1187 -0.2022
 2713SOL    HW119598   1.895   2.819   3.928  1.0712  0.6131  0.5083
 2713SOL    HW219599   1.925   2.961   3.952  2.5251 -2.0669 -0.0594
 2714SOL     OW19600   0.802   0.916   7.263 -1.0068  0.0998  0.3373
 2714SOL    HW119601   0.785   0.965   7.343  2.0934 -0.5083  1.3487
 2714SOL    HW219602   0.828   0.827   7.286 -0.2235  0.0483 -0.7143
 2715SOL     OW19603   2.378   0.643   9.991  0.1229  0.0524 -0.3693
 2715SOL    HW119604   2.458   0.637  10.044 -0.7056 -1.2589  0.7179
 2715SOL    HW219605   2.314   0.650  10.062 -1.1812  0.4675 -1.5850
 2716SOL     OW19606   1.859   3.617  10.086  0.5093 -0.3780 -0.4610
 2716SOL    HW119607   1.936   3.665  10.118 -0.7449  1.9480 -0.9955
 2716SOL    HW219608   1.915   3.586  10.015  1.6044  0.1236  0.1810
 2717SOL     OW19609   4.003   0.001   3.955 -0.2256 -0.1016 -0.3409
 2717SOL    HW119610   3.914   4.712   3.986 -0.3243  3.7000  0.9524
 2717SOL    HW219611   4.050   4.712   4.037  0.8838  0.7119 -0.8282
 2718SOL     OW19612   2.305   2.937   4.424 -0.0204  0.0040 -0.5127
 2718SOL    HW119613   2.388   2.920   4.379  0.3575  0.3529  0.0568
 2718SOL    HW219614   2.240   2.883   4.378  0.8834 -2.2280  0.8624
 2719SOL     OW19615   3.373   4.469   4.123 -0.4351  0.0202 -0.3537
 2719SOL    HW119616   3.381   4.527   4.199  3.5992 -1.2037  0.1461
 2719SOL    HW219617   3.463   4.442   4.105 -0.2322 -1.1176  2.3580
 2720SOL     OW19618   4.188   1.666   3.126  0.2928  0.5502 -0.2096
 2720SOL    HW119619   4.100   1.682   3.092 -0.4014 -1.6737  0.5952
 2720SOL    HW219620   4.228   1.751   3.105  0.7660  0.7101  1.3308
 2721SOL     OW19621   4.129   2.872  16.302  0.0160  0.3430 -0.7055
 2721SOL    HW119622   4.109   2.808  16.369 -0.8744 -1.2013 -2.4419
 2721SOL    HW219623   4.200   2.928  16.332  0.3970 -1.4103  1.5986
 2722SOL     OW19624   2.346   4.127   0.979  0.2181 -0.1272  0.3076
 2722SOL    HW119625   2.378   4.046   1.017 -1.0220 -0.7102  0.1026
 2722SOL    HW219626   2.426   4.165   0.942 -1.5678 -0.4261 -3.8003
 2723SOL     OW19627   0.708   4.510   5.351  0.2913 -0.3398 -0.4815
 2723SOL    HW119628   0.733   4.527   5.260  0.7792  0.6645 -0.1644
 2723SOL    HW219629   0.664   4.426   5.347  1.1922 -0.9485  2.5103
 2724SOL     OW19630   1.066   1.135   2.324  0.1498  0.4688 -0.1700
 2724SOL    HW119631   0.996   1.147   2.260  0.7954  1.0245 -0.7757
 2724SOL    HW219632   1.054   1.223   2.360  1.7370 -0.3839  2.3967
 2725SOL     OW19633   2.949   0.041  11.447  0.7895 -0.2459 -0.2806
 2725SOL    HW119634   2.935   0.007  11.358  2.3054  2.0806 -1.4047
 2725SOL    HW219635   2.956   4.676  11.480  1.5048 -0.6206 -1.4312
 2726SOL     OW19636   0.820   2.862  10.598 -0.3221 -0.6348 -0.2916
 2726SOL    HW119637   0.818   2.853  10.503  1.0104 -1.0811 -0.2881
 2726SOL    HW219638   0.850   2.780  10.638  2.3077  1.1548  1.4421
 2727SOL     OW19639   0.587   0.814  11.302 -0.2089  0.0967  0.1687
 2727SOL    HW119640   0.498   0.795  11.275 -1.2366  3.9591  0.8117
 2727SOL    HW219641   0.572   0.880  11.371  0.3303  1.2619 -0.8301
 2728SOL     OW19642   4.135   1.862  13.161 -0.4356 -0.4178 -0.5748
 2728SOL    HW119643   4.100   1.802  13.096 -1.7952 -0.5537  0.2589
 2728SOL    HW219644   4.201   1.912  13.114 -1.4883 -1.4175 -3.1072
 2729SOL     OW19645   0.204   2.282   5.781 -0.4539  0.5695  0.6886
 2729SOL    HW119646   0.194   2.310   5.690  0.8744  2.1168  1.0199
 2729SOL    HW219647   0.134   2.222   5.809  0.3630 -0.9923 -0.6067
 2730SOL     OW19648   3.689   0.569   5.313 -0.1990  0.0055  0.9034
 2730SOL    HW119649   3.676   0.572   5.218  2.2915  1.4914  0.5832
 2730SOL    HW219650   3.700   0.476   5.331 -2.7181 -0.2429  1.0946
 2731SOL     OW19651   0.332   2.608   8.142  0.0866 -0.6860 -0.1645
 2731SOL    HW119652   0.334   2.519   8.176  3.6049 -0.8120 -0.6671
 2731SOL    HW219653   0.415   2.644   8.175 -0.4844  0.9409 -0.4608
 2732SOL     OW19654   1.894   2.454   0.507 -0.6839  0.1311  0.1121
 2732SOL    HW119655   1.829   2.413   0.449 -0.2143  0.1397 -0.4204
 2732SOL    HW219656   1.842   2.478   0.584 -0.7704  1.4178 -0.3470
 2733SOL     OW19657   3.170   0.757  13.161  0.0060 -0.2863  0.5411
 2733SOL    HW119658   3.158   0.681  13.217  0.0311 -2.0883 -1.9172
 2733SOL    HW219659   3.183   0.720  13.074 -1.0516  0.5862  0.0131
 2734SOL     OW19660   0.868   0.544  16.361 -0.0552 -0.5087 -0.0403
 2734SOL    HW119661   0.876   0.619  16.421  0.6755 -1.0467  0.5228
 2734SOL    HW219662   0.840   0.470  16.415  4.4051 -2.1427 -0.0533
 2735SOL     OW19663   1.094   1.289  15.475 -0.0227  0.2816  0.5799
 2735SOL    HW119664   1.045   1.310  15.555  2.6322  2.0803  1.7074
 2735SOL    HW219665   1.026   1.300  15.408  1.3456  1.5141 -0.5898
 2736SOL     OW19666   4.556   1.289   3.803  0.0410 -0.1920  0.5947
 2736SOL    HW119667   4.479   1.331   3.764 -0.5260 -0.8198  1.0512
 2736SOL    HW219668   4.620   1.296   3.732  0.2188  0.3217  0.8030
 2737SOL     OW19669   1.968   3.166   4.446 -0.4316 -0.4763 -0.5241
 2737SOL    HW119670   1.877   3.171   4.475 -0.5361 -1.3633 -0.7035
 2737SOL    HW219671   1.962   3.089   4.389  1.1337 -1.1984  0.3081
 2738SOL     OW19672   3.499   2.792   8.388 -0.1061  0.4158  0.1632
 2738SOL    HW119673   3.522   2.741   8.465  2.2269  1.9344  0.4782
 2738SOL    HW219674   3.438   2.745   8.331  2.0806 -1.3376 -0.7338
 2739SOL     OW19675   3.555   1.780   7.211 -0.2275  0.0967 -0.4200
 2739SOL    HW119676   3.499   1.703   7.209 -0.3090  0.1529 -0.2739
 2739SOL    HW219677   3.553   1.805   7.303 -0.5594  1.3695 -0.7704
 2740SOL     OW19678   0.760   3.867   9.674  0.1543 -0.1022  0.2016
 2740SOL    HW119679   0.762   3.834   9.584 -2.8107  1.1988 -0.3097
 2740SOL    HW219680   0.719   3.952   9.663 -1.2334 -0.7702  0.3065
 2741SOL     OW19681   0.111   1.015   7.386 -0.7046  0.1760  0.2092
 2741SOL    HW119682   0.097   1.002   7.480 -0.2261 -0.0739  0.2485
 2741SOL    HW219683   0.193   1.064   7.391  0.1215 -1.3396  1.5233
 2742SOL     OW19684   0.411   0.747   0.817 -0.4093  0.2911  0.0402
 2742SOL    HW119685   0.402   0.811   0.746 -1.2091 -0.4469 -0.5204
 2742SOL    HW219686   0.421   0.806   0.892  0.5655 -0.5829  0.5946
 2743SOL     OW19687   0.712   0.681   4.294 -0.1332  0.0290 -0.0568
 2743SOL    HW119688   0.804   0.663   4.316 -1.2557 -3.8647  1.3642
 2743SOL    HW219689   0.670   0.697   4.378 -1.3198 -0.8010 -0.5043
 2744SOL     OW19690   1.441   2.778  11.567 -0.6566 -0.0660  0.5727
 2744SOL    HW119691   1.426   2.687  11.592 -0.3152 -0.5541 -0.9894
 2744SOL    HW219692   1.353   2.815  11.571 -0.0095  1.5254  0.0828
 2745SOL     OW19693   2.113   1.009   1.080 -0.4905 -0.1534  0.2413
 2745SOL    HW119694   2.103   0.926   1.033  0.1928  0.4147 -0.9042
 2745SOL    HW219695   2.129   1.075   1.013 -0.6923  1.2457  1.5855
 2746SOL     OW19696   3.385   4.169   5.367  0.9187 -0.4837  0.2285
 2746SOL    HW119697   3.372   4.264   5.373 -0.5725 -0.7082  0.6327
 2746SOL    HW219698   3.447   4.169   5.294 -0.4520  1.4452 -0.9364
 2747SOL     OW19699   4.454   1.919   5.333 -0.0383 -0.0783  0.8128
 2747SOL    HW119700   4.385   1.970   5.377 -0.3278  0.6635 -0.5092
 2747SOL    HW219701   4.477   1.978   5.261 -1.8378 -0.3489  0.0007
 2748SOL     OW19702   3.649   2.548  12.842 -0.5800  0.1814  0.4934
 2748SOL    HW119703   3.623   2.637  12.819 -0.0583  0.5191  1.2159
 2748SOL    HW219704   3.736   2.576  12.870 -1.3065  2.0125  0.9213
 2749SOL     OW19705   3.767   3.672   5.062  0.5037 -0.0164 -0.0159
 2749SOL    HW119706   3.779   3.733   4.989 -0.7262 -0.5111 -0.6356
 2749SOL    HW219707   3.683   3.638   5.032  0.7837 -0.9720  0.2740
 2750SOL     OW19708   3.647   3.669  14.089  0.0059  0.0863 -0.2319
 2750SOL    HW119709   3.714   3.729  14.055  1.6643 -1.6073  0.0152
 2750SOL    HW219710   3.647   3.610  14.014  0.6662 -1.8780  1.3083
 2751SOL     OW19711   0.336   1.657   6.309  0.0692  0.5662  0.8599
 2751SOL    HW119712   0.363   1.614   6.228  2.0936 -1.4623  2.6341
 2751SOL    HW219713   0.372   1.745   6.305  2.4865 -0.4096  1.4859
 2752SOL     OW19714   0.128   4.331  12.522  0.3774 -0.0761 -0.1703
 2752SOL    HW119715   0.070   4.256  12.509 -1.3022  0.9316  1.5391
 2752SOL    HW219716   0.079   4.381  12.457  0.1223 -0.8058 -0.5452
 2753SOL     OW19717   0.956   2.570   5.704 -0.1553  0.1281 -0.1541
 2753SOL    HW119718   0.935   2.633   5.774 -2.9691 -1.5320  0.4892
 2753SOL    HW219719   0.950   2.623   5.624  1.3591  0.3829 -0.1044
 2754SOL     OW19720   0.943   4.658   6.610  0.6317  0.2366 -0.2968
 2754SOL    HW119721   0.881   4.590   6.586 -0.7544  1.9746 -1.6435
 2754SOL    HW219722   0.964   4.629   6.699 -0.4838 -0.8485 -0.3833
 2755SOL     OW19723   4.641   2.695  13.768 -0.3699  0.5547  0.2118
 2755SOL    HW119724   4.650   2.695  13.864  1.3057  1.3476  0.0571
 2755SOL    HW219725   4.673   2.783  13.747  0.6490  0.0333 -0.4136
 2756SOL     OW19726   4.048   2.038   7.272  0.0850 -0.0026 -0.1813
 2756SOL    HW119727   3.991   1.975   7.228 -0.1382  0.9642 -1.2780
 2756SOL    HW219728   4.017   2.121   7.236  1.4381  0.3647 -0.4922
 2757SOL     OW19729   0.582   0.575  12.075  1.0885 -0.5218 -0.5324
 2757SOL    HW119730   0.584   0.637  12.149  0.0750 -1.4014  0.2247
 2757SOL    HW219731   0.604   0.493  12.121  1.8192 -0.0551 -0.0474
 2758SOL     OW19732   2.148   1.087   3.237 -0.0126  0.3078 -0.1390
 2758SOL    HW119733   2.117   1.039   3.160 -0.5165 -0.2199  0.3832
 2758SOL    HW219734   2.185   1.157   3.184  1.9703  0.2017  1.0937
 2759SOL     OW19735   3.388   3.559   3.736 -0.2509 -0.1116 -0.3591
 2759SOL    HW119736   3.361   3.473   3.706  0.0328  0.1016 -1.2286
 2759SOL    HW219737   3.427   3.528   3.818 -0.4840  0.1888 -0.1296
 2760SOL     OW19738   4.609   2.983   4.962  0.0953 -0.2372 -0.2162
 2760SOL    HW119739   4.579   2.947   5.046 -1.7603  1.4945 -0.1249
 2760SOL    HW219740   4.675   3.044   4.996 -1.0102  1.0091 -0.2856
 2761SOL     OW19741   0.852   1.725   8.747 -0.3140 -0.2012  0.3180
 2761SOL    HW119742   0.823   1.710   8.657  2.1315 -0.7238 -0.3822
 2761SOL    HW219743   0.781   1.690   8.801 -0.5241  0.9654  0.8084
 2762SOL     OW19744   0.756   3.536   2.738 -0.3482 -0.0111 -0.3920
 2762SOL    HW119745   0.846   3.521   2.766 -0.9075 -0.1030  1.3476
 2762SOL    HW219746   0.710   3.540   2.822 -1.0499  0.7355 -0.8057
 2763SOL     OW19747   2.462   1.723   9.597 -0.2429  0.0429  0.8320
 2763SOL    HW119748   2.455   1.727   9.501 -0.1280  1.9887  0.8897
 2763SOL    HW219749   2.387   1.675   9.631 -0.0143 -1.4195 -0.7506
 2764SOL     OW19750   1.453   2.831  15.916 -0.1798 -0.1775  0.1004
 2764SOL    HW119751   1.529   2.868  15.962  0.3797 -0.4416 -0.6197
 2764SOL    HW219752   1.425   2.759  15.973 -1.2059  1.0806  1.2192
 2765SOL     OW19753   0.700   1.206   9.508 -0.0610 -0.0167  0.0970
 2765SOL    HW119754   0.754   1.127   9.507 -1.8242 -1.2292 -1.7547
 2765SOL    HW219755   0.751   1.278   9.471  0.6455 -1.0523 -0.9586
 2766SOL     OW19756   0.484   0.899  10.935  0.2337  0.2572 -0.0129
 2766SOL    HW119757   0.509   0.807  10.944 -0.4688  0.0631 -0.0178
 2766SOL    HW219758   0.557   0.951  10.968 -0.2410  0.6265  0.4479
 2767SOL     OW19759   0.260   2.678   6.688 -1.2184 -0.7008 -0.2535
 2767SOL    HW119760   0.216   2.592   6.689 -1.2976 -0.6567  0.0790
 2767SOL    HW219761   0.203   2.722   6.751 -0.7704 -0.5395  0.0400
 2768SOL     OW19762   0.665   2.191   8.849  0.1242 -0.2134  0.1402
 2768SOL    HW119763   0.629   2.273   8.883 -1.9892 -1.2775  0.4720
 2768SOL    HW219764   0.722   2.169   8.923 -2.2698  0.1310  2.0936
 2769SOL     OW19765   0.450   1.015   2.389  0.1782 -0.0824 -0.2560
 2769SOL    HW119766   0.453   1.108   2.370  0.3869  0.1381  0.8433
 2769SOL    HW219767   0.402   0.993   2.309 -0.6220 -2.8466  0.9645
 2770SOL     OW19768   3.994   3.296   4.744 -0.0993  0.4855  0.0889
 2770SOL    HW119769   3.998   3.379   4.791 -1.1686  0.0826  0.8978
 2770SOL    HW219770   4.080   3.259   4.765  0.6108  1.4410 -1.1624
 2771SOL     OW19771   2.256   1.829   5.825 -0.3327 -0.4438  0.1661
 2771SOL    HW119772   2.216   1.744   5.805 -0.8980 -0.2487  0.4666
 2771SOL    HW219773   2.200   1.852   5.899  1.0667  0.8690  0.8090
 2772SOL     OW19774   1.928   0.089   3.242  0.4168  0.4868 -0.0714
 2772SOL    HW119775   1.962   0.121   3.159 -0.3611  0.6364 -0.3304
 2772SOL    HW219776   1.834   0.082   3.225  0.3700  0.5778  0.1579
 2773SOL     OW19777   3.574   0.352   7.459  0.4380 -0.2124  0.5483
 2773SOL    HW119778   3.608   0.442   7.456  2.3520 -0.9498 -0.1809
 2773SOL    HW219779   3.538   0.336   7.372  1.1137  1.6651 -0.0774
 2774SOL     OW19780   3.561   0.122   5.201  0.6835  0.1108  0.0324
 2774SOL    HW119781   3.599   0.167   5.276 -0.9546  1.9698 -0.2479
 2774SOL    HW219782   3.469   0.121   5.227  1.1769 -0.0372  1.7459
 2775SOL     OW19783   1.906   4.367  17.698  0.3421  0.1625 -0.1685
 2775SOL    HW119784   1.926   4.435   0.064 -0.0083 -0.2242  0.3489
 2775SOL    HW219785   1.986   4.314  17.698  1.0696  1.2740 -0.8177
 2776SOL     OW19786   4.305   2.463   3.970 -0.2606 -0.4286  0.0238
 2776SOL    HW119787   4.346   2.546   3.947  0.6180 -0.3054  2.0234
 2776SOL    HW219788   4.367   2.390   3.976 -1.1796 -1.5569 -4.5493
 2777SOL     OW19789   3.263   3.508   4.213 -0.2831  0.0648 -0.5738
 2777SOL    HW119790   3.298   3.589   4.251 -0.3814  0.3989 -1.1934
 2777SOL    HW219791   3.312   3.441   4.261  0.3198  1.4798  0.8052
 2778SOL     OW19792   2.754   3.628   6.138  0.4144  0.2804  0.3236
 2778SOL    HW119793   2.814   3.628   6.063  0.2246 -2.1175  0.1667
 2778SOL    HW219794   2.716   3.715   6.125  2.4749  1.1767  0.1855
 2779SOL     OW19795   0.606   4.485   7.926 -0.1561  0.0853  0.2145
 2779SOL    HW119796   0.592   4.469   7.832  0.1460  0.7656  0.0549
 2779SOL    HW219797   0.687   4.437   7.944 -0.4772 -0.0837  1.1588
 2780SOL     OW19798   4.145   2.748   7.316  0.1243 -0.2001 -0.0052
 2780SOL    HW119799   4.081   2.768   7.384 -0.1341  0.6700 -0.5097
 2780SOL    HW219800   4.091   2.712   7.245  0.2172 -1.2717  0.4673
 2781SOL     OW19801   2.870   3.985  10.751 -0.5722 -0.4863 -0.3148
 2781SOL    HW119802   2.883   3.893  10.771 -1.0749 -0.1174  1.6328
 2781SOL    HW219803   2.788   3.999  10.797  0.2080 -1.1627  1.2725
 2782SOL     OW19804   1.047   2.044   4.179  0.0191  0.4282  0.4442
 2782SOL    HW119805   0.954   2.021   4.186 -0.2098  1.1759 -0.1554
 2782SOL    HW219806   1.062   2.125   4.227  0.6915  1.5701 -1.6960
 2783SOL     OW19807   2.580   1.934  14.821  0.6780 -0.2197 -0.3889
 2783SOL    HW119808   2.520   1.959  14.892 -0.2912  0.2391 -1.3805
 2783SOL    HW219809   2.538   1.982  14.750  0.8227 -1.1494 -1.0967
 2784SOL     OW19810   1.544   4.562  14.373 -0.0043 -0.0672 -0.2462
 2784SOL    HW119811   1.466   4.617  14.382 -1.2161 -1.9080  0.2694
 2784SOL    HW219812   1.612   4.630  14.368 -1.4286  1.3117 -0.7407
 2785SOL     OW19813   3.341   1.933   0.872  0.3503 -0.4371  0.0638
 2785SOL    HW119814   3.435   1.921   0.858  0.3628 -0.8131  0.4476
 2785SOL    HW219815   3.339   2.016   0.920  1.0987 -2.0714  2.9484
 2786SOL     OW19816   2.587   2.830   3.772  0.1149 -0.2150  0.1173
 2786SOL    HW119817   2.563   2.737   3.775  0.4564 -0.3129 -0.1383
 2786SOL    HW219818   2.556   2.868   3.854  1.0297 -0.1276  0.4222
 2787SOL     OW19819   1.038   4.643   0.911 -0.6541 -0.2673 -0.8061
 2787SOL    HW119820   1.107   4.608   0.967  1.1251  2.2418 -1.3925
 2787SOL    HW219821   1.026   4.572   0.849 -0.4198 -0.7637 -0.2820
 2788SOL     OW19822   0.565   4.429  10.694 -0.1866 -0.2225  0.0942
 2788SOL    HW119823   0.652   4.430  10.655  0.1054  2.7636  0.8278
 2788SOL    HW219824   0.590   4.360  10.755  0.0003 -0.5737 -0.3792
 2789SOL     OW19825   4.206   0.052   1.915  0.3976  0.0143  0.3275
 2789SOL    HW119826   4.201   0.039   2.009 -2.6967  1.0983  0.3154
 2789SOL    HW219827   4.185   0.145   1.924  1.4788  0.3103 -0.2507
 2790SOL     OW19828   2.980   4.279   4.401  0.2286 -0.2162  0.3970
 2790SOL    HW119829   3.074   4.281   4.416  0.1977  1.9084  0.4304
 2790SOL    HW219830   2.949   4.215   4.466  1.5795 -2.0367 -0.7690
 2791SOL     OW19831   1.177   0.093   9.054 -0.1502 -0.7229 -0.4064
 2791SOL    HW119832   1.263   0.126   9.028 -0.9585  1.1685 -0.6908
 2791SOL    HW219833   1.127   0.175   9.046 -0.3335 -1.0453 -2.4696
 2792SOL     OW19834   4.207   1.031   6.456  0.1774 -0.1358  0.4523
 2792SOL    HW119835   4.280   0.986   6.413 -0.8893 -2.2931  0.8827
 2792SOL    HW219836   4.227   0.998   6.543  0.3668 -1.7661 -0.2012
 2793SOL     OW19837   0.024   3.595   9.189 -0.3296  0.5326 -0.5242
 2793SOL    HW119838   0.104   3.642   9.166 -2.1106  3.3346 -1.0469
 2793SOL    HW219839   0.067   3.522   9.234 -0.2914  0.2396 -1.0419
 2794SOL     OW19840   4.642   1.083   7.218 -0.3825  0.0274 -0.5622
 2794SOL    HW119841   4.712   1.061   7.280 -0.9145  0.9858  0.3757
 2794SOL    HW219842   4.657   1.177   7.220 -0.5250  0.0728 -2.1894
 2795SOL     OW19843   1.687   0.526   4.955  0.2634 -0.3534 -0.2145
 2795SOL    HW119844   1.662   0.590   4.889  3.1461  1.7666  0.7394
 2795SOL    HW219845   1.683   0.441   4.911 -1.1516 -0.0214 -0.7403
 2796SOL     OW19846   0.145   3.849   4.317 -0.3017 -0.0565  0.4592
 2796SOL    HW119847   0.064   3.800   4.337  0.4559 -1.6261 -0.2825
 2796SOL    HW219848   0.157   3.817   4.228 -2.8057 -0.4787  0.2535
 2797SOL     OW19849   2.474   3.712   3.940  0.2485 -0.2275 -0.4762
 2797SOL    HW119850   2.391   3.680   3.977  0.8429 -2.2148 -0.8724
 2797SOL    HW219851   2.456   3.723   3.847 -1.2200 -0.8047 -0.2604
 2798SOL     OW19852   0.449   1.081   4.646 -0.0295  0.1637 -0.2443
 2798SOL    HW119853   0.393   1.159   4.652  3.3793  2.7576 -1.9788
 2798SOL    HW219854   0.417   1.029   4.719  2.2324  0.7952  1.2103
 2799SOL     OW19855   2.774   2.336   5.680  0.4371 -0.0317  0.4193
 2799SOL    HW119856   2.810   2.250   5.703  0.1603 -0.4593 -0.7229
 2799SOL    HW219857   2.853   2.379   5.646 -0.2036 -0.1228 -1.2039
 2800SOL     OW19858   1.505   4.315   3.208 -0.1572 -0.0088  0.2785
 2800SOL    HW119859   1.409   4.313   3.219 -0.1817  2.2737  0.4230
 2800SOL    HW219860   1.527   4.264   3.286 -0.3011  1.5678  1.3516
 2801SOL     OW19861   0.349   1.896   3.102  0.0380 -0.4041  0.5163
 2801SOL    HW119862   0.333   1.896   3.008 -0.7979 -0.0617  0.6579
 2801SOL    HW219863   0.443   1.881   3.101  0.2429  1.0146 -0.8130
 2802SOL     OW19864   4.712   2.569   5.054  0.1569 -0.0096 -0.6956
 2802SOL    HW119865   4.711   2.615   4.970 -1.5139 -0.0747 -0.7122
 2802SOL    HW219866   0.033   2.634   5.108  1.8054 -3.3103  1.9204
 2803SOL     OW19867   4.323   3.310   8.068 -0.7496 -0.0395 -0.7454
 2803SOL    HW119868   4.369   3.374   8.014 -0.0696 -0.1070 -0.2403
 2803SOL    HW219869   4.255   3.371   8.097 -1.0541 -0.4310 -0.6384
 2804SOL     OW19870   1.257   4.001   1.995 -0.0660  0.0069 -0.6310
 2804SOL    HW119871   1.297   4.052   2.066 -0.3661 -1.9589  0.9386
 2804SOL    HW219872   1.316   4.022   1.923  1.1221 -0.0361  0.3279
 2805SOL     OW19873   2.463   0.497  16.569  0.3719 -0.7240  0.1907
 2805SOL    HW119874   2.398   0.531  16.631  0.8334  1.5936 -0.5936
 2805SOL    HW219875   2.512   0.441  16.630  0.1930 -0.3625  0.6706
 2806SOL     OW19876   4.047   1.582   9.024 -0.8450 -0.6504 -0.1363
 2806SOL    HW119877   4.104   1.517   8.983  1.3761  0.1637  1.6338
 2806SOL    HW219878   4.112   1.630   9.076 -0.7083 -0.9242 -0.0568
 2807SOL     OW19879   2.410   1.666  13.578  0.1427  0.0199 -0.0632
 2807SOL    HW119880   2.377   1.743  13.624 -2.4708 -0.4133 -1.1856
 2807SOL    HW219881   2.397   1.600  13.647 -1.3085 -0.0752 -0.4116
 2808SOL     OW19882   1.610   0.458  16.765 -0.2502 -0.1932  0.2655
 2808SOL    HW119883   1.611   0.377  16.714 -2.0828 -0.2284  0.2842
 2808SOL    HW219884   1.612   0.523  16.695  1.0099 -0.1923  0.2996
 2809SOL     OW19885   3.234   1.299   8.258  0.4271 -0.0633 -0.3259
 2809SOL    HW119886   3.253   1.213   8.294 -3.4889 -0.3240  1.1298
 2809SOL    HW219887   3.306   1.349   8.297 -0.1837  1.1249 -0.7077
 2810SOL     OW19888   1.312   2.555   5.855  0.1824  0.5257 -0.0252
 2810SOL    HW119889   1.219   2.534   5.849  0.8045 -2.3896  0.3087
 2810SOL    HW219890   1.302   2.650   5.858 -2.3740  0.2377  1.0675
 2811SOL     OW19891   3.528   2.061  12.738 -0.4266 -0.4032 -0.0830
 2811SOL    HW119892   3.445   2.016  12.756 -1.2287  0.9492 -0.4238
 2811SOL    HW219893   3.560   2.107  12.816  2.4863  1.8268 -2.6246
 2812SOL     OW19894   3.024   2.943  17.111  0.3597  0.2219  0.1746
 2812SOL    HW119895   3.111   2.935  17.073  0.3197  1.3333 -0.1571
 2812SOL    HW219896   3.014   2.860  17.157 -2.3993 -0.2967 -1.3939
 2813SOL     OW19897   3.256   3.976   3.222  0.1959 -0.0153  0.0965
 2813SOL    HW119898   3.290   3.959   3.310 -0.7289  2.3212  0.9248
 2813SOL    HW219899   3.338   3.970   3.173 -0.4184 -1.1020 -0.7890
 2814SOL     OW19900   1.996   4.335   7.225  0.5027 -0.6044  0.5328
 2814SOL    HW119901   1.976   4.363   7.314  0.9313  0.2059  0.3785
 2814SOL    HW219902   2.048   4.405   7.184 -0.8103  0.5432  0.8129
 2815SOL     OW19903   2.663   2.264   6.744  0.1321  0.0867 -0.3113
 2815SOL    HW119904   2.599   2.311   6.690  1.4429 -1.2779 -3.0776
 2815SOL    HW219905   2.727   2.247   6.674 -0.5082  0.6764 -1.0486
 2816SOL     OW19906   0.294   0.573   4.658  0.3172 -0.3243  0.0831
 2816SOL    HW119907   0.202   0.551   4.674  0.3817  1.6579  3.1904
 2816SOL    HW219908   0.304   0.577   4.563  3.8651 -3.3482  0.3374
 2817SOL     OW19909   3.399   0.262  17.592 -0.2656 -0.4935  0.2411
 2817SOL    HW119910   3.433   0.184  17.549 -0.6088 -0.1712 -0.6052
 2817SOL    HW219911   3.421   0.252  17.685  0.6694  0.8002  0.1762
 2818SOL     OW19912   1.100   3.961   2.777 -1.0893 -0.1549  0.3207
 2818SOL    HW119913   1.156   3.971   2.700 -0.1719  0.2052  1.0311
 2818SOL    HW219914   1.015   3.943   2.737 -0.3685 -2.8661  0.0404
 2819SOL     OW19915   1.908   1.582   8.528 -0.5814 -0.0972 -0.6054
 2819SOL    HW119916   1.878   1.533   8.452 -1.1494 -0.4237 -0.1715
 2819SOL    HW219917   1.825   1.606   8.569 -0.2406  1.3593 -0.7732
 2820SOL     OW19918   4.445   1.054   6.118  0.5457  1.2035  0.2708
 2820SOL    HW119919   4.525   1.003   6.117  0.0557  0.3836  1.9818
 2820SOL    HW219920   4.387   0.998   6.170 -1.8191  1.5263 -1.9596
 2821SOL     OW19921   0.364   0.312   5.539 -0.0454  0.3301 -0.4986
 2821SOL    HW119922   0.295   0.363   5.496 -0.3334  0.4207  0.0783
 2821SOL    HW219923   0.425   0.368   5.587  0.1719  1.4472 -2.0669
 2822SOL     OW19924   2.838   1.073   5.774  0.5326 -0.5128  0.2825
 2822SOL    HW119925   2.856   1.022   5.695 -0.9425  1.1772 -1.1212
 2822SOL    HW219926   2.823   1.158   5.733  2.8014 -0.3894 -0.2765
 2823SOL     OW19927   0.473   1.981   5.246  0.3659 -0.1725 -0.0715
 2823SOL    HW119928   0.400   1.999   5.187  0.1846  1.9278  0.8039
 2823SOL    HW219929   0.422   1.987   5.328  2.5084 -0.6268  1.2882
 2824SOL     OW19930   2.967   3.204   8.825 -0.2612 -0.1376  0.3488
 2824SOL    HW119931   3.016   3.122   8.813  3.5733  1.8041  2.5815
 2824SOL    HW219932   3.032   3.255   8.873  1.1525 -1.3474 -0.2400
 2825SOL     OW19933   0.962   3.165   2.964  0.0409  0.2045 -0.5702
 2825SOL    HW119934   0.877   3.121   2.965  0.5874 -0.7720  2.5941
 2825SOL    HW219935   1.017   3.099   2.923  3.1908  2.8688 -0.6366
 2826SOL     OW19936   2.053   4.307   4.360 -0.2068  0.1174  0.1304
 2826SOL    HW119937   1.991   4.241   4.392 -1.3750  0.4692 -1.4158
 2826SOL    HW219938   2.055   4.270   4.272  2.4269 -0.5917  0.4985
 2827SOL     OW19939   1.292   4.313   0.676  0.2886  0.3364 -0.2265
 2827SOL    HW119940   1.291   4.403   0.708  0.0474  0.0260  0.6643
 2827SOL    HW219941   1.343   4.320   0.596  0.1324 -0.6130 -0.4059
 2828SOL     OW19942   1.923   1.488   7.045 -0.1146  0.4271  0.8659
 2828SOL    HW119943   1.945   1.441   7.126 -2.1836 -1.2234  0.4661
 2828SOL    HW219944   1.956   1.573   7.074 -0.3996  0.2089  1.8323
 2829SOL     OW19945   4.283   3.175   9.114  0.5264 -0.6104 -0.5204
 2829SOL    HW119946   4.219   3.115   9.074 -1.1532 -0.2320  1.5573
 2829SOL    HW219947   4.277   3.155   9.207  1.4648 -1.8850 -0.7313
 2830SOL     OW19948   2.592   4.603  16.884  0.0579 -0.2010 -0.3749
 2830SOL    HW119949   2.519   4.652  16.920  0.1645  0.0899 -0.5519
 2830SOL    HW219950   2.570   4.512  16.903 -0.4214  0.0339  0.1899
 2831SOL     OW19951   3.336   3.430  13.478 -0.3121 -0.2773 -0.7965
 2831SOL    HW119952   3.292   3.380  13.547  0.4344  0.8871  0.5229
 2831SOL    HW219953   3.374   3.501  13.530 -1.5729 -0.2836  0.1360
 2832SOL     OW19954   4.019   2.273   9.536 -0.0587  0.5679 -0.1846
 2832SOL    HW119955   4.043   2.272   9.443 -1.2524  1.3415 -0.5100
 2832SOL    HW219956   4.102   2.246   9.574 -0.6546 -2.0371 -0.7665
 2833SOL     OW19957   1.329   4.411  15.513 -0.6456 -0.3240  0.3704
 2833SOL    HW119958   1.274   4.471  15.462  0.5846  0.3496 -0.1716
 2833SOL    HW219959   1.270   4.336  15.511  1.6738 -2.1412  0.5250
 2834SOL     OW19960   2.657   3.447  16.045 -0.0128 -0.2090  0.1047
 2834SOL    HW119961   2.679   3.498  15.967 -1.8007  0.8208  0.2725
 2834SOL    HW219962   2.589   3.390  16.011  0.7056 -0.9007 -0.1766
 2835SOL     OW19963   0.196   0.347   7.564  0.4588 -0.1190 -0.0385
 2835SOL    HW119964   0.190   0.443   7.567 -1.9749 -0.3105  1.6743
 2835SOL    HW219965   0.273   0.348   7.507  0.3180  2.2880 -0.2052
 2836SOL     OW19966   3.914   2.815  13.733 -0.3124  0.2714 -0.0892
 2836SOL    HW119967   3.908   2.724  13.706 -0.0908  0.3601 -0.4336
 2836SOL    HW219968   3.946   2.845  13.648  0.8224 -1.2090 -0.1739
 2837SOL     OW19969   1.986   3.163   7.674  0.3451  0.4532  0.1726
 2837SOL    HW119970   2.035   3.165   7.592 -0.0777 -1.2693 -0.1022
 2837SOL    HW219971   1.994   3.070   7.694  1.3125  0.2867 -1.0052
 2838SOL     OW19972   4.062   4.017   4.299  0.4894 -0.2411 -0.3737
 2838SOL    HW119973   3.994   3.952   4.314 -0.0391  0.8576  1.9623
 2838SOL    HW219974   4.118   3.969   4.238 -0.2751 -1.1904 -0.3144
 2839SOL     OW19975   0.565   1.208   7.896  0.0463  0.0306  0.2676
 2839SOL    HW119976   0.500   1.145   7.927  0.3940 -0.4339  0.0526
 2839SOL    HW219977   0.580   1.249   7.981 -1.4538 -0.2084  0.6397
 2840SOL     OW19978   2.206   3.669   1.396 -0.3943  0.1851  0.2331
 2840SOL    HW119979   2.128   3.616   1.413  1.2820 -1.9362  1.3086
 2840SOL    HW219980   2.231   3.639   1.309 -2.0506  0.5584 -0.3781
 2841SOL     OW19981   0.978   2.849  13.363  0.0239 -0.1163  0.2508
 2841SOL    HW119982   1.030   2.916  13.318 -0.3872  0.2000  0.2452
 2841SOL    HW219983   0.900   2.845  13.307  0.0931 -0.1394  0.1569
 2842SOL     OW19984   4.652   0.143   8.828  0.0640 -0.0570  0.0705
 2842SOL    HW119985   4.625   0.134   8.737  1.4598  1.5099 -0.4844
 2842SOL    HW219986   4.661   0.051   8.852 -0.9207 -0.0164  0.5978
 2843SOL     OW19987   0.007   0.227   2.872  0.1775  0.1008 -0.3571
 2843SOL    HW119988   0.020   0.280   2.793 -2.7816 -1.4112 -1.8727
 2843SOL    HW219989   4.664   0.280   2.914  0.5991 -0.7390  1.3804
 2844SOL     OW19990   4.174   2.161   6.490  0.5500 -0.1423  0.0027
 2844SOL    HW119991   4.108   2.110   6.537  0.3484  1.2216  1.2037
 2844SOL    HW219992   4.258   2.138   6.530  2.5954  2.2177 -2.9129
 2845SOL     OW19993   3.860   3.935   3.175  0.1476 -0.1249 -0.3282
 2845SOL    HW119994   3.833   3.869   3.240  0.8141  0.7727  0.8736
 2845SOL    HW219995   3.850   3.891   3.091 -0.0284  1.1571 -0.9713
 2846SOL     OW19996   1.707   1.887   4.895  0.5150  0.1484 -0.0032
 2846SOL    HW119997   1.708   1.979   4.922 -0.6482  0.2871 -0.4437
 2846SOL    HW219998   1.642   1.858   4.960 -2.7075  1.6297 -2.5864
 2847SOL     OW19999   1.721   2.642   8.974 -0.2016 -0.0915  0.2888
 2847SOL    HW120000   1.651   2.677   9.030 -0.8906  0.6225 -1.0038
 2847SOL    HW220001   1.703   2.692   8.894 -0.6826 -2.5520 -1.1403
 2848SOL     OW20002   4.315   4.517   7.137  0.4977 -0.3987 -0.4498
 2848SOL    HW120003   4.290   4.529   7.229 -0.8114 -0.6200 -0.7763
 2848SOL    HW220004   4.235   4.483   7.097 -0.5869  0.1444  1.2526
 2849SOL     OW20005   0.911   0.851   2.612 -0.0381 -0.2181 -0.1518
 2849SOL    HW120006   0.840   0.826   2.554  1.3460 -1.8979 -1.1030
 2849SOL    HW220007   0.970   0.899   2.554  0.9065  0.4888  1.3616
 2850SOL     OW20008   2.690   0.463   7.505 -0.4182 -0.0429  0.3328
 2850SOL    HW120009   2.661   0.388   7.556 -0.7186 -0.2454 -0.1333
 2850SOL    HW220010   2.742   0.514   7.567 -1.0748  0.0980  0.7643
 2851SOL     OW20011   0.669   3.209   9.947  0.4833 -0.3230  0.1168
 2851SOL    HW120012   0.655   3.301   9.927  1.5290 -0.1980 -0.0394
 2851SOL    HW220013   0.654   3.185   9.856 -0.8674 -0.5683  0.4119
 2852SOL     OW20014   1.571   4.457   7.403 -0.1939 -0.2724 -0.8056
 2852SOL    HW120015   1.554   4.467   7.497  0.9003  2.4215 -0.9110
 2852SOL    HW220016   1.585   4.362   7.399 -0.1553 -0.2368 -1.4267
 2853SOL     OW20017   4.195   2.613  10.657  0.1245 -0.2221  0.6372
 2853SOL    HW120018   4.168   2.660  10.579  1.1085  3.2810  2.3911
 2853SOL    HW220019   4.278   2.654  10.680  0.5208 -0.1654 -0.9696
 2854SOL     OW20020   1.366   0.001   2.663  0.1816  0.9979 -0.1198
 2854SOL    HW120021   1.311   4.662   2.710  2.0227  0.4281  1.2382
 2854SOL    HW220022   1.448   4.702   2.706 -1.3328 -0.7705  1.7935
 2855SOL     OW20023   4.148   1.187   9.189  0.3736  0.0316 -0.3597
 2855SOL    HW120024   4.121   1.146   9.107  1.6345  1.2862 -1.4068
 2855SOL    HW220025   4.076   1.249   9.206  2.0293  1.0909  2.8948
 2856SOL     OW20026   3.045   1.878   4.298 -0.4897  0.0559  0.0640
 2856SOL    HW120027   2.971   1.938   4.290  0.4381  1.2673  0.6274
 2856SOL    HW220028   3.003   1.794   4.317  1.1688 -0.4336  1.4725
 2857SOL     OW20029   0.500   2.082   8.115  0.8670  0.1958 -0.1255
 2857SOL    HW120030   0.588   2.042   8.118  0.4553 -0.7286 -0.2711
 2857SOL    HW220031   0.509   2.132   8.033  0.1107  1.5889  0.6554
 2858SOL     OW20032   2.434   1.677   8.377  0.4638 -0.9347 -0.3350
 2858SOL    HW120033   2.460   1.642   8.292  1.1822 -0.2977 -0.3832
 2858SOL    HW220034   2.353   1.631   8.398 -0.1372  0.5110  0.5518
 2859SOL     OW20035   2.454   3.825   0.388 -0.1387  0.3962 -0.1679
 2859SOL    HW120036   2.457   3.812   0.293  0.4287  1.1759 -0.2631
 2859SOL    HW220037   2.448   3.921   0.395 -2.9839  0.2097 -0.0400
 2860SOL     OW20038   0.554   2.934   4.031  0.3672  0.4733  0.2491
 2860SOL    HW120039   0.625   2.998   4.041 -0.1812  0.7658  2.2768
 2860SOL    HW220040   0.523   2.949   3.942 -0.5339  1.4515  0.7208
 2861SOL     OW20041   3.148   1.783   4.774  0.3230  0.1893  0.0267
 2861SOL    HW120042   3.175   1.753   4.687  0.3929  1.8233 -0.5121
 2861SOL    HW220043   3.146   1.876   4.754 -0.3130 -0.2650 -2.0840
 2862SOL     OW20044   1.382   3.802   6.637 -0.7693  0.3507 -0.5229
 2862SOL    HW120045   1.387   3.891   6.601 -0.5261 -0.3260 -2.1418
 2862SOL    HW220046   1.459   3.803   6.694 -0.5341 -0.0325 -0.8434
 2863SOL     OW20047   3.417   3.128   5.455  0.1685  0.0455  0.0907
 2863SOL    HW120048   3.337   3.092   5.494  1.4379 -0.0345  2.6520
 2863SOL    HW220049   3.373   3.210   5.432 -0.0761 -0.7167 -2.1173
 2864SOL     OW20050   2.672   4.710  10.343 -0.3311 -0.3302  0.3776
 2864SOL    HW120051   2.739   0.048  10.313 -0.2666 -0.3641  0.4521
 2864SOL    HW220052   2.674   4.649  10.270  0.5701  0.0122  0.1171
 2865SOL     OW20053   0.857   3.248  13.191  0.1767 -0.1252  0.6451
 2865SOL    HW120054   0.766   3.254  13.218 -0.9549 -0.8651 -3.0119
 2865SOL    HW220055   0.851   3.171  13.135  1.7475 -0.2068  0.5809
 2866SOL     OW20056   1.601   1.922   6.346  0.4183  0.0360  0.0164
 2866SOL    HW120057   1.682   1.931   6.397  0.9190  1.7404 -1.0549
 2866SOL    HW220058   1.616   1.967   6.263 -0.6063 -0.8037 -0.6216
 2867SOL     OW20059   1.837   3.737   3.367  0.0155 -0.2730 -0.1611
 2867SOL    HW120060   1.861   3.829   3.365  0.4859 -0.3675  1.0918
 2867SOL    HW220061   1.855   3.733   3.461 -0.3739  0.6568 -0.0542
 2868SOL     OW20062   0.136   0.793   9.739  0.4215 -0.0800 -0.1185
 2868SOL    HW120063   0.193   0.728   9.781  0.3764  0.3853  0.6566
 2868SOL    HW220064   0.136   0.861   9.806  1.0101  0.4246 -0.6285
 2869SOL     OW20065   2.757   3.196  17.196 -0.3372  0.0154  0.4155
 2869SOL    HW120066   2.778   3.110  17.231 -5.2365 -2.2000 -2.0031
 2869SOL    HW220067   2.675   3.183  17.148 -0.7467  0.4300  1.0020
 2870SOL     OW20068   4.662   2.098  10.518  0.1898  0.3990  0.0727
 2870SOL    HW120069   0.018   2.067  10.476  0.7366  1.4721  0.3259
 2870SOL    HW220070   4.587   2.065  10.468  0.4208  1.3510 -0.8765
 2871SOL     OW20071   3.756   1.115  17.271 -0.4191  0.0425  0.1284
 2871SOL    HW120072   3.812   1.057  17.220 -1.5260 -1.1845  0.3186
 2871SOL    HW220073   3.813   1.193  17.273  1.4453 -1.3745  1.7552
 2872SOL     OW20074   1.141   1.561   6.963 -0.2507 -0.0586 -0.0082
 2872SOL    HW120075   1.049   1.581   6.980 -0.2256 -0.5747  0.7423
 2872SOL    HW220076   1.146   1.472   6.926 -2.0375  0.3393 -1.1887
 2873SOL     OW20077   0.276   1.840   4.142 -0.6809 -0.3638  0.3897
 2873SOL    HW120078   0.245   1.815   4.229  1.0903 -0.5766  0.9693
 2873SOL    HW220079   0.262   1.934   4.151  0.7154 -0.1659  0.4688
 2874SOL     OW20080   1.100   0.834  10.041 -0.0436 -0.0735 -0.4284
 2874SOL    HW120081   1.128   0.752  10.081 -1.0343 -0.9477 -1.5342
 2874SOL    HW220082   1.098   0.811   9.948  0.7070 -2.1957  0.0911
 2875SOL     OW20083   0.604   0.798   6.574 -0.0706 -0.5136 -0.3702
 2875SOL    HW120084   0.513   0.812   6.600  0.1693 -1.4703  1.0070
 2875SOL    HW220085   0.647   0.821   6.656 -1.4722  0.6050  0.0395
 2876SOL     OW20086   4.187   3.849   7.885  0.9789 -0.5816  0.1214
 2876SOL    HW120087   4.151   3.762   7.899 -2.2071  0.4401 -1.5886
 2876SOL    HW220088   4.124   3.890   7.825  1.8712  0.7725  0.0970
 2877SOL     OW20089   0.339   3.359  11.132 -0.2767  0.1297  0.0772
 2877SOL    HW120090   0.375   3.271  11.131  0.6076  0.4893 -0.7176
 2877SOL    HW220091   0.303   3.371  11.044  0.3114  1.9403  0.0751
 2878SOL     OW20092   1.414   1.954   5.611 -0.4166  0.1917  0.2755
 2878SOL    HW120093   1.455   2.038   5.589  0.5070 -0.1549  0.6518
 2878SOL    HW220094   1.338   1.986   5.659 -1.7418 -0.0987 -1.6224
 2879SOL     OW20095   3.441   4.261   6.275 -0.1206  0.0596 -0.3528
 2879SOL    HW120096   3.451   4.293   6.365 -0.9192 -1.0251  0.1129
 2879SOL    HW220097   3.468   4.344   6.236  2.6969  0.2722  2.0073
 2880SOL     OW20098   3.686   2.503   8.374  0.3775  0.5550 -0.6470
 2880SOL    HW120099   3.776   2.479   8.354  0.0670 -0.2822 -1.0376
 2880SOL    HW220100   3.695   2.511   8.469 -1.5644  0.1212 -0.4329
 2881SOL     OW20101   0.651   2.582   6.447 -0.2075 -0.2071 -1.0251
 2881SOL    HW120102   0.625   2.533   6.525 -1.1751  0.5690 -0.8629
 2881SOL    HW220103   0.735   2.539   6.429  1.2100  2.4128 -0.6246
 2882SOL     OW20104   1.675   1.435   5.893  0.4084  0.0389  0.1947
 2882SOL    HW120105   1.678   1.529   5.909  1.0971  0.0785 -0.1871
 2882SOL    HW220106   1.715   1.397   5.971 -1.3391 -0.7003  0.7415
 2883SOL     OW20107   1.799   4.429   5.595  0.5115 -0.0257  0.9155
 2883SOL    HW120108   1.714   4.460   5.627  0.0844  0.3216 -0.5581
 2883SOL    HW220109   1.833   4.380   5.670 -1.8164 -1.7133  0.8603
 2884SOL     OW20110   2.568   0.885  11.055 -0.3480  0.3033 -0.2212
 2884SOL    HW120111   2.563   0.844  11.142 -0.9100  1.0411  0.0949
 2884SOL    HW220112   2.606   0.815  11.002  1.8722  2.3601 -1.3264
 2885SOL     OW20113   1.779   1.753  12.285  1.0502 -0.0483 -0.1205
 2885SOL    HW120114   1.789   1.818  12.215 -0.4351 -1.5187 -1.6905
 2885SOL    HW220115   1.746   1.675  12.241  0.3575 -0.4765  1.1678
 2886SOL     OW20116   3.331   3.145   1.043  0.0875  0.7995  0.4668
 2886SOL    HW120117   3.265   3.143   1.112 -0.9247  0.0758 -0.5256
 2886SOL    HW220118   3.285   3.145   0.959  1.9296 -1.0073 -0.5478
 2887SOL     OW20119   0.965   3.383   9.605 -0.1953  0.4045  0.2836
 2887SOL    HW120120   0.918   3.302   9.623  0.0666  0.2179  0.1095
 2887SOL    HW220121   1.021   3.363   9.531 -0.3451  1.8702 -0.2387
 2888SOL     OW20122   3.204   0.718   8.093  0.1896 -0.0774 -0.0810
 2888SOL    HW120123   3.199   0.705   7.999  2.6079 -0.1135 -0.1992
 2888SOL    HW220124   3.279   0.778   8.100  0.7235 -0.9335  1.5743
 2889SOL     OW20125   3.646   2.012   3.793  0.2809  0.6666 -0.8515
 2889SOL    HW120126   3.716   2.077   3.804  0.9948  0.0018 -1.4742
 2889SOL    HW220127   3.637   1.983   3.884  0.7852  0.9030 -0.7262
 2890SOL     OW20128   0.197   4.401   2.600  0.2576 -0.4505 -0.4065
 2890SOL    HW120129   0.195   4.306   2.592  0.0565 -0.4703 -0.1172
 2890SOL    HW220130   0.288   4.416   2.625 -0.2137  2.3090 -0.3574
 2891SOL     OW20131   2.283   4.197  16.245  0.1203 -0.2335  0.4959
 2891SOL    HW120132   2.296   4.158  16.159  0.9038  1.1209  0.0151
 2891SOL    HW220133   2.275   4.116  16.296  0.4118 -0.2684  0.4896
 2892SOL     OW20134   2.644   2.857   7.350 -0.1608  0.0197  0.0284
 2892SOL    HW120135   2.600   2.934   7.313  1.2728 -0.0152 -1.7584
 2892SOL    HW220136   2.710   2.889   7.412 -0.5389  0.7878  0.0389
 2893SOL     OW20137   3.861   0.464  10.069  0.4440 -0.2970  0.0971
 2893SOL    HW120138   3.902   0.433  10.149  1.5323  3.8127  1.1072
 2893SOL    HW220139   3.827   0.549  10.097 -2.6902 -2.1044  1.7532
 2894SOL     OW20140   1.622   0.958   0.699  0.2137  0.0643 -0.2021
 2894SOL    HW120141   1.693   0.896   0.683  0.4849  0.0374  1.0481
 2894SOL    HW220142   1.668   1.022   0.753 -0.7183 -1.2314  2.1262
 2895SOL     OW20143   1.011   4.251   8.546 -0.1362  0.0034 -0.6921
 2895SOL    HW120144   0.917   4.259   8.526 -0.0848  1.3096 -0.4436
 2895SOL    HW220145   1.019   4.339   8.582  1.8991 -0.5826  0.2400
 2896SOL     OW20146   4.468   3.515   7.973 -0.1677 -0.1109 -0.3277
 2896SOL    HW120147   4.494   3.596   8.016 -4.0767  0.0630  1.7444
 2896SOL    HW220148   4.510   3.533   7.889  2.9197  1.1614  1.5186
 2897SOL     OW20149   0.474   4.257   4.120  0.1284  0.0177 -0.4053
 2897SOL    HW120150   0.527   4.333   4.145 -2.5184  1.6800  0.1788
 2897SOL    HW220151   0.402   4.253   4.183 -0.0782 -1.3473 -0.7381
 2898SOL     OW20152   2.169   0.814   4.899  0.0106  0.5096 -0.0081
 2898SOL    HW120153   2.080   0.831   4.931  1.2266 -1.2879  4.3524
 2898SOL    HW220154   2.222   0.890   4.923  0.7179 -0.2100  0.7136
 2899SOL     OW20155   4.305   4.023  11.058  0.1013  0.1494 -0.1443
 2899SOL    HW120156   4.360   4.100  11.046 -0.2683  0.4101 -0.1785
 2899SOL    HW220157   4.322   3.996  11.149  3.2016 -2.9630 -1.6415
 2900SOL     OW20158   2.629   3.211  15.431  0.1731  0.2989 -0.0746
 2900SOL    HW120159   2.565   3.245  15.369 -0.2149  0.3234  0.3390
 2900SOL    HW220160   2.600   3.121  15.443  0.2478  0.0986 -1.4982
 2901SOL     OW20161   4.173   3.172   6.761 -0.1818 -0.1160 -0.6679
 2901SOL    HW120162   4.269   3.176   6.753  0.0094 -1.6285  0.8236
 2901SOL    HW220163   4.154   3.099   6.702  0.4722 -0.2143 -0.7638
 2902SOL     OW20164   1.757   0.449   1.832 -0.2557  0.1066 -0.2389
 2902SOL    HW120165   1.852   0.444   1.843 -0.6678  0.2156  3.1189
 2902SOL    HW220166   1.745   0.358   1.806 -1.4959  0.4948 -1.0504
 2903SOL     OW20167   4.508   1.207  17.046 -0.2268 -0.0422  0.3003
 2903SOL    HW120168   4.432   1.195  16.989 -0.1882 -0.2017  0.2831
 2903SOL    HW220169   4.522   1.299  17.023  0.6596 -0.2072  0.2051
 2904SOL     OW20170   1.951   3.315   7.159  0.2812 -0.1868 -0.2129
 2904SOL    HW120171   1.968   3.404   7.191 -1.9733 -0.1805  1.0031
 2904SOL    HW220172   2.015   3.305   7.089 -1.5632  3.4034 -2.4538
 2905SOL     OW20173   3.686   2.479  13.751 -0.2621  1.1022  0.1114
 2905SOL    HW120174   3.772   2.441  13.767 -1.7667 -2.1262  0.4540
 2905SOL    HW220175   3.671   2.539  13.824  1.1844  0.5038  0.9008
 2906SOL     OW20176   1.133   1.962   3.036 -0.1973 -0.2974 -0.4176
 2906SOL    HW120177   1.162   1.961   3.127 -1.0838 -1.7516 -0.1606
 2906SOL    HW220178   1.052   1.911   3.039 -1.0606  1.0963  0.1237
 2907SOL     OW20179   1.129   2.556  11.448  0.3413  0.3020 -0.9516
 2907SOL    HW120180   1.178   2.552  11.366 -0.5436 -0.8973 -1.4032
 2907SOL    HW220181   1.200   2.544  11.511 -1.6441  0.7498  1.3556
 2908SOL     OW20182   4.322   2.192   3.618  0.0578 -0.2955  0.3177
 2908SOL    HW120183   4.352   2.218   3.531 -2.0895  2.5559  0.4345
 2908SOL    HW220184   4.399   2.214   3.670 -0.9349  3.5534  0.2048
 2909SOL     OW20185   3.626   3.650   3.589 -0.0773 -0.2343 -0.1878
 2909SOL    HW120186   3.538   3.637   3.625  0.0498  1.2875  0.7022
 2909SOL    HW220187   3.654   3.559   3.579 -2.7423 -1.1501  0.7453
 2910SOL     OW20188   2.532   1.864   6.604 -0.2158 -0.3143  0.9290
 2910SOL    HW120189   2.542   1.916   6.684  0.8265  1.7885 -0.5580
 2910SOL    HW220190   2.459   1.913   6.565 -0.4488 -2.5927 -1.4990
 2911SOL     OW20191   3.696   2.498   2.277 -0.6611  0.2917 -0.1370
 2911SOL    HW120192   3.690   2.517   2.371 -0.8484 -3.2563  0.5517
 2911SOL    HW220193   3.736   2.412   2.264  0.8604  1.0369 -0.3085
 2912SOL     OW20194   1.989   4.206  13.747 -0.7672 -0.4102 -0.1217
 2912SOL    HW120195   2.054   4.171  13.809  0.1510 -2.1165 -2.0554
 2912SOL    HW220196   1.919   4.140  13.754  0.7145 -1.9431  0.2532
 2913SOL     OW20197   0.886   0.671   7.392  0.2346  0.3533 -0.0286
 2913SOL    HW120198   0.955   0.624   7.438  1.9876  1.2635 -1.7742
 2913SOL    HW220199   0.833   0.703   7.466  1.3387 -1.0220  1.3457
 2914SOL     OW20200   2.038   1.841  15.018 -0.1625 -0.1243  0.4006
 2914SOL    HW120201   2.008   1.845  15.109 -0.5290  1.0199  0.2371
 2914SOL    HW220202   2.043   1.936  15.007 -0.2398 -0.3256 -1.3892
 2915SOL     OW20203   2.185   1.213   2.072 -0.0551  0.3071 -0.1982
 2915SOL    HW120204   2.201   1.208   2.166 -1.4888  0.3535  0.0484
 2915SOL    HW220205   2.089   1.215   2.077 -0.0426 -0.6957  0.4564
 2916SOL     OW20206   0.277   4.471   9.101  0.4398 -0.1435 -0.1051
 2916SOL    HW120207   0.199   4.416   9.111 -0.9725  2.1297  1.2721
 2916SOL    HW220208   0.284   4.470   9.005  1.9037 -1.8583  0.0233
 2917SOL     OW20209   2.268   0.166   2.175 -0.3599 -0.4241  0.1924
 2917SOL    HW120210   2.254   0.077   2.141  1.8752 -0.9221  0.5514
 2917SOL    HW220211   2.357   0.161   2.210 -0.0622 -0.4957 -0.5715
 2918SOL     OW20212   2.502   3.914   5.150  0.5185  0.4850 -0.0321
 2918SOL    HW120213   2.513   3.979   5.081 -1.4924  0.6769 -0.1679
 2918SOL    HW220214   2.409   3.894   5.143  0.4865 -0.2426  2.4009
 2919SOL     OW20215   1.968   2.581   7.978  0.3431  0.5157 -0.2285
 2919SOL    HW120216   1.917   2.602   8.056 -1.0757  3.7355 -2.0327
 2919SOL    HW220217   2.037   2.646   7.967 -0.0776  0.7596 -1.3966
 2920SOL     OW20218   1.395   4.536   7.225 -0.1809 -0.1875  0.1395
 2920SOL    HW120219   1.444   4.511   7.304  0.7550 -1.2893 -0.7711
 2920SOL    HW220220   1.309   4.513   7.258 -0.2914  1.4461  0.9618
 2921SOL     OW20221   2.503   1.583   7.608 -0.3033  0.2419 -0.3120
 2921SOL    HW120222   2.512   1.647   7.537  0.5224 -0.8341 -1.1714
 2921SOL    HW220223   2.590   1.580   7.648 -0.1649  0.2608 -0.6116
 2922SOL     OW20224   1.888   0.391   6.958 -0.6316  0.4494 -0.0028
 2922SOL    HW120225   1.883   0.471   7.011 -0.8972  1.1166 -1.0321
 2922SOL    HW220226   1.863   0.429   6.874  0.3988 -2.3313 -1.5509
 2923SOL     OW20227   2.075   3.367   5.662 -0.2290  0.1209  0.0190
 2923SOL    HW120228   2.120   3.344   5.744  0.7483 -1.6728 -1.0059
 2923SOL    HW220229   2.085   3.292   5.603  0.2140  0.3456 -0.1964
 2924SOL     OW20230   0.337   4.531  17.621 -0.5928 -0.3432  0.4049
 2924SOL    HW120231   0.410   4.570  17.574 -2.3244  1.0583 -1.1486
 2924SOL    HW220232   0.361   4.551   0.013  0.2205 -1.3735  0.4159
 2925SOL     OW20233   1.989   0.207   6.569  0.0963  0.0521  0.1145
 2925SOL    HW120234   2.017   0.150   6.641 -3.0800 -0.1368  1.1914
 2925SOL    HW220235   2.003   0.149   6.494 -0.9353  0.4101 -0.3492
 2926SOL     OW20236   2.353   0.887   7.004 -0.1847  0.0266  0.1589
 2926SOL    HW120237   2.303   0.807   7.020 -0.5144 -0.1604 -1.7341
 2926SOL    HW220238   2.320   0.944   7.073  2.2853  1.2832  0.2682
 2927SOL     OW20239   3.353   2.591  13.481  0.3679  0.0138  0.4359
 2927SOL    HW120240   3.282   2.528  13.465 -0.0235  0.4917  0.3036
 2927SOL    HW220241   3.306   2.668  13.450 -0.6714 -0.7266  0.1619
 2928SOL     OW20242   2.778   1.810  17.450  0.1658  0.3395  0.2165
 2928SOL    HW120243   2.775   1.885  17.509  0.4994  0.1741  0.4453
 2928SOL    HW220244   2.805   1.854  17.369 -1.8001  0.8583 -0.1559
 2929SOL     OW20245   0.155   3.230  13.454  0.4683 -0.0641 -0.3710
 2929SOL    HW120246   0.079   3.248  13.508  1.3538  0.0259  0.8396
 2929SOL    HW220247   0.224   3.260  13.513  0.5667 -0.8419 -0.0909
 2930SOL     OW20248   2.270   0.118   5.717  0.1569 -0.6509  0.4438
 2930SOL    HW120249   2.257   0.180   5.645 -0.6594  0.5496  1.6276
 2930SOL    HW220250   2.284   0.037   5.668  0.2282  0.0207 -0.6403
 2931SOL     OW20251   3.832   3.646   7.660 -0.2308  0.1390  0.6983
 2931SOL    HW120252   3.842   3.581   7.729  0.1219 -0.6841 -0.1273
 2931SOL    HW220253   3.772   3.600   7.601  1.5375 -0.6426 -0.5008
 2932SOL     OW20254   1.046   1.786   0.613  0.2993 -0.0463  0.1797
 2932SOL    HW120255   1.007   1.824   0.692 -1.8872  1.1451 -1.4978
 2932SOL    HW220256   0.995   1.817   0.539  2.0967  0.0155 -1.0482
 2933SOL     OW20257   0.001   1.975   8.722  0.0641  0.0938 -0.2942
 2933SOL    HW120258   4.697   2.015   8.804  0.8817 -1.1221  0.5810
 2933SOL    HW220259   0.062   1.907   8.750 -0.1320 -0.4389 -1.1476
 2934SOL     OW20260   1.127   1.502   5.855  0.1479  0.2104  0.1323
 2934SOL    HW120261   1.036   1.526   5.871  0.9285  1.3802  2.8091
 2934SOL    HW220262   1.126   1.433   5.789  0.1190  1.4631 -1.1911
 2935SOL     OW20263   3.772   0.578   4.802  0.4293  0.2894 -0.1225
 2935SOL    HW120264   3.844   0.548   4.858 -1.9481 -0.3967  2.5198
 2935SOL    HW220265   3.808   0.563   4.714 -3.1545 -2.1225 -1.1934
 2936SOL     OW20266   3.533   3.137   1.286  0.5825  0.3577 -0.3457
 2936SOL    HW120267   3.547   3.150   1.380  1.7797 -0.1593 -0.4460
 2936SOL    HW220268   3.574   3.052   1.267 -0.6683 -0.4307  0.4588
 2937SOL     OW20269   4.095   4.714   5.501  0.3558  0.4154 -0.4683
 2937SOL    HW120270   4.128   0.009   5.588  2.5263  1.5696 -1.5567
 2937SOL    HW220271   4.007   0.027   5.501 -0.6196 -1.8887 -0.2257
 2938SOL     OW20272   0.531   4.604   4.320 -0.0867 -0.1595 -0.2209
 2938SOL    HW120273   0.441   4.623   4.292 -0.2202 -0.6985 -0.1481
 2938SOL    HW220274   0.527   4.613   4.415  1.8117  3.1968 -0.4579
 2939SOL     OW20275   4.521   0.690   3.709 -0.5123  0.3215  0.8946
 2939SOL    HW120276   4.432   0.715   3.683 -0.3213 -1.3019 -1.3466
 2939SOL    HW220277   4.519   0.719   3.800  0.4092 -0.7476  1.2431
 2940SOL     OW20278   1.406   3.342   9.016  0.5972 -0.0247 -0.2632
 2940SOL    HW120279   1.367   3.321   8.932  1.6480  1.3252 -1.0800
 2940SOL    HW220280   1.446   3.260   9.044  1.4826 -0.1775 -2.0319
 2941SOL     OW20281   2.845   1.988   6.913 -0.2825 -0.0593 -0.1332
 2941SOL    HW120282   2.898   2.059   6.876  0.2292 -0.7000 -0.6445
 2941SOL    HW220283   2.804   2.045   6.978  1.2372 -0.1932  0.9587
 2942SOL     OW20284   0.566   3.115   1.698  0.2475  0.4330 -0.3067
 2942SOL    HW120285   0.611   3.126   1.781  0.4995  0.3518 -0.4315
 2942SOL    HW220286   0.624   3.158   1.635  0.2189 -0.1914 -0.7630
 2943SOL     OW20287   2.756   4.255   6.818 -0.3664 -0.1851 -0.8616
 2943SOL    HW120288   2.771   4.337   6.770  0.0639 -0.4362 -1.1535
 2943SOL    HW220289   2.721   4.297   6.897  1.0525  2.4115 -1.6193
 2944SOL     OW20290   1.534   1.483  11.428 -0.2347  0.6097 -0.3486
 2944SOL    HW120291   1.518   1.465  11.335 -1.2773 -1.4416  0.2289
 2944SOL    HW220292   1.524   1.578  11.431 -0.4541  0.5766 -0.0786
 2945SOL     OW20293   0.302   3.526  16.653  0.4383 -0.1144  0.9435
 2945SOL    HW120294   0.208   3.511  16.642  0.7311 -1.3685  0.1693
 2945SOL    HW220295   0.317   3.605  16.601 -1.2371 -1.0868 -1.0368
 2946SOL     OW20296   4.021   3.088  10.048 -0.3239  0.5985  0.8292
 2946SOL    HW120297   3.986   3.043   9.971  0.7876 -1.4071  1.5267
 2946SOL    HW220298   4.114   3.072  10.032 -0.8188  1.6277 -3.1408
 2947SOL     OW20299   4.057   4.356  15.584 -0.0019 -0.4888 -0.3161
 2947SOL    HW120300   4.101   4.436  15.556  0.0128  0.4159  2.3736
 2947SOL    HW220301   4.004   4.332  15.508 -2.7768  0.2238  1.3951
 2948SOL     OW20302   0.028   4.460   3.346 -0.4042 -0.0289 -0.1601
 2948SOL    HW120303   0.068   4.380   3.378  0.9383  0.9498  0.6247
 2948SOL    HW220304   4.657   4.446   3.350 -0.1777 -1.4913 -0.2666
 2949SOL     OW20305   2.545   2.118   2.422 -0.7133 -0.1163  0.1459
 2949SOL    HW120306   2.586   2.079   2.345 -0.9064  0.0241 -0.0256
 2949SOL    HW220307   2.482   2.179   2.385 -1.5369 -1.0587 -0.0246
 2950SOL     OW20308   4.308   3.629   8.529  0.5140  0.4768  0.1705
 2950SOL    HW120309   4.259   3.663   8.604  0.9273  2.0201 -0.2638
 2950SOL    HW220310   4.371   3.569   8.567 -0.9843 -1.5626 -0.5912
 2951SOL     OW20311   1.858   2.028  15.696 -0.6444  1.1565 -0.4094
 2951SOL    HW120312   1.852   2.108  15.749  2.7500  2.4401 -1.9411
 2951SOL    HW220313   1.768   2.001  15.680  0.3873 -1.5003 -1.6904
 2952SOL     OW20314   2.284   2.483  14.925 -0.0513 -0.2998 -0.1487
 2952SOL    HW120315   2.262   2.490  14.832  1.2845 -1.8912 -0.5712
 2952SOL    HW220316   2.342   2.558  14.941  1.6502 -1.5239 -0.6006
 2953SOL     OW20317   0.297   3.615   6.869  0.5571 -0.1494 -0.3220
 2953SOL    HW120318   0.279   3.705   6.894  1.9950 -0.3433  1.3449
 2953SOL    HW220319   0.390   3.601   6.886  0.1654 -0.7051  1.4015
 2954SOL     OW20320   2.399   1.299   4.569  0.1728  0.1797  0.2638
 2954SOL    HW120321   2.414   1.330   4.659  0.4339 -0.3052  0.3897
 2954SOL    HW220322   2.306   1.279   4.576  0.0940  0.3888 -0.1913
 2955SOL     OW20323   4.525   0.233   5.297 -0.5411 -0.1384  0.7669
 2955SOL    HW120324   4.532   0.154   5.243  2.3024  1.2749 -0.9249
 2955SOL    HW220325   4.617   0.250   5.317 -0.1635  0.1342 -1.1631
 2956SOL     OW20326   1.436   3.422   2.166 -0.2374 -0.2430  0.0553
 2956SOL    HW120327   1.506   3.387   2.220 -1.1961 -0.0115  1.4489
 2956SOL    HW220328   1.363   3.437   2.226 -0.0473 -0.2368  0.2813
 2957SOL     OW20329   2.569   3.075   2.219  0.3737  0.5374 -0.0345
 2957SOL    HW120330   2.620   3.043   2.293  0.2291 -4.0027 -1.8911
 2957SOL    HW220331   2.538   2.990   2.187  1.0055  0.0830  0.5917
 2958SOL     OW20332   1.635   3.409   8.231 -0.0223  0.2408 -0.0959
 2958SOL    HW120333   1.641   3.489   8.285 -0.0675  0.6167 -0.6501
 2958SOL    HW220334   1.674   3.338   8.282 -1.0679 -0.7136 -0.6526
 2959SOL     OW20335   4.109   1.839  17.447  0.0858  0.2947  0.3080
 2959SOL    HW120336   4.060   1.891  17.511  1.9794  0.4553  1.6266
 2959SOL    HW220337   4.189   1.825  17.497 -0.3491 -0.4892  0.7742
 2960SOL     OW20338   1.932   2.287  13.630 -0.2093  0.5542 -0.6604
 2960SOL    HW120339   1.950   2.321  13.542 -1.5576  0.7120 -0.8644
 2960SOL    HW220340   1.837   2.283  13.629 -0.1038 -1.6733 -1.9509
 2961SOL     OW20341   3.316   2.209   6.496 -0.1141 -0.4975 -0.3196
 2961SOL    HW120342   3.311   2.124   6.453  0.9185 -0.7592  0.0777
 2961SOL    HW220343   3.242   2.245   6.448  1.0259  1.5880 -0.4915
 2962SOL     OW20344   1.149   2.220   9.023 -0.1512 -0.5299  0.2560
 2962SOL    HW120345   1.099   2.172   8.957 -0.1689 -1.3197  0.8324
 2962SOL    HW220346   1.146   2.156   9.095 -2.2207 -0.5007  0.1970
 2963SOL     OW20347   2.582   0.361   4.266 -0.5961  0.3884 -0.1297
 2963SOL    HW120348   2.648   0.355   4.197 -1.0185  0.7532 -0.5745
 2963SOL    HW220349   2.532   0.285   4.236 -0.2486 -0.2896  1.0382
 2964SOL     OW20350   0.048   0.554   6.588  0.1457  0.2944 -0.1231
 2964SOL    HW120351   4.681   0.529   6.577  0.0153  1.6772 -2.2051
 2964SOL    HW220352   0.085   0.486   6.531 -0.9477 -0.1840 -0.2683
 2965SOL     OW20353   4.491   1.923   9.805  0.0491 -0.3604 -0.6010
 2965SOL    HW120354   4.478   1.859   9.735 -1.8862 -0.3041 -0.2859
 2965SOL    HW220355   4.510   2.009   9.767  1.7077 -1.4436 -2.2472
 2966SOL     OW20356   3.586   3.898   6.623 -0.0607 -0.1479  0.3644
 2966SOL    HW120357   3.509   3.843   6.611 -0.4361 -0.0625  2.3570
 2966SOL    HW220358   3.602   3.928   6.534 -1.9602 -0.7967 -0.2094
 2967SOL     OW20359   1.452   2.338   5.888  0.1900 -0.3024 -0.1721
 2967SOL    HW120360   1.405   2.421   5.891  2.5805  1.0662 -0.7183
 2967SOL    HW220361   1.412   2.280   5.952 -1.9226 -0.5775 -1.7295
 2968SOL     OW20362   3.565   0.242   3.933  0.0163 -0.3940 -0.4872
 2968SOL    HW120363   3.658   0.226   3.949  0.7725  1.5828 -3.0169
 2968SOL    HW220364   3.561   0.337   3.940 -0.9649 -0.4083 -0.7814
 2969SOL     OW20365   4.613   3.969   6.682 -0.3840  0.4777 -0.4253
 2969SOL    HW120366   4.619   3.907   6.609 -1.7427 -0.0891 -0.0439
 2969SOL    HW220367   4.519   3.968   6.698 -0.9582 -0.7793 -3.7707
 2970SOL     OW20368   4.353   2.653  10.319 -0.2929 -0.0641  0.5046
 2970SOL    HW120369   4.341   2.564  10.353  0.4202 -0.5114 -0.4016
 2970SOL    HW220370   4.427   2.683  10.373  1.4101 -1.9286 -0.7707
 2971SOL     OW20371   4.489   1.859   6.711  0.4834  0.5780 -0.3102
 2971SOL    HW120372   4.407   1.883   6.754  0.7210  1.6348 -0.4453
 2971SOL    HW220373   4.466   1.777   6.667 -0.2238 -0.2169  1.5379
 2972SOL     OW20374   4.117   2.042  16.627 -0.6820 -0.6132 -0.1569
 2972SOL    HW120375   4.165   2.091  16.559  0.0883 -0.2495  0.6495
 2972SOL    HW220376   4.171   2.066  16.702  1.1881 -1.0352 -1.3784
 2973SOL     OW20377   0.833   2.055   9.721  0.6243  0.2570  0.0243
 2973SOL    HW120378   0.747   2.065   9.680  0.0468  0.9217  1.4164
 2973SOL    HW220379   0.813   2.098   9.804 -0.3648  2.2194 -1.2311
 2974SOL     OW20380   4.371   2.302  17.509 -0.0397  0.4591  0.2309
 2974SOL    HW120381   4.292   2.356  17.519 -0.5037 -0.1579 -0.1641
 2974SOL    HW220382   4.436   2.358  17.467 -0.0545  1.6377  1.7621
 2975SOL     OW20383   3.772   1.523  17.694 -0.0539 -0.5794 -0.0540
 2975SOL    HW120384   3.863   1.551  17.689 -0.5620  0.5685 -3.0106
 2975SOL    HW220385   3.779   1.496   0.087 -1.5115  3.3929  1.2558
 2976SOL     OW20386   3.890   3.147   2.349 -0.1104 -0.0336  0.2436
 2976SOL    HW120387   3.868   3.198   2.271 -2.1658 -2.4776 -0.7632
 2976SOL    HW220388   3.953   3.081   2.321 -0.1808  0.9878 -2.3331
 2977SOL     OW20389   0.245   3.818   9.315 -0.2824 -0.9628  0.0950
 2977SOL    HW120390   0.269   3.763   9.390  0.7902  0.8735  1.0777
 2977SOL    HW220391   0.166   3.851   9.358  0.4760 -2.2098  2.4932
 2978SOL     OW20392   3.558   4.374   2.766  0.1073  0.2923 -0.1297
 2978SOL    HW120393   3.579   4.281   2.757 -1.9673 -0.0691 -1.3470
 2978SOL    HW220394   3.606   4.400   2.845  0.2117  0.1690 -0.1540
 2979SOL     OW20395   3.073   2.673   8.017  0.4550  0.0859  0.4513
 2979SOL    HW120396   3.094   2.587   8.055 -0.0772  0.4690  1.6147
 2979SOL    HW220397   3.038   2.642   7.934  0.4279  1.3915 -0.0215
 2980SOL     OW20398   0.935   3.709   9.977 -0.0469  0.0077 -1.1648
 2980SOL    HW120399   0.988   3.748  10.047  0.4705  2.1985 -2.8020
 2980SOL    HW220400   0.897   3.790   9.944 -2.0743 -0.8476 -0.9016
 2981SOL     OW20401   2.636   0.607   8.106  0.6740 -0.6178 -0.5103
 2981SOL    HW120402   2.638   0.673   8.175 -0.8316 -1.1730  0.0552
 2981SOL    HW220403   2.721   0.619   8.062  0.4400  0.0623 -0.7806
 2982SOL     OW20404   1.403   2.973   5.680  0.1622 -0.1051 -0.0500
 2982SOL    HW120405   1.420   3.042   5.745 -1.5939  1.3133 -1.0669
 2982SOL    HW220406   1.309   2.953   5.680 -0.0001  0.6558 -1.2913
 2983SOL     OW20407   2.268   2.900   2.664 -0.6242  0.6559 -0.2518
 2983SOL    HW120408   2.257   2.806   2.678  1.8404  0.4119  0.0233
 2983SOL    HW220409   2.354   2.904   2.705 -0.7774  1.2376  0.0014
 2984SOL     OW20410   2.085   0.731   8.863 -0.4509 -0.0575  0.5071
 2984SOL    HW120411   2.041   0.669   8.804  0.8562 -0.5391  0.0321
 2984SOL    HW220412   2.088   0.672   8.939  0.2467 -0.0795  0.4580
 2985SOL     OW20413   0.105   2.126   7.776  0.0979 -0.8177 -0.3205
 2985SOL    HW120414   0.176   2.174   7.731 -1.4760  2.4333  0.6364
 2985SOL    HW220415   0.150   2.071   7.840  2.2479 -0.1956 -1.2849
 2986SOL     OW20416   0.826   4.132   8.290 -0.2464 -0.5065 -0.1537
 2986SOL    HW120417   0.825   4.225   8.313  2.4390 -0.7246  0.8613
 2986SOL    HW220418   0.746   4.103   8.334 -0.6656 -0.4506 -0.8885
 2987SOL     OW20419   3.944   2.882   8.057  0.9191 -0.8272  0.1399
 2987SOL    HW120420   4.031   2.844   8.073  0.0099 -2.8916  0.2244
 2987SOL    HW220421   3.897   2.813   8.103  0.8873 -1.8967 -1.4787
 2988SOL     OW20422   0.651   3.893  11.894 -0.1565 -0.4914 -0.3331
 2988SOL    HW120423   0.595   3.873  11.819 -1.7291 -1.0703  0.9995
 2988SOL    HW220424   0.627   3.984  11.909 -1.7931 -0.9539 -0.1161
 2989SOL     OW20425   4.667   2.012  17.576  0.1543 -0.0819 -0.7334
 2989SOL    HW120426   0.011   1.967  17.525  1.4906  0.8987  0.1773
 2989SOL    HW220427   4.630   1.937  17.623  0.5700  0.4374  0.4416
 2990SOL     OW20428   2.904   4.610   8.983  0.0224 -0.1078  0.4847
 2990SOL    HW120429   2.886   4.644   8.895  0.9968 -1.0432 -0.0902
 2990SOL    HW220430   2.835   4.544   8.984  0.7851 -0.9435 -0.7598
 2991SOL     OW20431   0.432   3.136   4.536 -0.0251 -0.5207  0.2657
 2991SOL    HW120432   0.392   3.124   4.450 -0.8322 -0.0245  0.5739
 2991SOL    HW220433   0.358   3.167   4.589 -0.2492 -0.6015  0.0009
 2992SOL     OW20434   1.192   0.892   3.140 -0.2178  0.3185  0.1207
 2992SOL    HW120435   1.279   0.858   3.160 -1.1880 -2.1729  0.0961
 2992SOL    HW220436   1.148   0.847   3.213 -0.2533  1.2451  0.6685
 2993SOL     OW20437   4.277   3.736  14.077 -0.0543  0.3177 -0.0392
 2993SOL    HW120438   4.205   3.779  14.032 -1.7821  1.1154  3.5474
 2993SOL    HW220439   4.356   3.771  14.037 -0.8263  0.0141 -1.8260
 2994SOL     OW20440   4.014   2.280   5.838  0.2254 -0.0481  0.4299
 2994SOL    HW120441   3.985   2.285   5.929  0.0217  1.8417  0.2654
 2994SOL    HW220442   4.108   2.294   5.849  0.5305 -0.5994 -1.4157
 2995SOL     OW20443   4.249   1.706   9.142 -0.1998 -0.5169  0.3253
 2995SOL    HW120444   4.325   1.707   9.200  0.5629  0.0876 -0.6914
 2995SOL    HW220445   4.228   1.799   9.141 -1.8446 -0.8765  0.0782
 2996SOL     OW20446   2.013   3.901   0.835  0.0702  0.6901  0.6006
 2996SOL    HW120447   2.091   3.935   0.792  0.2768  1.1257  1.3111
 2996SOL    HW220448   1.965   3.849   0.771  2.3008  2.3363 -2.4042
 2997SOL     OW20449   0.586   0.886   7.051  0.0971  0.1380  0.3193
 2997SOL    HW120450   0.632   0.945   7.111  0.4259 -0.1759  0.3730
 2997SOL    HW220451   0.591   0.797   7.085  1.4109  0.2701  0.4557
 2998SOL     OW20452   1.989   3.118  10.773  0.9083  0.0597  0.7031
 2998SOL    HW120453   2.037   3.036  10.776 -1.5537 -1.3617  1.2787
 2998SOL    HW220454   2.041   3.181  10.823  0.0203  0.3803  1.2349
 2999SOL     OW20455   4.488   1.073   5.221  0.2951  0.5655  0.5995
 2999SOL    HW120456   4.422   1.005   5.208 -0.9665  1.8709  0.2093
 2999SOL    HW220457   4.552   1.042   5.285  1.5873 -1.4860 -1.6757
 3000SOL     OW20458   3.951   1.384   9.204 -0.2112  0.4497 -0.3834
 3000SOL    HW120459   4.005   1.453   9.166 -0.3976  0.2557 -0.9993
 3000SOL    HW220460   3.947   1.430   9.288 -0.4041 -0.8310  0.3101
 3001SOL     OW20461   2.368   2.058   2.703  0.1950 -0.7823 -0.5502
 3001SOL    HW120462   2.435   2.115   2.665 -0.2413 -0.8436 -1.4303
 3001SOL    HW220463   2.295   2.078   2.644 -1.2737  1.1183  1.8937
 3002SOL     OW20464   1.402   0.060   9.456 -0.2215 -0.1455 -0.0181
 3002SOL    HW120465   1.407   4.690   9.442 -0.2111 -0.3623  1.5057
 3002SOL    HW220466   1.309   0.071   9.435 -0.0306 -0.0767 -0.8291
 3003SOL     OW20467   0.611   1.691   2.786 -0.0470 -0.0449  0.1638
 3003SOL    HW120468   0.525   1.649   2.790 -0.5280  0.8973 -0.2884
 3003SOL    HW220469   0.593   1.743   2.708 -2.1415 -0.6743  0.2248
 3004SOL     OW20470   0.482   1.460   4.896  0.2647  0.0228  0.9157
 3004SOL    HW120471   0.387   1.462   4.899  0.0510 -3.4634 -3.7165
 3004SOL    HW220472   0.501   1.469   4.802 -1.8872 -1.6215  0.3291
 3005SOL     OW20473   3.258   2.370   4.590 -0.2622 -0.1885  0.3064
 3005SOL    HW120474   3.247   2.461   4.563 -1.8170 -1.2589 -2.5922
 3005SOL    HW220475   3.176   2.353   4.637  1.2715  1.8111  3.7091
 3006SOL     OW20476   4.087   2.480   3.684  0.1489 -0.2979  0.3061
 3006SOL    HW120477   4.124   2.397   3.655  0.4712 -0.7546  2.0109
 3006SOL    HW220478   4.037   2.456   3.763  1.6725 -0.9504  1.0720
 3007SOL     OW20479   4.146   2.990   8.951  0.0546  0.0714  0.3073
 3007SOL    HW120480   4.126   2.897   8.961  0.1864  0.1279  1.0505
 3007SOL    HW220481   4.122   3.005   8.859 -0.3695 -1.6586  0.1260
 3008SOL     OW20482   4.692   1.685  12.452 -0.5733  0.2064 -0.0410
 3008SOL    HW120483   4.688   1.741  12.530 -0.6689  0.2581 -0.0833
 3008SOL    HW220484   4.687   1.749  12.381 -2.7666  0.0761  0.0112
 3009SOL     OW20485   4.401   2.577   3.071  0.0449  0.0928  0.3493
 3009SOL    HW120486   4.469   2.510   3.071  1.9922  2.0839  0.2090
 3009SOL    HW220487   4.414   2.618   3.156 -0.5506  0.6988  0.1491
 3010SOL     OW20488   4.082   3.134   5.960 -0.6292 -0.3902  0.1356
 3010SOL    HW120489   3.990   3.131   5.933 -1.2554  1.3483  2.0625
 3010SOL    HW220490   4.087   3.048   6.002 -1.2714  0.0567  1.1349
 3011SOL     OW20491   4.540   0.571   4.928  0.8475 -0.2174  0.1749
 3011SOL    HW120492   4.523   0.609   5.014 -0.5754  0.0765 -0.2360
 3011SOL    HW220493   4.484   0.629   4.876  1.7548  0.8589  0.3940
 3012SOL     OW20494   0.195   0.842   6.426  0.3854  0.3452 -0.1239
 3012SOL    HW120495   0.263   0.835   6.492  0.0701 -2.1747 -0.0513
 3012SOL    HW220496   0.119   0.866   6.479  0.8233  1.6538 -0.0940
 3013SOL     OW20497   3.810   1.390  11.233 -0.9583  0.5549 -0.2176
 3013SOL    HW120498   3.797   1.474  11.275  3.5455 -0.6003  3.4736
 3013SOL    HW220499   3.871   1.343  11.289 -0.3867  1.1972 -0.3045
 3014SOL     OW20500   2.903   0.204  15.844  0.0499  0.3300 -0.4396
 3014SOL    HW120501   2.950   0.167  15.769  1.1686 -3.1111  1.9970
 3014SOL    HW220502   2.812   0.176  15.834  1.1476 -3.3398  0.2291
 3015SOL     OW20503   3.944   4.125   2.604 -0.3298  0.2326  0.1877
 3015SOL    HW120504   3.995   4.045   2.618  0.0366  0.5276  0.5458
 3015SOL    HW220505   3.938   4.125   2.509  0.8406 -0.3451  0.1060
 3016SOL     OW20506   3.854   1.882   7.159  0.5474 -0.6457  0.4547
 3016SOL    HW120507   3.767   1.903   7.195  0.5159  1.5432 -0.9011
 3016SOL    HW220508   3.870   1.794   7.194  0.7765 -1.6766 -2.2970
 3017SOL     OW20509   0.969   2.759  14.463  0.0665  0.4212  0.1585
 3017SOL    HW120510   0.902   2.693  14.482 -0.6353  1.4481  1.2482
 3017SOL    HW220511   1.029   2.745  14.537 -0.5775  0.7185  0.7412
 3018SOL     OW20512   4.703   4.124   8.067 -0.2018 -0.6888  0.6660
 3018SOL    HW120513   0.041   4.055   8.045 -0.2431 -0.3073 -0.6816
 3018SOL    HW220514   4.701   4.175   7.986 -1.6362 -1.0873  0.4441
 3019SOL     OW20515   0.569   2.545   0.781 -0.2569 -0.0607  0.1005
 3019SOL    HW120516   0.636   2.537   0.848  1.6410 -0.8390 -1.8989
 3019SOL    HW220517   0.524   2.462   0.802 -0.0366  0.1133  1.2536
 3020SOL     OW20518   0.864   0.848   8.663 -0.0223  0.0969 -0.5799
 3020SOL    HW120519   0.931   0.874   8.727  0.4185  0.8168 -1.3344
 3020SOL    HW220520   0.798   0.916   8.672  0.5241  0.6180 -0.5270
 3021SOL     OW20521   2.774   1.108  13.660 -0.5588 -0.3891 -0.2661
 3021SOL    HW120522   2.717   1.093  13.735 -2.3828 -0.4981 -1.6768
 3021SOL    HW220523   2.756   1.202  13.657  0.3282 -0.1721  1.7875
 3022SOL     OW20524   1.074   4.185  14.807 -0.4335  0.3593  0.2792
 3022SOL    HW120525   1.054   4.149  14.720  0.6908 -3.6861  1.6845
 3022SOL    HW220526   1.121   4.109  14.841 -0.2781  0.5540  0.4960
 3023SOL     OW20527   3.289   0.153   2.073  0.5575 -0.1433 -0.1271
 3023SOL    HW120528   3.378   0.135   2.104  0.3507  0.0101  0.5712
 3023SOL    HW220529   3.237   0.093   2.127 -0.6109 -0.0970 -1.2066
 3024SOL     OW20530   0.625   4.158   8.772 -0.5716  0.1506 -0.1675
 3024SOL    HW120531   0.541   4.113   8.765 -0.4269 -0.2876  0.9376
 3024SOL    HW220532   0.682   4.100   8.822 -0.3209 -2.1045 -3.0746
 3025SOL     OW20533   3.722   3.695   2.015 -0.1824  0.0658 -0.0546
 3025SOL    HW120534   3.674   3.776   2.035  1.3351  1.6738 -3.0058
 3025SOL    HW220535   3.813   3.720   1.998 -0.0709  0.9528  1.8271
 3026SOL     OW20536   4.437   2.114   6.555  0.0214  0.0174 -0.1581
 3026SOL    HW120537   4.480   2.029   6.566 -0.5615 -0.3051 -0.3979
 3026SOL    HW220538   4.478   2.149   6.476  1.9036 -1.4799  0.1514
 3027SOL     OW20539   0.874   0.809  16.498  0.2793  0.0659 -0.2585
 3027SOL    HW120540   0.960   0.848  16.485 -0.6593  1.4946 -2.1566
 3027SOL    HW220541   0.829   0.849  16.423  0.3820 -0.9628 -0.8679
 3028SOL     OW20542   3.428   0.448   6.233 -0.1869  0.0564 -0.3244
 3028SOL    HW120543   3.493   0.442   6.163  0.3972  1.4073  0.1041
 3028SOL    HW220544   3.398   0.539   6.230  1.4512  0.6462  0.8106
 3029SOL     OW20545   0.341   3.500  11.339 -0.7178 -0.6059  0.4371
 3029SOL    HW120546   0.317   3.445  11.265  0.4484 -0.3187 -0.1547
 3029SOL    HW220547   0.402   3.436  11.375  0.3562 -0.7611 -1.6754
 3030SOL     OW20548   1.115   2.399   1.659 -0.2356 -0.3166 -0.5789
 3030SOL    HW120549   1.201   2.356   1.667 -0.3864 -0.8011 -1.5674
 3030SOL    HW220550   1.108   2.429   1.569  0.1644  0.3695 -0.3811
 3031SOL     OW20551   2.433   0.344   7.358 -0.1280  0.1994  0.4113
 3031SOL    HW120552   2.408   0.330   7.449 -2.4100  1.1494 -0.0666
 3031SOL    HW220553   2.474   0.430   7.357 -1.0188  0.6170 -0.1985
 3032SOL     OW20554   0.890   1.501   4.835 -0.4514 -0.3421 -0.4370
 3032SOL    HW120555   0.814   1.525   4.888  0.3518 -0.8165  0.9207
 3032SOL    HW220556   0.888   1.562   4.761  0.3618  0.1389 -0.0659
 3033SOL     OW20557   1.405   4.240  17.519  0.0841 -0.6883  0.2234
 3033SOL    HW120558   1.438   4.162  17.475 -1.6202 -1.2141 -0.1433
 3033SOL    HW220559   1.420   4.307  17.453  1.8604 -0.7363  0.5719
 3034SOL     OW20560   1.950   2.205  10.364 -0.0477  0.7921 -0.2557
 3034SOL    HW120561   1.975   2.296  10.348 -2.1214  1.4198  0.0202
 3034SOL    HW220562   1.973   2.180  10.275  1.0315  1.4092 -0.1452
 3035SOL     OW20563   3.411   2.771   5.291 -0.0115 -0.4609 -0.1682
 3035SOL    HW120564   3.494   2.738   5.256  0.7185  0.8110  0.3466
 3035SOL    HW220565   3.436   2.858   5.322  0.4332  0.2913 -2.6626
 3036SOL     OW20566   1.395   2.025   2.806  0.4698  1.0459 -0.2694
 3036SOL    HW120567   1.341   2.047   2.882 -0.5074 -3.9141  0.5302
 3036SOL    HW220568   1.434   1.944   2.840 -5.3528  0.2939  4.6758
 3037SOL     OW20569   0.560   4.492   8.226  0.2062 -0.5661  0.2348
 3037SOL    HW120570   0.655   4.478   8.227  0.5397  1.8061  1.6634
 3037SOL    HW220571   0.553   4.541   8.307 -2.7200  2.0708 -1.6016
 3038SOL     OW20572   2.765   2.923   6.574 -0.0021 -0.3707 -0.4352
 3038SOL    HW120573   2.704   2.974   6.628 -0.0947  1.0522 -1.8999
 3038SOL    HW220574   2.711   2.915   6.496 -0.5105 -2.5607  0.1357
 3039SOL     OW20575   3.385   3.988   8.489 -0.2083  0.0170 -0.1015
 3039SOL    HW120576   3.316   4.018   8.430 -0.0038 -1.2082 -0.9698
 3039SOL    HW220577   3.424   3.926   8.427 -1.3136 -0.1847 -0.5956
 3040SOL     OW20578   2.931   3.343   7.489 -0.1050  0.3169  0.3096
 3040SOL    HW120579   2.860   3.305   7.541  0.6494 -1.2225  0.2167
 3040SOL    HW220580   2.880   3.362   7.410 -0.0843 -1.0374 -0.0410
 3041SOL     OW20581   3.982   2.655   3.427 -0.1441 -0.1951  0.1792
 3041SOL    HW120582   3.897   2.651   3.384 -0.6944  0.4804  1.2238
 3041SOL    HW220583   3.967   2.611   3.510 -1.7825  3.5632  1.8684
 3042SOL     OW20584   1.258   1.077   3.588 -0.2432 -0.6138  0.1083
 3042SOL    HW120585   1.213   1.147   3.635  1.1211  0.0223  0.4551
 3042SOL    HW220586   1.298   1.128   3.518  0.1452  0.6099  1.2389
 3043SOL     OW20587   1.040   3.667   9.387 -0.3596  0.5691 -0.4048
 3043SOL    HW120588   1.000   3.669   9.300  0.2414 -0.7833 -0.7016
 3043SOL    HW220589   0.961   3.630   9.427  1.1939 -0.2307  1.9150
 3044SOL     OW20590   3.773   1.925  11.038 -0.0498 -0.1471  0.3828
 3044SOL    HW120591   3.694   1.934  10.985 -0.6223 -0.1199  1.2410
 3044SOL    HW220592   3.821   2.006  11.021 -3.0942  1.4538 -0.5652
 3045SOL     OW20593   0.245   2.243  12.916  0.1955 -0.1948  0.1196
 3045SOL    HW120594   0.279   2.167  12.963 -0.2744 -0.8099 -0.5326
 3045SOL    HW220595   0.280   2.311  12.973 -0.4480  0.6151 -0.4469
 3046SOL     OW20596   2.721   0.452  13.396  0.0376  0.1731  0.0253
 3046SOL    HW120597   2.797   0.510  13.396 -1.8209  2.6146  0.4225
 3046SOL    HW220598   2.689   0.462  13.306 -0.8154  3.6030  0.6900
 3047SOL     OW20599   4.178   2.856   3.592  0.6451 -0.7602  0.4800
 3047SOL    HW120600   4.150   2.786   3.652  0.8414 -1.4796 -0.2702
 3047SOL    HW220601   4.129   2.934   3.619  1.6254  0.0135  0.0135
 3048SOL     OW20602   1.558   0.478   5.455 -0.2498 -0.3233 -0.0003
 3048SOL    HW120603   1.486   0.530   5.492  0.4507  0.5759  0.0788
 3048SOL    HW220604   1.529   0.480   5.364 -2.2221 -0.0676  0.6254
 3049SOL     OW20605   0.149   3.220   8.267  0.1708 -0.0117 -0.4103
 3049SOL    HW120606   0.210   3.239   8.196  0.7731 -2.8588 -0.6618
 3049SOL    HW220607   0.085   3.290   8.256  0.4024  0.3524  0.5186
 3050SOL     OW20608   1.872   1.911   6.288 -0.1634  0.5672 -0.2827
 3050SOL    HW120609   1.844   1.971   6.218 -0.2648 -0.3831 -1.0552
 3050SOL    HW220610   1.935   1.972   6.328 -0.6439 -0.8059  2.5717
 3051SOL     OW20611   3.620   4.135  13.676  0.2142  0.7922 -0.2611
 3051SOL    HW120612   3.554   4.149  13.608  1.4619 -1.4354 -1.9157
 3051SOL    HW220613   3.687   4.200  13.656 -2.0275  2.7074 -1.6541
 3052SOL     OW20614   0.826   1.822   7.223  0.2532  0.0967  0.0240
 3052SOL    HW120615   0.846   1.787   7.137  0.7942 -0.6662  0.4606
 3052SOL    HW220616   0.730   1.820   7.223  0.2857 -1.5947  1.0070
 3053SOL     OW20617   3.677   0.600   7.372 -0.1925  0.1551  0.3201
 3053SOL    HW120618   3.636   0.679   7.408 -1.4638 -0.6362  0.5846
 3053SOL    HW220619   3.765   0.612   7.409  0.8238 -0.9036 -1.7538
 3054SOL     OW20620   1.159   0.108   3.808  0.3015 -0.1314  0.0917
 3054SOL    HW120621   1.148   0.042   3.876  0.9105  1.3098  1.5893
 3054SOL    HW220622   1.070   0.144   3.811  0.3116 -0.1244  0.2622
 3055SOL     OW20623   3.456   3.520  14.196 -0.3690 -0.5412 -0.6675
 3055SOL    HW120624   3.523   3.585  14.177 -1.9331  1.2532 -0.0720
 3055SOL    HW220625   3.422   3.555  14.279 -0.7671  2.1792 -1.9785
 3056SOL     OW20626   3.530   1.273  17.207 -0.4225  0.1933  0.0441
 3056SOL    HW120627   3.601   1.220  17.243 -1.3953 -1.3322 -0.3015
 3056SOL    HW220628   3.455   1.263  17.265  1.0114 -2.8246  1.3618
 3057SOL     OW20629   0.368   3.719   5.807 -0.5135 -0.3371  0.1028
 3057SOL    HW120630   0.284   3.714   5.853 -0.2748 -0.5138  0.5236
 3057SOL    HW220631   0.402   3.798   5.851 -1.3962  0.7224 -1.1274
 3058SOL     OW20632   1.091   3.345   8.534 -0.0142 -0.0005 -0.6063
 3058SOL    HW120633   1.077   3.394   8.615 -1.4420  0.6304 -1.2490
 3058SOL    HW220634   1.130   3.415   8.481  0.2556  0.8822  0.7491
 3059SOL     OW20635   1.750   4.027   3.112 -1.3921 -0.0740 -0.0348
 3059SOL    HW120636   1.662   3.995   3.095 -1.2445 -0.0813 -0.7886
 3059SOL    HW220637   1.756   4.008   3.206 -1.0846 -1.0242 -0.2455
 3060SOL     OW20638   3.077   3.173   3.722 -0.6173 -0.0138  0.6983
 3060SOL    HW120639   3.090   3.098   3.663 -2.6835 -0.5641  0.9389
 3060SOL    HW220640   3.010   3.222   3.675 -2.2066 -1.2731  1.6577
 3061SOL     OW20641   4.575   3.989   0.169 -0.0052 -0.3741  0.4138
 3061SOL    HW120642   4.638   3.933   0.213  1.4672  0.7797 -0.2322
 3061SOL    HW220643   4.489   3.962   0.201 -0.1922 -2.1425 -1.5789
 3062SOL     OW20644   4.658   0.698  16.263  0.3306 -0.1408 -0.0275
 3062SOL    HW120645   4.656   0.615  16.214  1.9870 -0.2615  0.1053
 3062SOL    HW220646   0.000   0.672  16.327 -0.6053  0.9540  1.3757
 3063SOL     OW20647   2.511   1.283   5.953  0.1695 -0.0108  0.3586
 3063SOL    HW120648   2.561   1.358   5.919  0.9399 -0.0922  1.3082
 3063SOL    HW220649   2.462   1.262   5.873  2.2122 -0.0713 -0.8803
 3064SOL     OW20650   0.336   0.194   6.890  0.3720  0.4038 -0.0619
 3064SOL    HW120651   0.305   0.126   6.831  0.2481  0.1578  0.2852
 3064SOL    HW220652   0.423   0.221   6.861  0.8294  0.8728  1.7631
 3065SOL     OW20653   0.198   1.844   3.529  0.2310 -0.4066  0.0448
 3065SOL    HW120654   0.267   1.910   3.538 -1.6510  1.5108  0.4225
 3065SOL    HW220655   0.242   1.766   3.562  0.0430 -0.8335 -0.7234
 3066SOL     OW20656   1.506   1.609   6.146  0.3836 -0.7131  0.4714
 3066SOL    HW120657   1.456   1.568   6.076  1.0079 -0.4449 -0.1266
 3066SOL    HW220658   1.592   1.629   6.110  1.2963 -0.0955  3.0170
 3067SOL     OW20659   2.017   0.955   1.629 -0.3193  0.1572 -0.1339
 3067SOL    HW120660   1.924   0.971   1.610 -0.2675 -0.0538 -0.5584
 3067SOL    HW220661   2.066   1.033   1.601  1.9379 -1.0758  0.4396
 3068SOL     OW20662   2.397   2.120   9.017 -0.2239  0.2377  0.3414
 3068SOL    HW120663   2.399   2.194   9.078  2.9249  0.8582 -0.4718
 3068SOL    HW220664   2.443   2.154   8.940 -2.6695  0.5188 -0.9949
 3069SOL     OW20665   0.163   1.681   7.600  0.1671  0.6252  0.6195
 3069SOL    HW120666   0.101   1.667   7.671 -2.4552 -0.5129 -1.8968
 3069SOL    HW220667   0.239   1.712   7.648  1.3543 -0.0628 -0.8124
 3070SOL     OW20668   0.634   2.633   7.203  0.5288  0.6302  0.3902
 3070SOL    HW120669   0.553   2.645   7.153  1.2861 -2.5656 -1.5877
 3070SOL    HW220670   0.679   2.710   7.170  0.4849 -0.8093 -3.0079
 3071SOL     OW20671   2.719   0.267   9.173  0.3641 -0.2281 -0.2919
 3071SOL    HW120672   2.687   0.178   9.186 -0.3210  0.0427 -0.1086
 3071SOL    HW220673   2.643   0.321   9.195  0.6072  0.0207 -0.0629
 3072SOL     OW20674   1.365   2.619   0.716  0.4435  0.0113  0.0520
 3072SOL    HW120675   1.326   2.695   0.758  0.2334  0.5929 -1.1825
 3072SOL    HW220676   1.427   2.674   0.667  0.1865  1.2148  1.0742
 3073SOL     OW20677   3.820   0.084   1.447  0.2083 -0.4537  0.5436
 3073SOL    HW120678   3.823   4.716   1.423 -0.1440  0.0001 -1.2592
 3073SOL    HW220679   3.826   0.129   1.363  1.5179  1.0407  1.4268
 3074SOL     OW20680   1.277   2.974   7.021 -0.1293  0.0742  0.0200
 3074SOL    HW120681   1.310   3.037   6.958 -0.2154  0.2235  0.1229
 3074SOL    HW220682   1.349   2.910   7.028  1.0425  1.4591  0.6294
 3075SOL     OW20683   2.090   3.405  17.267  0.4904 -0.0964  0.1568
 3075SOL    HW120684   2.114   3.485  17.313  0.7192 -0.7091  1.0824
 3075SOL    HW220685   2.099   3.439  17.177 -2.0335 -1.5144 -0.6305
 3076SOL     OW20686   2.749   4.368   5.570  0.0495  0.0938 -0.0335
 3076SOL    HW120687   2.775   4.312   5.497 -2.0304 -1.9391  0.7556
 3076SOL    HW220688   2.732   4.453   5.530 -2.3526 -1.3620 -2.0807
 3077SOL     OW20689   2.929   3.137  15.907  0.7078  0.8343 -0.3707
 3077SOL    HW120690   2.918   3.205  15.840 -2.3822  0.9908  0.2843
 3077SOL    HW220691   2.851   3.148  15.962  0.5550 -1.4642 -0.1366
 3078SOL     OW20692   0.099   1.018   3.759 -0.1700  0.0657  0.2388
 3078SOL    HW120693   0.132   1.107   3.771  1.5752 -0.6435  0.6376
 3078SOL    HW220694   0.151   0.989   3.684 -2.9289  0.5092 -1.8459
 3079SOL     OW20695   0.775   3.986   7.387 -0.6339  0.1674 -0.5172
 3079SOL    HW120696   0.786   4.043   7.311 -0.1076  0.0341 -0.5363
 3079SOL    HW220697   0.711   3.923   7.354  0.3812 -1.2293  0.2169
 3080SOL     OW20698   3.833   3.030   8.895 -0.2988 -0.3637 -0.1249
 3080SOL    HW120699   3.754   3.068   8.857  1.3585  0.7701 -2.4309
 3080SOL    HW220700   3.821   3.061   8.984 -2.3011 -0.5909 -0.3231
 3081SOL     OW20701   1.105   2.425  14.039 -0.1426 -0.0707 -0.4406
 3081SOL    HW120702   1.065   2.489  14.098  1.0986 -1.5420  1.9930
 3081SOL    HW220703   1.034   2.401  13.981 -0.3767 -0.2440 -0.0838
 3082SOL     OW20704   0.808   3.071   8.724  0.3815 -0.3955 -0.4735
 3082SOL    HW120705   0.883   3.111   8.767 -0.9342  1.0964  0.4258
 3082SOL    HW220706   0.844   3.072   8.636 -0.0439 -1.1668 -0.6592
 3083SOL     OW20707   4.606   2.009   8.309 -0.3780 -0.0224 -0.2641
 3083SOL    HW120708   4.691   2.029   8.271 -0.4687 -0.3329 -0.6262
 3083SOL    HW220709   4.554   2.050   8.240 -1.8082 -0.4758  0.5431
 3084SOL     OW20710   2.251   2.057  11.432 -0.4492  0.6077  0.4534
 3084SOL    HW120711   2.213   1.996  11.496  1.3082 -1.5240 -0.5356
 3084SOL    HW220712   2.200   2.137  11.444 -0.1580  1.1058 -1.7806
 3085SOL     OW20713   4.483   1.087  10.686  0.1319  0.0310 -0.2689
 3085SOL    HW120714   4.498   0.999  10.722 -2.1978  0.6485  2.2213
 3085SOL    HW220715   4.447   1.121  10.768 -1.0143 -0.2006 -0.6720
 3086SOL     OW20716   3.298   1.541  14.435 -0.2901 -0.1645  0.0986
 3086SOL    HW120717   3.391   1.552  14.416 -0.5279 -1.7072 -1.9857
 3086SOL    HW220718   3.292   1.546  14.530  1.1325 -0.4685  0.1964
 3087SOL     OW20719   0.102   1.505   8.755  0.2914 -0.1308  0.2807
 3087SOL    HW120720   0.128   1.415   8.777 -0.5341 -0.6874 -1.0038
 3087SOL    HW220721   0.038   1.518   8.825 -0.0219  1.0384 -0.2224
 3088SOL     OW20722   2.466   3.722   4.361 -0.3245  0.4924 -0.2972
 3088SOL    HW120723   2.406   3.791   4.331 -1.2661  0.5883  1.8018
 3088SOL    HW220724   2.407   3.647   4.364  2.0711 -1.3822 -0.6558
 3089SOL     OW20725   0.603   0.641   3.727  0.2224  0.2820  0.1473
 3089SOL    HW120726   0.587   0.733   3.708 -0.8490 -0.1075 -0.8623
 3089SOL    HW220727   0.644   0.651   3.813 -1.2482 -1.0470  1.0098
 3090SOL     OW20728   3.590   3.007   2.760 -0.0271 -0.1202 -0.1653
 3090SOL    HW120729   3.497   3.026   2.755 -0.0361  0.2485  1.1568
 3090SOL    HW220730   3.620   3.028   2.672  0.7936 -0.9456 -0.0866
 3091SOL     OW20731   1.609   2.714   3.463  0.2936  0.0848 -0.4227
 3091SOL    HW120732   1.673   2.684   3.527  0.8939 -1.5580 -1.8086
 3091SOL    HW220733   1.528   2.691   3.508  0.9066 -0.8167  0.2144
 3092SOL     OW20734   2.477   2.459  15.699 -0.5320 -0.0675 -0.0156
 3092SOL    HW120735   2.567   2.445  15.671 -0.8945 -0.8227 -0.7760
 3092SOL    HW220736   2.461   2.384  15.756 -0.5872 -0.0300  0.0190
 3093SOL     OW20737   4.001   0.559  15.522  0.4751 -0.1554  0.2805
 3093SOL    HW120738   4.013   0.618  15.597 -2.1998  0.1300  0.5008
 3093SOL    HW220739   3.962   0.479  15.558  0.9348 -0.3600  0.3212
 3094SOL     OW20740   1.850   1.159  16.559  0.1294 -0.4079 -0.5352
 3094SOL    HW120741   1.852   1.209  16.478  1.3030 -0.8274 -0.7658
 3094SOL    HW220742   1.763   1.122  16.544  1.0131 -2.8690  0.3938
 3095SOL     OW20743   3.768   3.241   1.660  0.6288  0.2805 -0.2210
 3095SOL    HW120744   3.806   3.201   1.738  0.3639  0.8531  0.2095
 3095SOL    HW220745   3.835   3.210   1.599 -1.4183 -1.3600 -1.6331
 3096SOL     OW20746   4.310   3.898   1.498 -0.2515  0.5964 -0.2321
 3096SOL    HW120747   4.343   3.877   1.411  0.8256 -1.3007  0.6440
 3096SOL    HW220748   4.219   3.870   1.485  0.1323  0.3549 -2.3935
 3097SOL     OW20749   0.517   4.086   4.553  0.2433  0.3109 -0.1591
 3097SOL    HW120750   0.481   4.063   4.467 -2.7530  0.5969  1.0445
 3097SOL    HW220751   0.574   4.009   4.563  1.0098  0.7891 -0.8108
 3098SOL     OW20752   4.089   3.337   2.387  0.0834 -0.3571  0.3662
 3098SOL    HW120753   4.070   3.352   2.480 -3.7790 -0.5064 -0.3987
 3098SOL    HW220754   4.031   3.264   2.365 -0.6752  0.4501 -0.3232
 3099SOL     OW20755   1.607   1.786  13.263  0.8388  0.0392 -0.6384
 3099SOL    HW120756   1.698   1.798  13.236  1.0460  0.9663  0.4661
 3099SOL    HW220757   1.610   1.773  13.358  2.0151  0.4960 -0.6156
 3100SOL     OW20758   1.373   3.281   3.762  0.2157  0.3332  0.1573
 3100SOL    HW120759   1.377   3.223   3.686 -0.1204  1.0831 -0.4298
 3100SOL    HW220760   1.278   3.293   3.772 -0.0277 -0.3394 -1.1940
 3101SOL     OW20761   4.029   2.495   0.239 -0.1899 -0.1776  0.4590
 3101SOL    HW120762   4.103   2.472   0.182  0.3892  0.4577  0.9648
 3101SOL    HW220763   4.048   2.492   0.332 -0.9594 -0.5197  0.6044
 3102SOL     OW20764   4.069   3.065   6.400  0.3719  0.4179 -0.0199
 3102SOL    HW120765   4.099   3.155   6.410 -0.1140  0.4476  1.2113
 3102SOL    HW220766   4.004   3.080   6.331 -0.8107 -0.6966  0.8381
 3103SOL     OW20767   4.293   3.111   9.892  0.3502  0.2853 -0.2139
 3103SOL    HW120768   4.371   3.058   9.909 -0.4580 -1.1239 -0.9724
 3103SOL    HW220769   4.334   3.193   9.863 -1.0199  1.0466 -0.0279
 3104SOL     OW20770   2.105   1.082  16.707 -0.1231  0.0255  0.0960
 3104SOL    HW120771   2.153   1.162  16.686  0.0532  0.4386  2.0517
 3104SOL    HW220772   2.033   1.094  16.645 -0.3846  0.2370  0.4411
 3105SOL     OW20773   1.515   3.095  14.651  0.6046 -0.2603 -0.9500
 3105SOL    HW120774   1.571   3.144  14.590  0.1514 -2.0733 -2.8546
 3105SOL    HW220775   1.444   3.084  14.587 -0.4054 -1.6950  0.4209
 3106SOL     OW20776   3.652   1.519   3.767 -0.2920 -0.3571  0.4831
 3106SOL    HW120777   3.628   1.426   3.766 -0.5393 -0.2596 -3.1551
 3106SOL    HW220778   3.704   1.526   3.687 -2.9370  0.4265 -1.1575
 3107SOL     OW20779   1.333   2.130   6.972  0.5288  0.3321  0.6413
 3107SOL    HW120780   1.257   2.150   7.028 -1.1896 -3.2890 -0.4148
 3107SOL    HW220781   1.300   2.069   6.907  2.4408  1.4247 -1.3470
 3108SOL     OW20782   1.048   1.958  15.617 -0.4266  0.2194  0.2071
 3108SOL    HW120783   1.102   1.927  15.689  1.7380  0.1240 -1.4700
 3108SOL    HW220784   1.079   1.907  15.542  0.8201  1.1724  0.0722
 3109SOL     OW20785   3.193   0.535   6.711 -0.3918  0.6485  0.4860
 3109SOL    HW120786   3.138   0.585   6.771 -0.8731  0.4482  0.2072
 3109SOL    HW220787   3.127   0.529   6.643 -1.0956 -1.2334  1.3284
 3110SOL     OW20788   1.214   1.182  10.674 -0.3399  0.3701  0.4969
 3110SOL    HW120789   1.132   1.175  10.625  0.1076 -1.6052  0.0324
 3110SOL    HW220790   1.265   1.121  10.621 -2.2385  0.0633 -0.9796
 3111SOL     OW20791   2.074   0.972   8.743  0.2266  0.0198 -0.1716
 3111SOL    HW120792   2.063   0.889   8.790 -1.2146  0.0759 -0.4364
 3111SOL    HW220793   2.126   1.024   8.805  0.7651 -1.2190  0.4251
 3112SOL     OW20794   1.555   0.094  12.669  0.1513  0.3734 -0.0443
 3112SOL    HW120795   1.598   0.023  12.620  1.0037 -0.3206  1.6876
 3112SOL    HW220796   1.577   0.072  12.760  0.3692 -0.1481 -0.2214
 3113SOL     OW20797   0.251   3.934   4.672  0.0103  0.1279  0.2435
 3113SOL    HW120798   0.304   3.915   4.595  0.1319 -2.4102  0.9518
 3113SOL    HW220799   0.162   3.944   4.638  0.3299 -0.7535 -0.8388
 3114SOL     OW20800   2.860   4.015   4.367  0.6091 -0.3255  0.1659
 3114SOL    HW120801   2.850   3.924   4.394 -1.7338 -0.1096 -0.0137
 3114SOL    HW220802   2.863   4.044   4.458 -0.5182 -0.5848  0.2814
 3115SOL     OW20803   3.396   3.326   5.901 -0.5597  0.0210 -0.3144
 3115SOL    HW120804   3.470   3.328   5.840  1.3954  0.1082  2.0384
 3115SOL    HW220805   3.333   3.267   5.860  1.1186 -1.6350 -0.5164
 3116SOL     OW20806   3.701   2.662  15.586 -0.0107  0.0905 -0.0666
 3116SOL    HW120807   3.795   2.677  15.592 -0.0304  0.1526  0.0893
 3116SOL    HW220808   3.680   2.754  15.571 -3.6538 -0.6666  0.4057
 3117SOL     OW20809   4.506   3.853   3.404  0.2973 -0.2264 -0.8887
 3117SOL    HW120810   4.586   3.878   3.357 -0.3331  2.6896 -0.3493
 3117SOL    HW220811   4.448   3.928   3.408  0.5151 -0.0881 -0.3519
 3118SOL     OW20812   2.698   1.457   4.923  0.3655 -0.1581 -0.3871
 3118SOL    HW120813   2.765   1.448   4.991  1.2754  0.4382 -1.2080
 3118SOL    HW220814   2.651   1.538   4.947  2.2691  0.3313  1.6746
 3119SOL     OW20815   0.682   3.876  12.894  0.2444  0.6333 -0.3602
 3119SOL    HW120816   0.737   3.951  12.872  2.1542 -0.7819 -0.4370
 3119SOL    HW220817   0.641   3.853  12.811  2.8319 -2.0112 -0.9153
 3120SOL     OW20818   2.675   0.001  17.565 -0.3247 -0.1561 -0.0029
 3120SOL    HW120819   2.731   4.655  17.599  0.6980  0.6838  0.0529
 3120SOL    HW220820   2.628   0.028  17.643 -2.3772 -1.2404 -0.8754
 3121SOL     OW20821   1.691   0.182  10.722 -0.1595 -0.8104  0.1357
 3121SOL    HW120822   1.650   0.106  10.764 -1.0007 -0.7264 -0.5450
 3121SOL    HW220823   1.626   0.252  10.724 -1.5202 -2.1146  1.9472
 3122SOL     OW20824   0.720   3.643  11.887 -0.1341 -0.6919  0.1551
 3122SOL    HW120825   0.677   3.643  11.801 -0.5481  0.0786  0.3657
 3122SOL    HW220826   0.673   3.716  11.926 -0.1418 -1.3485  1.3585
 3123SOL     OW20827   0.386   0.834   4.807 -0.7711 -0.1088  0.0869
 3123SOL    HW120828   0.481   0.844   4.809 -0.9209  0.8133  2.8274
 3123SOL    HW220829   0.378   0.740   4.823 -1.5782  0.0435  0.6088
 3124SOL     OW20830   4.281   3.973   6.030 -0.6099  0.2773 -0.0064
 3124SOL    HW120831   4.277   3.978   5.934 -0.1461 -0.4392 -0.0705
 3124SOL    HW220832   4.302   3.879   6.038  0.2277  0.3691 -0.9840
 3125SOL     OW20833   3.787   3.406  11.582 -0.0916  0.0880 -0.9257
 3125SOL    HW120834   3.875   3.397  11.545 -0.1858  0.4990 -1.2465
 3125SOL    HW220835   3.791   3.498  11.606  0.2002 -0.7663  2.2372
 3126SOL     OW20836   2.549   4.313   0.915  0.3561  0.3942 -0.6259
 3126SOL    HW120837   2.601   4.328   0.836 -0.1958 -0.8932 -1.2280
 3126SOL    HW220838   2.583   4.223   0.923  0.2226  0.4053  0.1058
 3127SOL     OW20839   2.796   3.292   7.719  0.0879 -0.1105  0.2159
 3127SOL    HW120840   2.733   3.345   7.768  1.4515  0.7221  1.0764
 3127SOL    HW220841   2.863   3.292   7.788 -2.4485  1.1082  2.7002
 3128SOL     OW20842   4.707   3.927   4.567 -0.1820 -0.3591  0.7675
 3128SOL    HW120843   4.714   3.965   4.479  1.1538  2.8218  2.2347
 3128SOL    HW220844   4.613   3.935   4.585 -0.3476 -3.4950  1.3144
 3129SOL     OW20845   0.420   1.470   6.989  0.1687 -0.2391 -0.0162
 3129SOL    HW120846   0.371   1.552   6.992  1.1457  0.3765 -0.8492
 3129SOL    HW220847   0.464   1.485   6.905 -0.3141  1.1754 -0.0284
 3130SOL     OW20848   2.162   1.990   4.790  0.1012 -0.8649  0.0619
 3130SOL    HW120849   2.167   2.039   4.708  0.1401 -2.5258 -0.9229
 3130SOL    HW220850   2.085   1.938   4.770  0.8410 -1.7326 -0.5587
 3131SOL     OW20851   0.146   2.608   2.319  0.0726  0.0837  0.0833
 3131SOL    HW120852   0.127   2.701   2.314 -0.3517  0.0916  1.6124
 3131SOL    HW220853   0.069   2.600   2.263 -0.1711  0.8259  0.3177
 3132SOL     OW20854   0.424   4.538   3.693  0.0427  0.0151 -0.0642
 3132SOL    HW120855   0.372   4.612   3.723 -0.9175 -1.1937  1.2744
 3132SOL    HW220856   0.482   4.590   3.637 -1.7111  1.2813 -0.6886
 3133SOL     OW20857   4.334   2.415   7.241  0.4239  0.1449 -0.3999
 3133SOL    HW120858   4.384   2.334   7.226  0.2368 -0.3522  1.6178
 3133SOL    HW220859   4.373   2.486   7.190  0.3560  1.3940  1.3078
 3134SOL     OW20860   4.492   1.646  13.270 -0.4214  0.2176  0.2022
 3134SOL    HW120861   4.428   1.610  13.209 -0.6602  0.8069  0.1125
 3134SOL    HW220862   4.503   1.577  13.336  1.9244 -0.0449 -0.4675
 3135SOL     OW20863   3.023   0.482  15.692 -0.1923  0.6254 -0.0109
 3135SOL    HW120864   2.999   0.497  15.600 -2.9232  0.2474  0.6307
 3135SOL    HW220865   3.116   0.502  15.694  0.4893 -2.9566  3.7601
 3136SOL     OW20866   0.652   0.273  10.081  0.5478 -0.1136  0.3885
 3136SOL    HW120867   0.730   0.303  10.035 -0.1582  1.6682  0.3304
 3136SOL    HW220868   0.682   0.185  10.102  1.3895  0.4763  1.6537
 3137SOL     OW20869   2.388   1.305  15.061 -0.0309 -0.4020 -0.0535
 3137SOL    HW120870   2.303   1.302  15.017 -0.4643  0.4695  0.7320
 3137SOL    HW220871   2.444   1.371  15.020 -0.3444  0.7949  1.4627
 3138SOL     OW20872   0.392   4.557  11.355  0.6988 -0.1464 -0.2091
 3138SOL    HW120873   0.380   4.507  11.436  1.5900 -0.1802 -0.0949
 3138SOL    HW220874   0.367   4.491  11.290 -4.1441  1.0957  0.4632
 3139SOL     OW20875   3.038   1.699   1.036  0.6206 -0.0700  0.0514
 3139SOL    HW120876   3.063   1.660   1.119 -1.2498 -1.4541 -0.0410
 3139SOL    HW220877   2.950   1.662   1.036  0.1524  1.0293 -2.1848
 3140SOL     OW20878   2.160   2.159  12.751 -0.3309  0.2776 -0.0451
 3140SOL    HW120879   2.072   2.183  12.778 -0.1135 -1.5377  2.2689
 3140SOL    HW220880   2.168   2.195  12.662 -0.6424  1.8852  0.5782
 3141SOL     OW20881   3.996   4.345   2.783 -0.2551 -0.3112 -0.3954
 3141SOL    HW120882   3.939   4.404   2.733  0.6684 -0.7603 -1.9677
 3141SOL    HW220883   3.966   4.263   2.743 -1.7539 -0.0019  0.0797
 3142SOL     OW20884   3.896   2.673  16.924 -0.2068  0.4696 -0.3489
 3142SOL    HW120885   3.823   2.701  16.979 -0.3591 -1.2639  0.3319
 3142SOL    HW220886   3.853   2.637  16.847  0.1106 -1.7587  0.5078
 3143SOL     OW20887   0.899   3.254  16.725 -0.5077 -0.4093 -0.2600
 3143SOL    HW120888   0.860   3.167  16.726  1.7233 -1.4029  1.0342
 3143SOL    HW220889   0.975   3.233  16.673  0.5622  0.8113  0.7916
 3144SOL     OW20890   3.742   1.111   3.829  0.0342  0.3821  0.1358
 3144SOL    HW120891   3.725   1.188   3.884  1.4078  0.2803  0.6907
 3144SOL    HW220892   3.771   1.155   3.749  0.2696 -1.9653 -1.0604
 3145SOL     OW20893   2.847   1.668   2.988  0.0431 -0.0072 -0.7637
 3145SOL    HW120894   2.916   1.723   2.950 -0.5476  0.9911 -0.3772
 3145SOL    HW220895   2.797   1.652   2.908 -1.9155 -0.1938  0.5102
 3146SOL     OW20896   0.925   0.156   2.035 -0.3433 -0.0477  0.3815
 3146SOL    HW120897   0.850   0.129   2.087  0.0186  1.1106  1.4835
 3146SOL    HW220898   0.973   0.074   2.019  1.5566  1.2102 -0.4322
 3147SOL     OW20899   2.484   4.713  17.374  0.0512 -0.3636  0.3299
 3147SOL    HW120900   2.570   0.005  17.413  0.3779 -1.6564  0.1549
 3147SOL    HW220901   2.496   4.639  17.314 -0.1035  0.2269 -0.4423
 3148SOL     OW20902   0.529   1.457   5.928  0.1503 -0.2089  0.1751
 3148SOL    HW120903   0.474   1.425   5.856 -0.2112  1.7968 -0.4380
 3148SOL    HW220904   0.481   1.416   6.000  0.8758  0.5827  1.1130
 3149SOL     OW20905   4.605   1.132  17.337  0.6012 -0.4931  0.4713
 3149SOL    HW120906   4.537   1.067  17.319 -0.8123  1.6288 -1.8214
 3149SOL    HW220907   4.616   1.177  17.254  2.0895 -1.2809  0.2268
 3150SOL     OW20908   1.248   3.922   7.507 -0.5301  0.6986  0.2368
 3150SOL    HW120909   1.258   3.990   7.441 -0.2902 -1.6654 -2.1625
 3150SOL    HW220910   1.338   3.890   7.512 -0.7184 -0.2457 -2.5557
 3151SOL     OW20911   1.087   3.164  14.301  0.2580 -0.0149 -0.6045
 3151SOL    HW120912   1.115   3.168  14.209  2.1654  0.1655 -0.0102
 3151SOL    HW220913   1.122   3.079  14.329 -0.4881 -0.1477 -0.0902
 3152SOL     OW20914   2.710   2.847   2.975 -0.2042  0.2817  0.2367
 3152SOL    HW120915   2.749   2.775   2.927 -1.2512 -0.2469  0.1735
 3152SOL    HW220916   2.760   2.925   2.950  1.3721 -0.6355  0.5237
 3153SOL     OW20917   3.894   0.786  10.368 -0.4755 -0.6674  0.8690
 3153SOL    HW120918   3.954   0.737  10.425  2.2705  2.0224  0.3066
 3153SOL    HW220919   3.816   0.785  10.423 -0.7780 -1.3298  0.4210
 3154SOL     OW20920   2.986   1.179   5.969  0.1033  0.0958  0.2187
 3154SOL    HW120921   2.937   1.256   5.998  0.3470  0.7641 -1.1585
 3154SOL    HW220922   2.942   1.136   5.895  1.0077  0.7790 -0.7183
 3155SOL     OW20923   2.904   2.802   5.149  0.2534  0.0808  0.1943
 3155SOL    HW120924   2.997   2.813   5.130 -0.1609 -1.9196 -2.8886
 3155SOL    HW220925   2.896   2.881   5.203  0.1662  1.4174 -1.7398
 3156SOL     OW20926   4.649   2.086  14.800  0.3409 -0.0063 -0.5183
 3156SOL    HW120927   4.631   2.150  14.869  1.2737 -2.4635  2.0238
 3156SOL    HW220928   4.570   2.093  14.747 -0.1268  0.7508  0.2706
 3157SOL     OW20929   2.308   1.420   3.622 -0.7334 -0.5250  0.1444
 3157SOL    HW120930   2.371   1.364   3.667 -0.5118 -0.1860  0.2595
 3157SOL    HW220931   2.291   1.368   3.544 -2.1144 -0.5153  0.4451
 3158SOL     OW20932   2.147   2.115  15.311  0.0313 -0.5238  0.4639
 3158SOL    HW120933   2.217   2.180  15.316  0.3816 -0.7818 -1.2585
 3158SOL    HW220934   2.189   2.033  15.286  0.2970  0.0465 -0.9501
 3159SOL     OW20935   2.450   0.900  14.640 -0.1646 -0.2561 -0.1485
 3159SOL    HW120936   2.542   0.876  14.648 -0.7407 -2.0785  1.0240
 3159SOL    HW220937   2.454   0.995  14.647  3.1671 -0.3483 -0.7645
 3160SOL     OW20938   4.689   1.326   7.370  0.0814 -0.2509  0.2674
 3160SOL    HW120939   4.644   1.374   7.440 -2.3677 -1.4807 -0.4596
 3160SOL    HW220940   0.051   1.364   7.381  0.4759 -1.2346  0.5988
 3161SOL     OW20941   2.537   0.580   7.206 -0.8621 -0.5181  0.6825
 3161SOL    HW120942   2.623   0.545   7.185 -1.5388 -1.4127 -0.6231
 3161SOL    HW220943   2.545   0.670   7.174 -1.8995 -1.9312 -3.6934
 3162SOL     OW20944   0.058   4.016  11.526  0.3417  0.3110  0.1239
 3162SOL    HW120945   0.151   4.004  11.505  0.1514 -1.5918  0.3788
 3162SOL    HW220946   0.027   3.978  11.444 -0.8152 -1.7826  1.5366
 3163SOL     OW20947   1.766   4.231   7.128 -0.6191  0.2637  0.4855
 3163SOL    HW120948   1.836   4.287   7.161  1.3257 -1.4177 -0.7476
 3163SOL    HW220949   1.818   4.176   7.069  0.4543 -0.1537  1.8238
 3164SOL     OW20950   1.612   4.213  16.162 -0.4479 -0.0579 -0.3225
 3164SOL    HW120951   1.587   4.260  16.082 -1.3291  1.4183  0.8261
 3164SOL    HW220952   1.612   4.276  16.233 -0.7271  0.6842 -0.9835
 3165SOL     OW20953   3.702   2.116   3.346 -0.0357 -0.3094 -0.2101
 3165SOL    HW120954   3.639   2.183   3.319 -0.2966 -0.2913  0.4270
 3165SOL    HW220955   3.747   2.161   3.417  0.0083 -2.3542  1.0728
 3166SOL     OW20956   0.357   2.441   3.250 -0.5977  0.3175  0.3143
 3166SOL    HW120957   0.389   2.444   3.340 -1.9822  0.6722  0.7799
 3166SOL    HW220958   0.332   2.349   3.235 -0.5413  0.2446  0.6706
 3167SOL     OW20959   1.175   3.297   4.725 -0.3801  0.2287 -0.3576
 3167SOL    HW120960   1.151   3.378   4.679 -2.3865  0.3919  0.9656
 3167SOL    HW220961   1.143   3.321   4.812 -0.2222 -0.3122 -0.1554
 3168SOL     OW20962   1.857   1.248   2.938 -0.4284 -0.1308 -0.4257
 3168SOL    HW120963   1.803   1.270   2.862 -0.5816 -0.5503 -0.4372
 3168SOL    HW220964   1.800   1.181   2.977 -2.5601  1.6246 -0.5000
 3169SOL     OW20965   4.470   4.716   8.470 -0.0992  0.4787  0.0566
 3169SOL    HW120966   4.459   0.029   8.383  0.5787 -0.8447 -0.6094
 3169SOL    HW220967   4.522   0.061   8.512 -2.2381  1.2315  1.4397
 3170SOL     OW20968   3.458   2.068   9.743  0.1104  0.4653 -0.3872
 3170SOL    HW120969   3.465   1.984   9.788 -0.4451  0.9666  0.6269
 3170SOL    HW220970   3.396   2.113   9.801  0.9323 -1.3023  1.8365
 3171SOL     OW20971   2.358   3.416   7.893 -0.9716 -0.2444 -0.0621
 3171SOL    HW120972   2.280   3.362   7.881 -1.2620  0.4960 -1.4602
 3171SOL    HW220973   2.328   3.454   7.976 -0.7243  0.8567 -0.4706
 3172SOL     OW20974   4.027   4.434   2.053 -0.5961  0.0081  0.5234
 3172SOL    HW120975   3.982   4.510   2.089 -2.3624 -0.4684 -0.6858
 3172SOL    HW220976   4.033   4.459   1.961 -2.3422 -0.1978  0.3483
 3173SOL     OW20977   0.127   4.120   1.184 -0.8423 -0.2760 -0.6279
 3173SOL    HW120978   0.177   4.188   1.228  0.4806 -1.5582 -0.1503
 3173SOL    HW220979   0.069   4.107   1.259 -1.8501 -3.8001 -1.9786
 3174SOL     OW20980   3.543   0.250   7.169 -0.4231 -0.2549 -0.4749
 3174SOL    HW120981   3.481   0.296   7.113 -0.2862  1.5272  0.8399
 3174SOL    HW220982   3.606   0.227   7.101  0.4871 -1.0506  0.6344
 3175SOL     OW20983   0.981   1.562  16.151  0.3574 -0.1596  0.1205
 3175SOL    HW120984   0.996   1.596  16.063  0.1093 -2.0737 -0.6556
 3175SOL    HW220985   1.015   1.473  16.142 -1.3768 -0.6652 -1.5931
 3176SOL     OW20986   1.442   0.465   8.380 -0.0679 -0.0764 -0.3150
 3176SOL    HW120987   1.370   0.526   8.392  0.0334 -0.1499  0.6692
 3176SOL    HW220988   1.400   0.397   8.327 -0.9892 -0.1553  0.5258
 3177SOL     OW20989   2.609   2.721   5.671 -0.2940  0.2523  0.0194
 3177SOL    HW120990   2.558   2.655   5.719  0.1623  0.4139  0.7406
 3177SOL    HW220991   2.643   2.773   5.745  1.1755  0.8561 -1.0919
 3178SOL     OW20992   1.348   3.512   8.183  0.0567 -0.2796  0.1616
 3178SOL    HW120993   1.315   3.431   8.145  1.3959  0.7962 -3.2656
 3178SOL    HW220994   1.438   3.487   8.204 -0.1348 -1.1310 -0.0371
 3179SOL     OW20995   2.385   4.525  17.580 -0.5310 -0.5674  0.2517
 3179SOL    HW120996   2.415   4.459  17.516 -0.5616  0.0119 -0.3629
 3179SOL    HW220997   2.393   4.604  17.526  1.2385 -0.4735  0.6443
 3180SOL     OW20998   1.404   0.336   3.286 -0.0609  0.7259 -0.0876
 3180SOL    HW120999   1.324   0.349   3.337 -0.7263  1.8525 -1.4385
 3180SOL    HW221000   1.405   0.407   3.222  1.2247  1.4532  0.7488
 3181SOL     OW21001   2.878   3.132  15.079  0.4562 -0.7627  0.4887
 3181SOL    HW121002   2.935   3.203  15.050 -0.1973 -0.7994 -0.8784
 3181SOL    HW221003   2.829   3.173  15.150  1.3063  2.3913 -0.7717
 3182SOL     OW21004   4.053   3.817   2.683  0.3667  0.1009 -0.6868
 3182SOL    HW121005   4.061   3.731   2.725 -1.3842 -0.3693 -1.2814
 3182SOL    HW221006   4.080   3.793   2.594  1.2418  3.1581 -1.2239
 3183SOL     OW21007   2.622   4.407   6.993  0.3109  0.4261 -0.5524
 3183SOL    HW121008   2.537   4.434   6.958 -1.5930 -1.7631  2.4055
 3183SOL    HW221009   2.670   4.489   7.008 -1.1628  1.3462 -0.8658
 3184SOL     OW21010   4.257   0.705  15.094 -0.0326 -0.2280  0.3783
 3184SOL    HW121011   4.246   0.710  15.189  1.3465  1.3706  0.4673
 3184SOL    HW221012   4.340   0.658  15.087  0.0755 -0.1370  1.0622
 3185SOL     OW21013   2.586   1.978   7.247  0.5629 -0.0602  0.5406
 3185SOL    HW121014   2.549   2.034   7.315 -1.6190 -2.0356  0.9926
 3185SOL    HW221015   2.652   2.037   7.210 -0.6189 -0.1896 -1.7497
 3186SOL     OW21016   0.883   1.875   5.479  0.2933 -0.4348  0.6101
 3186SOL    HW121017   0.845   1.962   5.472 -0.3023 -0.7364  0.0548
 3186SOL    HW221018   0.922   1.866   5.392  2.1130 -1.1237  1.4831
 3187SOL     OW21019   2.059   3.599   2.681 -0.4261  0.0309  0.3235
 3187SOL    HW121020   2.121   3.669   2.701  0.1068  0.2080 -1.9660
 3187SOL    HW221021   2.062   3.534   2.751  0.0815 -1.1569 -0.8067
 3188SOL     OW21022   1.464   1.194  10.883  0.0496 -0.3195  0.0141
 3188SOL    HW121023   1.554   1.175  10.859  0.8518  1.2007  1.8308
 3188SOL    HW221024   1.441   1.249  10.808  1.6531  1.7913  1.0612
 3189SOL     OW21025   1.100   0.912   8.823 -0.1181  0.5079  0.3659
 3189SOL    HW121026   1.135   0.935   8.909 -1.5861 -1.9366  1.6152
 3189SOL    HW221027   1.083   0.819   8.834  0.0331  0.6007  1.3771
 3190SOL     OW21028   4.409   2.101  17.670  0.0513  0.6127  0.1863
 3190SOL    HW121029   4.496   2.079  17.637 -0.7882 -2.2319 -0.1699
 3190SOL    HW221030   4.393   2.176  17.612 -0.1433  0.6389  0.2742
 3191SOL     OW21031   0.720   1.927   4.430 -0.8407  0.1121  0.3116
 3191SOL    HW121032   0.777   1.985   4.480 -2.4170  1.9568 -0.0182
 3191SOL    HW221033   0.706   1.980   4.351 -0.7007  0.1901  0.3384
 3192SOL     OW21034   3.207   1.298   3.241 -0.5338  0.1064 -0.1344
 3192SOL    HW121035   3.275   1.234   3.261 -0.2761  0.7627  1.0265
 3192SOL    HW221036   3.203   1.281   3.147 -1.4973 -2.5743  0.3826
 3193SOL     OW21037   3.299   2.176   3.700  0.4056  0.4777 -0.1173
 3193SOL    HW121038   3.360   2.220   3.759  1.5359 -1.7239  0.3421
 3193SOL    HW221039   3.347   2.103   3.660 -1.2965 -0.1346 -1.0317
 3194SOL     OW21040   3.829   4.210   3.176  0.7102 -0.0823 -0.3206
 3194SOL    HW121041   3.810   4.117   3.185 -1.4667  0.2668 -1.4653
 3194SOL    HW221042   3.925   4.210   3.174  0.6715 -3.0052 -1.9282
 3195SOL     OW21043   3.199   4.628  14.700 -0.1509  0.5080  0.1155
 3195SOL    HW121044   3.205   4.634  14.795  1.1633 -1.3388  0.1565
 3195SOL    HW221045   3.187   4.535  14.680 -0.0178  0.4477  0.3202
 3196SOL     OW21046   4.260   1.924   3.024 -0.3946  0.1322 -0.2355
 3196SOL    HW121047   4.257   2.006   3.074  0.3324  0.0222 -0.0151
 3196SOL    HW221048   4.237   1.956   2.937 -0.4682 -0.6782 -0.5172
 3197SOL     OW21049   3.701   0.495   6.710 -0.0326  0.0437 -0.0607
 3197SOL    HW121050   3.663   0.452   6.634 -1.6805  1.9932 -0.3168
 3197SOL    HW221051   3.779   0.440   6.705 -1.2794 -1.8499  1.5293
 3198SOL     OW21052   0.013   3.012   2.517  0.4944  0.2455  0.5113
 3198SOL    HW121053   0.063   2.967   2.585  0.5189 -3.1080 -1.6883
 3198SOL    HW221054   4.654   2.964   2.519  1.2027 -0.9018  3.0141
 3199SOL     OW21055   0.258   3.858   6.963  0.1514 -0.1988  0.4402
 3199SOL    HW121056   0.297   3.926   6.909  0.1030 -0.1316  0.4907
 3199SOL    HW221057   0.240   3.886   7.053 -2.1940  0.3050 -0.1902
 3200SOL     OW21058   0.213   3.858  12.708 -0.0277  0.5770  0.0600
 3200SOL    HW121059   0.270   3.931  12.682 -0.3302  0.3650 -1.2267
 3200SOL    HW221060   0.280   3.795  12.685 -2.1456 -1.5695 -0.2170
 3201SOL     OW21061   1.532   4.173   2.396  0.0032 -0.1129 -0.2537
 3201SOL    HW121062   1.522   4.183   2.491  0.3688 -1.3863 -0.0832
 3201SOL    HW221063   1.607   4.232   2.384 -1.6505  2.2078  0.8228
 3202SOL     OW21064   2.046   0.632  17.052  0.1189 -0.5340 -0.5128
 3202SOL    HW121065   2.052   0.661  16.961 -1.1151  0.6426 -0.2150
 3202SOL    HW221066   1.954   0.608  17.061 -0.5870  1.9888 -0.9137
 3203SOL     OW21067   2.561   1.190   3.045 -0.1481  0.1653  0.1479
 3203SOL    HW121068   2.587   1.103   3.077  2.0300  1.0746  0.7705
 3203SOL    HW221069   2.632   1.248   3.069 -0.9428  0.8044  0.9502
 3204SOL     OW21070   2.388   3.221   5.082  0.1122 -0.5926 -0.1213
 3204SOL    HW121071   2.432   3.306   5.080 -0.8919 -0.0502  0.8662
 3204SOL    HW221072   2.459   3.175   5.038 -0.2307  0.1836 -1.4932
 3205SOL     OW21073   1.453   4.691  10.062  0.2224  0.2377  0.1342
 3205SOL    HW121074   1.371   4.658  10.025  0.8407 -1.3789  0.1834
 3205SOL    HW221075   1.516   4.618  10.064  1.5749  1.5062  2.8397
 3206SOL     OW21076   0.961   1.282   4.978  0.2793 -0.2152  0.4607
 3206SOL    HW121077   1.033   1.240   4.930  0.2858  0.3692 -0.0458
 3206SOL    HW221078   0.937   1.359   4.926 -1.3190 -1.3165 -0.4609
 3207SOL     OW21079   2.488   4.683   8.126  0.3402  0.1921 -0.2475
 3207SOL    HW121080   2.568   4.638   8.152  0.8237  1.4495  0.4146
 3207SOL    HW221081   2.493   0.041   8.174  0.2386  1.1096 -1.7926
 3208SOL     OW21082   2.956   2.878  11.703  0.2748 -0.2495 -0.2068
 3208SOL    HW121083   3.031   2.881  11.644  0.8608 -1.1618  0.4837
 3208SOL    HW221084   2.984   2.940  11.771  0.8056 -1.0859  0.3377
 3209SOL     OW21085   2.463   2.741  17.205 -0.5100  0.4628 -0.2189
 3209SOL    HW121086   2.430   2.651  17.202  2.4826 -0.6663  1.4272
 3209SOL    HW221087   2.388   2.800  17.208 -2.3924 -2.0385  1.7145
 3210SOL     OW21088   2.739   3.495   2.362  0.5935  0.0226  0.0930
 3210SOL    HW121089   2.686   3.457   2.433 -1.5439  2.5901 -0.1364
 3210SOL    HW221090   2.712   3.441   2.288 -0.7998 -0.6248  1.0671
 3211SOL     OW21091   4.353   3.551   4.336  0.5771  0.1722  0.1849
 3211SOL    HW121092   4.397   3.501   4.405  0.9589 -1.0123 -0.9211
 3211SOL    HW221093   4.351   3.492   4.261  1.1118  0.9944 -0.4788
 3212SOL     OW21094   0.069   1.330   9.320  0.0532 -0.7349  0.5795
 3212SOL    HW121095   0.144   1.331   9.380  0.8011 -0.9143 -0.3452
 3212SOL    HW221096   0.010   1.279   9.375  2.3622 -0.9719  2.8139
 3213SOL     OW21097   4.447   3.149   8.877 -0.1888 -0.6932  0.1996
 3213SOL    HW121098   4.523   3.175   8.929 -1.3238 -0.0277  1.5240
 3213SOL    HW221099   4.380   3.161   8.944  0.8749 -0.8283  1.2780
 3214SOL     OW21100   2.228   0.165   8.162  0.0127  0.0046  0.6990
 3214SOL    HW121101   2.192   0.245   8.202  0.2706 -0.9622  2.8962
 3214SOL    HW221102   2.312   0.172   8.206  0.0795 -0.9994  0.7306
 3215SOL     OW21103   2.246   4.419  13.701  0.5701 -0.2378 -0.0796
 3215SOL    HW121104   2.189   4.489  13.734 -0.1926 -0.7638 -0.2634
 3215SOL    HW221105   2.169   4.361  13.696  0.0986  0.1318  2.6739
 3216SOL     OW21106   0.254   2.322   4.693  0.0209  0.5714 -0.2348
 3216SOL    HW121107   0.313   2.390   4.725  0.9048  0.0769 -0.8215
 3216SOL    HW221108   0.253   2.337   4.599 -0.6154  0.9985 -0.1593
 3217SOL     OW21109   0.814   0.865  11.612  0.0959  0.0730 -0.1203
 3217SOL    HW121110   0.825   0.899  11.524 -2.0104 -0.5511 -0.6167
 3217SOL    HW221111   0.801   0.946  11.662 -1.3465 -0.5505  0.5155
 3218SOL     OW21112   2.099   1.678   4.643  0.2395  0.0816  0.1650
 3218SOL    HW121113   2.174   1.729   4.612  0.1824 -0.3967 -0.7646
 3218SOL    HW221114   2.086   1.608   4.579  0.5689  0.1015  0.0753
 3219SOL     OW21115   2.414   4.000   4.333  0.3780 -0.3137  0.4833
 3219SOL    HW121116   2.335   4.001   4.278  0.9410 -0.3757 -0.3221
 3219SOL    HW221117   2.443   4.083   4.294 -0.9581  0.3395  0.8749
 3220SOL     OW21118   4.232   3.513  10.141 -0.0485 -0.1402  0.0660
 3220SOL    HW121119   4.150   3.508  10.092  0.0216  2.9164 -0.3616
 3220SOL    HW221120   4.290   3.524  10.065 -2.5124  0.0018 -1.7759
 3221SOL     OW21121   1.379   1.027   7.305 -0.1063  0.4919 -0.4054
 3221SOL    HW121122   1.302   0.972   7.322  0.6905 -1.1232 -1.8878
 3221SOL    HW221123   1.332   1.110   7.296  0.5971  0.6729 -2.4473
 3222SOL     OW21124   1.491   0.870   4.139  0.0534  0.0658 -0.0043
 3222SOL    HW121125   1.555   0.894   4.072 -0.5597  0.4893 -0.4406
 3222SOL    HW221126   1.488   0.945   4.198 -1.8498  1.8197 -2.3509
 3223SOL     OW21127   3.688   4.455   2.040 -0.2921 -0.3933  0.2810
 3223SOL    HW121128   3.720   4.516   2.106 -1.5542  2.2300 -1.5124
 3223SOL    HW221129   3.742   4.488   1.968 -1.9959  1.0078 -0.3659
 3224SOL     OW21130   0.253   1.088  17.515  0.2955  0.0031 -0.1568
 3224SOL    HW121131   0.267   1.180  17.489  0.7280  0.0106  0.0922
 3224SOL    HW221132   0.193   1.092  17.588  0.3727  0.0929 -0.0979
 3225SOL     OW21133   1.509   1.488   6.386  0.4369  0.7284 -0.5210
 3225SOL    HW121134   1.501   1.414   6.326  1.0011 -0.6583  1.1169
 3225SOL    HW221135   1.530   1.559   6.325  1.0919 -0.1937 -1.3448
 3226SOL     OW21136   3.950   2.711   7.148 -0.0509 -0.0300  0.1813
 3226SOL    HW121137   3.866   2.708   7.194 -0.1503  0.4278  0.0316
 3226SOL    HW221138   3.936   2.790   7.095  1.3759  1.6886  2.4154
 3227SOL     OW21139   2.170   0.906  14.673 -0.3528 -0.3400  0.1820
 3227SOL    HW121140   2.195   0.967  14.741 -2.2126 -0.5064  1.0069
 3227SOL    HW221141   2.251   0.888  14.624 -0.4408  1.3297 -0.5876
 3228SOL     OW21142   4.065   2.059  14.310 -0.2881  0.3569 -0.7109
 3228SOL    HW121143   3.971   2.073  14.317 -0.2057  0.1104  0.8811
 3228SOL    HW221144   4.100   2.091  14.393  1.5330  1.5383 -1.9310
 3229SOL     OW21145   4.118   2.725   8.195 -0.1905  0.3314  0.5972
 3229SOL    HW121146   4.039   2.678   8.166  0.4870 -1.0382  0.9980
 3229SOL    HW221147   4.123   2.683   8.281  1.9530 -0.6334 -0.0089
 3230SOL     OW21148   1.334   3.443   1.511 -0.0106 -0.1071  0.1386
 3230SOL    HW121149   1.408   3.502   1.495  0.3039 -0.8265 -1.0550
 3230SOL    HW221150   1.386   3.363   1.521 -1.5911 -1.1619 -0.1243
 3231SOL     OW21151   0.967   3.992   5.267 -0.0562  0.6829  0.6510
 3231SOL    HW121152   0.987   3.909   5.310  0.4083  0.7336  0.5306
 3231SOL    HW221153   1.043   4.003   5.210 -1.1821 -0.0228 -1.0122
 3232SOL     OW21154   3.192   0.163   0.460  0.0057 -0.7043 -0.1811
 3232SOL    HW121155   3.170   0.101   0.530 -0.5780 -0.8702 -0.5067
 3232SOL    HW221156   3.102   0.178   0.431 -0.2132  2.0021  1.9673
 3233SOL     OW21157   3.863   2.709   2.503  0.2756  0.0764 -0.5604
 3233SOL    HW121158   3.867   2.770   2.576 -2.6397 -1.2276  0.6702
 3233SOL    HW221159   3.819   2.635   2.545  0.1117  0.9652  0.8202
 3234SOL     OW21160   4.593   1.549  14.986  0.6101  0.5289  0.2857
 3234SOL    HW121161   4.514   1.572  15.034  0.0719 -0.0268 -0.3234
 3234SOL    HW221162   4.566   1.556  14.894  0.1809  0.2944  0.3913
 3235SOL     OW21163   2.416   2.523   5.473 -0.2382  0.2448 -0.3167
 3235SOL    HW121164   2.366   2.589   5.520  1.8172  1.0575  0.7472
 3235SOL    HW221165   2.458   2.486   5.551 -1.5105 -0.0878  0.2041
 3236SOL     OW21166   2.706   4.038  11.932  0.6340  0.3896  0.2465
 3236SOL    HW121167   2.643   4.106  11.956  0.5637  0.0147  1.1496
 3236SOL    HW221168   2.649   3.984  11.877 -1.6517  1.4534  1.5792
 3237SOL     OW21169   1.607   1.345   7.846 -0.1132  0.2676 -0.1083
 3237SOL    HW121170   1.630   1.347   7.753  3.4369 -2.0209  0.7592
 3237SOL    HW221171   1.549   1.421   7.854 -1.1184 -0.4184 -0.8323
 3238SOL     OW21172   1.029   3.496  13.835  0.4072 -0.1012 -0.2188
 3238SOL    HW121173   1.068   3.580  13.860 -1.6585  0.2724  1.7420
 3238SOL    HW221174   1.072   3.427  13.886  1.8654  0.1364 -1.1086
 3239SOL     OW21175   0.711   3.651   7.343 -0.0023  0.5512  0.6924
 3239SOL    HW121176   0.756   3.567   7.336 -0.4769  0.4647 -1.3260
 3239SOL    HW221177   0.638   3.633   7.285 -0.5822  2.2684  0.9019
 3240SOL     OW21178   2.399   0.628   0.100  0.1227 -0.1745  0.4231
 3240SOL    HW121179   2.492   0.605   0.098  0.9923  3.2921  0.1444
 3240SOL    HW221180   2.399   0.675   0.017 -1.7860  1.4694  1.3603
 3241SOL     OW21181   2.386   1.826   1.201 -0.0423 -0.2178 -0.2561
 3241SOL    HW121182   2.294   1.824   1.173  0.0378  0.2534 -0.5559
 3241SOL    HW221183   2.413   1.918   1.192  0.6535 -0.3389  0.5852
 3242SOL     OW21184   4.121   3.185  16.114 -0.3872 -0.3934  0.0707
 3242SOL    HW121185   4.214   3.205  16.104 -0.5110 -0.0120 -0.2868
 3242SOL    HW221186   4.096   3.265  16.159 -1.5274 -0.5332 -0.3272
 3243SOL     OW21187   0.726   2.481   3.189  0.1752  0.2529  0.1196
 3243SOL    HW121188   0.635   2.477   3.221  0.0480  0.4385 -0.2176
 3243SOL    HW221189   0.697   2.463   3.100 -1.3147 -1.0393  0.8683
 3244SOL     OW21190   0.360   1.567   2.741 -0.3502 -0.3694  0.2141
 3244SOL    HW121191   0.302   1.552   2.667  0.6835 -0.5800 -0.5585
 3244SOL    HW221192   0.413   1.487   2.746 -2.0744 -1.5294 -0.0188
 3245SOL     OW21193   3.672   4.589   4.246  1.1936 -0.2826 -0.3309
 3245SOL    HW121194   3.650   4.503   4.210  0.0823  0.0697 -0.5097
 3245SOL    HW221195   3.756   4.573   4.287  0.6220 -1.0352  0.5511
 3246SOL     OW21196   4.426   4.598  10.189 -0.5400 -0.4990 -0.6912
 3246SOL    HW121197   4.489   4.668  10.206 -1.5810  0.7008 -1.8508
 3246SOL    HW221198   4.345   4.646  10.205  0.3835  1.3781 -1.6918
 3247SOL     OW21199   4.102   4.294   8.829  0.3500  0.2235  0.7569
 3247SOL    HW121200   4.142   4.253   8.906 -2.0993 -1.4475  1.1320
 3247SOL    HW221201   4.110   4.228   8.759  0.3054  1.3948 -0.3537
 3248SOL     OW21202   3.598   3.153   9.721  0.3049  0.2387  0.0186
 3248SOL    HW121203   3.509   3.187   9.720  0.4746  0.7316  1.7554
 3248SOL    HW221204   3.611   3.135   9.814 -2.2561  1.0579  0.5427
 3249SOL     OW21205   0.705   0.142   1.693 -0.0852  0.3733  0.1508
 3249SOL    HW121206   0.736   0.225   1.655 -0.3459 -0.2549 -1.4388
 3249SOL    HW221207   0.779   0.081   1.694 -0.0722  0.3996  1.0513
 3250SOL     OW21208   1.857   3.596   6.338  0.0025 -0.0895  0.9335
 3250SOL    HW121209   1.873   3.532   6.268 -0.4577  1.1747 -0.3415
 3250SOL    HW221210   1.936   3.649   6.352 -0.4692  0.2387  2.2577
 3251SOL     OW21211   3.001   2.607  16.006 -0.8119  0.3939 -0.1519
 3251SOL    HW121212   3.045   2.552  15.941  0.4600  0.1604  0.9179
 3251SOL    HW221213   2.992   2.688  15.955  1.3421  1.3974  1.0378
 3252SOL     OW21214   0.682   0.661  11.836  0.5139 -0.2439 -0.0840
 3252SOL    HW121215   0.738   0.737  11.854  2.5967 -1.2187 -2.5387
 3252SOL    HW221216   0.635   0.659  11.920 -2.4158 -0.8646 -1.7493
 3253SOL     OW21217   1.956   3.503   8.179 -0.4178 -0.4509 -0.6545
 3253SOL    HW121218   1.970   3.598   8.187 -0.7522 -0.4169 -0.4762
 3253SOL    HW221219   1.982   3.464   8.262 -0.4957 -2.1824 -1.4572
 3254SOL     OW21220   3.705   1.022  17.623 -0.5835 -0.5426  0.1425
 3254SOL    HW121221   3.749   1.102  17.597 -0.8237 -0.4373  0.0582
 3254SOL    HW221222   3.778   0.962  17.606 -0.1271  0.2070 -0.5345
 3255SOL     OW21223   3.841   3.989   6.960 -0.6794 -0.0775  0.1819
 3255SOL    HW121224   3.785   3.912   6.956  1.5152 -1.6921  0.5254
 3255SOL    HW221225   3.776   4.047   6.920 -2.0199 -0.1081  2.3353
 3256SOL     OW21226   0.674   1.024  16.610 -0.2057 -0.2890  0.1649
 3256SOL    HW121227   0.707   1.097  16.663 -0.2310 -0.1264 -0.0433
 3256SOL    HW221228   0.606   1.074  16.565  0.8393 -0.0494 -1.1319
 3257SOL     OW21229   4.167   1.816   4.309 -0.5671  0.6304 -0.8060
 3257SOL    HW121230   4.136   1.782   4.225 -2.3368  0.6649 -0.1576
 3257SOL    HW221231   4.201   1.905   4.301 -3.4806  1.6597 -1.7895
 3258SOL     OW21232   0.277   0.826   3.718  0.1859  0.2939  0.5018
 3258SOL    HW121233   0.288   0.837   3.812 -1.2417  1.3331  0.5528
 3258SOL    HW221234   0.367   0.822   3.685  0.0615 -0.0793  0.1975
 3259SOL     OW21235   0.034   0.470   5.943 -0.9307 -0.6492 -0.1893
 3259SOL    HW121236   0.085   0.427   5.874 -0.9097  2.2653 -1.9662
 3259SOL    HW221237   0.078   0.435   6.021 -0.7404 -0.5071 -0.2342
 3260SOL     OW21238   3.521   2.433  11.624  0.4382 -0.2070 -0.1599
 3260SOL    HW121239   3.612   2.463  11.625  0.6861 -0.9534 -0.0693
 3260SOL    HW221240   3.469   2.513  11.624  1.5190  0.4996  0.9303
 3261SOL     OW21241   4.708   2.434   6.110  0.1225  0.4208  0.6238
 3261SOL    HW121242   4.676   2.522   6.091  2.6103  1.3154  0.5676
 3261SOL    HW221243   4.687   2.392   6.027  1.9830 -0.8809  0.8280
 3262SOL     OW21244   1.931   4.389  15.530 -0.0348  0.0833  0.1134
 3262SOL    HW121245   1.892   4.345  15.606  2.1843 -0.7666  0.7716
 3262SOL    HW221246   1.870   4.365  15.460  0.5890  1.6591 -0.9529
 3263SOL     OW21247   1.812   0.973   3.047  0.1283  0.6747 -0.0654
 3263SOL    HW121248   1.763   0.894   3.023 -0.1010  0.4478  1.1833
 3263SOL    HW221249   1.894   0.974   2.998 -0.4711 -1.5072 -1.1203
 3264SOL     OW21250   3.025   2.313   8.510  0.0146 -0.8254  0.1416
 3264SOL    HW121251   2.956   2.278   8.454 -0.7386  0.3291  0.3480
 3264SOL    HW221252   3.038   2.247   8.578 -1.2113 -1.2437 -0.0311
 3265SOL     OW21253   0.493   2.679   4.605 -0.0392 -0.0665 -0.0754
 3265SOL    HW121254   0.545   2.760   4.595  0.7737 -0.7276 -1.1922
 3265SOL    HW221255   0.415   2.715   4.647 -0.4993 -0.3978 -0.6451
 3266SOL     OW21256   2.244   1.445  14.190  0.2886  0.0283 -0.0670
 3266SOL    HW121257   2.153   1.438  14.218 -0.1900 -0.2780 -1.7184
 3266SOL    HW221258   2.231   1.476  14.100  0.2962 -1.4157 -0.5617
 3267SOL     OW21259   0.126   3.847   5.646 -0.4163  0.0816 -0.0302
 3267SOL    HW121260   0.116   3.941   5.631 -0.3296  0.0909 -0.0313
 3267SOL    HW221261   0.205   3.823   5.598 -1.7001 -2.4993 -0.8970
 3268SOL     OW21262   1.971   3.116   4.034  0.2698 -0.1763 -0.6016
 3268SOL    HW121263   1.974   3.207   4.064  1.7223 -0.6450  0.7124
 3268SOL    HW221264   2.042   3.127   3.970 -2.2011  0.6641 -3.1990
 3269SOL     OW21265   0.046   4.151   3.900  1.0999  0.5312  0.4155
 3269SOL    HW121266   4.722   4.111   3.828 -2.0170  1.4145  2.0221
 3269SOL    HW221267   0.118   4.196   3.856  1.6541 -1.0485 -0.2553
 3270SOL     OW21268   4.257   2.655  17.195 -0.3184  0.0095  0.1782
 3270SOL    HW121269   4.349   2.671  17.219 -0.4732  0.7885  0.2491
 3270SOL    HW221270   4.207   2.691  17.268  2.8648  1.6246  1.5783
 3271SOL     OW21271   3.499   0.810   3.723 -0.2842  0.5168  0.0568
 3271SOL    HW121272   3.437   0.866   3.675  0.3559  2.5789  1.6817
 3271SOL    HW221273   3.466   0.730   3.682 -1.7485  0.9865  0.3224
 3272SOL     OW21274   3.961   0.960   8.650 -0.1711  0.1011  0.2432
 3272SOL    HW121275   3.902   0.910   8.706 -1.0466  1.8286  0.8241
 3272SOL    HW221276   3.906   1.034   8.624  0.9402  0.2474 -1.6849
 3273SOL     OW21277   1.546   0.682   0.031  0.3943  0.1675  0.2803
 3273SOL    HW121278   1.513   0.707   0.117  1.0287  1.2287  0.2097
 3273SOL    HW221279   1.462   0.685  17.683  0.2167  0.8513  0.6498
 3274SOL     OW21280   4.655   4.493   8.032  0.6147  0.4110  0.4063
 3274SOL    HW121281   0.013   4.445   8.018 -0.0391 -0.5963  0.0297
 3274SOL    HW221282   4.600   4.435   8.084  2.4948 -2.0734 -0.3187
 3275SOL     OW21283   1.565   2.008   7.068 -0.3313 -0.2305  0.0778
 3275SOL    HW121284   1.608   2.073   7.013  0.0272 -0.3261  0.2450
 3275SOL    HW221285   1.474   2.022   7.042 -0.8184 -1.9807  0.8312
 3276SOL     OW21286   1.815   2.990   3.396  0.2321 -0.0378 -0.0556
 3276SOL    HW121287   1.796   2.912   3.344 -2.0080 -0.3516  1.2383
 3276SOL    HW221288   1.902   2.970   3.431  0.3811  2.1482  0.7886
 3277SOL     OW21289   2.803   1.836   8.681 -0.4332 -0.0098 -0.4004
 3277SOL    HW121290   2.862   1.799   8.615  1.8019  1.3115  0.8434
 3277SOL    HW221291   2.725   1.788   8.653  0.0479  0.1285 -1.9932
 3278SOL     OW21292   3.907   1.534   6.737 -0.5957  0.3968  0.3534
 3278SOL    HW121293   3.890   1.608   6.796  0.0072  1.3697 -0.7008
 3278SOL    HW221294   3.831   1.478   6.749  0.6559 -1.8103 -2.1527
 3279SOL     OW21295   2.952   3.808  14.883 -0.0487  0.2731 -0.0777
 3279SOL    HW121296   2.982   3.891  14.846 -0.1756  0.3311 -0.0535
 3279SOL    HW221297   2.954   3.751  14.807  1.4475  1.3013 -0.8139
 3280SOL     OW21298   0.096   0.814   4.657  0.0576 -0.7395 -0.4651
 3280SOL    HW121299   0.189   0.795   4.664  0.4629  1.5348  0.4322
 3280SOL    HW221300   0.109   0.886   4.595  3.3252  1.1391  2.4241
 3281SOL     OW21301   2.277   3.140   6.983  0.4289  0.2843 -0.4896
 3281SOL    HW121302   2.249   3.058   6.941  0.0129  0.7323 -1.0944
 3281SOL    HW221303   2.253   3.110   7.071  0.2735 -0.5177 -0.8004
 3282SOL     OW21304   3.443   1.372  14.714 -0.2349 -0.3963  0.4802
 3282SOL    HW121305   3.449   1.279  14.694 -0.3143 -0.3178  0.0855
 3282SOL    HW221306   3.350   1.391  14.696  0.1877  1.4789  0.2663
 3283SOL     OW21307   1.370   4.093   6.631  0.5593  0.3650  0.4463
 3283SOL    HW121308   1.463   4.111   6.644  0.8212 -0.4049 -0.3509
 3283SOL    HW221309   1.342   4.179   6.600 -0.6043  0.4291  1.7040
 3284SOL     OW21310   3.403   4.558   9.188 -0.5100 -0.4564  0.3424
 3284SOL    HW121311   3.320   4.564   9.141 -0.5477 -0.8292  0.3595
 3284SOL    HW221312   3.456   4.528   9.114  0.9473  0.8593  0.8455
 3285SOL     OW21313   4.663   4.033  13.463 -0.2031 -0.1609 -0.6016
 3285SOL    HW121314   4.674   3.951  13.415  0.2068  0.0501 -0.8701
 3285SOL    HW221315   0.013   4.080  13.426 -2.1115  2.1518 -1.4973
 3286SOL     OW21316   2.466   4.196   2.664 -0.1521  0.4054  0.0876
 3286SOL    HW121317   2.505   4.259   2.603  0.8311 -1.7112 -1.4630
 3286SOL    HW221318   2.540   4.173   2.719  0.4474  0.2410 -0.8016
 3287SOL     OW21319   2.778   1.516  12.370 -0.1526 -0.4843  0.4541
 3287SOL    HW121320   2.870   1.492  12.381  0.4677  1.4006 -0.6961
 3287SOL    HW221321   2.788   1.611  12.369 -2.6038 -0.2303 -0.6379
 3288SOL     OW21322   2.832   3.452   5.520 -0.4484 -0.2967 -0.0448
 3288SOL    HW121323   2.850   3.451   5.426  0.6385 -0.6165  0.1692
 3288SOL    HW221324   2.920   3.434   5.553 -0.2808  0.4646 -0.0704
 3289SOL     OW21325   2.202   0.229   3.569  0.2619 -0.0435 -0.3565
 3289SOL    HW121326   2.198   0.183   3.653  1.4362  1.3499  0.4558
 3289SOL    HW221327   2.110   0.253   3.557  0.8176  2.0442 -0.2657
 3290SOL     OW21328   2.509   1.809   3.373  0.2948 -0.2745  0.6060
 3290SOL    HW121329   2.564   1.745   3.418 -2.1937 -2.5543  0.4030
 3290SOL    HW221330   2.466   1.752   3.309  1.7434  1.3320 -1.7753
 3291SOL     OW21331   0.705   0.456   2.250  0.2625  0.2354  0.1325
 3291SOL    HW121332   0.737   0.519   2.315 -0.4709 -0.6057  1.3089
 3291SOL    HW221333   0.752   0.488   2.173 -3.5058  0.8013 -1.9857
 3292SOL     OW21334   3.859   0.422   7.042 -0.3086  0.0214 -0.4434
 3292SOL    HW121335   3.798   0.359   7.002 -1.5487  0.1915  1.1674
 3292SOL    HW221336   3.945   0.383   7.030 -0.2271 -0.2455  1.0088
 3293SOL     OW21337   0.713   1.262   1.698  0.3590  0.8487 -0.5941
 3293SOL    HW121338   0.626   1.234   1.727  0.6526 -0.5254 -1.0501
 3293SOL    HW221339   0.692   1.347   1.658 -0.9607  1.1712  0.7662
 3294SOL     OW21340   0.354   2.934  12.871  0.1346 -0.3695 -0.2933
 3294SOL    HW121341   0.343   2.845  12.838 -2.7063 -0.9563  2.1863
 3294SOL    HW221342   0.438   2.968  12.839 -0.2946  1.0801  0.0851
 3295SOL     OW21343   1.312   4.013   2.598  0.6623  0.7979  0.4877
 3295SOL    HW121344   1.352   4.057   2.524  0.5719 -2.3593 -1.4320
 3295SOL    HW221345   1.382   3.955   2.629  0.5476 -0.3425 -1.3974
 3296SOL     OW21346   0.566   3.402  15.838  0.2283  0.0509  0.0219
 3296SOL    HW121347   0.630   3.361  15.896 -0.0055 -0.6096 -0.1914
 3296SOL    HW221348   0.597   3.379  15.750  3.3907  1.1240  0.8449
 3297SOL     OW21349   1.151   3.639   1.426  0.8876 -0.1346 -0.0779
 3297SOL    HW121350   1.185   3.554   1.454  2.1088  0.0015 -1.1030
 3297SOL    HW221351   1.138   3.687   1.508 -1.7910  0.7922 -1.0612
 3298SOL     OW21352   2.261   3.647   8.352 -0.1576  0.5055 -0.2489
 3298SOL    HW121353   2.349   3.632   8.385 -0.0540  3.0792  0.5623
 3298SOL    HW221354   2.199   3.622   8.421 -0.0690 -1.7646 -0.9710
 3299SOL     OW21355   4.611   0.319   0.521 -0.5472  0.1670 -0.3814
 3299SOL    HW121356   4.562   0.400   0.533 -1.3681 -0.4075  0.1586
 3299SOL    HW221357   4.637   0.310   0.612 -0.2119 -0.8497 -0.5824
 3300SOL     OW21358   3.151   0.778   3.629  0.5249  0.3904 -0.4112
 3300SOL    HW121359   3.193   0.702   3.590 -3.5599 -1.4235 -1.2502
 3300SOL    HW221360   3.162   0.841   3.557  0.8711  1.2745  0.4149
 3301SOL     OW21361   1.605   3.749   5.821  0.0278  0.0708  0.1376
 3301SOL    HW121362   1.660   3.686   5.868  1.1505 -0.8590 -2.3923
 3301SOL    HW221363   1.660   3.827   5.812  0.8898 -0.5960 -0.4475
 3302SOL     OW21364   0.332   0.799  16.605 -0.1837  0.3012  0.0751
 3302SOL    HW121365   0.421   0.767  16.589 -0.4494 -0.3061 -0.2109
 3302SOL    HW221366   0.342   0.878  16.657  1.7048  1.4723 -2.0810
 3303SOL     OW21367   0.599   0.292   4.877 -0.2518  0.7545 -0.2744
 3303SOL    HW121368   0.515   0.304   4.920 -0.6449  1.9943 -1.3787
 3303SOL    HW221369   0.659   0.298   4.952  1.2049 -2.1741 -1.1903
 3304SOL     OW21370   0.944   3.384  14.366  0.2448 -0.6943 -0.3739
 3304SOL    HW121371   0.870   3.351  14.418  0.4486 -0.3100  0.1689
 3304SOL    HW221372   0.996   3.306  14.348 -2.5820 -3.0432  1.5481
 3305SOL     OW21373   4.223   3.324   4.194  0.1498 -0.6675  0.1206
 3305SOL    HW121374   4.311   3.329   4.156  1.0973  0.1133  2.4470
 3305SOL    HW221375   4.174   3.322   4.111  1.9676  0.4666 -0.9841
 3306SOL     OW21376   2.031   3.144  10.413 -0.4798 -0.4066 -0.3065
 3306SOL    HW121377   2.053   3.182  10.328  0.6982 -1.4483 -0.4808
 3306SOL    HW221378   2.101   3.079  10.426 -2.7658 -2.0832  3.5137
 3307SOL     OW21379   1.140   2.964   5.604 -0.1135  0.4493  0.3686
 3307SOL    HW121380   1.093   2.887   5.571  1.5743 -0.3174 -0.2760
 3307SOL    HW221381   1.094   3.034   5.557 -0.3949 -0.0578 -0.1171
 3308SOL     OW21382   3.471   3.374  11.737 -0.1974 -0.6477  0.1891
 3308SOL    HW121383   3.476   3.279  11.727  0.6171 -0.3493 -2.3712
 3308SOL    HW221384   3.469   3.396  11.643  1.2471 -0.7176  0.1516
 3309SOL     OW21385   0.320   1.014   2.149 -0.6412 -0.1167 -0.5846
 3309SOL    HW121386   0.229   1.043   2.145  0.5128  3.3873 -1.6523
 3309SOL    HW221387   0.356   1.078   2.088  1.3158 -1.4645 -0.8432
 3310SOL     OW21388   1.828   0.957   6.278 -0.2160  0.8802 -0.0940
 3310SOL    HW121389   1.849   0.940   6.370 -3.2977 -3.9885 -0.3122
 3310SOL    HW221390   1.797   0.869   6.257 -1.1132  1.3972 -0.9707
 3311SOL     OW21391   2.493   0.662   6.676 -0.2405 -0.1454 -0.0615
 3311SOL    HW121392   2.407   0.632   6.703 -0.0701 -0.5803  0.0065
 3311SOL    HW221393   2.470   0.717   6.601 -0.0477  1.8706  1.3569
 3312SOL     OW21394   2.312   1.916  15.220 -0.0244 -0.2146 -0.2910
 3312SOL    HW121395   2.362   1.860  15.161  0.1628 -0.0070 -0.3306
 3312SOL    HW221396   2.351   1.897  15.305  0.7484  0.2617 -0.5422
 3313SOL     OW21397   1.301   0.947  14.450  0.1241 -0.0997  0.1267
 3313SOL    HW121398   1.338   0.912  14.531  0.2350  1.3092  0.6758
 3313SOL    HW221399   1.335   0.877  14.395 -1.7929 -2.2988  1.7500
 3314SOL     OW21400   1.062   1.984   4.858 -0.1660  0.1256  0.4963
 3314SOL    HW121401   1.085   1.918   4.793 -1.7056  0.8699 -0.8168
 3314SOL    HW221402   0.967   1.975   4.862 -0.1577  0.7267  2.1022
 3315SOL     OW21403   3.353   2.788   3.031 -0.1437 -0.7339  0.2249
 3315SOL    HW121404   3.441   2.752   3.016  0.5162  0.9135  0.2019
 3315SOL    HW221405   3.302   2.714   2.998 -1.9192  0.3898  0.4924
 3316SOL     OW21406   3.028   3.302   2.793 -0.1354  0.1561 -0.0444
 3316SOL    HW121407   3.122   3.289   2.781 -0.1076 -0.0044  0.3615
 3316SOL    HW221408   2.997   3.307   2.702  1.5085 -2.3643 -0.7537
 3317SOL     OW21409   1.585   0.134   1.365  0.2360  0.0670 -0.0155
 3317SOL    HW121410   1.597   0.050   1.408  1.4454  0.0488 -0.3980
 3317SOL    HW221411   1.677   0.161   1.368  0.2731 -0.1691  1.0109
 3318SOL     OW21412   1.341   2.293  15.355 -0.2282  0.0715 -0.3056
 3318SOL    HW121413   1.278   2.238  15.403 -0.5176 -1.4287 -2.3977
 3318SOL    HW221414   1.408   2.290  15.423  1.1506  3.0001 -1.5464
 3319SOL     OW21415   4.689   2.579   7.852 -0.2972 -0.3450 -0.5072
 3319SOL    HW121416   4.641   2.653   7.816 -0.8623 -1.3438 -1.7889
 3319SOL    HW221417   0.049   2.586   7.806  0.4538 -0.5153  0.8130
 3320SOL     OW21418   1.963   0.202  15.461 -0.4423  0.3607  0.0919
 3320SOL    HW121419   2.043   0.234  15.419 -2.6747  4.6673 -0.8678
 3320SOL    HW221420   1.921   0.148  15.394  1.0093 -0.9489  0.2431
 3321SOL     OW21421   4.631   0.862   6.082  0.1303 -0.3896 -0.2705
 3321SOL    HW121422   4.721   0.872   6.113  0.2587  2.1962 -1.4039
 3321SOL    HW221423   4.625   0.769   6.065  1.2173 -0.4796 -0.1821
 3322SOL     OW21424   2.469   3.432  14.691 -0.3644 -0.0125 -0.0352
 3322SOL    HW121425   2.560   3.439  14.661 -0.5151  0.0293 -0.4745
 3322SOL    HW221426   2.492   3.456  14.781  0.9656  0.3636 -0.4705
 3323SOL     OW21427   4.351   4.118   3.798  0.3558  0.9899 -0.1212
 3323SOL    HW121428   4.423   4.055   3.792 -0.7378 -0.1830 -1.2197
 3323SOL    HW221429   4.395   4.195   3.832  2.1675 -0.1239  0.0242
 3324SOL     OW21430   2.998   1.868   7.332  0.3011  0.4194 -0.7203
 3324SOL    HW121431   3.086   1.873   7.293  0.6675  3.0762  0.4212
 3324SOL    HW221432   2.944   1.830   7.264  0.3567  0.9245 -1.0501
 3325SOL     OW21433   4.607   4.219   1.055 -0.3377  0.0145 -0.1715
 3325SOL    HW121434   4.688   4.174   1.029  0.4638  0.1553  2.0488
 3325SOL    HW221435   4.556   4.206   0.975  0.0030 -2.3878 -0.0206
 3326SOL     OW21436   3.365   4.416   4.635 -0.0944 -0.1170 -0.3155
 3326SOL    HW121437   3.276   4.451   4.642  0.3685  0.7578  1.2741
 3326SOL    HW221438   3.380   4.380   4.723  0.7399  1.3006  0.1290
 3327SOL     OW21439   0.223   0.588   8.498 -0.3385  0.0782 -0.2219
 3327SOL    HW121440   0.294   0.645   8.468 -0.2400 -0.7325 -1.5104
 3327SOL    HW221441   0.218   0.526   8.426  0.9149 -3.2597  2.5702
 3328SOL     OW21442   0.851   2.915  12.600 -0.1944  0.0243  0.2735
 3328SOL    HW121443   0.871   2.865  12.522  3.0603  2.8806 -0.7427
 3328SOL    HW221444   0.856   3.004  12.565  0.9391 -0.5278 -0.9534
 3329SOL     OW21445   4.667   3.064   0.549  0.1004 -0.0624 -0.5039
 3329SOL    HW121446   0.028   3.047   0.509  2.3303  2.7156  3.0397
 3329SOL    HW221447   4.613   3.099   0.478  0.6016 -0.2524 -0.9759
 3330SOL     OW21448   3.291   3.031   7.235 -0.1541 -0.4312 -0.4004
 3330SOL    HW121449   3.311   3.045   7.327  0.5982 -1.7434 -0.3609
 3330SOL    HW221450   3.309   3.118   7.200  0.1634 -0.1069  0.5752
 3331SOL     OW21451   0.904   0.381   4.582  0.7017 -0.1963  0.4934
 3331SOL    HW121452   0.820   0.409   4.618  0.3960  1.2018 -1.3003
 3331SOL    HW221453   0.883   0.287   4.585  0.8054 -0.2180  0.5520
 3332SOL     OW21454   0.848   3.997   3.600  0.5173  0.6683  0.2472
 3332SOL    HW121455   0.907   3.984   3.526  0.3424  0.1264  0.2086
 3332SOL    HW221456   0.869   3.922   3.656  1.1019 -0.1674 -1.0981
 3333SOL     OW21457   1.416   0.338   0.100  0.5193 -0.3152  0.7466
 3333SOL    HW121458   1.348   0.399   0.128  0.3270 -0.6792  1.0880
 3333SOL    HW221459   1.399   0.334   0.006  1.2990  0.1510  0.5860
 3334SOL     OW21460   0.306   4.503   1.690 -0.5797  0.2864 -0.1452
 3334SOL    HW121461   0.307   4.597   1.673 -1.3795  0.2632 -0.3174
 3334SOL    HW221462   0.334   4.475   1.603  0.2811  1.2982 -0.1800
 3335SOL     OW21463   0.652   4.052   6.089  0.1148 -0.2474 -0.1854
 3335SOL    HW121464   0.733   4.034   6.137 -0.5530  0.4938  1.2199
 3335SOL    HW221465   0.597   4.091   6.156 -1.1417 -2.4026  0.0502
 3336SOL     OW21466   0.439   1.174   3.402 -0.4349 -0.3339  0.0851
 3336SOL    HW121467   0.442   1.268   3.387  1.3374 -0.4586 -0.3466
 3336SOL    HW221468   0.408   1.135   3.320  0.8703  0.1385 -0.6283
 3337SOL     OW21469   2.959   2.425   1.279  0.2206  0.4475 -0.6525
 3337SOL    HW121470   3.043   2.471   1.279  1.4964 -1.8535  0.7642
 3337SOL    HW221471   2.984   2.348   1.227  1.1982  0.0353  0.4203
 3338SOL     OW21472   4.056   4.694  17.541 -0.3067 -0.2852 -0.1639
 3338SOL    HW121473   3.965   4.715  17.565  0.2058  2.4174 -0.5306
 3338SOL    HW221474   4.065   4.619  17.599 -3.0880 -1.5930 -1.3847
 3339SOL     OW21475   0.209   4.302   6.382 -0.3819 -0.0369 -0.1462
 3339SOL    HW121476   0.154   4.232   6.349  2.7380 -1.9593 -1.2869
 3339SOL    HW221477   0.170   4.302   6.469 -1.4555 -0.8664 -0.6296
 3340SOL     OW21478   3.968   1.805  17.225 -0.5476  0.0247 -0.0873
 3340SOL    HW121479   4.023   1.804  17.303  0.2961  0.8475 -0.6813
 3340SOL    HW221480   3.975   1.714  17.197  2.1449 -0.5003  2.2899
 3341SOL     OW21481   0.283   0.014   7.188  0.2211 -0.0251 -0.5988
 3341SOL    HW121482   0.269   0.018   7.283 -0.5890  0.3379 -0.7341
 3341SOL    HW221483   0.362   0.067   7.180 -1.3228  2.6906  1.8865
 3342SOL     OW21484   3.548   1.783   6.938 -0.4057  0.2916  0.3867
 3342SOL    HW121485   3.570   1.775   7.031  0.5412 -3.2344 -0.1585
 3342SOL    HW221486   3.462   1.826   6.938 -0.3036  0.4864 -1.7940
 3343SOL     OW21487   2.837   1.543   5.309 -0.5497  1.1524 -0.4856
 3343SOL    HW121488   2.759   1.490   5.293 -0.6688  1.1112  0.2656
 3343SOL    HW221489   2.877   1.544   5.222 -0.4372  3.3719 -0.4190
 3344SOL     OW21490   1.388   0.110  11.510  0.4061  0.1590 -0.1959
 3344SOL    HW121491   1.465   0.094  11.455 -0.9278 -0.7394 -1.7904
 3344SOL    HW221492   1.319   0.106  11.444  1.7119  0.0070 -1.5576
 3345SOL     OW21493   0.552   2.820   4.894  0.1732 -0.2878  0.6437
 3345SOL    HW121494   0.480   2.764   4.867  0.9813 -1.0278  0.0001
 3345SOL    HW221495   0.583   2.861   4.814 -2.3448  0.0689 -0.1315
 3346SOL     OW21496   1.230   3.370  17.286  0.2652  0.1334  0.0018
 3346SOL    HW121497   1.141   3.390  17.256 -0.6422  0.3289  2.8278
 3346SOL    HW221498   1.254   3.445  17.342 -3.2583  1.0665  0.2443
 3347SOL     OW21499   3.999   0.713   7.943 -0.2519  0.2649  0.5635
 3347SOL    HW121500   3.953   0.663   7.875 -2.0313 -0.7004  2.5023
 3347SOL    HW221501   4.042   0.644   7.994 -1.2260  0.7616  2.0584
 3348SOL     OW21502   3.831   3.116   5.922 -0.2291  0.7136 -0.0639
 3348SOL    HW121503   3.825   3.194   5.866 -1.1191  0.2848 -0.5611
 3348SOL    HW221504   3.744   3.080   5.907 -2.0172  4.3561  1.4856
 3349SOL     OW21505   0.509   3.226  11.387 -0.1982 -0.1650 -0.2148
 3349SOL    HW121506   0.602   3.210  11.400 -0.0408  0.8952 -0.0075
 3349SOL    HW221507   0.494   3.156  11.324 -0.5170  0.2324 -0.5862
 3350SOL     OW21508   3.759   1.058  11.865  0.1316  0.0747  0.2217
 3350SOL    HW121509   3.711   0.977  11.883  1.1519 -0.2816  1.3982
 3350SOL    HW221510   3.782   1.082  11.955 -1.5991 -2.3946  1.3081
 3351SOL     OW21511   3.300   4.087  10.249 -0.1057  0.6060 -0.3008
 3351SOL    HW121512   3.233   4.122  10.307  0.7719 -2.9403  2.8092
 3351SOL    HW221513   3.373   4.141  10.279  0.9080  1.2793 -3.8948
 3352SOL     OW21514   0.328   1.587  12.470  0.0083 -0.0582 -0.0498
 3352SOL    HW121515   0.242   1.565  12.433 -0.4239 -0.6707  1.3105
 3352SOL    HW221516   0.366   1.637  12.398  1.4246  0.6084  1.1624
 3353SOL     OW21517   4.135   3.283   5.315 -0.5459 -0.6534 -0.2282
 3353SOL    HW121518   4.041   3.299   5.316 -0.4631 -0.1087 -0.6310
 3353SOL    HW221519   4.144   3.224   5.389 -0.5970 -0.4241 -0.0406
 3354SOL     OW21520   0.711   0.752  14.279  0.1478 -0.3879  0.2546
 3354SOL    HW121521   0.693   0.826  14.220 -1.0293 -1.8445 -1.2343
 3354SOL    HW221522   0.805   0.740  14.265  0.3719  0.2993  1.1789
 3355SOL     OW21523   0.879   1.087   1.579  0.1193  0.4119  0.2525
 3355SOL    HW121524   0.833   1.007   1.607  1.9935 -1.4091 -1.8067
 3355SOL    HW221525   0.829   1.154   1.625 -1.3454 -1.2088  1.0208
 3356SOL     OW21526   3.202   3.189  13.343  0.5094 -0.0017  0.3031
 3356SOL    HW121527   3.243   3.124  13.399 -0.6915 -2.0705 -1.2117
 3356SOL    HW221528   3.251   3.269  13.363 -0.3139  0.2081  1.5378
 3357SOL     OW21529   2.401   4.208   4.145  0.1263  0.1093 -0.1851
 3357SOL    HW121530   2.398   4.190   4.052 -0.7840 -0.1579 -0.0955
 3357SOL    HW221531   2.324   4.263   4.132 -1.7418 -1.8523  2.5151
 3358SOL     OW21532   2.604   2.216   7.908  0.0675 -0.5403 -0.0988
 3358SOL    HW121533   2.531   2.156   7.892 -1.5784  1.0575  1.4646
 3358SOL    HW221534   2.646   2.162   7.975 -0.1667  0.8495  1.1797
 3359SOL     OW21535   2.245   4.061  15.336  0.1668  0.0782 -0.0837
 3359SOL    HW121536   2.309   3.992  15.316  0.1225 -0.1615  0.5832
 3359SOL    HW221537   2.241   4.059  15.432  0.5077  0.7660 -0.0559
 3360SOL     OW21538   4.530   3.174   2.709 -0.2033  0.5253  0.0549
 3360SOL    HW121539   4.469   3.223   2.763 -0.6464 -1.2619  1.1870
 3360SOL    HW221540   4.458   3.121   2.675  1.1840 -1.3478  0.0411
 3361SOL     OW21541   4.672   3.496   8.956 -0.2743  0.5356 -0.0369
 3361SOL    HW121542   4.682   3.499   9.051  0.7246  0.1710 -0.1352
 3361SOL    HW221543   4.666   3.591   8.946 -1.2596  0.2512 -2.1897
 3362SOL     OW21544   2.300   3.969   3.427 -0.1567 -0.4673 -0.2588
 3362SOL    HW121545   2.244   3.920   3.486  1.0725 -1.0416  0.4435
 3362SOL    HW221546   2.344   4.021   3.495 -0.4310 -1.9493  1.0282
 3363SOL     OW21547   1.319   2.302   2.608  0.4038  0.2841  0.1108
 3363SOL    HW121548   1.345   2.229   2.664 -2.3048  1.2409  2.5632
 3363SOL    HW221549   1.252   2.350   2.655  0.1693 -0.4434  0.5155
 3364SOL     OW21550   0.985   3.239   1.983  0.3303  0.4438  0.0971
 3364SOL    HW121551   1.029   3.311   2.027  0.8232  0.2639 -0.0988
 3364SOL    HW221552   0.905   3.231   2.036 -1.3705  0.1344 -2.5271
 3365SOL     OW21553   4.003   3.074   7.898 -0.4246 -0.6302  0.0879
 3365SOL    HW121554   3.948   3.018   7.952 -0.6143 -1.7096 -1.2302
 3365SOL    HW221555   4.014   3.159   7.942 -3.2755 -1.1099  1.6849
 3366SOL     OW21556   1.455   2.544   3.629  0.0438  0.4984  0.5771
 3366SOL    HW121557   1.492   2.462   3.661  2.7982  1.4536 -0.1396
 3366SOL    HW221558   1.427   2.587   3.710 -0.8307  0.0099  0.5322
 3367SOL     OW21559   0.925   1.813   1.283 -0.4528 -0.3118 -0.0573
 3367SOL    HW121560   0.973   1.866   1.219 -0.6214 -0.1132 -0.0191
 3367SOL    HW221561   0.958   1.730   1.249 -2.7114 -0.2887 -2.3379
 3368SOL     OW21562   0.102   0.797   9.096  0.6372  0.4544  0.4829
 3368SOL    HW121563   0.064   0.873   9.139 -0.9693  0.0389 -0.2200
 3368SOL    HW221564   0.028   0.791   9.035  1.3006 -0.3035 -0.2582
 3369SOL     OW21565   0.820   2.747  17.480  0.1961 -0.0294 -0.5389
 3369SOL    HW121566   0.880   2.756  17.554  0.6136 -0.7511 -0.7869
 3369SOL    HW221567   0.871   2.677  17.440  1.1405  2.0476 -2.9520
 3370SOL     OW21568   3.709   1.358   6.769 -0.2334 -0.4071  0.4885
 3370SOL    HW121569   3.783   1.301   6.748 -0.3117 -0.2214 -0.3156
 3370SOL    HW221570   3.640   1.313   6.719  0.1614 -0.0477 -0.3713
 3371SOL     OW21571   4.722   2.865   0.024 -0.0742  0.5803  0.0541
 3371SOL    HW121572   0.083   2.907   0.019 -0.1654  0.7741  0.1251
 3371SOL    HW221573   0.012   2.783   0.071  0.5800 -0.4710 -1.9752
 3372SOL     OW21574   3.756   3.147   0.289 -0.0290 -0.3421  0.5365
 3372SOL    HW121575   3.822   3.133   0.357  1.6694 -0.7991 -1.2206
 3372SOL    HW221576   3.742   3.062   0.247  1.4471 -0.2745 -0.0835
 3373SOL     OW21577   3.051   1.497  12.409  0.0932  0.7396  0.0587
 3373SOL    HW121578   3.138   1.472  12.440 -0.2511  1.1830  1.3846
 3373SOL    HW221579   3.017   1.546  12.484 -0.7095 -1.7206  1.2933
 3374SOL     OW21580   2.831   3.425   6.635 -0.7373 -0.0357  0.0863
 3374SOL    HW121581   2.760   3.459   6.582  1.0564  3.6607  0.0241
 3374SOL    HW221582   2.801   3.410   6.725  0.1011  0.9121  0.5411
 3375SOL     OW21583   3.813   0.994   9.280  0.9930 -0.1917  0.0479
 3375SOL    HW121584   3.818   0.924   9.215  0.2616  0.2313 -0.4661
 3375SOL    HW221585   3.902   0.979   9.313  1.9864 -0.2195 -2.6837
 3376SOL     OW21586   1.264   1.533   2.842  0.3068  0.3113  0.1875
 3376SOL    HW121587   1.181   1.505   2.805  0.8058 -0.7111 -0.1788
 3376SOL    HW221588   1.326   1.462   2.821  0.1675  0.9567 -2.4237
 3377SOL     OW21589   0.069   4.482  16.268 -0.6927  0.9989 -0.1818
 3377SOL    HW121590   0.065   4.440  16.182  0.1347 -0.2353  0.3882
 3377SOL    HW221591   0.040   4.416  16.332  0.7175  0.7003  0.1520
 3378SOL     OW21592   4.468   2.183   7.231  0.1124 -0.0617  0.1835
 3378SOL    HW121593   4.512   2.105   7.265  4.5398  2.4369  0.1706
 3378SOL    HW221594   4.517   2.200   7.150 -1.5167 -1.7359 -1.1535
 3379SOL     OW21595   3.797   2.437   6.406 -0.2045 -0.9549  0.0358
 3379SOL    HW121596   3.736   2.437   6.479  0.1745  0.3335  0.3453
 3379SOL    HW221597   3.883   2.419   6.445  0.4631 -0.2953 -1.1036
 3380SOL     OW21598   4.467   0.789   7.285  0.4394 -0.0149  0.3812
 3380SOL    HW121599   4.496   0.820   7.371  0.5783  1.9848 -0.3776
 3380SOL    HW221600   4.495   0.697   7.282  0.7223  0.0440  1.2959
 3381SOL     OW21601   3.615   3.446   8.065 -0.7426  0.0242 -0.5513
 3381SOL    HW121602   3.696   3.489   8.038  0.4802 -1.7373  0.3287
 3381SOL    HW221603   3.609   3.488   8.151 -0.6754 -0.8962 -0.1001
 3382SOL     OW21604   1.760   4.635   5.116  0.2179  0.4981 -1.0004
 3382SOL    HW121605   1.831   4.689   5.151 -1.1132  1.9218 -0.4770
 3382SOL    HW221606   1.805   4.614   5.035  0.6317 -3.8422  0.3350
 3383SOL     OW21607   4.688   0.829   8.387  0.1369  0.3880 -0.0556
 3383SOL    HW121608   4.620   0.866   8.444 -1.6310  1.1354 -2.6934
 3383SOL    HW221609   0.040   0.829   8.446 -0.3826  0.4925  0.6239
 3384SOL     OW21610   0.460   2.430   9.598  0.0494 -0.5546 -0.6701
 3384SOL    HW121611   0.489   2.346   9.564  0.4192 -1.5334  2.0626
 3384SOL    HW221612   0.511   2.456   9.675  0.2907 -1.7093 -0.4491
 3385SOL     OW21613   4.645   2.685   0.436 -0.3435 -0.5519  0.0701
 3385SOL    HW121614   4.641   2.590   0.453 -2.0247 -0.5945 -0.5893
 3385SOL    HW221615   4.569   2.701   0.381 -1.5920 -0.4675  1.8266
 3386SOL     OW21616   0.708   1.804   6.145  0.0853  0.6499  1.6556
 3386SOL    HW121617   0.664   1.803   6.060  2.6193 -1.4517  0.3725
 3386SOL    HW221618   0.671   1.730   6.194  0.6485 -0.2168  0.7753
 3387SOL     OW21619   2.191   0.414  15.006  0.3113 -0.3898 -0.4752
 3387SOL    HW121620   2.269   0.415  15.062 -0.9045 -1.0752  1.1972
 3387SOL    HW221621   2.220   0.433  14.917 -0.3730  0.6254 -0.4707
 3388SOL     OW21622   1.764   0.411   3.338  0.5778 -0.2605  0.3644
 3388SOL    HW121623   1.826   0.469   3.294  2.1802 -2.4852 -0.3112
 3388SOL    HW221624   1.710   0.469   3.392 -0.3503 -0.0891 -0.7648
 3389SOL     OW21625   2.330   2.224   6.082 -0.3508  0.2956 -0.1836
 3389SOL    HW121626   2.308   2.148   6.135  3.3305 -0.5617  0.0662
 3389SOL    HW221627   2.321   2.191   5.992  2.3505 -0.1911 -0.2682
 3390SOL     OW21628   0.862   3.960   9.920  0.6968 -0.4054  0.3215
 3390SOL    HW121629   0.806   3.969   9.842  0.3095 -1.0126  0.5370
 3390SOL    HW221630   0.927   4.028   9.899 -0.2955  0.5135  0.2235
 3391SOL     OW21631   0.304   1.359   5.807  0.7544  0.4419 -0.2006
 3391SOL    HW121632   0.293   1.380   5.715 -0.0183  0.5075 -0.0936
 3391SOL    HW221633   0.213   1.348   5.832  1.5371 -1.7766  1.6866
 3392SOL     OW21634   3.045   1.389  10.071  0.2624  0.0716 -0.1525
 3392SOL    HW121635   2.957   1.353  10.062  0.0556  0.0809  1.9162
 3392SOL    HW221636   3.029   1.481  10.054  1.8270  0.2229 -0.8326
 3393SOL     OW21637   0.924   1.217   3.583  0.0692 -0.3962 -0.6874
 3393SOL    HW121638   0.864   1.145   3.598  1.9526 -1.8656 -0.2201
 3393SOL    HW221639   0.979   1.211   3.661  0.2141 -1.1936 -0.8565
 3394SOL     OW21640   0.348   1.922   1.890 -0.2445 -0.4347  0.0125
 3394SOL    HW121641   0.305   1.971   1.960 -1.1689 -2.2524  0.7242
 3394SOL    HW221642   0.281   1.909   1.823  0.1229 -0.8341 -0.2802
 3395SOL     OW21643   1.055   0.391  13.306 -0.4829  0.2363 -0.7958
 3395SOL    HW121644   0.998   0.468  13.296  1.6941  2.0205  0.5980
 3395SOL    HW221645   1.105   0.394  13.224 -0.3951  1.0799 -0.7140
 3396SOL     OW21646   1.921   2.700   4.083  0.5877  0.6849 -0.1078
 3396SOL    HW121647   1.829   2.677   4.091  1.0310 -1.0651 -0.0380
 3396SOL    HW221648   1.961   2.666   4.163  1.0385  0.2192 -0.5293
 3397SOL     OW21649   1.588   1.715   6.874  0.8645 -0.1971  0.3108
 3397SOL    HW121650   1.595   1.691   6.782  1.0350  0.9999  0.0082
 3397SOL    HW221651   1.572   1.809   6.865  2.4728  0.4039  3.6328
 3398SOL     OW21652   1.340   4.291   4.071 -0.1986 -0.0025  0.2121
 3398SOL    HW121653   1.251   4.265   4.048 -0.3883 -0.1997  1.1671
 3398SOL    HW221654   1.319   4.338   4.151  1.8614  0.0303  0.7303
 3399SOL     OW21655   0.255   3.524   8.878 -0.3595  0.3292  0.0305
 3399SOL    HW121656   0.234   3.446   8.930  1.3554 -0.0189  0.2122
 3399SOL    HW221657   0.232   3.597   8.935  1.3957  0.4379  0.5978
 3400SOL     OW21658   3.558   0.611  12.565  1.0321  0.1142  0.0058
 3400SOL    HW121659   3.568   0.604  12.470  0.3785  1.1455 -0.1276
 3400SOL    HW221660   3.638   0.564  12.590  0.3981 -0.4871  0.9080
 3401SOL     OW21661   1.146   4.689   6.363  0.3638 -0.5020 -0.3734
 3401SOL    HW121662   1.066   0.007   6.330  1.6590  3.1082  1.0584
 3401SOL    HW221663   1.103   4.637   6.430  1.9103 -1.0430  0.1984
 3402SOL     OW21664   4.296   1.768   3.982  0.1800 -0.1935  0.0962
 3402SOL    HW121665   4.297   1.757   3.887  2.5102  0.0327  0.1068
 3402SOL    HW221666   4.337   1.687   4.013 -2.7132 -1.0937  1.5698
 3403SOL     OW21667   4.104   3.136   4.351 -0.0280 -0.6490  0.0915
 3403SOL    HW121668   4.149   3.217   4.327 -0.1115 -0.4219  0.7110
 3403SOL    HW221669   4.175   3.081   4.385 -0.4360 -0.7932  0.7147
 3404SOL     OW21670   3.319   1.920   6.367  0.8608 -0.2749 -0.0186
 3404SOL    HW121671   3.375   1.868   6.424  0.4573  0.2239  0.8336
 3404SOL    HW221672   3.264   1.851   6.330  1.1159 -0.9966  0.9521
 3405SOL     OW21673   3.931   1.636   7.605 -0.4410 -0.0611  0.0855
 3405SOL    HW121674   3.846   1.675   7.583  0.3060  1.6017  0.1573
 3405SOL    HW221675   3.940   1.564   7.542 -0.6832  1.5841 -1.8384
 3406SOL     OW21676   2.538   4.249  11.935 -0.8929  0.3326  0.2222
 3406SOL    HW121677   2.480   4.225  12.007 -1.3727  0.3208 -0.1703
 3406SOL    HW221678   2.495   4.329  11.903  2.2949  2.3210  0.9238
 3407SOL     OW21679   1.531   2.846   6.281  0.4773  0.2272  0.5135
 3407SOL    HW121680   1.607   2.899   6.256  1.0909 -0.6416  0.5224
 3407SOL    HW221681   1.503   2.897   6.357  0.8365 -2.4145  2.4400
 3408SOL     OW21682   1.928   2.470  16.988  0.1416  0.2854 -0.0265
 3408SOL    HW121683   2.018   2.491  16.966  1.4121 -0.6337  4.2204
 3408SOL    HW221684   1.929   2.399  17.052  1.8307 -0.0183 -0.4026
 3409SOL     OW21685   0.114   0.759  17.651 -0.1545  0.0951  0.5794
 3409SOL    HW121686   0.128   0.826   0.019 -2.3055  1.9857 -0.8636
 3409SOL    HW221687   0.061   0.804  17.585 -0.1534 -1.3199 -0.3756
 3410SOL     OW21688   3.832   3.503   2.213 -0.0501 -0.1514  0.4735
 3410SOL    HW121689   3.823   3.592   2.180 -1.5445 -0.3028  0.4805
 3410SOL    HW221690   3.884   3.518   2.292 -0.0582 -0.8816  0.6173
 3411SOL     OW21691   0.690   0.638   2.488 -0.6562  0.2091  0.3153
 3411SOL    HW121692   0.675   0.657   2.581  1.7158  3.6466 -0.0166
 3411SOL    HW221693   0.684   0.725   2.449 -0.9256 -1.5409 -3.5079
 3412SOL     OW21694   3.104   4.067   8.040 -0.1586  0.5097  0.4738
 3412SOL    HW121695   3.164   4.124   7.991  2.8132 -1.0487  2.2723
 3412SOL    HW221696   3.103   3.989   7.984 -1.1019 -0.4241  1.7941
 3413SOL     OW21697   2.102   2.173  16.903 -0.2296 -0.5493  0.5290
 3413SOL    HW121698   2.146   2.129  16.975 -2.2765 -1.5908  1.1368
 3413SOL    HW221699   2.119   2.265  16.927 -0.8561 -0.2798 -0.0672
 3414SOL     OW21700   4.396   3.887   2.980  0.0740 -0.2790  0.0075
 3414SOL    HW121701   4.315   3.887   3.031  1.3053 -0.2784  1.9822
 3414SOL    HW221702   4.365   3.851   2.898 -1.2209  2.1155 -0.5652
 3415SOL     OW21703   1.381   4.524   2.380 -0.5461  0.5644 -0.4362
 3415SOL    HW121704   1.393   4.482   2.465 -1.0688 -3.6709 -2.4503
 3415SOL    HW221705   1.393   4.617   2.398  2.4522 -0.3054  1.9967
 3416SOL     OW21706   0.224   0.554   4.374 -0.5867 -0.2667  0.3505
 3416SOL    HW121707   0.130   0.572   4.369 -0.2997  1.2704  0.6512
 3416SOL    HW221708   0.228   0.458   4.364 -0.5997 -0.2612  0.2854
 3417SOL     OW21709   4.472   0.175   0.214 -0.6838  0.2281 -0.2801
 3417SOL    HW121710   4.545   0.235   0.234  0.3892 -0.6178 -1.6759
 3417SOL    HW221711   4.505   0.131   0.136 -2.4934 -0.5966 -0.5750
 3418SOL     OW21712   4.249   0.389   9.712  0.1113  0.6099  0.7055
 3418SOL    HW121713   4.320   0.341   9.755 -1.5464 -1.2606  1.3288
 3418SOL    HW221714   4.298   0.464   9.678  1.3367 -0.8739 -0.7962
 3419SOL     OW21715   2.844   2.913   7.089 -0.2198  0.2675 -0.0017
 3419SOL    HW121716   2.811   2.923   7.178  0.3982  1.1583  0.1323
 3419SOL    HW221717   2.821   2.994   7.044 -0.6562 -0.4502 -1.0657
 3420SOL     OW21718   4.178   3.046  12.484 -0.0286  0.6070  0.0321
 3420SOL    HW121719   4.088   3.054  12.516 -0.5788 -1.3310 -1.0136
 3420SOL    HW221720   4.167   3.095  12.403  0.3370  1.4713  0.5082
 3421SOL     OW21721   1.982   3.403   8.419  0.2314  0.0967  0.5505
 3421SOL    HW121722   1.938   3.361   8.493  0.2387  0.8473  0.9789
 3421SOL    HW221723   2.041   3.458   8.471  0.5923  0.5051 -0.2874
 3422SOL     OW21724   3.186   1.021   0.241 -0.9297 -0.2385 -0.4712
 3422SOL    HW121725   3.196   0.961   0.315  2.8447  0.1038 -0.6972
 3422SOL    HW221726   3.168   1.106   0.280  0.5000 -0.8373  1.4879
 3423SOL     OW21727   3.506   1.109   0.755 -0.0157  0.9597  0.1967
 3423SOL    HW121728   3.562   1.175   0.796  0.9565 -0.1377  0.6307
 3423SOL    HW221729   3.579   1.054   0.729 -0.6104 -0.7383  2.0981
 3424SOL     OW21730   3.345   3.052   8.154 -0.0739  0.8363 -0.2089
 3424SOL    HW121731   3.389   3.070   8.237  0.8013  0.9857 -0.7017
 3424SOL    HW221732   3.334   3.140   8.120  1.1648  1.3348  0.6922
 3425SOL     OW21733   1.968   1.297   0.744 -0.7934 -0.2045 -0.1191
 3425SOL    HW121734   1.968   1.364   0.675  1.1987 -0.2540 -0.1669
 3425SOL    HW221735   1.965   1.216   0.694 -1.3741 -1.2467  1.5912
 3426SOL     OW21736   3.698   3.437   7.487  0.2119 -0.1372  0.2354
 3426SOL    HW121737   3.758   3.427   7.414 -0.9058 -1.7510 -0.4628
 3426SOL    HW221738   3.659   3.350   7.485  0.2210 -0.1681  1.2188
 3427SOL     OW21739   0.714   0.988   6.410  0.1860 -0.0121  0.0273
 3427SOL    HW121740   0.791   0.964   6.461  0.1282  0.1312  0.1853
 3427SOL    HW221741   0.652   0.942   6.465 -0.6955  2.2220  0.9254
 3428SOL     OW21742   3.355   2.631   8.731  0.3334  0.1335 -0.7278
 3428SOL    HW121743   3.418   2.683   8.781  0.0327 -0.1969 -0.0069
 3428SOL    HW221744   3.317   2.581   8.803 -0.0384  1.5358  0.0417
 3429SOL     OW21745   4.005   0.112  15.070 -0.2904 -0.0203 -0.1004
 3429SOL    HW121746   4.069   0.178  15.041  2.2042 -1.6515  1.7069
 3429SOL    HW221747   3.968   0.089  14.985 -0.6493  0.5513 -0.1017
 3430SOL     OW21748   3.487   2.781   9.491 -0.4690  0.0230 -0.4823
 3430SOL    HW121749   3.556   2.840   9.524  0.8982 -2.6374  1.4347
 3430SOL    HW221750   3.536   2.751   9.414 -0.4544 -0.0113 -0.4595
 3431SOL     OW21751   3.341   0.660   8.973  0.4040  0.4113  0.6011
 3431SOL    HW121752   3.397   0.717   8.920 -2.8598  0.0935 -3.2205
 3431SOL    HW221753   3.389   0.579   8.957  0.1199  0.1928  0.8623
 3432SOL     OW21754   1.324   4.149   8.673 -0.2167  0.1753 -0.0463
 3432SOL    HW121755   1.297   4.210   8.742  1.0095  0.0037  0.6012
 3432SOL    HW221756   1.292   4.202   8.601 -0.7109 -0.2690 -0.1503
 3433SOL     OW21757   3.810   2.574   4.838 -0.0509  0.5569 -0.1442
 3433SOL    HW121758   3.869   2.648   4.823  0.2438  0.3353 -0.0931
 3433SOL    HW221759   3.724   2.614   4.854 -0.5532  0.1186 -1.7881
 3434SOL     OW21760   3.291   3.920   9.798 -0.6176  0.0536  0.3297
 3434SOL    HW121761   3.329   3.999   9.760  0.9140 -1.1991 -0.7533
 3434SOL    HW221762   3.319   3.917   9.890 -1.4492  1.9494  0.6359
 3435SOL     OW21763   3.418   0.073  15.355  0.8808 -0.5630 -0.3043
 3435SOL    HW121764   3.457   0.086  15.441 -1.3030 -0.7192  0.6958
 3435SOL    HW221765   3.481   0.116  15.297 -3.0056  0.0338 -4.1354
 3436SOL     OW21766   0.661   3.419   2.278  0.5694 -0.0840  0.1017
 3436SOL    HW121767   0.575   3.452   2.304  1.4432  2.8274 -0.7304
 3436SOL    HW221768   0.685   3.496   2.226  1.9479  1.3519  2.8379
 3437SOL     OW21769   2.826   2.221  16.264  0.1197 -0.1139  0.1016
 3437SOL    HW121770   2.869   2.165  16.199 -1.0626 -0.0771 -0.6968
 3437SOL    HW221771   2.882   2.298  16.268 -0.0333 -0.0783  1.4831
 3438SOL     OW21772   1.273   3.646  11.116  0.3894  0.3193 -0.2952
 3438SOL    HW121773   1.280   3.606  11.029  3.1595 -2.0987  1.0438
 3438SOL    HW221774   1.234   3.728  11.086  0.4778  1.4504  2.6568
 3439SOL     OW21775   0.460   3.376  16.799  0.6391 -0.6107 -0.2511
 3439SOL    HW121776   0.418   3.314  16.859 -2.4059  1.8882  0.1954
 3439SOL    HW221777   0.388   3.416  16.750 -1.1854 -3.1820  0.3420
 3440SOL     OW21778   1.160   1.266   3.773 -0.5361 -0.2713  0.2270
 3440SOL    HW121779   1.219   1.333   3.808 -0.8937  0.7558 -1.1280
 3440SOL    HW221780   1.128   1.225   3.853 -0.3237 -0.6381  0.1266
 3441SOL     OW21781   0.376   2.371   8.221 -0.0366  0.1478 -0.3626
 3441SOL    HW121782   0.441   2.306   8.194  0.9592  0.3745  1.5221
 3441SOL    HW221783   0.374   2.369   8.316 -0.0785  3.8410 -0.2843
 3442SOL     OW21784   4.668   1.826   8.073 -0.2300  0.6796 -0.1100
 3442SOL    HW121785   4.653   1.743   8.027 -0.1690  0.3661  0.4395
 3442SOL    HW221786   4.628   1.895   8.020 -0.6937  0.7620  0.3573
 3443SOL     OW21787   3.639   0.895   8.362 -0.0481  0.2700 -0.5835
 3443SOL    HW121788   3.631   0.831   8.291  1.9539  0.4164 -0.9526
 3443SOL    HW221789   3.686   0.962   8.313 -0.9322  1.0394 -0.3676
 3444SOL     OW21790   1.991   4.602   4.029 -0.1120 -0.2455  0.3229
 3444SOL    HW121791   1.925   4.670   4.043 -0.8229 -0.9279  0.2715
 3444SOL    HW221792   1.923   4.540   4.002 -0.8400  0.1549  1.2339
 3445SOL     OW21793   0.173   4.394   7.978  0.2020  0.0253 -0.0117
 3445SOL    HW121794   0.224   4.473   7.991  0.8759 -0.1581 -1.6537
 3445SOL    HW221795   0.226   4.331   8.027  1.8479 -0.0647 -1.9269
 3446SOL     OW21796   1.404   4.464  13.291  0.7088 -0.0547  0.7546
 3446SOL    HW121797   1.406   4.446  13.385  0.7235  0.1609  0.7952
 3446SOL    HW221798   1.393   4.373  13.265  0.4659 -0.4152  2.1524
 3447SOL     OW21799   1.906   2.194   3.233 -0.3079  0.1319  0.2124
 3447SOL    HW121800   1.829   2.189   3.177  1.6804  0.7502 -2.6097
 3447SOL    HW221801   1.861   2.178   3.315  1.2155 -0.8201  0.8752
 3448SOL     OW21802   1.173   0.877  17.394 -0.0781  0.3381  0.0187
 3448SOL    HW121803   1.118   0.808  17.357 -1.0259  1.3578 -0.4594
 3448SOL    HW221804   1.109   0.948  17.393  0.4441  0.7631 -1.9273
 3449SOL     OW21805   0.460   2.344  11.524 -0.3509  0.2269 -0.0365
 3449SOL    HW121806   0.406   2.323  11.448 -0.1181  0.1579 -0.1835
 3449SOL    HW221807   0.524   2.403  11.484  0.1406 -0.3594 -0.1081
 3450SOL     OW21808   1.022   1.755   3.524  0.1072 -0.2846 -0.1423
 3450SOL    HW121809   0.941   1.784   3.566 -0.0927  2.0683 -2.2122
 3450SOL    HW221810   1.070   1.726   3.602  0.1840  0.7867  0.1990
 3451SOL     OW21811   0.274   4.685   6.626 -0.2657  0.2498  0.0602
 3451SOL    HW121812   0.312   4.660   6.711 -1.1752  1.5006  0.8405
 3451SOL    HW221813   0.357   4.685   6.579 -0.7394 -0.5850 -0.7914
 3452SOL     OW21814   2.949   2.303  13.623 -0.5255  0.1735 -0.9426
 3452SOL    HW121815   2.969   2.368  13.691  0.8164 -0.7602 -0.4490
 3452SOL    HW221816   3.012   2.232  13.636 -0.0208  0.3770 -2.2765
 3453SOL     OW21817   0.595   2.752  14.133 -0.0359  0.5925  0.4492
 3453SOL    HW121818   0.541   2.831  14.133 -0.6383  0.1828  0.9661
 3453SOL    HW221819   0.539   2.710  14.198 -2.3048  0.6234 -1.4776
 3454SOL     OW21820   1.190   4.195   4.376 -0.3370 -0.2447  0.0673
 3454SOL    HW121821   1.197   4.115   4.323 -0.6761 -1.3163  1.6237
 3454SOL    HW221822   1.105   4.198   4.421  0.3495  1.5989  1.2482
 3455SOL     OW21823   0.734   2.260   2.939 -0.2756  0.3496 -0.1269
 3455SOL    HW121824   0.721   2.183   2.885 -2.1457  0.9540 -0.5620
 3455SOL    HW221825   0.829   2.261   2.945 -0.3568 -3.7791  2.2377
 3456SOL     OW21826   1.864   4.448   1.546  0.5965  0.3388 -0.5730
 3456SOL    HW121827   1.867   4.427   1.639  0.9026  1.3383 -0.3551
 3456SOL    HW221828   1.777   4.487   1.553 -0.0787 -0.4734 -4.2800
 3457SOL     OW21829   3.329   2.158   4.776  0.1332  0.4538 -0.0073
 3457SOL    HW121830   3.338   2.227   4.710  0.8764  1.0882  0.7605
 3457SOL    HW221831   3.406   2.103   4.765  1.9975  2.5219  2.7787
 3458SOL     OW21832   2.040   4.546  14.036 -0.1670  0.0394 -0.4453
 3458SOL    HW121833   2.056   4.624  14.090  1.1365 -0.2785 -0.3769
 3458SOL    HW221834   2.125   4.512  14.009 -0.0035  0.5283 -0.5513
 3459SOL     OW21835   0.327   1.248  15.359  0.1507  0.1829 -0.0054
 3459SOL    HW121836   0.332   1.343  15.349 -0.3132 -0.1163 -3.3550
 3459SOL    HW221837   0.302   1.234  15.267 -0.4409 -0.5947  0.2719
 3460SOL     OW21838   3.434   4.145   3.872  0.2159 -0.0838  0.2767
 3460SOL    HW121839   3.512   4.199   3.855 -0.6486  0.7706 -0.9591
 3460SOL    HW221840   3.467   4.055   3.874  0.7022  0.0840 -0.0914
 3461SOL     OW21841   3.060   2.416  16.196 -0.0056  0.5285 -0.3624
 3461SOL    HW121842   3.130   2.362  16.160  0.4409  0.6282  0.3504
 3461SOL    HW221843   3.044   2.475  16.123  0.3449  0.2176 -0.6864
 3462SOL     OW21844   3.617   3.835   7.709  0.7653 -0.2318 -0.1897
 3462SOL    HW121845   3.581   3.761   7.758 -1.0658  0.8849  0.1654
 3462SOL    HW221846   3.710   3.813   7.717  1.3856  1.8589 -1.7528
 3463SOL     OW21847   2.214   2.312  10.842  0.2083  0.4058 -0.0716
 3463SOL    HW121848   2.155   2.277  10.775  0.2266 -1.7149  1.0268
 3463SOL    HW221849   2.233   2.230  10.887  1.3140 -0.1460 -1.5427
 3464SOL     OW21850   2.997   0.330  11.749  0.1494  0.1579  0.5363
 3464SOL    HW121851   2.915   0.336  11.798 -1.4235  1.8276 -2.2457
 3464SOL    HW221852   2.969   0.300  11.662 -1.9068  3.1550  0.1651
 3465SOL     OW21853   0.776   4.360   7.210 -0.4905 -0.1467 -0.0346
 3465SOL    HW121854   0.847   4.417   7.180 -1.5580  0.5673 -1.2087
 3465SOL    HW221855   0.789   4.290   7.146 -0.0510 -0.1625  0.0716
 3466SOL     OW21856   2.100   3.316   7.865  0.1379  0.6329  0.1789
 3466SOL    HW121857   2.094   3.403   7.826  0.2243  0.9059  0.7891
 3466SOL    HW221858   2.055   3.261   7.801  2.3699 -3.2963  1.9769
 3467SOL     OW21859   3.072   0.112   0.728  0.9946 -0.3125 -0.5648
 3467SOL    HW121860   3.010   0.068   0.670  0.8761 -1.2066  0.2318
 3467SOL    HW221861   3.035   0.083   0.812  3.0882  1.4897  0.9769
 3468SOL     OW21862   1.070   1.412   2.699  1.0267 -0.5763  0.2704
 3468SOL    HW121863   0.985   1.443   2.731  0.6254 -1.2511 -0.1467
 3468SOL    HW221864   1.047   1.383   2.610 -1.3128  1.3106  0.2568
 3469SOL     OW21865   2.716   2.211   3.778  0.1098 -0.9843 -0.2175
 3469SOL    HW121866   2.707   2.205   3.873  1.7284 -0.5445 -0.0404
 3469SOL    HW221867   2.637   2.167   3.746 -0.4266  0.4572 -0.8945
 3470SOL     OW21868   3.067   4.441   8.304 -0.0080 -0.2030  0.4852
 3470SOL    HW121869   3.073   4.485   8.390  1.4033  2.5712 -1.0275
 3470SOL    HW221870   3.015   4.367   8.333  1.3808 -1.4152 -0.1348
 3471SOL     OW21871   1.209   1.162   3.170 -0.2124  0.2049  0.4187
 3471SOL    HW121872   1.150   1.207   3.229 -2.3370 -0.7144 -0.9923
 3471SOL    HW221873   1.173   1.074   3.180 -0.4910  0.2824  0.0947
 3472SOL     OW21874   1.143   0.922   2.491 -0.3904 -0.5458 -0.0527
 3472SOL    HW121875   1.116   0.964   2.409 -1.8870 -0.3956  0.5034
 3472SOL    HW221876   1.171   1.001   2.536 -1.8615 -1.2505  2.1063
 3473SOL     OW21877   2.029   2.676   7.628 -0.1002 -0.1035  0.6029
 3473SOL    HW121878   2.008   2.767   7.608 -0.1085 -0.2458 -0.0090
 3473SOL    HW221879   1.948   2.647   7.670 -0.1731 -0.3590  0.2755
 3474SOL     OW21880   0.554   2.551  16.098 -0.3198 -0.3042  0.0433
 3474SOL    HW121881   0.464   2.526  16.117  0.4549 -1.8572  1.7811
 3474SOL    HW221882   0.535   2.602  16.020  4.1936  1.5485  0.1637
 3475SOL     OW21883   4.507   0.434   5.481  0.5505  0.1956 -0.5597
 3475SOL    HW121884   4.474   0.379   5.410  0.0600 -1.8353  1.2380
 3475SOL    HW221885   4.521   0.513   5.430  2.0865 -0.0997 -0.5883
 3476SOL     OW21886   3.703   4.159  10.599 -0.0918  0.0519 -0.3820
 3476SOL    HW121887   3.796   4.175  10.613 -0.1235  0.4468 -0.6259
 3476SOL    HW221888   3.674   4.081  10.645  2.6631  0.9598  2.9274
 3477SOL     OW21889   1.647   4.717   5.891 -0.3929 -0.4713  0.5501
 3477SOL    HW121890   1.570   4.716   5.834  1.0684 -3.1355 -1.3725
 3477SOL    HW221891   1.667   4.624   5.898  2.5900  0.1751  0.4084
 3478SOL     OW21892   4.440   1.167   8.161 -0.0376  0.1608 -0.1457
 3478SOL    HW121893   4.366   1.225   8.144 -0.0211  0.1218 -0.3550
 3478SOL    HW221894   4.515   1.225   8.174  1.0150 -0.6830 -2.2413
 3479SOL     OW21895   1.419   1.790   8.871  0.5241  0.5800 -0.2293
 3479SOL    HW121896   1.448   1.873   8.835 -1.2489  1.0233 -0.6525
 3479SOL    HW221897   1.383   1.741   8.797  0.8698  0.7706 -0.5243
 3480SOL     OW21898   3.737   4.631   7.759  0.4681  0.4356 -0.1697
 3480SOL    HW121899   3.718   4.629   7.665  0.2535  0.6613 -0.1319
 3480SOL    HW221900   3.789   4.711   7.764 -0.2043  0.8017  1.0792
 3481SOL     OW21901   1.712   2.518   0.681  0.5441 -0.2694 -0.0040
 3481SOL    HW121902   1.620   2.494   0.696  0.2799  0.0029 -1.1365
 3481SOL    HW221903   1.696   2.611   0.664  1.1247  0.3917  3.1503
 3482SOL     OW21904   1.258   3.723   4.933 -0.1766  0.4572 -0.1403
 3482SOL    HW121905   1.315   3.772   4.874  0.1853  0.8399  0.5304
 3482SOL    HW221906   1.319   3.692   5.000 -0.5802 -2.3340 -1.0697
 3483SOL     OW21907   4.523   4.010   6.239  0.2735 -0.1182 -0.2982
 3483SOL    HW121908   4.504   3.917   6.229  1.5911 -0.4011 -0.1056
 3483SOL    HW221909   4.435   4.047   6.228 -0.3317 -1.9820 -1.6538
 3484SOL     OW21910   2.940   1.194   4.608  0.3304  0.4113  0.0031
 3484SOL    HW121911   2.986   1.135   4.668 -0.3014  0.0922  0.1843
 3484SOL    HW221912   3.004   1.264   4.615  0.6220  0.1828 -0.4457
 3485SOL     OW21913   1.948   0.202  15.732  0.0877 -0.0994  0.0738
 3485SOL    HW121914   2.023   0.149  15.758 -0.4025 -0.9189 -0.1751
 3485SOL    HW221915   1.960   0.199  15.637  1.9387 -2.0324  0.3716
 3486SOL     OW21916   1.420   3.201   5.819  0.1589 -0.3016 -0.4630
 3486SOL    HW121917   1.351   3.259   5.851 -1.2766 -1.2356 -1.8453
 3486SOL    HW221918   1.499   3.254   5.829 -0.9980  1.3192  0.0308
 3487SOL     OW21919   0.713   1.307  14.452  0.3338  0.3149  0.0097
 3487SOL    HW121920   0.655   1.376  14.420 -3.2063 -2.4844  0.3964
 3487SOL    HW221921   0.748   1.271  14.370 -1.9634 -2.3177  0.1911
 3488SOL     OW21922   1.556   3.841   1.977  0.2130 -0.3379  0.1451
 3488SOL    HW121923   1.579   3.752   2.001  2.8956 -0.6975 -3.7764
 3488SOL    HW221924   1.502   3.834   1.898  0.6620 -1.3301 -0.0761
 3489SOL     OW21925   3.986   0.947   2.493  0.5575  0.2238  0.6647
 3489SOL    HW121926   3.963   0.854   2.491 -2.9885  1.1107  0.2794
 3489SOL    HW221927   3.947   0.977   2.411 -1.3912  0.7280  1.7809
 3490SOL     OW21928   4.314   4.420  12.837  0.0712 -0.3448 -0.3942
 3490SOL    HW121929   4.343   4.435  12.747  2.1147 -1.3710  0.0953
 3490SOL    HW221930   4.360   4.488  12.886  1.6247 -1.8147  0.1990
 3491SOL     OW21931   2.789   0.666  16.435 -0.5210 -0.6207 -0.8716
 3491SOL    HW121932   2.814   0.585  16.479 -0.0571 -0.5227 -0.9499
 3491SOL    HW221933   2.842   0.733  16.479  1.2607 -0.4593 -3.2574
 3492SOL     OW21934   0.538   1.592   9.485 -0.0808  0.2144 -0.3807
 3492SOL    HW121935   0.455   1.592   9.533 -0.2776 -0.4024 -0.7223
 3492SOL    HW221936   0.604   1.547   9.537 -1.8146 -3.3532 -1.2360
 3493SOL     OW21937   1.323   1.498   8.274  0.5003 -0.2945 -0.0884
 3493SOL    HW121938   1.352   1.416   8.313 -0.4399 -0.6642 -0.1646
 3493SOL    HW221939   1.233   1.497   8.307  0.0159 -1.9088 -1.4685
 3494SOL     OW21940   3.484   2.140   5.930 -0.3183 -0.6050 -0.5762
 3494SOL    HW121941   3.440   2.060   5.902  0.4724 -1.2623  0.0824
 3494SOL    HW221942   3.573   2.106   5.939  0.7944  2.7322  1.0860
 3495SOL     OW21943   4.594   3.167   8.237 -0.0722  0.4999  0.8775
 3495SOL    HW121944   4.687   3.145   8.244  0.2042  1.3423 -0.0576
 3495SOL    HW221945   4.568   3.146   8.327 -1.0671  0.8999  0.6754
 3496SOL     OW21946   2.194   2.929   6.002  0.0995  0.3587 -0.5400
 3496SOL    HW121947   2.141   2.920   5.923 -1.1279  4.3224 -0.1841
 3496SOL    HW221948   2.274   2.964   5.963 -1.2868  2.2437 -1.6953
 3497SOL     OW21949   2.958   1.331   6.298 -0.1616  0.2032  0.4841
 3497SOL    HW121950   2.959   1.304   6.389  1.0012 -1.2953  0.0322
 3497SOL    HW221951   2.869   1.362   6.284 -0.6520 -2.4055 -2.1351
 3498SOL     OW21952   1.781   3.206   7.322  0.2179  0.8896 -0.2985
 3498SOL    HW121953   1.850   3.242   7.266  1.8094 -2.0175 -0.2083
 3498SOL    HW221954   1.715   3.273   7.337 -0.4279  0.4215 -1.0690
 3499SOL     OW21955   4.463   1.435   7.183 -0.0907  0.2981  0.0122
 3499SOL    HW121956   4.503   1.425   7.097 -0.8804 -0.1788 -0.3021
 3499SOL    HW221957   4.540   1.435   7.240  0.0576 -1.5990 -0.2085
 3500SOL     OW21958   3.848   3.595   1.373  0.4693 -0.1639 -0.0957
 3500SOL    HW121959   3.791   3.567   1.444 -1.1445  1.1196 -0.9023
 3500SOL    HW221960   3.874   3.512   1.331 -0.7954 -0.9626  0.7120
 3501SOL     OW21961   2.606   1.614   6.550 -0.1977 -0.3740 -0.5244
 3501SOL    HW121962   2.577   1.705   6.553 -1.7628 -0.8155 -2.4523
 3501SOL    HW221963   2.556   1.571   6.620  4.2030 -0.6379  2.4750
 3502SOL     OW21964   3.898   0.949   7.722 -0.1892  0.5578 -0.2254
 3502SOL    HW121965   3.877   0.938   7.815 -0.8730  0.7290 -0.3595
 3502SOL    HW221966   3.812   0.977   7.691 -0.6197 -0.7563 -0.2352
 3503SOL     OW21967   4.493   2.488   6.990  0.0344 -0.4158  0.1256
 3503SOL    HW121968   4.413   2.482   6.939 -0.1181  2.5603  0.0249
 3503SOL    HW221969   4.537   2.556   6.939  0.2676 -0.8605 -0.2653
 3504SOL     OW21970   3.931   3.048   4.647  0.0092  0.1190 -0.6912
 3504SOL    HW121971   3.950   3.139   4.671  1.1831 -0.5183  0.7294
 3504SOL    HW221972   4.016   3.035   4.605 -0.1728  1.5537 -1.5292
 3505SOL     OW21973   3.614   0.674   5.852  0.1444  0.0577  0.3391
 3505SOL    HW121974   3.698   0.649   5.813  0.8465  1.4167  0.9585
 3505SOL    HW221975   3.575   0.721   5.779  1.2296 -0.6021 -0.6566
 3506SOL     OW21976   4.699   1.578   9.268  0.7067 -0.3669  0.1627
 3506SOL    HW121977   0.012   1.494   9.297  1.4688 -0.7317 -1.8923
 3506SOL    HW221978   0.054   1.631   9.266  0.0635  0.5720 -0.4531
 3507SOL     OW21979   3.456   4.591   5.464  0.4265  0.9746  0.0409
 3507SOL    HW121980   3.388   4.531   5.434  1.3282  0.1146 -0.2835
 3507SOL    HW221981   3.451   4.556   5.553 -1.0222  0.2762 -0.3120
 3508SOL     OW21982   1.850   2.330   2.314 -0.5041  0.4370  0.1008
 3508SOL    HW121983   1.915   2.399   2.298 -1.2824  1.1356 -0.0532
 3508SOL    HW221984   1.876   2.301   2.401 -0.4158  0.4498  0.0784
 3509SOL     OW21985   3.307   4.237   9.343  0.3075  0.2204  0.6415
 3509SOL    HW121986   3.365   4.241   9.267  0.2940  2.3030  0.7367
 3509SOL    HW221987   3.362   4.254   9.420 -0.6708  1.6219  1.0158
 3510SOL     OW21988   2.133   2.292   3.755  0.1098 -0.3533  0.3539
 3510SOL    HW121989   2.205   2.282   3.817  0.3142  0.0715  0.1862
 3510SOL    HW221990   2.135   2.215   3.699  0.1368  0.1146 -0.2945
 3511SOL     OW21991   2.514   4.564   4.170 -0.0730  0.1071 -0.4019
 3511SOL    HW121992   2.547   4.512   4.097  1.4084 -1.3057  1.2960
 3511SOL    HW221993   2.419   4.549   4.170  0.3120 -2.2647  0.2408
 3512SOL     OW21994   0.871   1.752  10.849  0.0556 -0.1698 -0.0246
 3512SOL    HW121995   0.961   1.782  10.865 -0.3334 -0.3677  2.5982
 3512SOL    HW221996   0.894   1.661  10.832 -3.7122 -1.0676 -0.3604
 3513SOL     OW21997   3.955   2.855   6.782  0.2505 -0.1783  1.1376
 3513SOL    HW121998   3.904   2.805   6.718 -0.8143 -0.4123  2.1757
 3513SOL    HW221999   4.028   2.887   6.729 -0.4362 -1.5371 -0.6118
 3514SOL     OW22000   3.572   0.771   7.855  0.1699 -0.7056  0.2798
 3514SOL    HW122001   3.617   0.694   7.823  0.0229 -0.9629  0.6935
 3514SOL    HW222002   3.648   0.803   7.903  0.6968 -0.7464 -0.5303
 3515SOL     OW22003   1.588   3.449   8.603 -0.0950  0.0040  0.1679
 3515SOL    HW122004   1.642   3.377   8.636 -0.3935 -1.3019 -2.1551
 3515SOL    HW222005   1.505   3.405   8.582 -0.4774  0.4548  0.7451
 3516SOL     OW22006   2.044   2.128   8.703  0.0166 -0.2100  0.5466
 3516SOL    HW122007   2.088   2.102   8.622 -1.7338 -0.6890 -0.2378
 3516SOL    HW222008   2.074   2.216   8.724  0.4078 -0.5000  1.2242
 3517SOL     OW22009   4.132   0.388   8.357 -0.1640 -0.3910 -0.0124
 3517SOL    HW122010   4.185   0.415   8.432 -0.5076 -1.2294  0.5362
 3517SOL    HW222011   4.105   0.300   8.382 -1.0170 -0.3093 -0.6312
 3518SOL     OW22012   1.257   2.978  10.116  0.2156 -0.2498 -0.2359
 3518SOL    HW122013   1.182   2.948  10.063  0.4462  0.6725 -1.0874
 3518SOL    HW222014   1.220   3.001  10.201  1.0309  0.1302  0.0092
 3519SOL     OW22015   3.652   4.441   5.352  0.9825  0.1519  0.6373
 3519SOL    HW122016   3.700   4.514   5.314  1.7775 -0.9768 -0.5209
 3519SOL    HW222017   3.578   4.482   5.398 -0.6078 -0.4652 -1.3569
 3520SOL     OW22018   0.849   2.335   6.016  0.0785 -0.2968  0.0887
 3520SOL    HW122019   0.803   2.409   6.055 -0.4811 -0.4605 -0.2662
 3520SOL    HW222020   0.783   2.304   5.954  0.2354 -1.8958  0.7142
 3521SOL     OW22021   1.339   2.592   2.485  0.5624 -0.3601  0.2035
 3521SOL    HW122022   1.431   2.571   2.498  0.7952 -0.4610 -1.5430
 3521SOL    HW222023   1.336   2.680   2.449 -1.4950 -0.1276  0.9149
 3522SOL     OW22024   3.316   3.371   5.404 -0.3586 -0.3787 -0.0054
 3522SOL    HW122025   3.240   3.419   5.437 -1.6019 -2.5473  0.2882
 3522SOL    HW222026   3.329   3.389   5.311 -0.4387 -0.5917 -0.0577
 3523SOL     OW22027   3.213   4.249   1.915 -0.4457 -0.2866 -0.0587
 3523SOL    HW122028   3.159   4.180   1.953  0.4747  0.2087  2.1590
 3523SOL    HW222029   3.275   4.257   1.988 -0.9281 -1.5570  0.4949
 3524SOL     OW22030   1.805   4.342   1.176 -0.3107 -0.3399  0.3404
 3524SOL    HW122031   1.866   4.320   1.106 -0.6686  1.1362 -0.4435
 3524SOL    HW222032   1.721   4.334   1.131 -0.6653 -2.9014  1.4682
 3525SOL     OW22033   3.889   4.599   2.220 -0.4974  0.5697  0.3048
 3525SOL    HW122034   3.869   4.692   2.215 -2.8949  0.0925  1.2187
 3525SOL    HW222035   3.920   4.600   2.310  1.8397  0.4913 -0.4895
 3526SOL     OW22036   0.664   3.827   6.316  0.3770  0.0170 -0.3815
 3526SOL    HW122037   0.708   3.806   6.398 -1.1136  0.7472  0.6010
 3526SOL    HW222038   0.734   3.870   6.266  1.9643 -0.3465  1.5491
 3527SOL     OW22039   2.437   3.035  10.925  0.3038  0.0112 -0.1186
 3527SOL    HW122040   2.515   2.986  10.898  0.1890 -0.2904  0.0878
 3527SOL    HW222041   2.466   3.123  10.948 -1.4231  0.6892 -0.5441
 3528SOL     OW22042   1.491   4.285   6.944  0.4246  0.4317 -0.3744
 3528SOL    HW122043   1.531   4.210   6.901 -0.2594  1.1474 -2.2591
 3528SOL    HW222044   1.564   4.347   6.937  1.0399 -0.2598 -0.0216
 3529SOL     OW22045   1.679   1.554  10.666  0.4528  0.4632 -0.4381
 3529SOL    HW122046   1.623   1.610  10.719  0.3868 -0.5730  0.5954
 3529SOL    HW222047   1.723   1.624  10.618 -1.3551  1.4507 -0.6584
 3530SOL     OW22048   2.082   1.734   9.093  0.8212  0.2390  0.5358
 3530SOL    HW122049   2.034   1.796   9.148  1.7163  1.3451  0.0645
 3530SOL    HW222050   2.171   1.765   9.109  0.2779  2.0297  0.1047
 3531SOL     OW22051   3.976   2.854   0.952  0.2661 -0.3506  0.0090
 3531SOL    HW122052   4.021   2.781   0.995  3.0735  0.7586 -1.0108
 3531SOL    HW222053   4.041   2.922   0.971  0.6415 -0.6080 -0.3387
 3532SOL     OW22054   2.723   4.630   4.322 -0.1510  0.4623 -0.0199
 3532SOL    HW122055   2.641   4.608   4.278 -0.7394  1.1585  0.7228
 3532SOL    HW222056   2.781   4.612   4.248  1.0653 -1.1142  1.3118
 3533SOL     OW22057   1.503   3.843   8.366  0.1723  0.1172  0.2816
 3533SOL    HW122058   1.408   3.846   8.364  0.1369 -0.1434  1.3457
 3533SOL    HW222059   1.525   3.936   8.359  0.4550 -0.0325 -0.8196
 3534SOL     OW22060   3.595   2.498   4.624 -0.3714  0.5130 -0.1154
 3534SOL    HW122061   3.541   2.474   4.699 -2.2342  1.6247 -1.0800
 3534SOL    HW222062   3.612   2.585   4.659  1.5651  0.1619 -0.2294
 3535SOL     OW22063   0.892   4.568   6.889  0.2395 -0.0294  0.2281
 3535SOL    HW122064   0.901   4.473   6.900 -0.6987  0.1412  2.5708
 3535SOL    HW222065   0.948   4.594   6.962  1.5708  0.8338 -1.1031
 3536SOL     OW22066   0.737   3.609  12.879  0.2690  0.2488 -0.1541
 3536SOL    HW122067   0.660   3.590  12.933  0.9801  0.7669  1.0639
 3536SOL    HW222068   0.730   3.704  12.869  0.9867  0.4004  0.7992
 3537SOL     OW22069   1.391   2.428  12.250  0.5222  0.0939  0.4671
 3537SOL    HW122070   1.359   2.469  12.331 -1.3552 -0.5273  0.0167
 3537SOL    HW222071   1.388   2.504  12.193 -1.0735  0.3988  0.9651
 3538SOL     OW22072   2.896   1.896   2.505 -0.1554  0.7166 -0.3370
 3538SOL    HW122073   2.938   1.982   2.507  0.4913  0.4132 -0.6570
 3538SOL    HW222074   2.808   1.911   2.538 -0.2768  0.4273 -0.5322
 3539SOL     OW22075   1.397   2.763   2.986 -0.3559 -0.2630  0.0188
 3539SOL    HW122076   1.357   2.699   2.927  0.2051 -1.4132  0.8771
 3539SOL    HW222077   1.321   2.783   3.040  0.2019  0.4096  0.5541
 3540SOL     OW22078   2.173   1.082  11.102 -0.3080 -0.4936 -0.5604
 3540SOL    HW122079   2.218   1.122  11.176  0.0402 -1.5638 -0.1970
 3540SOL    HW222080   2.103   1.039  11.152  0.4729 -0.7532  0.2955
 3541SOL     OW22081   2.312   0.203  17.351 -0.6190  0.5891 -0.0506
 3541SOL    HW122082   2.349   0.227  17.436 -1.3654  0.1410  0.3990
 3541SOL    HW222083   2.341   0.114  17.331 -1.0443  0.1649  1.2427
 3542SOL     OW22084   0.795   3.566   6.057 -0.2181  0.1349  0.0016
 3542SOL    HW122085   0.789   3.653   6.017 -1.6506  0.0634  0.0546
 3542SOL    HW222086   0.746   3.506   6.000 -1.0472  0.1027  0.7447
 3543SOL     OW22087   1.545   4.190   2.700  1.0340  0.0815 -0.0539
 3543SOL    HW122088   1.531   4.215   2.791  0.0156  4.9923 -1.5486
 3543SOL    HW222089   1.610   4.121   2.711  1.8218  0.7253 -0.6991
 3544SOL     OW22090   1.628   3.101   5.174  0.3539 -0.1792 -0.3499
 3544SOL    HW122091   1.605   3.123   5.265  0.5588 -0.3274 -0.2605
 3544SOL    HW222092   1.600   3.182   5.132  2.2094 -0.6216 -2.4116
 3545SOL     OW22093   0.485   2.352   5.810 -0.9406 -0.2574  0.2155
 3545SOL    HW122094   0.419   2.294   5.772 -1.7757  2.7323 -2.8627
 3545SOL    HW222095   0.556   2.291   5.831 -0.0286  2.0247  3.6764
 3546SOL     OW22096   0.292   0.040   3.929 -0.2898  0.3216  0.7785
 3546SOL    HW122097   0.329   0.068   3.845 -0.6985  0.5050  0.6573
 3546SOL    HW222098   0.245   0.114   3.968 -0.9563 -1.5325  3.4633
 3547SOL     OW22099   1.802   3.941   8.476 -0.1124 -0.4487  0.0491
 3547SOL    HW122100   1.722   3.969   8.431 -0.5396 -1.4639  0.1689
 3547SOL    HW222101   1.844   4.025   8.493  2.6439 -1.4192 -2.1408
 3548SOL     OW22102   2.594   3.408   4.927  0.1369  0.2302 -0.1351
 3548SOL    HW122103   2.538   3.449   4.861  3.4240  3.5270 -0.7986
 3548SOL    HW222104   2.634   3.486   4.964 -1.3766  0.6287  0.6901
 3549SOL     OW22105   1.289   3.764   9.310  0.0431  0.2704 -0.4368
 3549SOL    HW122106   1.199   3.737   9.329 -0.5987  1.7047 -1.4394
 3549SOL    HW222107   1.324   3.753   9.399 -0.4226  0.2890 -0.2469
 3550SOL     OW22108   4.457   3.731   6.222  0.0307 -0.0480  0.0927
 3550SOL    HW122109   4.385   3.693   6.171 -1.7561 -1.1180  3.4332
 3550SOL    HW222110   4.413   3.727   6.307  1.1788 -2.2716  0.5852
 3551SOL     OW22111   2.415   2.491   7.065  0.3890 -0.5125  0.1729
 3551SOL    HW122112   2.393   2.505   6.972  1.1834 -0.1021  0.0455
 3551SOL    HW222113   2.473   2.566   7.076 -0.4860  0.0275  1.1788
 3552SOL     OW22114   2.882   2.357   8.791  0.1909 -0.2677 -0.3863
 3552SOL    HW122115   2.870   2.297   8.865 -0.4009  0.5981  0.2199
 3552SOL    HW222116   2.973   2.348   8.764  0.2531  1.6659 -0.8647
 3553SOL     OW22117   2.154   2.247   8.356  0.3089 -0.3120 -0.6818
 3553SOL    HW122118   2.095   2.305   8.403 -1.6725 -0.8393 -2.4814
 3553SOL    HW222119   2.185   2.195   8.429  0.2758 -1.1322 -1.2475
 3554SOL     OW22120   0.363   0.296   1.540 -0.0866 -0.4015 -0.1244
 3554SOL    HW122121   0.393   0.385   1.557  0.0684 -0.5984  0.6486
 3554SOL    HW222122   0.271   0.302   1.566 -0.4086 -1.1693 -1.0646
 3555SOL     OW22123   4.086   3.414   8.585 -0.2488  0.1993 -0.0469
 3555SOL    HW122124   4.171   3.422   8.540  0.0756 -1.9149  0.2048
 3555SOL    HW222125   4.073   3.319   8.588  0.2890  0.1183 -0.2505
 3556SOL     OW22126   1.399   0.771   5.151 -0.0776 -0.5924  0.4677
 3556SOL    HW122127   1.347   0.730   5.082 -0.2404 -0.7724  0.6927
 3556SOL    HW222128   1.425   0.693   5.200  2.0287  0.5077  1.0978
 3557SOL     OW22129   3.034   2.075  16.588  0.4089 -0.2450 -0.1515
 3557SOL    HW122130   3.021   2.135  16.661 -1.0857  0.2743 -0.8425
 3557SOL    HW222131   3.122   2.108  16.572 -0.4756  2.0452 -0.2975
 3558SOL     OW22132   0.289   2.963  13.410 -0.0311  0.1601  0.2593
 3558SOL    HW122133   0.234   3.039  13.432 -2.3424 -1.5972  0.4881
 3558SOL    HW222134   0.275   2.959  13.316  2.0282 -0.5830 -0.0014
 3559SOL     OW22135   4.674   2.413   0.808  0.2172  0.2507  0.5535
 3559SOL    HW122136   0.042   2.389   0.799 -1.1110 -4.0714 -1.6816
 3559SOL    HW222137   4.637   2.380   0.726  3.2186 -0.2699 -0.5673
 3560SOL     OW22138   4.333   2.099   7.919 -0.5604  0.3568 -0.6695
 3560SOL    HW122139   4.295   2.058   7.997  1.0493 -3.2385 -1.7717
 3560SOL    HW222140   4.425   2.078   7.938 -1.5153 -1.7130  1.8074
 3561SOL     OW22141   1.968   1.495   2.988 -0.2918 -0.3049 -0.0464
 3561SOL    HW122142   1.950   1.404   3.010  1.4716 -0.9279 -1.2574
 3561SOL    HW222143   1.879   1.531   2.981  0.4293  1.4756 -0.0859
 3562SOL     OW22144   1.121   4.067   1.673 -0.1229  0.1440  0.0681
 3562SOL    HW122145   1.038   4.031   1.705 -0.1539  1.3099  1.3146
 3562SOL    HW222146   1.182   3.995   1.663 -0.2360 -0.0175  0.5496
 3563SOL     OW22147   2.737   3.186  16.116 -0.1877 -0.0853 -0.3643
 3563SOL    HW122148   2.728   3.281  16.101  0.8187 -0.1234 -1.2430
 3563SOL    HW222149   2.675   3.166  16.186  0.1103  3.4369  0.9183
 3564SOL     OW22150   2.031   2.457  10.280 -0.0354 -0.1987  0.1226
 3564SOL    HW122151   2.081   2.486  10.356  0.6376 -0.6109 -0.1621
 3564SOL    HW222152   1.959   2.520  10.291 -0.3990 -0.6849  0.5466
 3565SOL     OW22153   0.907   2.629  12.733 -0.5971 -0.1394 -0.1860
 3565SOL    HW122154   0.917   2.719  12.703 -0.4307 -1.2153 -3.3512
 3565SOL    HW222155   0.942   2.584  12.656  1.2097  0.4510  0.2976
 3566SOL     OW22156   2.929   2.049  11.865  0.3128 -1.1183 -0.1544
 3566SOL    HW122157   2.877   2.080  11.791  1.7221 -0.3060 -0.7946
 3566SOL    HW222158   2.860   1.987  11.892  0.2740 -0.8819  0.2797
 3567SOL     OW22159   3.843   3.133   4.967  0.5309 -0.3757 -0.2510
 3567SOL    HW122160   3.927   3.088   4.970  0.4236 -0.4351  1.6328
 3567SOL    HW222161   3.842   3.187   4.888 -0.6586 -1.5566 -1.0605
 3568SOL     OW22162   2.711   3.252   8.814 -0.2988  0.5701  0.6680
 3568SOL    HW122163   2.805   3.234   8.819 -0.5538 -1.0843 -0.4781
 3568SOL    HW222164   2.668   3.176   8.853 -3.0806  0.7371 -2.0887
 3569SOL     OW22165   4.574   0.784   3.280  0.8651  0.5267 -0.7098
 3569SOL    HW122166   4.592   0.788   3.186 -0.7344  1.5532 -0.9618
 3569SOL    HW222167   4.551   0.876   3.291 -1.6453 -0.1562 -0.3571
 3570SOL     OW22168   4.687   3.441   8.255 -0.4062 -0.3053  0.2079
 3570SOL    HW122169   4.623   3.369   8.258  0.1388 -0.8056 -0.0780
 3570SOL    HW222170   4.634   3.518   8.235  1.7404  1.0278 -0.3310
 3571SOL     OW22171   0.739   3.006   2.937 -0.3677  0.0635  0.1181
 3571SOL    HW122172   0.740   2.953   2.858  0.4792  1.2261 -0.6598
 3571SOL    HW222173   0.647   3.032   2.928  0.3485  2.2938 -0.8802
 3572SOL     OW22174   3.918   2.054  10.697  0.0662 -0.1175  0.4613
 3572SOL    HW122175   3.909   2.047  10.602  3.3672  2.2693 -0.0310
 3572SOL    HW222176   3.849   2.119  10.713 -1.5962 -1.9375  0.5857
 3573SOL     OW22177   4.088   3.594   7.908 -0.5465 -0.4181  0.1921
 3573SOL    HW122178   4.037   3.525   7.865  0.0916 -0.5841 -0.2975
 3573SOL    HW222179   4.125   3.553   7.987  1.2776 -0.1281 -0.4986
 3574SOL     OW22180   0.495   3.550   3.329  0.6536  0.1092  0.2074
 3574SOL    HW122181   0.546   3.474   3.301 -1.0103 -1.0164  0.2398
 3574SOL    HW222182   0.414   3.543   3.277  0.8913  1.7102 -0.4023
 3575SOL     OW22183   1.326   0.991   1.177 -0.0513  0.3203 -0.7662
 3575SOL    HW122184   1.331   0.967   1.085  0.5562  0.2945 -0.7282
 3575SOL    HW222185   1.231   0.991   1.190  0.4207  0.8322  2.9061
 3576SOL     OW22186   0.048   0.741   5.080 -0.0386 -0.4820  0.0950
 3576SOL    HW122187   0.016   0.816   5.031  0.7848 -1.4202 -1.8641
 3576SOL    HW222188   0.112   0.774   5.143  0.3442  0.6698 -0.9170
 3577SOL     OW22189   1.006   0.547   2.359 -0.2825 -0.6357 -0.0556
 3577SOL    HW122190   1.098   0.570   2.344 -0.5116  0.5444  0.3712
 3577SOL    HW222191   1.004   0.461   2.317  0.0414 -0.1583 -1.0775
 3578SOL     OW22192   3.435   4.642  13.107 -0.1327  0.0119  0.0296
 3578SOL    HW122193   3.505   4.590  13.146 -0.5509  1.5335  2.7470
 3578SOL    HW222194   3.388   4.565  13.075  1.1814 -0.1035 -1.6707
 3579SOL     OW22195   0.289   1.294   8.146  0.0327 -0.2297  0.2788
 3579SOL    HW122196   0.346   1.370   8.163  1.6486 -1.4373  0.2282
 3579SOL    HW222197   0.228   1.327   8.080  0.7468  0.8954  0.1744
 3580SOL     OW22198   4.610   1.948   2.504 -0.1817  0.3143  0.4700
 3580SOL    HW122199   4.530   1.934   2.453  0.5283  1.1425 -0.8586
 3580SOL    HW222200   4.582   1.950   2.595  0.0226 -0.2550  0.5468
 3581SOL     OW22201   2.133   0.764   2.210  0.0469 -0.0839  0.3168
 3581SOL    HW122202   2.045   0.728   2.219 -0.6441  1.5951  0.0957
 3581SOL    HW222203   2.148   0.794   2.300  0.8826 -0.7298  0.3975
 3582SOL     OW22204   1.441   0.858   2.872  0.9419  0.0599  0.4328
 3582SOL    HW122205   1.375   0.925   2.890  2.2784  0.6498  3.0906
 3582SOL    HW222206   1.465   0.822   2.957  0.7286  0.6396  0.7370
 3583SOL     OW22207   2.373   4.632  10.183 -0.2354 -0.1788 -0.6904
 3583SOL    HW122208   2.388   4.722  10.155  2.0918  0.2949  1.9849
 3583SOL    HW222209   2.388   4.659  10.274  0.9084 -1.9714 -0.3451
 3584SOL     OW22210   3.591   3.150   8.809 -0.0127 -0.4543  0.2723
 3584SOL    HW122211   3.550   3.233   8.834  1.0403  0.4506 -0.9658
 3584SOL    HW222212   3.514   3.121   8.760 -0.5877  2.1419 -0.3829
 3585SOL     OW22213   0.121   2.261   3.954 -0.1809 -0.8750 -0.2257
 3585SOL    HW122214   0.048   2.280   3.895 -0.4754 -0.8471  0.1527
 3585SOL    HW222215   0.184   2.243   3.884  0.5679 -0.4727  0.3463
 3586SOL     OW22216   4.006   4.692   5.966  0.4521 -0.2215 -0.1618
 3586SOL    HW122217   4.067   4.667   6.035  2.7527 -0.2714 -2.2003
 3586SOL    HW222218   3.926   4.665   6.011  1.5818 -0.8681  1.4543
 3587SOL     OW22219   0.841   2.083   5.035  0.2229  0.8215 -0.1380
 3587SOL    HW122220   0.919   2.027   5.042 -1.2612 -1.1251  0.9165
 3587SOL    HW222221   0.875   2.160   5.080  2.0465 -1.2337  2.0444
 3588SOL     OW22222   2.610   4.616   2.019 -0.2327 -0.4035  1.1667
 3588SOL    HW122223   2.694   4.575   1.996  0.0649  0.7801  0.1452
 3588SOL    HW222224   2.566   4.616   1.934 -0.6938  0.1663  1.4031
 3589SOL     OW22225   0.309   1.723   7.041 -0.4823 -0.2859  0.2631
 3589SOL    HW122226   0.242   1.663   7.076 -0.1283 -0.0892  1.2887
 3589SOL    HW222227   0.275   1.735   6.952 -1.3951  1.0766  0.7971
 3590SOL     OW22228   0.822   3.990   0.384 -0.3638  0.7807  0.2328
 3590SOL    HW122229   0.897   3.991   0.326  0.0515  0.5195  0.7674
 3590SOL    HW222230   0.774   3.929   0.327  0.8580  2.0559 -2.1491
 3591SOL     OW22231   0.655   0.896   4.784  0.4674 -0.3235  0.3108
 3591SOL    HW122232   0.653   0.946   4.865 -1.3104  0.1855 -0.0383
 3591SOL    HW222233   0.738   0.925   4.746 -0.6980 -0.2675 -2.2322
 3592SOL     OW22234   1.160   4.107  11.396  0.0550 -0.3608 -0.0518
 3592SOL    HW122235   1.111   4.040  11.349 -0.2191  0.7789 -1.4022
 3592SOL    HW222236   1.251   4.091  11.368  1.4672  2.3904  3.0166
 3593SOL     OW22237   2.889   2.188   7.789 -0.0639 -0.1250  0.5163
 3593SOL    HW122238   2.819   2.208   7.727 -0.9184 -0.7645  1.2798
 3593SOL    HW222239   2.857   2.104   7.822  2.8866 -2.4052 -2.4131
 3594SOL     OW22240   0.083   0.648   2.569 -0.1448 -0.3751 -0.3586
 3594SOL    HW122241   0.092   0.713   2.639 -0.0130 -1.2328  0.4206
 3594SOL    HW222242   0.102   0.705   2.494  1.4669 -1.4139 -0.7658
 3595SOL     OW22243   3.901   1.825   3.094 -0.1708  0.2979  0.0751
 3595SOL    HW122244   3.882   1.739   3.056  0.6396  0.2401 -0.1933
 3595SOL    HW222245   3.822   1.838   3.147  1.1380 -1.1049  2.3532
 3596SOL     OW22246   3.624   0.732  11.624  0.0799  0.0060 -0.8070
 3596SOL    HW122247   3.693   0.758  11.684 -0.9094 -1.2378  0.8626
 3596SOL    HW222248   3.568   0.809  11.626 -0.1200 -0.2230  1.4238
 3597SOL     OW22249   0.039   0.135   7.631  0.1199  0.2075  0.1693
 3597SOL    HW122250   0.087   0.217   7.620 -0.0805  0.3383  0.2764
 3597SOL    HW222251   4.689   0.150   7.573 -0.1742 -0.1499  0.4566
 3598SOL     OW22252   2.662   4.348  16.262  0.2779 -0.4127 -0.5059
 3598SOL    HW122253   2.634   4.435  16.291  0.5595 -0.4489 -0.1205
 3598SOL    HW222254   2.756   4.362  16.252  0.1226  2.1803  1.6596
 3599SOL     OW22255   2.751   0.904   3.700  0.3777  0.3859  0.3608
 3599SOL    HW122256   2.700   0.886   3.621 -1.6328 -0.6596  1.9342
 3599SOL    HW222257   2.768   0.998   3.700 -0.1402  0.4766 -0.1115
 3600SOL     OW22258   0.779   4.682   5.057  0.2479  0.4105 -0.1409
 3600SOL    HW122259   0.832   4.717   4.986 -2.5873  0.9138 -2.0356
 3600SOL    HW222260   0.816   0.007   5.130 -2.7972  0.5374  1.3320
 3601SOL     OW22261   3.782   1.271   6.117 -0.1380 -0.2964 -0.1960
 3601SOL    HW122262   3.870   1.235   6.127  0.5578  0.6884 -2.6988
 3601SOL    HW222263   3.752   1.218   6.043 -1.5716 -1.0314  0.9117
 3602SOL     OW22264   4.011   3.419   6.918  0.1653 -0.0666  0.2037
 3602SOL    HW122265   3.980   3.347   6.863 -0.4754 -0.2429  0.7939
 3602SOL    HW222266   3.933   3.463   6.951  0.7664  1.1637 -0.0200
 3603SOL     OW22267   3.178   2.529  13.071 -0.2978  0.2235  0.1207
 3603SOL    HW122268   3.208   2.597  13.010 -0.1776  2.0556  2.2245
 3603SOL    HW222269   3.083   2.536  13.073 -0.4009  0.0231 -2.9944
 3604SOL     OW22270   0.739   3.346   3.300  0.1585  0.3430  0.1309
 3604SOL    HW122271   0.655   3.309   3.271 -0.6007  2.4736 -0.3981
 3604SOL    HW222272   0.802   3.275   3.287  2.4293  2.3704  0.1172
 3605SOL     OW22273   0.591   0.266   2.126  0.2133 -0.5223 -0.0967
 3605SOL    HW122274   0.629   0.326   2.190 -1.4383 -1.3930  1.6859
 3605SOL    HW222275   0.656   0.271   2.056  0.9886 -0.8168  0.6112
 3606SOL     OW22276   1.005   0.133  13.430 -0.6426 -0.0002 -0.3553
 3606SOL    HW122277   0.931   0.141  13.369 -0.7101 -1.9379 -0.5374
 3606SOL    HW222278   1.048   0.216  13.414  1.2074 -0.9470 -0.2350
 3607SOL     OW22279   0.916   4.696   7.391  0.3035  0.6666  0.0036
 3607SOL    HW122280   0.840   4.670   7.443  2.6346 -1.7493  2.1736
 3607SOL    HW222281   0.922   0.065   7.411  1.9979  0.0060  2.4783
 3608SOL     OW22282   0.448   0.880   2.854 -0.2286  0.2309 -0.0745
 3608SOL    HW122283   0.451   0.895   2.759  0.9618 -1.5309 -0.2991
 3608SOL    HW222284   0.375   0.818   2.861  0.9459 -1.0538  0.6117
 3609SOL     OW22285   1.493   3.076   2.336  0.1104  0.4508 -0.1347
 3609SOL    HW122286   1.433   3.027   2.280  0.6600 -1.4700  0.9529
 3609SOL    HW222287   1.425   3.140   2.360 -1.3646 -1.2572  0.2215
 3610SOL     OW22288   4.708   1.241   2.612  0.2963  0.8897 -0.2962
 3610SOL    HW122289   4.665   1.157   2.626  2.1412  0.4019  2.4770
 3610SOL    HW222290   0.034   1.229   2.531 -0.7420  3.1722 -1.2809
 3611SOL     OW22291   2.620   3.800   2.394 -0.2957 -0.1609  0.5771
 3611SOL    HW122292   2.575   3.729   2.441 -0.3634 -2.3218 -2.7176
 3611SOL    HW222293   2.557   3.872   2.393  1.0445  0.9989  0.2247
 3612SOL     OW22294   2.827   3.038   0.912  0.5099 -0.0441  0.0714
 3612SOL    HW122295   2.829   3.024   0.817 -2.7939  1.8368 -0.2705
 3612SOL    HW222296   2.760   2.971   0.928  0.3997 -0.6976 -3.1280
 3613SOL     OW22297   1.335   1.537   1.856 -0.4443  0.4691 -0.2829
 3613SOL    HW122298   1.287   1.611   1.819 -0.6772  0.6404  0.3631
 3613SOL    HW222299   1.365   1.500   1.773  2.7407 -0.7021  1.4003
 3614SOL     OW22300   3.686   4.470   3.707  0.1545 -0.1073  0.5537
 3614SOL    HW122301   3.640   4.422   3.639 -0.2835 -0.6412  1.2208
 3614SOL    HW222302   3.726   4.390   3.741 -0.4916 -0.9484 -0.6801
 3615SOL     OW22303   0.457   0.669   5.062 -0.5880  0.4641 -0.2121
 3615SOL    HW122304   0.509   0.646   5.138  0.2512  0.0889 -0.9061
 3615SOL    HW222305   0.528   0.720   5.023 -1.3232  1.0801 -0.7584
 3616SOL     OW22306   0.866   2.853  14.203 -0.6502  0.6395  0.5489
 3616SOL    HW122307   0.830   2.936  14.173 -0.4623  1.3503  2.3076
 3616SOL    HW222308   0.878   2.881  14.294 -0.5727 -1.9496  1.3487
 3617SOL     OW22309   0.785   0.894  15.008 -0.0305 -0.1001  0.4291
 3617SOL    HW122310   0.765   0.801  14.997 -0.0496 -0.0335 -0.0954
 3617SOL    HW222311   0.875   0.883  15.036  0.4439  2.2890 -0.1391
 3618SOL     OW22312   1.334   1.689   2.489 -0.0157  0.4269  0.2755
 3618SOL    HW122313   1.390   1.693   2.566 -1.1916  0.7742  1.1274
 3618SOL    HW222314   1.356   1.598   2.468 -0.9958 -0.0189  1.1934
 3619SOL     OW22315   4.229   3.263   7.357 -0.7444 -0.3741  0.2043
 3619SOL    HW122316   4.284   3.317   7.415  0.7117 -0.9946 -0.6091
 3619SOL    HW222317   4.215   3.317   7.280  0.6624 -0.5727 -0.1939
 3620SOL     OW22318   4.257   4.400   6.203 -0.9811  0.2203  0.5195
 3620SOL    HW122319   4.172   4.439   6.222  0.3456  2.2457  2.3125
 3620SOL    HW222320   4.239   4.366   6.115  2.7044  2.0410 -0.9512
 3621SOL     OW22321   4.643   4.687  12.210 -0.3758  0.4744  0.3893
 3621SOL    HW122322   4.610   0.048  12.181  0.5103  0.0255 -1.8941
 3621SOL    HW222323   4.575   4.625  12.181  0.7076 -1.2155  1.4317
 3622SOL     OW22324   4.540   4.205   3.452 -0.1163 -0.1480 -0.0398
 3622SOL    HW122325   4.526   4.289   3.496  1.0960 -0.0223  0.0852
 3622SOL    HW222326   4.462   4.199   3.397  0.2208 -2.1918 -0.3116
 3623SOL     OW22327   2.385   1.272   6.768  0.4376  1.0583  0.1799
 3623SOL    HW122328   2.475   1.262   6.736  0.9006  1.4202  1.3798
 3623SOL    HW222329   2.393   1.358   6.810 -0.2224  1.1112  0.1975
 3624SOL     OW22330   3.217   0.753  14.051  1.0941  0.3007 -0.1232
 3624SOL    HW122331   3.222   0.684  14.117  0.3392  1.5646  1.2669
 3624SOL    HW222332   3.232   0.835  14.099  0.7020 -1.1693  2.5452
 3625SOL     OW22333   3.737   3.726   3.312  0.0359  0.2800 -0.6904
 3625SOL    HW122334   3.644   3.712   3.331  0.7061 -0.8249  1.8557
 3625SOL    HW222335   3.779   3.695   3.393 -1.8353  2.6391  1.1908
 3626SOL     OW22336   2.019   4.712   0.825  0.6367  0.0450  0.2528
 3626SOL    HW122337   2.103   4.713   0.872  1.9632 -2.0522 -2.0897
 3626SOL    HW222338   2.051   4.698   0.736 -3.3018 -1.8055 -0.8951
 3627SOL     OW22339   3.459   0.342   4.433  0.5690  0.3845 -0.2576
 3627SOL    HW122340   3.540   0.322   4.479 -0.5247 -1.3428  0.9257
 3627SOL    HW222341   3.397   0.359   4.504  0.4422 -1.0794 -0.0168
 3628SOL     OW22342   2.564   0.497   5.854  0.0998 -0.0563  0.3565
 3628SOL    HW122343   2.652   0.469   5.831 -0.0152  2.0726 -2.6693
 3628SOL    HW222344   2.526   0.424   5.904  1.9010 -0.4153  1.1700
 3629SOL     OW22345   3.583   2.121  12.992 -0.3731  0.0947  0.0417
 3629SOL    HW122346   3.517   2.182  13.024 -0.3294 -0.5651  1.3948
 3629SOL    HW222347   3.644   2.117  13.066  1.1234 -1.7890 -1.2836
 3630SOL     OW22348   0.263   1.723   5.256  0.6046  0.5250  0.3992
 3630SOL    HW122349   0.231   1.798   5.306  0.3683  0.3671  0.4834
 3630SOL    HW222350   0.299   1.663   5.322 -2.3384 -2.8626 -1.0366
 3631SOL     OW22351   0.154   1.519   5.008 -0.0048 -1.0624  0.0627
 3631SOL    HW122352   0.102   1.440   5.023 -1.2683 -0.1472  0.5478
 3631SOL    HW222353   0.114   1.585   5.065 -1.5725 -2.0341  0.0806
 3632SOL     OW22354   4.216   4.631  17.281 -0.1046 -0.5796 -0.6689
 3632SOL    HW122355   4.127   4.653  17.307  0.1648  2.4225 -2.2899
 3632SOL    HW222356   4.205   4.622  17.186 -0.0302 -1.9823 -0.5487
 3633SOL     OW22357   1.360   1.369   6.926 -0.0364  0.4324  0.1323
 3633SOL    HW122358   1.292   1.308   6.898 -1.0644  1.4743  0.3474
 3633SOL    HW222359   1.415   1.379   6.848  1.8662 -2.5161  1.1015
 3634SOL     OW22360   3.474   2.127   6.223 -0.0793 -0.1742 -0.0224
 3634SOL    HW122361   3.419   2.056   6.254 -2.1832  0.2188 -2.8425
 3634SOL    HW222362   3.451   2.127   6.130 -1.5256 -0.5228  0.3301
 3635SOL     OW22363   4.277   0.457   8.560  0.3502  0.0191 -0.8557
 3635SOL    HW122364   4.371   0.469   8.544  0.0482  1.2988 -1.6298
 3635SOL    HW222365   4.284   0.382   8.619  3.0478 -0.4745 -1.8144
 3636SOL     OW22366   0.493   0.834   3.542  0.3999 -0.2516  0.1034
 3636SOL    HW122367   0.455   0.780   3.473 -1.6901 -1.1539  1.9652
 3636SOL    HW222368   0.549   0.881   3.479  2.4345 -3.7501 -0.7452
 3637SOL     OW22369   0.665   2.444  12.065 -0.4641  0.1189  0.3573
 3637SOL    HW122370   0.700   2.532  12.050  1.2009 -0.2311  2.2257
 3637SOL    HW222371   0.600   2.433  11.996 -2.9000 -0.5660  2.7334
 3638SOL     OW22372   2.437   3.794   6.262 -0.1261  0.2649  0.2335
 3638SOL    HW122373   2.437   3.698   6.264  0.8423  0.2911  1.8782
 3638SOL    HW222374   2.406   3.810   6.174 -0.3755  1.5241  0.5539
 3639SOL     OW22375   2.168   1.865   8.307  0.3242 -0.2196  0.2210
 3639SOL    HW122376   2.254   1.831   8.284  1.0110  0.9567  1.0935
 3639SOL    HW222377   2.122   1.799   8.254 -0.7164 -1.4295  2.6240
 3640SOL     OW22378   3.873   3.930   2.893 -0.5554  0.0331  0.0334
 3640SOL    HW122379   3.832   4.013   2.870 -1.3467 -0.4284 -0.2145
 3640SOL    HW222380   3.922   3.908   2.814  0.5917  0.4694  0.6217
 3641SOL     OW22381   2.904   0.287   6.605  0.1790 -0.3327  0.7426
 3641SOL    HW122382   2.940   0.363   6.559 -0.0329 -1.3690 -1.1623
 3641SOL    HW222383   2.876   0.244   6.524 -0.0799 -0.3467  0.8388
 3642SOL     OW22384   1.141   1.684   9.521 -0.1132  0.1653 -0.8121
 3642SOL    HW122385   1.115   1.598   9.553 -1.9551  0.3432 -1.8460
 3642SOL    HW222386   1.134   1.737   9.600  0.9897 -0.7367 -0.1015
 3643SOL     OW22387   0.888   3.488   6.693 -0.0440  0.1235  0.0432
 3643SOL    HW122388   0.980   3.515   6.693 -0.3269  1.0823 -0.1585
 3643SOL    HW222389   0.897   3.408   6.641  3.2100  1.1396 -0.9608
 3644SOL     OW22390   4.571   1.111   1.334  0.2787  0.1640 -0.3532
 3644SOL    HW122391   4.578   1.093   1.428  2.5327 -4.5746 -1.4212
 3644SOL    HW222392   4.644   1.172   1.319 -0.2032  1.1925  1.5099
 3645SOL     OW22393   1.997   1.474   9.997  0.0069 -0.1193 -0.0025
 3645SOL    HW122394   2.062   1.417   9.955 -1.1398 -0.5606 -1.2015
 3645SOL    HW222395   2.045   1.484  10.079  0.1277 -0.7521  0.0041
 3646SOL     OW22396   2.216   4.549   0.410  0.5002  0.2189 -0.1484
 3646SOL    HW122397   2.207   4.574   0.318  0.8430 -0.7682 -0.4529
 3646SOL    HW222398   2.185   4.626   0.458  0.9431 -0.0207  0.5177
 3647SOL     OW22399   0.862   2.331   4.379  0.0318 -1.1541  0.0949
 3647SOL    HW122400   0.834   2.382   4.303  2.0039 -0.7649 -0.3797
 3647SOL    HW222401   0.846   2.401   4.443  0.1140 -2.9114  2.0486
 3648SOL     OW22402   4.580   2.012   7.884  0.0184 -0.3970 -0.2178
 3648SOL    HW122403   4.645   2.080   7.870 -2.2924  1.5576 -1.3740
 3648SOL    HW222404   4.534   2.004   7.801  0.9510 -2.3733 -0.5523
 3649SOL     OW22405   0.326   0.803  11.247  0.1125 -0.0334 -0.0545
 3649SOL    HW122406   0.326   0.742  11.321  2.2045 -2.5866 -2.1776
 3649SOL    HW222407   0.281   0.874  11.293 -1.2557 -0.9583  0.0459
 3650SOL     OW22408   3.457   0.998   4.762  0.4308 -0.1492 -0.1609
 3650SOL    HW122409   3.524   1.046   4.714 -0.7561 -0.4207 -2.1083
 3650SOL    HW222410   3.382   1.057   4.753  0.1591 -0.2547  1.4144
 3651SOL     OW22411   3.918   0.757   9.839 -0.4833  0.2511  0.7294
 3651SOL    HW122412   3.955   0.830   9.789 -1.3830 -0.3194 -0.7294
 3651SOL    HW222413   3.984   0.748   9.909  0.1516 -1.3079 -0.0769
 3652SOL     OW22414   1.030   1.410   8.835 -0.5403 -0.5953 -0.9059
 3652SOL    HW122415   1.030   1.375   8.924  0.0445 -0.9747 -1.0552
 3652SOL    HW222416   1.122   1.433   8.826 -1.4816  2.6934 -2.1612
 3653SOL     OW22417   4.053   3.817   9.309  0.1822 -0.3490  0.0784
 3653SOL    HW122418   4.054   3.758   9.234 -1.2484  1.1697 -1.1427
 3653SOL    HW222419   3.962   3.847   9.298 -0.9738 -3.6466  0.6828
 3654SOL     OW22420   3.860   4.392   6.487 -0.0885 -0.3223  0.5761
 3654SOL    HW122421   3.808   4.323   6.528 -0.0679  1.0104  2.8129
 3654SOL    HW222422   3.938   4.391   6.542  0.0654  0.9058  0.3703
 3655SOL     OW22423   3.700   3.409  14.679 -0.7317  0.1436  0.2392
 3655SOL    HW122424   3.770   3.345  14.669 -0.6086  0.3644 -0.2984
 3655SOL    HW222425   3.730   3.467  14.610  0.8066  1.0218  1.6433
 3656SOL     OW22426   0.306   1.746  16.982  0.0083 -0.3249 -0.1636
 3656SOL    HW122427   0.243   1.752  16.911  0.8743 -0.6789 -0.9606
 3656SOL    HW222428   0.324   1.652  16.972  1.4410 -0.1926  1.1381
 3657SOL     OW22429   3.655   1.997  13.537  0.5447 -0.4910 -0.0372
 3657SOL    HW122430   3.610   2.075  13.570  0.2106 -0.9361  0.5541
 3657SOL    HW222431   3.711   2.041  13.472 -1.0394  0.0188 -1.0648
 3658SOL     OW22432   3.687   1.815   3.351 -0.3747 -0.0782 -1.0490
 3658SOL    HW122433   3.693   1.910   3.340 -2.7301  0.1549 -0.3643
 3658SOL    HW222434   3.717   1.809   3.442 -3.0293 -4.5053 -0.4466
 3659SOL     OW22435   0.636   1.560   6.267  0.3110 -0.0301  0.4252
 3659SOL    HW122436   0.593   1.525   6.345  2.4880 -0.0124  1.6054
 3659SOL    HW222437   0.647   1.489   6.203 -0.4487 -1.3147  1.7161
 3660SOL     OW22438   3.718   0.337   9.141 -0.0764  0.1283  0.3662
 3660SOL    HW122439   3.746   0.248   9.164  2.6155  0.8860  0.0789
 3660SOL    HW222440   3.695   0.370   9.227 -1.1677 -2.5577  1.1048
 3661SOL     OW22441   1.992   4.126   2.901  0.2079 -0.1363  0.2217
 3661SOL    HW122442   2.082   4.147   2.876  0.1623 -1.6472 -1.2013
 3661SOL    HW222443   1.946   4.116   2.818 -0.0719  1.1485  0.2110
 3662SOL     OW22444   3.438   1.028   6.140 -0.0825  0.4496  0.4229
 3662SOL    HW122445   3.356   1.019   6.091  0.5469  0.7757 -0.6947
 3662SOL    HW222446   3.481   0.944   6.123 -1.0454  0.3104 -1.3739
 3663SOL     OW22447   2.891   0.093   2.651 -0.0211 -0.3011  0.1105
 3663SOL    HW122448   2.893   0.008   2.694  1.2945  0.0911  0.8384
 3663SOL    HW222449   2.979   0.095   2.612  0.3166 -2.1091  0.8041
 3664SOL     OW22450   2.292   4.421  11.194  0.4096  0.1837 -0.6464
 3664SOL    HW122451   2.292   4.337  11.239  0.9792  0.9157  0.7247
 3664SOL    HW222452   2.296   4.480  11.269  1.8214 -1.3835  0.4917
 3665SOL     OW22453   3.855   2.274   2.248 -0.5834  0.4579  0.1648
 3665SOL    HW122454   3.865   2.236   2.160  1.5188  0.3008  0.4740
 3665SOL    HW222455   3.939   2.250   2.288 -0.8312 -2.4721 -1.0964
 3666SOL     OW22456   1.724   3.118   2.632 -0.3145 -0.0456 -0.3048
 3666SOL    HW122457   1.759   3.197   2.673 -0.0310 -0.1296 -0.3834
 3666SOL    HW222458   1.640   3.098   2.672  0.4650 -1.0876  0.8257
 3667SOL     OW22459   2.627   1.462   5.762  0.2303 -0.0543 -0.1081
 3667SOL    HW122460   2.554   1.462   5.699  0.4785  3.4127 -0.3997
 3667SOL    HW222461   2.599   1.546   5.799  1.9117  1.2004 -1.7027
 3668SOL     OW22462   2.017   4.557   6.219  0.5656 -0.3370 -0.2496
 3668SOL    HW122463   2.089   4.588   6.165  1.8999 -0.4996  1.4557
 3668SOL    HW222464   1.965   4.636   6.235  3.6715  1.5980  0.1854
 3669SOL     OW22465   3.159   0.150   2.850  0.2135  0.3739  0.1897
 3669SOL    HW122466   3.207   0.174   2.770  1.7291  1.1692  1.3444
 3669SOL    HW222467   3.192   0.060   2.853  1.7556  1.0056  1.9128
 3670SOL     OW22468   4.583   2.668   6.043  0.3678 -0.0268 -0.1683
 3670SOL    HW122469   4.596   2.730   6.115 -1.2734 -1.0475  0.9989
 3670SOL    HW222470   4.492   2.698   6.038  0.2330 -0.1762  1.6529
 3671SOL     OW22471   3.768   1.072   8.205 -0.5917 -0.1101 -0.2460
 3671SOL    HW122472   3.770   1.121   8.123 -1.7758 -2.4521 -1.6735
 3671SOL    HW222473   3.860   1.049   8.218 -0.5429 -0.0927 -0.5534
 3672SOL     OW22474   0.635   4.057   2.409 -0.7151 -0.7659  0.2058
 3672SOL    HW122475   0.578   4.099   2.344 -0.3911  1.6804  1.5207
 3672SOL    HW222476   0.574   4.052   2.482  0.5936  4.3648  1.6482
 3673SOL     OW22477   3.649   1.904  15.295  0.2150  0.3728  0.5827
 3673SOL    HW122478   3.658   1.991  15.255 -0.7065  1.5802  2.9920
 3673SOL    HW222479   3.738   1.882  15.319  0.0769 -2.2384 -1.2446
 3674SOL     OW22480   0.742   4.584   4.604  0.8080  0.0946 -0.4734
 3674SOL    HW122481   0.752   4.489   4.607 -2.9313 -0.3203 -1.6000
 3674SOL    HW222482   0.654   4.597   4.638  1.1759  1.7920 -0.1804
 3675SOL     OW22483   3.343   0.143   2.666 -0.3779  0.3277 -0.1707
 3675SOL    HW122484   3.414   0.195   2.628  0.2236 -1.1688 -1.1227
 3675SOL    HW222485   3.403   0.070   2.682  0.3979  0.7996 -0.9144
 3676SOL     OW22486   0.440   4.359  14.638 -0.2312  0.1595  0.3742
 3676SOL    HW122487   0.361   4.412  14.649 -0.0788  0.4215  0.1934
 3676SOL    HW222488   0.397   4.275  14.621  1.6870 -0.6574 -0.4109
 3677SOL     OW22489   2.690   1.049   7.530  0.1281  0.4681 -0.5371
 3677SOL    HW122490   2.721   0.985   7.595  0.2883  0.5180 -0.5650
 3677SOL    HW222491   2.658   1.116   7.590 -1.2896  0.6412 -1.5130
 3678SOL     OW22492   3.693   2.520  10.623 -0.4223  0.0936  0.0280
 3678SOL    HW122493   3.632   2.504  10.696 -0.8760  0.9403 -0.1616
 3678SOL    HW222494   3.648   2.594  10.582 -1.6837 -1.5387 -1.5533
 3679SOL     OW22495   2.250   0.123  10.929  0.0715  0.0698  0.4121
 3679SOL    HW122496   2.208   0.118  11.015  1.2582 -0.5484  0.9673
 3679SOL    HW222497   2.297   0.039  10.931  0.4907  0.2893 -0.1331
 3680SOL     OW22498   0.351   0.872   8.759 -0.5279  0.5950  0.1850
 3680SOL    HW122499   0.428   0.861   8.703  0.5937  0.9221  1.6481
 3680SOL    HW222500   0.332   0.780   8.776  2.1145 -0.3771 -1.9964
 3681SOL     OW22501   0.295   4.307   3.889 -0.3124  0.1557  0.1417
 3681SOL    HW122502   0.350   4.303   3.968  1.1441 -0.8025 -0.9209
 3681SOL    HW222503   0.315   4.398   3.869 -0.7211  0.2512  0.1878
 3682SOL     OW22504   2.701   0.888   5.893 -0.1536  0.2344  0.1788
 3682SOL    HW122505   2.772   0.861   5.951 -0.2930 -1.0616 -0.2591
 3682SOL    HW222506   2.732   0.976   5.870  0.3105  0.1543  0.4876
 3683SOL     OW22507   1.705   2.254   5.774  0.5949 -0.9051  0.0116
 3683SOL    HW122508   1.681   2.209   5.693  0.5107 -1.8964  0.5803
 3683SOL    HW222509   1.624   2.302   5.794  1.9280  1.3394  0.0010
 3684SOL     OW22510   1.843   3.022   9.109 -0.0760  0.6227 -0.3010
 3684SOL    HW122511   1.818   3.052   9.022  0.1549  1.4084 -0.0924
 3684SOL    HW222512   1.755   3.009   9.144 -0.4023  2.7920 -0.3230
 3685SOL     OW22513   1.976   2.503   2.896  0.0880  0.6069 -1.1089
 3685SOL    HW122514   1.943   2.416   2.873 -0.3983  1.1391 -2.3912
 3685SOL    HW222515   2.053   2.485   2.950 -0.0577  1.5293 -0.5973
 3686SOL     OW22516   0.938   2.625   1.315 -0.2038  0.6412 -0.3205
 3686SOL    HW122517   0.950   2.700   1.374 -2.8013  0.3876  0.5373
 3686SOL    HW222518   0.893   2.670   1.243  1.6922  1.3870 -1.0429
 3687SOL     OW22519   3.202   0.173  15.992 -0.0274  0.3534 -0.1047
 3687SOL    HW122520   3.275   0.126  16.033 -0.7348 -3.2445 -3.0086
 3687SOL    HW222521   3.251   0.221  15.927  1.2116  0.5375  0.9649
 3688SOL     OW22522   4.558   3.602   2.212 -0.1150  0.4026 -0.3705
 3688SOL    HW122523   4.500   3.563   2.277  0.1735  3.2420  1.6116
 3688SOL    HW222524   4.518   3.564   2.133 -0.2713 -1.0291  0.4029
 3689SOL     OW22525   2.920   0.898  16.081 -0.7293 -0.0434  0.2006
 3689SOL    HW122526   2.902   0.808  16.109  0.4951 -0.5752 -0.7518
 3689SOL    HW222527   3.009   0.877  16.055 -1.3265 -1.2186 -0.8762
 3690SOL     OW22528   2.985   2.949   5.859  0.2555 -0.2525  0.0828
 3690SOL    HW122529   2.894   2.978   5.863  0.3865  0.0905  0.5581
 3690SOL    HW222530   2.987   2.901   5.777  1.7644  2.4105 -1.4097
 3691SOL     OW22531   1.700   3.785   4.562 -0.6573 -0.6352 -0.0695
 3691SOL    HW122532   1.743   3.763   4.646  0.9969 -2.0124 -1.2610
 3691SOL    HW222533   1.733   3.709   4.514  1.0684 -0.2206  0.4537
 3692SOL     OW22534   0.820   3.215   1.752  0.0181  0.2154  0.2253
 3692SOL    HW122535   0.878   3.207   1.828  3.5371  1.0007 -2.3729
 3692SOL    HW222536   0.792   3.305   1.764 -0.9578 -0.3527  2.2567
 3693SOL     OW22537   2.083   1.503   3.724 -0.0168 -0.1181  0.9435
 3693SOL    HW122538   2.072   1.447   3.801  2.7983  0.4114  1.7314
 3693SOL    HW222539   2.161   1.462   3.685 -0.8781 -0.9489  0.0849
 3694SOL     OW22540   3.953   3.292   2.099 -0.1892  0.5996  0.1168
 3694SOL    HW122541   3.922   3.377   2.130 -0.3295  0.9891 -1.1023
 3694SOL    HW222542   3.972   3.327   2.012  1.0084 -2.3335 -0.8081
 3695SOL     OW22543   0.430   1.993   0.191  0.2399 -0.1795 -0.0697
 3695SOL    HW122544   0.424   2.078   0.235 -0.3740 -1.4382  2.3234
 3695SOL    HW222545   0.379   2.013   0.112 -3.2842  2.2016  2.8038
 3696SOL     OW22546   0.528   1.260   2.788  0.3326  0.0052 -0.0420
 3696SOL    HW122547   0.586   1.302   2.852 -0.8925  3.0604 -0.9033
 3696SOL    HW222548   0.591   1.205   2.742  0.1355  0.3891 -0.7667
 3697SOL     OW22549   1.415   3.347  15.481  0.3786  1.0576  0.3813
 3697SOL    HW122550   1.465   3.402  15.420  1.6890 -1.9027 -1.1977
 3697SOL    HW222551   1.478   3.275  15.488  1.3571  1.9572  0.9235
 3698SOL     OW22552   1.425   4.041   0.517 -0.2856 -0.1870  0.3333
 3698SOL    HW122553   1.453   3.950   0.503  1.4063  0.4123 -0.2091
 3698SOL    HW222554   1.502   4.074   0.563 -1.3538  3.4919 -0.5845
 3699SOL     OW22555   4.707   2.085   6.453  0.3431 -0.2811  0.2071
 3699SOL    HW122556   0.002   2.002   6.409 -1.5927  0.5339 -2.1619
 3699SOL    HW222557   4.655   2.129   6.386 -1.1771  0.8945  2.1563
 3700SOL     OW22558   4.012   0.547   3.725 -0.6607  0.6101  0.4227
 3700SOL    HW122559   4.069   0.588   3.659 -0.3673  0.0621  0.3290
 3700SOL    HW222560   3.933   0.534   3.673  0.8748 -3.1302 -1.0142
 3701SOL     OW22561   0.361   4.155   9.089 -0.0027  0.5790  0.4665
 3701SOL    HW122562   0.451   4.173   9.116 -0.1919  1.1639  0.7139
 3701SOL    HW222563   0.323   4.243   9.096 -1.2524  0.1259 -0.6012
 3702SOL     OW22564   3.225   4.026   2.429 -0.6334 -0.4345  0.3520
 3702SOL    HW122565   3.165   3.978   2.372 -2.6433 -0.2811  2.3275
 3702SOL    HW222566   3.287   4.064   2.368 -2.6205  4.0517  1.1692
 3703SOL     OW22567   0.605   2.983  11.224 -0.6542 -0.5427  0.4382
 3703SOL    HW122568   0.633   2.893  11.206  1.7524  0.1641  0.6124
 3703SOL    HW222569   0.686   3.016  11.264  0.3019 -0.4686 -1.5325
 3704SOL     OW22570   1.292   3.878  10.115  0.8033  0.3252  0.2078
 3704SOL    HW122571   1.328   3.897  10.202 -2.4391 -1.7514  1.9888
 3704SOL    HW222572   1.201   3.859  10.134  1.2473  1.3186  3.3028
 3705SOL     OW22573   2.017   4.035   3.780 -0.1157 -0.0002 -0.8495
 3705SOL    HW122574   1.982   4.099   3.718  1.0474  1.0411 -0.4404
 3705SOL    HW222575   1.965   4.053   3.858  0.0228 -0.0985 -0.7348
 3706SOL     OW22576   4.321   3.872   5.531 -0.0395  0.1501  0.1522
 3706SOL    HW122577   4.374   3.822   5.593  0.6082  0.4354 -0.1749
 3706SOL    HW222578   4.356   3.843   5.447 -0.5912 -0.8768  0.2768
 3707SOL     OW22579   1.904   1.335  10.611  0.8560  0.5929  0.2548
 3707SOL    HW122580   1.950   1.357  10.530 -1.2160  1.6882 -0.6237
 3707SOL    HW222581   1.954   1.391  10.671  0.6598  0.5579  0.4522
 3708SOL     OW22582   0.155   2.541   2.767  0.2952 -0.2185  0.5820
 3708SOL    HW122583   0.106   2.622   2.752 -2.6493 -2.8491 -3.9189
 3708SOL    HW222584   0.126   2.523   2.856  1.3015 -2.5688  0.4185
 3709SOL     OW22585   2.698   0.381   3.107 -0.7544 -0.2788  0.2352
 3709SOL    HW122586   2.757   0.443   3.064 -1.0603  0.1169  0.3905
 3709SOL    HW222587   2.668   0.343   3.025 -1.0754 -0.0676  0.2545
 3710SOL     OW22588   1.017   0.700   5.298 -0.3629  0.5354 -0.2076
 3710SOL    HW122589   0.993   0.789   5.322 -2.1284  0.2271 -0.8515
 3710SOL    HW222590   1.070   0.690   5.377  0.6186 -1.7491 -1.1587
 3711SOL     OW22591   0.477   2.636   0.556  0.0897  0.4632 -0.8495
 3711SOL    HW122592   0.400   2.686   0.584  0.6284  0.4227  0.7053
 3711SOL    HW222593   0.512   2.603   0.639 -1.2587 -0.1469 -0.5209
 3712SOL     OW22594   2.691   2.478   6.356 -0.1063 -0.5238 -0.3411
 3712SOL    HW122595   2.737   2.482   6.272 -1.1044  1.5190 -0.7896
 3712SOL    HW222596   2.763   2.475   6.418 -1.2425  1.0711  1.0601
 3713SOL     OW22597   2.089   0.141   3.796 -0.2600  0.2223  0.2884
 3713SOL    HW122598   2.114   0.056   3.835  1.5110  0.9943  0.8399
 3713SOL    HW222599   2.002   0.153   3.834 -0.4295  1.6231 -0.5466
 3714SOL     OW22600   4.276   3.614   6.450  0.1891 -0.3828  0.0993
 3714SOL    HW122601   4.268   3.639   6.542 -1.0957  1.6025 -0.5659
 3714SOL    HW222602   4.346   3.548   6.453  2.1268  1.5740 -1.9825
 3715SOL     OW22603   3.707   2.660  16.156  0.2246 -0.3315 -0.1696
 3715SOL    HW122604   3.766   2.730  16.186 -2.1648  1.9341 -0.6948
 3715SOL    HW222605   3.624   2.681  16.198 -0.3652 -0.7109 -1.1468
 3716SOL     OW22606   4.673   3.907   0.749 -0.5566 -0.0059  0.5402
 3716SOL    HW122607   4.609   3.973   0.724 -1.1470 -0.5100  0.7259
 3716SOL    HW222608   4.627   3.823   0.752  1.4832 -1.2140 -1.9292
 3717SOL     OW22609   0.853   0.743  17.307 -1.2380  0.3316 -0.0062
 3717SOL    HW122610   0.877   0.811  17.243 -1.6554  0.5391  0.0624
 3717SOL    HW222611   0.939   0.732  17.349 -0.1955 -1.5495 -2.6386
 3718SOL     OW22612   1.237   2.353  11.182  0.3723 -0.3426 -0.0510
 3718SOL    HW122613   1.232   2.436  11.229 -1.2525 -0.6514  0.3466
 3718SOL    HW222614   1.201   2.296  11.250  2.2669 -1.2161  0.2028
 3719SOL     OW22615   1.804   1.715   4.421 -0.4451 -0.5688  0.2190
 3719SOL    HW122616   1.776   1.703   4.511 -1.7516 -1.3137 -0.2878
 3719SOL    HW222617   1.767   1.636   4.381 -1.1688 -0.3083  0.3662
 3720SOL     OW22618   0.451   2.315  13.254  0.4433 -0.5100  0.3897
 3720SOL    HW122619   0.452   2.220  13.243 -0.6806 -0.0838 -3.6347
 3720SOL    HW222620   0.478   2.334  13.343  0.4283 -1.9517  0.6948
 3721SOL     OW22621   0.812   2.454   4.158 -0.1650 -0.3776 -0.2546
 3721SOL    HW122622   0.851   2.500   4.084  0.4610 -0.3162  0.1128
 3721SOL    HW222623   0.754   2.394   4.111 -0.0377 -1.5780  1.1178
 3722SOL     OW22624   0.097   3.392   5.132 -0.9063  0.3654  0.2421
 3722SOL    HW122625   0.062   3.418   5.218 -1.7445 -1.9406  0.5847
 3722SOL    HW222626   0.095   3.476   5.086  3.6022  1.0405  1.2716
 3723SOL     OW22627   4.209   4.128   6.414 -0.0716  0.1440  0.4818
 3723SOL    HW122628   4.193   4.221   6.401 -0.0608  0.1244  0.3254
 3723SOL    HW222629   4.279   4.128   6.480  1.6450 -2.3132 -1.3150
 3724SOL     OW22630   2.527   1.646   5.045 -0.1737 -0.2817  0.0981
 3724SOL    HW122631   2.464   1.612   5.109 -0.8632  0.5400 -0.1502
 3724SOL    HW222632   2.496   1.736   5.039  0.0202 -0.1486  1.0833
 3725SOL     OW22633   1.909   3.747   8.303  0.1785 -0.2361  0.2339
 3725SOL    HW122634   1.886   3.809   8.373 -2.1761  0.3623 -1.0641
 3725SOL    HW222635   1.827   3.697   8.305  0.8264 -1.3214 -0.3984
 3726SOL     OW22636   0.026   3.134   6.408  0.0892 -0.5990  0.3914
 3726SOL    HW122637   0.042   3.191   6.333 -0.4360 -1.3476 -0.2926
 3726SOL    HW222638   0.090   3.063   6.403  1.2088  0.5078 -1.3060
 3727SOL     OW22639   1.853   2.755   7.289 -0.0529 -0.0891  0.2528
 3727SOL    HW122640   1.765   2.725   7.268  0.6539 -0.6479 -1.8645
 3727SOL    HW222641   1.896   2.687   7.341 -1.4189 -1.7879 -0.8763
 3728SOL     OW22642   4.104   1.478  17.339  0.2411 -0.2825  0.1361
 3728SOL    HW122643   4.172   1.539  17.308 -0.8683  0.4106 -0.9556
 3728SOL    HW222644   4.148   1.457  17.421 -2.7031  2.8857  2.4960
 3729SOL     OW22645   0.031   3.937  14.393 -0.2530 -0.2688 -0.5381
 3729SOL    HW122646   0.107   3.893  14.356  0.0743 -2.5288  2.7703
 3729SOL    HW222647   4.686   3.871  14.404 -0.9732  0.4746 -0.5712
 3730SOL     OW22648   3.986   0.343  16.099 -0.0545  0.4095 -0.6347
 3730SOL    HW122649   3.935   0.378  16.172  1.9746  0.7986  0.5932
 3730SOL    HW222650   4.079   0.367  16.100  0.4483 -1.5482 -0.4033
 3731SOL     OW22651   3.507   3.558   1.767  0.8447 -0.2026  0.0837
 3731SOL    HW122652   3.515   3.567   1.862  0.5196 -0.8075  0.1722
 3731SOL    HW222653   3.424   3.511   1.756  0.0566  1.2457 -0.1486
 3732SOL     OW22654   4.443   1.280   5.052  0.3758  0.3962 -0.2045
 3732SOL    HW122655   4.372   1.326   5.097 -0.0591  0.0839 -0.5665
 3732SOL    HW222656   4.479   1.223   5.120 -2.9514  2.3306  3.1878
 3733SOL     OW22657   0.182   3.286  10.901  0.2949 -0.3720 -0.1162
 3733SOL    HW122658   0.108   3.298  10.961  0.5433  0.7270 -0.0210
 3733SOL    HW222659   0.149   3.214  10.847  2.3512 -1.4965  0.1055
 3734SOL     OW22660   3.237   1.065   8.896  0.0487  0.6106  0.2881
 3734SOL    HW122661   3.274   1.003   8.959  2.1126  2.8672  1.3119
 3734SOL    HW222662   3.209   1.141   8.946 -2.0769 -0.0743  0.1389
 3735SOL     OW22663   0.378   3.651   4.833  0.0979  0.4586  0.0988
 3735SOL    HW122664   0.351   3.675   4.744 -2.0723  2.1403  1.2135
 3735SOL    HW222665   0.453   3.702   4.864 -0.6161  0.5449  1.6672
 3736SOL     OW22666   4.051   2.308   2.855  0.0087 -0.0557  0.6500
 3736SOL    HW122667   4.102   2.361   2.918  1.0643  0.6401 -0.7828
 3736SOL    HW222668   4.069   2.228   2.905 -0.5111  0.1484  1.1631
 3737SOL     OW22669   2.793   1.450   2.564  0.0546  0.3331  0.8218
 3737SOL    HW122670   2.738   1.379   2.598 -1.2653 -0.0075 -2.0024
 3737SOL    HW222671   2.823   1.417   2.479 -1.5029 -0.1382  0.4400
 3738SOL     OW22672   0.999   2.997   2.457 -0.1411 -0.0098 -1.0617
 3738SOL    HW122673   0.908   3.001   2.486  0.3117  1.5322  0.1892
 3738SOL    HW222674   0.994   2.939   2.381 -2.6034 -0.0346 -0.8877
 3739SOL     OW22675   3.097   3.475   6.762  0.3777 -0.6072  0.1755
 3739SOL    HW122676   3.014   3.479   6.715  0.4247  0.9199  0.2014
 3739SOL    HW222677   3.069   3.538   6.828 -2.7005 -0.0609 -1.6275
 3740SOL     OW22678   4.314   2.056  16.166  0.3978  0.1746 -0.3876
 3740SOL    HW122679   4.325   1.981  16.107  1.1906  0.4500 -0.5900
 3740SOL    HW222680   4.389   2.111  16.143 -0.9760  1.5670 -1.5717
 3741SOL     OW22681   1.405   4.327   8.295 -0.2737  0.1978  0.1651
 3741SOL    HW122682   1.342   4.258   8.316  0.8258 -0.3283  1.7958
 3741SOL    HW222683   1.422   4.353   8.385  0.5828 -0.1116  0.0933
 3742SOL     OW22684   1.788   4.624   0.953  0.2677 -0.2690 -0.6967
 3742SOL    HW122685   1.861   4.666   0.909  1.0803 -0.6372  0.3072
 3742SOL    HW222686   1.830   4.543   0.981  0.6303  0.2144  0.1462
 3743SOL     OW22687   1.157   2.721   7.151 -0.0903 -0.1765 -0.2258
 3743SOL    HW122688   1.163   2.805   7.107  1.4893  0.3065  0.9181
 3743SOL    HW222689   1.192   2.658   7.087 -0.5273 -1.0223  0.3581
 3744SOL     OW22690   4.060   1.619   5.087 -0.0949 -0.2580  0.2806
 3744SOL    HW122691   4.039   1.686   5.152  0.4603  0.5717 -0.3956
 3744SOL    HW222692   4.109   1.667   5.020  1.3006 -1.9650  0.0717
 3745SOL     OW22693   0.631   3.179   1.390  0.2383 -0.2043  0.1796
 3745SOL    HW122694   0.542   3.161   1.418  0.8603 -0.8964  1.7173
 3745SOL    HW222695   0.623   3.273   1.374 -1.2787 -0.4496 -0.4579
 3746SOL     OW22696   2.636   1.519   1.861 -0.2186 -0.0676  0.0125
 3746SOL    HW122697   2.574   1.587   1.889 -2.5090 -1.8913 -0.6310
 3746SOL    HW222698   2.573   1.448   1.843  0.7668 -0.7912 -0.5522
 3747SOL     OW22699   0.261   3.334  15.235  0.0790  0.0383  0.2880
 3747SOL    HW122700   0.257   3.345  15.140  0.9031  0.8561  0.3533
 3747SOL    HW222701   0.332   3.270  15.234 -1.6754 -1.9331  0.7791
 3748SOL     OW22702   1.161   0.627   5.089 -0.2663  0.0172 -0.0218
 3748SOL    HW122703   1.175   0.539   5.125 -0.4320 -0.4711 -1.1483
 3748SOL    HW222704   1.102   0.651   5.159 -3.2217 -0.1711 -2.4506
 3749SOL     OW22705   1.232   4.435   5.702 -0.2876  0.5235 -0.7375
 3749SOL    HW122706   1.250   4.364   5.764  1.6146  1.3452 -0.3435
 3749SOL    HW222707   1.251   4.396   5.617 -0.5202 -2.8297  0.7237
 3750SOL     OW22708   3.093   2.269  10.743  0.0581  0.1843 -0.1751
 3750SOL    HW122709   3.144   2.259  10.823 -0.2526 -3.0033 -0.4041
 3750SOL    HW222710   3.004   2.252  10.772 -0.0442  1.6570  0.4000
 3751SOL     OW22711   1.027   3.282  13.398  0.4712  0.0887 -0.1629
 3751SOL    HW122712   0.990   3.284  13.310  1.8401  1.6302 -0.7221
 3751SOL    HW222713   1.074   3.366  13.400  0.4490  0.0595  2.1796
 3752SOL     OW22714   0.980   1.922   5.236 -0.0949  0.0682 -0.2981
 3752SOL    HW122715   1.000   1.829   5.222  0.1753  0.1247 -0.2763
 3752SOL    HW222716   1.070   1.954   5.237 -1.0059  2.6247 -0.1069
 3753SOL     OW22717   3.856   0.698  15.316  0.1101 -0.0214  0.1677
 3753SOL    HW122718   3.893   0.626  15.366  1.0320 -0.9192 -1.8098
 3753SOL    HW222719   3.768   0.699  15.354 -0.1873 -0.0978 -0.5048
 3754SOL     OW22720   0.075   2.463   0.300 -0.1595 -0.0315 -0.1074
 3754SOL    HW122721   0.106   2.381   0.264 -0.0876  0.2754 -0.7392
 3754SOL    HW222722   0.112   2.462   0.389  1.1883 -1.6090 -0.6901
 3755SOL     OW22723   1.397   4.332   9.598 -0.1605 -0.1600  0.0068
 3755SOL    HW122724   1.461   4.283   9.651 -1.1033  0.3425  1.6245
 3755SOL    HW222725   1.345   4.252   9.588  0.2681 -0.0781 -2.7460
 3756SOL     OW22726   1.990   3.545   1.450 -0.0176  0.5936  0.6649
 3756SOL    HW122727   1.911   3.501   1.418  1.1030 -0.7762 -0.1973
 3756SOL    HW222728   2.006   3.517   1.540 -1.5927 -1.1188  0.4253
 3757SOL     OW22729   1.986   4.341   0.320 -0.4737 -0.1684 -0.8701
 3757SOL    HW122730   2.058   4.382   0.368 -0.1102 -0.2304 -1.3592
 3757SOL    HW222731   2.019   4.326   0.231 -0.2532  0.6676 -0.9345
 3758SOL     OW22732   1.729   0.863   2.070 -0.6928  0.0953 -0.4148
 3758SOL    HW122733   1.781   0.794   2.111  1.6318  1.4011 -1.1475
 3758SOL    HW222734   1.738   0.932   2.136 -1.4177  0.1629 -0.3844
 3759SOL     OW22735   3.156   3.120   1.705  0.4587  0.1894  1.1439
 3759SOL    HW122736   3.175   3.044   1.651 -1.6439  0.6686 -0.2549
 3759SOL    HW222737   3.062   3.101   1.706  0.2793  1.0530 -0.5140
 3760SOL     OW22738   3.248   2.962   1.487  0.6678 -0.6646 -0.1565
 3760SOL    HW122739   3.340   2.985   1.497  0.6375 -0.7977  0.3953
 3760SOL    HW222740   3.228   2.926   1.400 -1.7885 -0.8282  0.4763
 3761SOL     OW22741   0.221   3.667   2.768  0.0508  0.5506 -0.2904
 3761SOL    HW122742   0.280   3.738   2.790  0.0883  1.1094 -2.1618
 3761SOL    HW222743   0.180   3.700   2.688 -0.2521 -0.4071 -0.5334
 3762SOL     OW22744   3.903   1.423   0.756  0.2486  0.3470  0.4654
 3762SOL    HW122745   3.938   1.508   0.783  2.3790 -0.4339  0.1485
 3762SOL    HW222746   3.973   1.358   0.762  1.5655  1.5023 -2.7229
 3763SOL     OW22747   3.278   2.661   5.004  0.5820 -0.4020 -0.1294
 3763SOL    HW122748   3.226   2.585   5.027 -0.2940  0.1201 -0.3696
 3763SOL    HW222749   3.283   2.716   5.082  0.6102  0.1827 -0.5390
 3764SOL     OW22750   0.938   1.215  14.866 -0.4138 -0.0633  0.3607
 3764SOL    HW122751   1.005   1.276  14.835 -0.3116  0.3349  1.3643
 3764SOL    HW222752   0.959   1.205  14.959 -1.9361  0.2331  0.7297
 3765SOL     OW22753   4.271   2.447   7.545 -0.6147  0.2235  0.1496
 3765SOL    HW122754   4.177   2.436   7.557 -1.1174  3.4466 -0.6557
 3765SOL    HW222755   4.281   2.436   7.450  0.8340 -3.8861  0.7748
 3766SOL     OW22756   0.561   1.747  14.302  0.4411 -0.3510 -0.7525
 3766SOL    HW122757   0.505   1.802  14.357 -0.2745 -0.2381 -1.6034
 3766SOL    HW222758   0.581   1.678  14.366 -0.6436  1.5158  1.5938
 3767SOL     OW22759   1.696   3.721   7.864 -0.4641  0.4285  0.0794
 3767SOL    HW122760   1.760   3.788   7.889 -0.4354  0.8352 -1.0635
 3767SOL    HW222761   1.707   3.650   7.926  0.2729 -0.0139 -0.5554
 3768SOL     OW22762   1.487   3.913  13.279  0.2482  0.1850  0.1383
 3768SOL    HW122763   1.505   3.825  13.246  0.6434  0.6802 -0.9846
 3768SOL    HW222764   1.401   3.935  13.242 -0.6889 -1.1960  1.5181
 3769SOL     OW22765   4.702   4.679  14.326 -0.0692 -0.5522  0.6245
 3769SOL    HW122766   4.708   4.603  14.268  1.0111  0.2052 -0.2816
 3769SOL    HW222767   4.641   4.646  14.391 -1.8872  1.5978  0.0362
 3770SOL     OW22768   3.252   2.873   3.981  0.4523  0.3723 -0.9339
 3770SOL    HW122769   3.165   2.837   3.963 -1.4469  3.9788  0.9875
 3770SOL    HW222770   3.288   2.860   3.893 -0.0507 -0.7632 -0.9868
 3771SOL     OW22771   2.692   3.055  16.871  0.8628  0.1753  0.3289
 3771SOL    HW122772   2.611   3.083  16.915 -0.5062 -1.0929 -1.4386
 3771SOL    HW222773   2.721   3.135  16.828  0.6722 -0.2380 -0.5606
 3772SOL     OW22774   2.142   0.131  11.168 -0.3202 -0.1718  0.3593
 3772SOL    HW122775   2.054   0.102  11.143 -0.0483 -0.2448 -0.5380
 3772SOL    HW222776   2.133   0.129  11.263  0.1027  0.0131  0.4023
 3773SOL     OW22777   0.555   1.975   6.973  0.3349 -0.3548 -0.3726
 3773SOL    HW122778   0.607   2.053   6.956  1.0694 -0.6105  0.7412
 3773SOL    HW222779   0.502   1.967   6.893  0.4346 -0.3320 -0.4414
 3774SOL     OW22780   0.576   0.579  10.720  0.0478 -0.2268  0.9761
 3774SOL    HW122781   0.538   0.559  10.634 -1.2313  0.6449  1.3319
 3774SOL    HW222782   0.532   0.656  10.756  2.3636  0.5305  2.1940
 3775SOL     OW22783   0.141   2.402  14.639 -0.3592  0.3741  0.0079
 3775SOL    HW122784   0.083   2.461  14.686  0.7996  2.1197 -0.7478
 3775SOL    HW222785   0.208   2.382  14.705  1.6621 -0.1607 -2.1560
 3776SOL     OW22786   1.218   0.827  11.502  0.2084  0.5322  0.7476
 3776SOL    HW122787   1.216   0.835  11.406  0.9768 -0.4365  0.6443
 3776SOL    HW222788   1.232   0.735  11.525  2.4160  0.7294  0.2409
 3777SOL     OW22789   4.713   0.400   8.313  0.1577  0.0257 -0.2479
 3777SOL    HW122790   0.015   0.330   8.253  3.7817  1.7591 -0.6529
 3777SOL    HW222791   0.036   0.475   8.277  0.5787 -0.2907 -0.3602
 3778SOL     OW22792   0.046   3.658   4.589 -0.3283  0.1083  0.5992
 3778SOL    HW122793   4.693   3.635   4.641  0.9557  0.1735  2.5253
 3778SOL    HW222794   0.062   3.753   4.589  3.2429 -0.5176 -3.2737
 3779SOL     OW22795   4.096   4.045   5.388  0.2463  0.0426  0.5401
 3779SOL    HW122796   4.103   3.963   5.438  1.2778 -0.6200 -0.6831
 3779SOL    HW222797   4.152   4.031   5.312  2.0979  0.7233  1.7885
 3780SOL     OW22798   0.018   1.027   7.672 -0.1791 -0.6706  0.6110
 3780SOL    HW122799   0.025   0.963   7.743 -1.4882  0.5617  1.8464
 3780SOL    HW222800   0.025   1.109   7.719 -1.2964 -0.6582  0.7471
 3781SOL     OW22801   1.417   1.553   5.341 -0.9226  0.3622  0.3106
 3781SOL    HW122802   1.434   1.596   5.425  0.3919 -0.5038  0.4858
 3781SOL    HW222803   1.342   1.604   5.310 -0.7027 -0.7198 -1.9976
 3782SOL     OW22804   0.295   0.593   3.973 -0.0444  0.0057 -0.2135
 3782SOL    HW122805   0.363   0.540   3.932 -0.0093 -0.6964  0.7570
 3782SOL    HW222806   0.328   0.682   3.963 -0.8346  0.1792 -1.3318
 3783SOL     OW22807   1.973   4.392   2.533 -0.0597 -0.3743 -0.7407
 3783SOL    HW122808   2.062   4.373   2.503  0.8724  0.8123  1.2926
 3783SOL    HW222809   1.998   4.471   2.581  1.4212 -1.4896  0.2960
 3784SOL     OW22810   3.503   2.873  15.886  0.0734 -0.3577  1.5933
 3784SOL    HW122811   3.425   2.852  15.937  0.4862 -0.5857  2.1242
 3784SOL    HW222812   3.520   2.962  15.916  0.2366  0.6817 -1.5606
 3785SOL     OW22813   1.951   0.499   2.853 -0.7920  0.1956 -0.3869
 3785SOL    HW122814   1.953   0.445   2.775  0.8873 -1.2511  0.6677
 3785SOL    HW222815   1.901   0.575   2.823 -0.7355 -0.1899 -1.4308
 3786SOL     OW22816   1.851   0.687   2.628 -0.1376 -0.3533  0.0707
 3786SOL    HW122817   1.890   0.605   2.597 -0.6738 -0.7823  0.5280
 3786SOL    HW222818   1.776   0.703   2.570  1.2183  0.2523 -1.5312
 3787SOL     OW22819   0.365   2.635   5.268  0.0443 -0.0268  0.4595
 3787SOL    HW122820   0.393   2.556   5.223 -2.6116  0.0263 -1.3380
 3787SOL    HW222821   0.274   2.633   5.238 -0.2954  2.0575  1.3830
 3788SOL     OW22822   1.393   2.067   7.312 -0.4958 -0.6208  0.1907
 3788SOL    HW122823   1.380   2.155   7.275  1.0942 -1.3411 -2.0819
 3788SOL    HW222824   1.411   2.023   7.229 -0.6650 -0.1378 -0.1072
 3789SOL     OW22825   0.087   2.015   4.698  0.0385 -0.0247  0.6165
 3789SOL    HW122826   0.064   2.108   4.695  0.6393  0.0908 -0.2576
 3789SOL    HW222827   0.074   1.995   4.605  2.4225  2.7878 -0.2975
 3790SOL     OW22828   2.716   3.527   3.756 -0.1578  0.0670  0.4208
 3790SOL    HW122829   2.668   3.444   3.755 -0.3203  0.1526  1.2930
 3790SOL    HW222830   2.696   3.546   3.847  0.2520  0.3977  0.4463
 3791SOL     OW22831   4.482   2.335   9.513 -0.1877  0.2643 -0.8867
 3791SOL    HW122832   4.569   2.312   9.480  0.4771 -0.8769  1.6603
 3791SOL    HW222833   4.496   2.428   9.495  1.7504  0.2510  0.6014
 3792SOL     OW22834   1.666   3.147   3.179  0.1696  0.0544  0.2575
 3792SOL    HW122835   1.631   3.058   3.176  1.5663 -0.4712 -0.3545
 3792SOL    HW222836   1.705   3.150   3.266  0.3647  1.0226  0.1382
 3793SOL     OW22837   4.076   2.827   3.881  0.2073 -0.4125  0.3023
 3793SOL    HW122838   4.140   2.867   3.941 -0.8355  0.7891  0.6142
 3793SOL    HW222839   4.018   2.786   3.945 -0.0984 -0.7256 -0.1814
 3794SOL     OW22840   1.201   0.798  12.392  0.2778  0.2925  0.5982
 3794SOL    HW122841   1.202   0.712  12.433 -0.0805  1.3157  2.7872
 3794SOL    HW222842   1.259   0.779  12.318  0.6052  1.6912  0.4816
 3795SOL     OW22843   0.497   0.623   8.176 -0.8353  0.2183  0.0672
 3795SOL    HW122844   0.425   0.608   8.238 -1.5105 -1.6414 -1.1817
 3795SOL    HW222845   0.519   0.537   8.142 -0.5362 -0.0274  0.8745
 3796SOL     OW22846   1.924   0.890   5.776 -0.2174  0.4467  0.1798
 3796SOL    HW122847   1.842   0.842   5.789 -1.8318  2.9301 -0.8257
 3796SOL    HW222848   1.914   0.965   5.835 -0.0757 -0.0313  0.8177
 3797SOL     OW22849   3.365   4.186   2.171  0.8257 -0.7249  0.1206
 3797SOL    HW122850   3.443   4.144   2.134  1.2486  0.7058 -0.6251
 3797SOL    HW222851   3.402   4.269   2.200  1.4839 -1.1121  0.3855
 3798SOL     OW22852   0.373   3.690   9.522 -0.5669  0.2133 -0.6178
 3798SOL    HW122853   0.424   3.768   9.543  1.0828 -1.8850  3.1575
 3798SOL    HW222854   0.404   3.639   9.597 -0.7618  0.4455 -0.3833
 3799SOL     OW22855   2.040   4.550   6.856  0.8012 -0.2207  0.5701
 3799SOL    HW122856   1.994   4.471   6.884 -1.2438  0.4916 -0.8862
 3799SOL    HW222857   2.011   4.563   6.766 -3.5259  0.9356  2.1666
 3800SOL     OW22858   0.798   0.205   7.489  0.3559  0.3372 -0.3508
 3800SOL    HW122859   0.867   0.243   7.543 -0.9757  1.8152  0.3210
 3800SOL    HW222860   0.740   0.146   7.538 -0.8103  1.2626 -0.6138
 3801SOL     OW22861   1.650   3.475  16.903 -0.3173  0.3075  0.0452
 3801SOL    HW122862   1.576   3.533  16.885 -1.3178 -0.6146  1.1196
 3801SOL    HW222863   1.639   3.414  16.830 -2.2486 -0.2353  0.7928
 3802SOL     OW22864   3.149   3.853  13.090 -0.1826 -0.8031 -0.1008
 3802SOL    HW122865   3.103   3.929  13.126  0.9794 -1.2088  2.2874
 3802SOL    HW222866   3.159   3.886  13.001 -0.1024 -0.0578  0.1781
 3803SOL     OW22867   3.218   3.122  15.562  0.1973 -0.4861  0.5222
 3803SOL    HW122868   3.306   3.153  15.582 -0.4469  1.1317  0.7932
 3803SOL    HW222869   3.241   3.070  15.485 -1.2846  0.2181 -0.3960
 3804SOL     OW22870   0.916   3.873   3.850  0.0079  0.4603 -0.5123
 3804SOL    HW122871   0.927   3.864   3.945  0.8534 -2.1879 -0.8819
 3804SOL    HW222872   0.839   3.931   3.846 -1.1652 -1.3080 -3.5160
 3805SOL     OW22873   0.630   3.138   5.875  0.1404  0.5249 -0.0049
 3805SOL    HW122874   0.707   3.143   5.932  2.9113  1.9176 -3.9056
 3805SOL    HW222875   0.666   3.077   5.810 -1.5637  0.0336 -0.4727
 3806SOL     OW22876   1.208   0.316   4.122  0.0952  0.0712 -0.2753
 3806SOL    HW122877   1.192   0.335   4.030 -2.9336  0.7448  0.4150
 3806SOL    HW222878   1.179   0.397   4.164 -0.5793  0.4473 -1.4755
 3807SOL     OW22879   1.518   2.746   7.286 -0.0483 -0.2436  0.2423
 3807SOL    HW122880   1.509   2.805   7.211 -0.8433 -0.3484  0.2600
 3807SOL    HW222881   1.552   2.666   7.245  1.8044 -0.5740  2.4091
 3808SOL     OW22882   4.156   4.664   3.431 -0.0424 -0.1110 -0.2540
 3808SOL    HW122883   4.171   4.647   3.338  1.2007 -4.2261  0.6861
 3808SOL    HW222884   4.082   4.604   3.447 -0.4993  0.6519  0.4816
 3809SOL     OW22885   0.915   4.521  16.414  0.0088 -0.4837 -0.1403
 3809SOL    HW122886   0.903   4.616  16.414  0.0795 -0.4734 -1.4852
 3809SOL    HW222887   1.009   4.511  16.401 -0.2497 -2.1981 -0.6962
 3810SOL     OW22888   3.176   2.338   2.326 -0.0406  0.4309 -0.4298
 3810SOL    HW122889   3.164   2.432   2.342 -1.6328  0.1939 -0.1997
 3810SOL    HW222890   3.131   2.324   2.243  2.0678  0.2692 -1.5472
 3811SOL     OW22891   4.700   3.919  16.358 -0.1867 -0.1409  0.1890
 3811SOL    HW122892   0.035   3.910  16.283 -2.0283 -2.2396 -1.0152
 3811SOL    HW222893   0.044   3.943  16.421  0.6036 -0.2430 -0.6378
 3812SOL     OW22894   2.896   3.541  11.968 -0.0056  0.0450  0.5917
 3812SOL    HW122895   2.956   3.598  11.921 -0.9891  0.1270 -0.5676
 3812SOL    HW222896   2.952   3.464  11.971 -2.7880 -2.0828 -2.8676
 3813SOL     OW22897   4.148   4.270   6.669  0.5356  0.1099  0.2821
 3813SOL    HW122898   4.110   4.266   6.757 -1.2496  2.9248 -0.3574
 3813SOL    HW222899   4.221   4.328   6.689 -0.4517  1.1979  0.7061
 3814SOL     OW22900   0.237   2.194   3.270 -0.2839 -0.3263  0.5121
 3814SOL    HW122901   0.163   2.133   3.264 -0.7241  0.0863  1.6863
 3814SOL    HW222902   0.302   2.140   3.225  0.3705  0.1921  0.8420
 3815SOL     OW22903   2.680   3.202  14.132 -0.0655  0.4780 -0.7099
 3815SOL    HW122904   2.614   3.166  14.073  0.8072 -1.3026 -0.5882
 3815SOL    HW222905   2.724   3.259  14.069 -0.4964  0.3561 -1.1196
 3816SOL     OW22906   3.803   2.635   6.196  0.0912  0.2668  0.4323
 3816SOL    HW122907   3.893   2.653   6.168 -1.3072  2.8656 -2.4356
 3816SOL    HW222908   3.821   2.570   6.264 -1.5828 -0.1341  0.5021
 3817SOL     OW22909   0.993   4.146  17.176 -0.0774  0.5965  0.6126
 3817SOL    HW122910   0.924   4.133  17.241  0.0720 -0.3780  0.5847
 3817SOL    HW222911   0.952   4.211  17.119  0.7526  0.9366  0.4069
 3818SOL     OW22912   0.024   0.683  13.054  0.0647  0.4442 -0.0007
 3818SOL    HW122913   0.099   0.740  13.072  0.7526 -0.8223  1.1577
 3818SOL    HW222914   0.040   0.641  12.970 -3.0229  0.2492 -0.5064
 3819SOL     OW22915   2.244   0.943   1.947 -0.0551  0.0439 -0.5862
 3819SOL    HW122916   2.262   1.037   1.942  0.8739 -0.1712 -1.3030
 3819SOL    HW222917   2.231   0.944   2.042 -1.0749 -1.1974 -0.7293
 3820SOL     OW22918   2.509   1.297   8.269  0.0954 -0.0669  0.4319
 3820SOL    HW122919   2.492   1.392   8.267 -3.4776 -0.6856  0.9956
 3820SOL    HW222920   2.561   1.284   8.348  0.1874  2.9380  0.8621
 3821SOL     OW22921   2.830   4.071  15.772 -0.2458  0.2891 -0.7849
 3821SOL    HW122922   2.768   4.010  15.733  0.9915 -0.5742 -1.3967
 3821SOL    HW222923   2.836   4.134  15.701 -2.6301  0.3488 -0.9462
 3822SOL     OW22924   3.780   0.004   0.057 -0.3089  0.5338 -0.1028
 3822SOL    HW122925   3.738   0.018  17.670  2.1245  3.0182 -0.8935
 3822SOL    HW222926   3.703   4.724   0.113  0.2970 -1.5415  0.5548
 3823SOL     OW22927   1.179   3.059   8.708  0.1286 -0.2900 -0.1935
 3823SOL    HW122928   1.124   3.085   8.782  0.2439 -1.5847  0.3434
 3823SOL    HW222929   1.264   3.040   8.747 -1.8884 -3.2724  2.7355
 3824SOL     OW22930   0.783   2.896   4.460  1.0836  0.5151  0.2848
 3824SOL    HW122931   0.755   2.816   4.414 -1.0056  0.8592  0.9408
 3824SOL    HW222932   0.767   2.969   4.400 -1.2344  0.7914  1.2373
 3825SOL     OW22933   0.820   0.162   2.617  0.1497 -0.2862 -0.0157
 3825SOL    HW122934   0.768   0.095   2.662  0.4981 -0.7877 -0.3609
 3825SOL    HW222935   0.749   0.220   2.591  1.3070  1.9100  1.7909
 3826SOL     OW22936   4.204   3.750   2.452  0.2377  0.1000  0.4189
 3826SOL    HW122937   4.287   3.702   2.462  0.5921  0.2289 -1.9928
 3826SOL    HW222938   4.190   3.736   2.359 -1.0214 -0.6131  0.7168
 3827SOL     OW22939   0.684   3.254   5.086 -0.2878  0.0240  0.5487
 3827SOL    HW122940   0.660   3.339   5.125 -1.3352 -0.4549  0.9366
 3827SOL    HW222941   0.754   3.288   5.030 -0.0637  0.5207  1.1241
 3828SOL     OW22942   2.192   2.374   8.709  0.2213  0.2375 -0.7546
 3828SOL    HW122943   2.264   2.389   8.648  0.7354  0.2695 -0.1389
 3828SOL    HW222944   2.122   2.433   8.680  1.4957  0.8283 -2.5927
 3829SOL     OW22945   4.209   2.581   2.856  0.1120  0.2516 -0.0160
 3829SOL    HW122946   4.250   2.512   2.804  0.0344 -0.6539  1.1329
 3829SOL    HW222947   4.276   2.597   2.922 -0.4088 -0.9856  0.8158
 3830SOL     OW22948   0.777   2.514   4.559 -0.2151 -0.7104  0.1802
 3830SOL    HW122949   0.847   2.574   4.584 -1.6345  1.0318 -0.0442
 3830SOL    HW222950   0.706   2.576   4.544 -0.9016 -1.1879  1.3610
 3831SOL     OW22951   4.521   1.568   8.001 -0.3544 -0.4151  0.5322
 3831SOL    HW122952   4.544   1.586   8.092  0.5594 -0.0663  0.2279
 3831SOL    HW222953   4.427   1.584   8.009 -0.3366  0.1404 -0.4184
 3832SOL     OW22954   4.588   0.751   3.974 -0.2477  0.6060 -0.3129
 3832SOL    HW122955   4.521   0.816   3.999 -0.0634  0.3972  0.7143
 3832SOL    HW222956   4.663   0.807   3.993 -0.0604  0.2950 -0.1414
 3833SOL     OW22957   3.985   0.024   1.645  0.6772  0.4652 -0.1843
 3833SOL    HW122958   4.063   0.052   1.598  2.5830 -1.9973  1.5254
 3833SOL    HW222959   3.916   0.041   1.581  0.6211  2.6272  0.4499
 3834SOL     OW22960   4.010   1.100   4.171 -0.0114 -0.9122  0.1614
 3834SOL    HW122961   3.918   1.116   4.192 -0.4409 -1.0786 -1.5906
 3834SOL    HW222962   4.050   1.150   4.242  0.3221 -0.1848 -0.5284
 3835SOL     OW22963   4.471   3.088   6.426  0.0670 -0.3510  0.3323
 3835SOL    HW122964   4.468   3.119   6.516 -2.0961 -1.4745  0.6399
 3835SOL    HW222965   4.563   3.106   6.410  0.3219 -0.0862  2.1308
 3836SOL     OW22966   0.402   1.963   7.449  0.2210 -0.5938  0.2372
 3836SOL    HW122967   0.488   1.961   7.492  0.1606  0.8270  0.4229
 3836SOL    HW222968   0.382   1.870   7.440 -0.5345 -0.4658  0.5736
 3837SOL     OW22969   1.681   3.482   1.705  0.2499 -0.9171  0.2011
 3837SOL    HW122970   1.617   3.529   1.651 -1.3753 -0.3690  2.6052
 3837SOL    HW222971   1.695   3.397   1.663  3.6016 -1.6334  2.7853
 3838SOL     OW22972   2.817   0.909   1.138 -0.9724 -0.1344  0.3369
 3838SOL    HW122973   2.734   0.877   1.102 -1.9182  0.3743  2.0054
 3838SOL    HW222974   2.796   1.003   1.141 -1.3785 -0.2574  1.3994
 3839SOL     OW22975   3.635   2.703   4.033  0.1707 -0.1433  0.1623
 3839SOL    HW122976   3.646   2.722   3.940  1.6338 -0.3544  0.2845
 3839SOL    HW222977   3.612   2.791   4.061 -1.3819 -0.6999  0.6289
 3840SOL     OW22978   2.843   3.902   2.201 -0.1356 -0.3689 -0.4995
 3840SOL    HW122979   2.916   3.875   2.257  0.3641 -0.5654 -1.2540
 3840SOL    HW222980   2.767   3.876   2.253  0.1214 -3.5484 -1.7477
 3841SOL     OW22981   3.780   3.967   4.431  0.5600  0.8244 -0.0248
 3841SOL    HW122982   3.735   4.052   4.431 -0.5728  0.2263 -2.4023
 3841SOL    HW222983   3.720   3.922   4.490 -0.2910 -0.7983 -2.1189
 3842SOL     OW22984   3.311   4.501   6.724  0.4563  0.4917  0.0879
 3842SOL    HW122985   3.224   4.462   6.716  0.2596  1.2408 -1.3504
 3842SOL    HW222986   3.319   4.533   6.814  2.2132  1.0790 -0.2920
 3843SOL     OW22987   0.210   4.402   4.685  0.0558 -0.2197 -0.2205
 3843SOL    HW122988   0.133   4.351   4.659  1.4150 -1.3318 -2.0402
 3843SOL    HW222989   0.197   4.418   4.778  1.1082  1.9423 -0.4319
 3844SOL     OW22990   2.821   1.935   5.577  0.0472  0.2605 -0.4990
 3844SOL    HW122991   2.867   2.018   5.580 -1.4788  1.1032 -0.1357
 3844SOL    HW222992   2.876   1.872   5.623  1.7816  1.4454 -0.9925
 3845SOL     OW22993   3.158   4.455  12.409  0.1348 -0.4395 -0.3481
 3845SOL    HW122994   3.221   4.511  12.363 -0.7526 -0.1244 -1.1927
 3845SOL    HW222995   3.170   4.501  12.492  1.5593  1.4589 -1.5996
 3846SOL     OW22996   2.043   4.015  10.345 -0.2281  0.3182 -0.7589
 3846SOL    HW122997   2.059   4.108  10.329 -0.8510  0.3572 -1.1447
 3846SOL    HW222998   2.126   3.977  10.316 -0.0384 -0.1300  0.3695
 3847SOL     OW22999   0.547   3.830   7.504 -0.0999  0.6601 -0.4755
 3847SOL    HW123000   0.614   3.766   7.482 -0.8871 -0.1474 -0.5037
 3847SOL    HW223001   0.528   3.869   7.418  1.6567  0.0176 -1.1529
 3848SOL     OW23002   1.654   4.129  17.287 -0.6522  0.7102 -0.4307
 3848SOL    HW123003   1.669   4.206  17.342  1.0201  0.3607 -0.4104
 3848SOL    HW223004   1.600   4.074  17.344 -0.2001  1.6652  0.9184
 3849SOL     OW23005   1.219   3.446   2.707  0.2424 -0.3855  0.4414
 3849SOL    HW123006   1.301   3.491   2.687 -1.9418  3.1765 -0.4959
 3849SOL    HW223007   1.153   3.515   2.711  1.8418  1.0221  2.2681
 3850SOL     OW23008   1.147   4.665   3.179 -0.5380  0.3029  1.1801
 3850SOL    HW123009   1.063   4.633   3.147  0.7282 -2.6119  0.7932
 3850SOL    HW223010   1.156   0.035   3.163  0.2173 -0.2650 -1.6143
 3851SOL     OW23011   2.216   4.317   2.468 -0.1918 -0.6242 -0.2655
 3851SOL    HW123012   2.285   4.381   2.450 -1.2665  0.5641 -0.0839
 3851SOL    HW223013   2.178   4.292   2.384  0.1631 -1.9622 -0.0346
 3852SOL     OW23014   1.701   3.553  11.404 -0.2773  0.0420 -0.4262
 3852SOL    HW123015   1.628   3.544  11.466 -2.1766  0.3582 -2.6000
 3852SOL    HW223016   1.660   3.540  11.318 -0.4232 -2.8607  0.0899
 3853SOL     OW23017   3.222   2.909  13.725  0.3817  0.0531 -0.3631
 3853SOL    HW123018   3.201   2.911  13.818 -1.7774 -1.6231 -0.8232
 3853SOL    HW223019   3.183   2.823  13.709  2.0960 -0.9446  0.9011
 3854SOL     OW23020   3.905   0.674   2.204  0.0808  1.0526 -0.7290
 3854SOL    HW123021   3.869   0.752   2.162 -0.7363  0.7793 -0.5353
 3854SOL    HW223022   3.826   0.621   2.211 -0.0187  1.2503 -0.3609
 3855SOL     OW23023   4.072   4.668   1.299  0.2148  0.5536 -1.2362
 3855SOL    HW123024   4.003   4.613   1.336  1.6912 -0.1410  0.4835
 3855SOL    HW223025   4.089   4.632   1.212  0.9023  1.1514 -1.3479
 3856SOL     OW23026   4.243   1.808   5.566  0.4121 -0.0439 -0.0516
 3856SOL    HW123027   4.269   1.885   5.514 -0.5395  0.7800  0.7178
 3856SOL    HW223028   4.149   1.800   5.549  0.0164  2.2233  1.1017
 3857SOL     OW23029   1.512   2.368   4.788 -0.1996 -0.0537 -0.4970
 3857SOL    HW123030   1.432   2.420   4.776 -0.5002 -0.0098  1.6558
 3857SOL    HW223031   1.530   2.372   4.882 -0.0355  1.3999 -0.5873
 3858SOL     OW23032   1.886   4.447   7.447 -0.2499 -0.4801  0.1239
 3858SOL    HW123033   1.923   4.448   7.536 -0.6060  0.6042  0.2644
 3858SOL    HW223034   1.823   4.518   7.457  0.3527  0.4036 -2.3733
 3859SOL     OW23035   0.419   4.306   5.465  0.1145  0.3545  0.1957
 3859SOL    HW123036   0.443   4.240   5.400 -2.0775 -0.5563  0.3345
 3859SOL    HW223037   0.405   4.382   5.408 -1.3797 -0.3974 -0.4579
 3860SOL     OW23038   0.615   0.049   3.938 -0.6727  0.2798 -0.0691
 3860SOL    HW123039   0.539   4.723   3.906 -0.6038  0.2834 -0.2421
 3860SOL    HW223040   0.587   0.138   3.959  2.0494  1.2409 -0.5390
 3861SOL     OW23041   3.601   3.059   3.347 -0.0834 -0.0319  0.2102
 3861SOL    HW123042   3.538   3.128   3.324  0.5589  0.1904 -0.8968
 3861SOL    HW223043   3.632   3.044   3.257  0.4673 -0.1194  0.4176
 3862SOL     OW23044   1.275   2.701  12.710 -0.6295  0.4734  0.0899
 3862SOL    HW123045   1.222   2.678  12.634  0.7091 -1.3489 -0.2991
 3862SOL    HW223046   1.325   2.620  12.719 -0.5763  0.2264 -2.3728
 3863SOL     OW23047   0.455   3.565   8.569 -0.4331 -0.5978  0.0604
 3863SOL    HW123048   0.444   3.534   8.479  0.8530 -2.6655  0.6067
 3863SOL    HW223049   0.436   3.657   8.554 -0.0479 -0.4650  0.3857
 3864SOL     OW23050   2.463   0.584  17.166  1.0981 -0.0469 -0.1470
 3864SOL    HW123051   2.478   0.670  17.128  2.0435  0.8210  2.2005
 3864SOL    HW223052   2.406   0.533  17.107 -1.1369  0.4602  1.5522
 3865SOL     OW23053   2.208   3.719  15.210 -0.5063 -0.0853  0.0675
 3865SOL    HW123054   2.292   3.761  15.228  0.5179 -0.9059 -2.7699
 3865SOL    HW223055   2.221   3.724  15.115 -0.5197 -0.9678  0.0143
 3866SOL     OW23056   3.327   1.143  13.035  0.1795  0.3780 -0.2812
 3866SOL    HW123057   3.238   1.119  13.060  1.0590 -0.7291  1.7823
 3866SOL    HW223058   3.358   1.062  12.994  0.0251  0.4987 -0.6402
 3867SOL     OW23059   2.548   1.704  10.788  0.3000  0.1511  0.5374
 3867SOL    HW123060   2.552   1.666  10.876  4.9858 -3.0912 -1.0452
 3867SOL    HW223061   2.457   1.733  10.791 -0.0866 -0.6972 -2.2762
 3868SOL     OW23062   2.335   3.939   5.602 -0.2783  0.4654 -0.3118
 3868SOL    HW123063   2.429   3.957   5.606 -0.7747  2.3596  2.5741
 3868SOL    HW223064   2.310   4.009   5.541 -1.6424 -1.6132 -2.1048
 3869SOL     OW23065   3.626   0.593   2.252 -0.0217 -0.4155  0.1217
 3869SOL    HW123066   3.533   0.599   2.277 -0.3044  2.7969 -1.6464
 3869SOL    HW223067   3.667   0.584   2.338  1.8698  2.0425 -0.5333
 3870SOL     OW23068   1.998   1.727   7.192 -0.0400  0.5527  0.2805
 3870SOL    HW123069   1.990   1.706   7.285  2.0961 -0.1037  0.3203
 3870SOL    HW223070   1.920   1.781   7.178  0.0948 -0.0773 -2.8716
 3871SOL     OW23071   2.903   3.686  12.238 -0.0763 -0.1678  0.2758
 3871SOL    HW123072   2.856   3.607  12.262 -0.6827 -0.1173 -0.7432
 3871SOL    HW223073   2.847   3.716  12.167  0.3271 -0.8384 -0.3321
 3872SOL     OW23074   0.856   0.745   0.856  0.6983 -0.0733  0.3903
 3872SOL    HW123075   0.822   0.657   0.872  3.2500 -1.0675  0.3511
 3872SOL    HW223076   0.820   0.790   0.932 -0.6801 -1.5387  0.5867
 3873SOL     OW23077   1.339   0.352  17.524 -0.1707  0.7493 -0.0011
 3873SOL    HW123078   1.361   0.283  17.462 -1.0330 -0.2950  0.8642
 3873SOL    HW223079   1.381   0.432  17.490 -0.1077  0.2109 -1.2003
 3874SOL     OW23080   0.276   1.995   6.117  0.2520  0.2777  0.0640
 3874SOL    HW123081   0.258   2.087   6.099 -1.0207  0.1503  0.7358
 3874SOL    HW223082   0.312   2.006   6.205  0.8923 -1.7450  0.0573
 3875SOL     OW23083   4.010   4.032   7.710  0.4927  0.5305 -0.4862
 3875SOL    HW123084   3.946   4.088   7.754 -0.5082 -1.3394  0.4545
 3875SOL    HW223085   3.965   4.022   7.626  0.4802  1.8431 -0.6275
 3876SOL     OW23086   3.780   0.567   5.641  0.1084 -0.2688 -0.2091
 3876SOL    HW123087   3.851   0.503   5.645  0.4137  0.1150  0.4773
 3876SOL    HW223088   3.810   0.611   5.561  0.4435  1.7408  1.0247
 3877SOL     OW23089   2.931   1.567   5.558  0.5034  0.2222  0.1736
 3877SOL    HW123090   2.865   1.570   5.489 -0.4183  0.0472  1.0449
 3877SOL    HW223091   3.008   1.591   5.507  1.8786 -2.4888  1.0107
 3878SOL     OW23092   3.871   3.302   9.378 -0.0318 -0.1740  0.0679
 3878SOL    HW123093   3.875   3.305   9.474 -1.5232  0.4247  0.1194
 3878SOL    HW223094   3.939   3.365   9.356 -1.4844 -0.0341 -4.0299
 3879SOL     OW23095   2.602   1.890   7.826  0.2831 -0.0447 -0.2584
 3879SOL    HW123096   2.631   1.869   7.738 -0.9122 -1.9213 -0.1849
 3879SOL    HW223097   2.681   1.888   7.880 -0.4819  1.7118  0.9805
 3880SOL     OW23098   1.276   3.052  13.384 -0.5195  1.0732 -0.0417
 3880SOL    HW123099   1.355   3.043  13.330 -2.6278 -1.3570 -2.7147
 3880SOL    HW223100   1.206   3.060  13.319 -0.9099 -1.4595  0.0663
 3881SOL     OW23101   1.596   0.603  11.950  0.3684 -0.1703  0.0674
 3881SOL    HW123102   1.559   0.685  11.919  0.9852 -0.1650 -0.6595
 3881SOL    HW223103   1.679   0.641  11.978  0.5682 -0.0412 -0.6992
 3882SOL     OW23104   2.613   2.420   1.882  0.1257 -0.2600  0.4414
 3882SOL    HW123105   2.642   2.455   1.797  0.0913 -0.5186  0.3255
 3882SOL    HW223106   2.537   2.474   1.901 -0.3535 -1.1607  1.0293
 3883SOL     OW23107   1.689   2.970   8.431 -0.3034  0.2580  0.3331
 3883SOL    HW123108   1.710   3.047   8.378  0.6812 -0.4782 -0.3381
 3883SOL    HW223109   1.726   2.993   8.516 -1.8521  0.1544  1.0354
 3884SOL     OW23110   3.025   4.143  12.915  0.5239 -0.1626 -0.0333
 3884SOL    HW123111   2.942   4.185  12.940  0.9004  0.9390 -0.6320
 3884SOL    HW223112   3.026   4.164  12.821 -1.5518 -0.0303 -0.0243
 3885SOL     OW23113   0.516   0.284   4.021  0.0925 -0.8518 -0.0696
 3885SOL    HW123114   0.444   0.342   4.047  0.8604 -1.5775  3.7113
 3885SOL    HW223115   0.514   0.304   3.928  0.0376  1.1313  0.3611
 3886SOL     OW23116   1.508   4.185   7.521 -0.5169  0.3862 -0.0202
 3886SOL    HW123117   1.429   4.213   7.567 -2.0112 -0.1189 -2.2560
 3886SOL    HW223118   1.508   4.092   7.544  2.1047  0.1342 -1.0549
 3887SOL     OW23119   3.722   1.103  16.048  0.0116 -0.1037 -0.3458
 3887SOL    HW123120   3.793   1.067  16.103  0.7949  0.0677 -1.2503
 3887SOL    HW223121   3.768   1.161  15.987  2.3078  0.9665  2.3781
 3888SOL     OW23122   3.030   0.051   3.687  0.1000 -0.3557 -0.3328
 3888SOL    HW123123   3.048   0.126   3.631 -1.4545 -0.6208 -1.1854
 3888SOL    HW223124   3.117   0.056   3.727  0.6281 -2.1462 -1.2475
 3889SOL     OW23125   0.154   3.966  15.866  0.4458  0.9393 -0.1051
 3889SOL    HW123126   0.226   4.007  15.818 -0.2640  1.8648 -0.3794
 3889SOL    HW223127   0.087   3.981  15.800  2.1416  3.8305 -1.1705
 3890SOL     OW23128   4.098   2.139   7.796 -0.1132 -0.0242  0.1980
 3890SOL    HW123129   4.192   2.124   7.808 -0.6748 -1.5878  2.6790
 3890SOL    HW223130   4.107   2.234   7.801  1.7262 -0.0668 -2.3059
 3891SOL     OW23131   4.496   3.366   4.156  0.6118 -0.2914 -0.3702
 3891SOL    HW123132   4.519   3.277   4.185  2.8891  0.6090  0.6411
 3891SOL    HW223133   4.567   3.416   4.196 -1.3180  0.3220  2.3206
 3892SOL     OW23134   0.293   4.457  11.788 -0.2358  0.0089  0.4689
 3892SOL    HW123135   0.281   4.370  11.825  0.9562 -1.2884 -2.2162
 3892SOL    HW223136   0.350   4.493  11.856  1.2535 -2.2761  0.4396
 3893SOL     OW23137   0.407   1.831   8.301 -0.3036 -0.2832 -0.0587
 3893SOL    HW123138   0.397   1.834   8.397 -0.6934 -0.1973 -0.1016
 3893SOL    HW223139   0.412   1.925   8.283 -1.0723 -0.1190  0.5600
 3894SOL     OW23140   3.081   3.253   9.798  0.2270  0.1348  0.0459
 3894SOL    HW123141   3.054   3.179   9.852  2.9944  1.6256  3.4593
 3894SOL    HW223142   3.019   3.246   9.725 -0.3137  1.1639  0.4049
 3895SOL     OW23143   2.528   4.515   5.027 -0.8058  0.0082 -0.5913
 3895SOL    HW123144   2.479   4.597   5.018  0.8640  1.2218  1.5091
 3895SOL    HW223145   2.618   4.543   5.017 -0.4098 -1.0420  0.0014
 3896SOL     OW23146   3.243   3.719   3.465  0.5909  0.4064  0.2289
 3896SOL    HW123147   3.245   3.625   3.447  0.8576  1.1151 -3.4141
 3896SOL    HW223148   3.209   3.717   3.555  0.5527 -2.0534  0.1621
 3897SOL     OW23149   3.016   3.849   0.977  0.4595 -0.3955  0.4407
 3897SOL    HW123150   3.066   3.827   0.898 -2.1085 -2.3863 -0.6574
 3897SOL    HW223151   3.087   3.890   1.025  0.7218  0.3734 -0.5939
 3898SOL     OW23152   0.165   2.533   1.698  0.2687 -0.1877  0.7004
 3898SOL    HW123153   0.186   2.612   1.748  2.2078 -0.1503 -0.1702
 3898SOL    HW223154   0.150   2.575   1.614  0.3642  1.4730  1.5168
 3899SOL     OW23155   3.920   3.570  11.911  0.1767 -0.1450  0.1576
 3899SOL    HW123156   3.888   3.483  11.888 -0.3316 -0.2780  1.3443
 3899SOL    HW223157   3.882   3.622  11.839  0.2679 -0.4377 -0.1011
 3900SOL     OW23158   1.569   1.651   0.416  0.0251  0.0954  0.1366
 3900SOL    HW123159   1.482   1.681   0.444  0.6261  2.2176 -0.2931
 3900SOL    HW223160   1.619   1.694   0.485 -1.4316  0.4978  0.9315
 3901SOL     OW23161   3.140   2.736  11.982 -0.4827  0.3769  0.3892
 3901SOL    HW123162   3.207   2.804  11.986 -0.9055  0.9051 -1.6864
 3901SOL    HW223163   3.070   2.794  11.954 -0.3791  0.9870  1.3902
 3902SOL     OW23164   1.540   0.664   1.911 -0.3903  0.2032 -0.2667
 3902SOL    HW123165   1.578   0.752   1.913  1.8019 -0.8071  2.7403
 3902SOL    HW223166   1.615   0.624   1.867  0.5098 -1.5756  2.8839
 3903SOL     OW23167   0.776   3.073   4.810  0.7520  0.5061 -0.5294
 3903SOL    HW123168   0.855   3.018   4.804 -0.2464 -1.1382  1.4392
 3903SOL    HW223169   0.715   3.032   4.748 -1.8994  2.8688  0.5316
 3904SOL     OW23170   1.385   1.334   8.055  0.0054  0.4440  0.5005
 3904SOL    HW123171   1.377   1.385   8.135  2.4063 -2.0597  2.3683
 3904SOL    HW223172   1.474   1.353   8.025 -1.0556  2.2407 -1.4813
 3905SOL     OW23173   3.122   3.784   5.965  0.1866 -0.3113 -0.4239
 3905SOL    HW123174   3.108   3.830   6.048 -0.9921 -1.3438 -0.0495
 3905SOL    HW223175   3.203   3.737   5.983  0.8410  0.7161 -0.6725
 3906SOL     OW23176   4.230   2.989   4.127  0.1153 -0.0212  0.2192
 3906SOL    HW123177   4.196   3.067   4.171  3.8495  1.3838  0.5420
 3906SOL    HW223178   4.172   2.921   4.162 -2.1519  0.8542 -1.7889
 3907SOL     OW23179   4.569   2.075   8.968  0.1611  0.3402  0.1962
 3907SOL    HW123180   4.557   2.082   9.062 -0.4642  2.2634 -0.0278
 3907SOL    HW223181   4.621   2.153   8.948 -2.1301  1.9754  0.6837
 3908SOL     OW23182   0.709   3.914  10.286 -0.1104  0.1102  0.4225
 3908SOL    HW123183   0.798   3.883  10.299 -0.1857 -0.4167 -0.3246
 3908SOL    HW223184   0.672   3.835  10.245  0.9427 -0.1530 -0.0224
 3909SOL     OW23185   3.365   4.449   7.920  0.3075 -0.4687 -0.1203
 3909SOL    HW123186   3.296   4.482   7.977 -0.0686 -0.1404 -0.7614
 3909SOL    HW223187   3.439   4.490   7.964 -0.1186  1.2728 -1.0009
 3910SOL     OW23188   4.468   3.243   1.651  0.5670  0.2702 -0.1995
 3910SOL    HW123189   4.461   3.173   1.717  1.6190 -1.9954 -2.4988
 3910SOL    HW223190   4.474   3.195   1.569 -2.1393 -2.5231  1.2092
 3911SOL     OW23191   4.421   3.861   0.380 -0.5043 -0.8436 -0.0427
 3911SOL    HW123192   4.461   3.938   0.422 -3.5470 -0.5395  2.2764
 3911SOL    HW223193   4.467   3.789   0.423  1.5774  0.1736 -0.5651
 3912SOL     OW23194   1.724   1.160  11.727  0.9483  0.2034 -0.0564
 3912SOL    HW123195   1.719   1.068  11.751  1.3444  0.7703  2.1658
 3912SOL    HW223196   1.666   1.172  11.651  0.4780  0.1167  0.2910
 3913SOL     OW23197   2.428   0.013   3.282  0.3148 -0.0770  0.2306
 3913SOL    HW123198   2.497   0.079   3.291  0.1218 -0.1631  2.3838
 3913SOL    HW223199   2.350   0.057   3.250 -0.2319 -1.7863 -0.7606
 3914SOL     OW23200   0.399   0.293   6.562 -0.0080 -1.0353  0.1567
 3914SOL    HW123201   0.413   0.205   6.596  0.5861 -0.5473  1.1622
 3914SOL    HW223202   0.452   0.285   6.482 -1.0155 -1.4081 -0.4773
 3915SOL     OW23203   0.529   1.576   7.969 -0.1239 -0.6424  0.3479
 3915SOL    HW123204   0.444   1.551   8.006  0.7424 -0.1701  2.6216
 3915SOL    HW223205   0.583   1.524   8.028  0.8837  1.5168  1.3148
 3916SOL     OW23206   0.381   2.709   2.062 -0.6443 -0.0366  0.2025
 3916SOL    HW123207   0.474   2.731   2.065 -1.3967  3.2238 -0.9549
 3916SOL    HW223208   0.380   2.613   2.056 -0.0949 -0.0644  0.5098
 3917SOL     OW23209   2.630   4.026   3.460  0.4339 -0.1814 -0.2103
 3917SOL    HW123210   2.653   3.959   3.524  0.1236  1.7004  1.8487
 3917SOL    HW223211   2.534   4.022   3.456  0.4910 -2.1837  0.4210
 3918SOL     OW23212   2.767   1.080   9.701 -0.0814  0.1426 -0.1272
 3918SOL    HW123213   2.850   1.042   9.731 -0.9668  1.0387  3.4381
 3918SOL    HW223214   2.751   1.028   9.623 -0.3949  0.5195 -0.3118
 3919SOL     OW23215   0.798   1.653   9.796  0.1412  0.6580  0.4300
 3919SOL    HW123216   0.871   1.605   9.757  0.6547  1.2873  0.6179
 3919SOL    HW223217   0.853   1.708   9.851  0.2245 -1.0460  2.0718
 3920SOL     OW23218   2.731   0.377  13.657 -0.8133 -0.3590 -0.0821
 3920SOL    HW123219   2.826   0.370  13.649 -0.2771  0.9931  5.0166
 3920SOL    HW223220   2.710   0.395  13.565  0.3665 -1.0619 -0.4867
 3921SOL     OW23221   0.457   2.779   7.743  0.0227  0.1528 -0.4513
 3921SOL    HW123222   0.456   2.836   7.820  2.1640  1.8536 -1.6893
 3921SOL    HW223223   0.481   2.843   7.677  1.7136 -0.0696 -0.0772
 3922SOL     OW23224   3.016   1.038   4.799 -0.1238 -0.4208 -0.2421
 3922SOL    HW123225   2.953   1.012   4.866 -0.5413  1.2131  0.0083
 3922SOL    HW223226   3.093   1.034   4.856  1.0259 -0.3972 -1.7905
 3923SOL     OW23227   4.690   0.861  16.563  0.3640 -0.2822  0.3030
 3923SOL    HW123228   0.019   0.826  16.634 -1.2156 -3.0867  0.0880
 3923SOL    HW223229   4.702   0.956  16.565  0.6045 -0.3321  1.5481
 3924SOL     OW23230   3.213   0.701  16.366  0.1332 -0.0368 -0.5884
 3924SOL    HW123231   3.164   0.782  16.378  0.3224 -0.5848  3.6773
 3924SOL    HW223232   3.244   0.725  16.279  1.0085  1.1318  0.0458
 3925SOL     OW23233   2.942   1.801   3.539 -0.4306 -0.3413 -0.7395
 3925SOL    HW123234   2.887   1.869   3.579 -1.1602 -1.4915  0.2157
 3925SOL    HW223235   3.012   1.856   3.502  1.4155 -2.1237  0.1101
 3926SOL     OW23236   2.292   1.719   4.078  0.0978  0.4698  0.1654
 3926SOL    HW123237   2.354   1.667   4.130 -0.3434 -1.6365 -1.4304
 3926SOL    HW223238   2.241   1.756   4.151  0.7868 -0.5113  1.1428
 3927SOL     OW23239   1.866   0.118   1.724  0.5382 -0.5506  0.3675
 3927SOL    HW123240   1.876   0.075   1.639  0.1569 -1.6635  0.8713
 3927SOL    HW223241   1.956   0.118   1.756  0.1157 -2.2610  1.6021
 3928SOL     OW23242   0.946   0.655  15.507  0.5286 -0.0889  0.3858
 3928SOL    HW123243   0.948   0.697  15.422  0.7838  0.3237  0.5973
 3928SOL    HW223244   0.875   0.705  15.548  0.7774  0.8876 -0.3958
 3929SOL     OW23245   3.587   1.584   8.531 -0.6918 -0.2069  0.4736
 3929SOL    HW123246   3.639   1.610   8.455 -0.4492  1.1404  1.0936
 3929SOL    HW223247   3.655   1.601   8.596  0.5944 -0.7152 -0.7439
 3930SOL     OW23248   2.882   2.805   4.596 -0.2814  0.6186 -0.2111
 3930SOL    HW123249   2.943   2.861   4.643  0.3907 -1.5028  1.4379
 3930SOL    HW223250   2.906   2.811   4.504  1.9268 -1.6359  0.2381
 3931SOL     OW23251   1.514   4.330  14.193 -0.5152  0.3557 -0.6537
 3931SOL    HW123252   1.565   4.387  14.251  0.5656 -0.9798 -0.3136
 3931SOL    HW223253   1.426   4.338  14.230  0.1893  0.0753  1.0779
 3932SOL     OW23254   1.096   3.351   4.983 -0.5742  0.1263 -0.1715
 3932SOL    HW123255   1.062   3.381   5.067 -3.0248  0.3444 -1.2422
 3932SOL    HW223256   1.186   3.339   5.012 -0.8434 -1.5711 -0.0327
 3933SOL     OW23257   1.659   3.312   2.323  0.3715 -0.0906 -0.3225
 3933SOL    HW123258   1.753   3.307   2.302  0.2487 -0.4420 -0.8105
 3933SOL    HW223259   1.624   3.223   2.331 -0.3238  0.5022  3.1879
 3934SOL     OW23260   2.960   4.387   5.763  0.4742 -0.1728 -0.1823
 3934SOL    HW123261   2.868   4.396   5.739  0.3374 -0.3678  0.2600
 3934SOL    HW223262   2.946   4.346   5.849  1.3557  0.9920  0.5160
 3935SOL     OW23263   0.057   2.972   5.909  0.1926  0.1552  0.1208
 3935SOL    HW123264   0.128   2.950   5.968  1.0219  2.5774  0.0130
 3935SOL    HW223265   4.704   2.997   5.960 -0.5646 -1.8004 -0.0833
 3936SOL     OW23266   1.213   0.960   6.975  0.6681  0.1121  0.0153
 3936SOL    HW123267   1.219   0.884   6.917  2.8309 -0.8523  1.5002
 3936SOL    HW223268   1.152   0.932   7.043 -0.9855  1.0290 -1.0726
 3937SOL     OW23269   0.214   0.639   0.687  0.0118  0.0230  0.0255
 3937SOL    HW123270   0.290   0.658   0.742  1.0299 -0.2382 -1.2779
 3937SOL    HW223271   0.229   0.546   0.670 -1.0971 -0.6114  2.6132
 3938SOL     OW23272   4.207   1.258   3.075 -0.3921 -0.6954  0.1981
 3938SOL    HW123273   4.190   1.288   3.164 -1.5854  0.0468 -0.2878
 3938SOL    HW223274   4.262   1.329   3.042 -0.2158 -0.3190  1.3127
 3939SOL     OW23275   2.853   0.686   8.441  0.2603 -0.3413  0.8078
 3939SOL    HW123276   2.898   0.720   8.518  0.6364 -0.6154  0.7121
 3939SOL    HW223277   2.911   0.613   8.419 -0.9282 -0.2391 -2.6728
 3940SOL     OW23278   0.828   3.595   4.807 -0.3053  0.2731 -0.3450
 3940SOL    HW123279   0.889   3.635   4.869 -0.3945 -0.6902  0.3478
 3940SOL    HW223280   0.819   3.506   4.839  3.3470 -0.2186 -0.6787
 3941SOL     OW23281   4.332   1.439   9.288  0.0971  0.0653  0.1789
 3941SOL    HW123282   4.272   1.365   9.280  0.1128  0.2027 -1.3651
 3941SOL    HW223283   4.294   1.506   9.230 -0.5780  0.2009  0.7869
 3942SOL     OW23284   3.026   4.365   5.288 -0.0534  0.2422  0.5846
 3942SOL    HW123285   2.947   4.329   5.329  0.7988  1.6541  3.4448
 3942SOL    HW223286   3.015   4.327   5.201 -1.2012  0.0026  0.8296
 3943SOL     OW23287   1.413   4.527   1.599 -0.1964 -0.1134 -0.2761
 3943SOL    HW123288   1.403   4.432   1.587 -0.6163 -0.3679  2.0488
 3943SOL    HW223289   1.375   4.530   1.687  0.2117  0.6350 -0.1276
 3944SOL     OW23290   2.636   4.476   6.059  0.2780 -0.1766 -0.1811
 3944SOL    HW123291   2.704   4.410   6.075 -1.3681 -1.9856 -0.5825
 3944SOL    HW223292   2.588   4.463   6.141  1.4300 -0.3023  0.4801
 3945SOL     OW23293   0.299   3.982  11.347  0.0525 -0.3989  0.0941
 3945SOL    HW123294   0.350   4.034  11.285 -0.7750 -2.0225 -1.9426
 3945SOL    HW223295   0.293   3.908  11.288 -0.4634  0.1179 -0.4978
 3946SOL     OW23296   3.483   2.939   4.316 -0.2365  0.3453 -0.5651
 3946SOL    HW123297   3.556   2.978   4.268  0.8141 -1.0148 -0.1036
 3946SOL    HW223298   3.406   2.987   4.286 -1.7308 -1.0525  1.0427
 3947SOL     OW23299   0.440   1.487   7.527 -0.4566  0.3276 -0.0561
 3947SOL    HW123300   0.467   1.552   7.592 -1.9588 -0.4083  1.2986
 3947SOL    HW223301   0.508   1.513   7.465 -0.0585  0.3568  0.3940
 3948SOL     OW23302   0.860   4.603   3.710 -0.4924  0.4715  0.6348
 3948SOL    HW123303   0.798   4.552   3.658  0.8059  0.0227 -0.4684
 3948SOL    HW223304   0.946   4.573   3.680 -1.1353  0.3084 -1.0331
 3949SOL     OW23305   1.836   1.496   5.445  0.9592 -0.1900 -0.6081
 3949SOL    HW123306   1.791   1.546   5.513 -2.3538 -2.0346 -1.4518
 3949SOL    HW223307   1.828   1.553   5.368 -1.0703 -0.1071 -0.3338
 3950SOL     OW23308   3.435   1.415   2.808 -0.5017 -0.3924  0.0957
 3950SOL    HW123309   3.363   1.461   2.766 -1.4025 -2.9419 -1.1832
 3950SOL    HW223310   3.508   1.443   2.753  0.0532 -1.2102  0.4010
 3951SOL     OW23311   0.828   0.171   8.518 -0.2245 -0.1032 -0.1178
 3951SOL    HW123312   0.782   0.159   8.600 -0.0336  1.2259  0.1899
 3951SOL    HW223313   0.802   0.096   8.464  0.7149  0.0365 -0.7793
 3952SOL     OW23314   0.317   4.243   8.179 -0.2724  0.3615  0.2265
 3952SOL    HW123315   0.383   4.298   8.222  2.1532 -2.6871  0.4452
 3952SOL    HW223316   0.375   4.189   8.125 -0.2747  0.1733  0.4135
 3953SOL     OW23317   3.610   2.445   8.007 -0.1094  0.6212 -0.1897
 3953SOL    HW123318   3.690   2.421   8.055 -1.3141 -0.3295  1.3434
 3953SOL    HW223319   3.598   2.362   7.961 -1.3243  1.2219 -0.9516
 3954SOL     OW23320   3.777   0.882   7.170  0.3243 -0.3517  0.1015
 3954SOL    HW123321   3.808   0.929   7.247 -1.7926  2.6202 -0.8223
 3954SOL    HW223322   3.849   0.823   7.150  0.6732  0.4346 -0.9747
 3955SOL     OW23323   3.197   2.143  11.016  0.0680 -0.0146  0.5097
 3955SOL    HW123324   3.247   2.062  11.016  3.3088  1.9803  1.4240
 3955SOL    HW223325   3.112   2.106  11.038  0.4882 -2.5584 -2.1475
 3956SOL     OW23326   1.896   4.343   5.807  0.6388  0.0890 -0.1474
 3956SOL    HW123327   1.904   4.251   5.834 -0.8490  0.5576  1.8783
 3956SOL    HW223328   1.949   4.380   5.877 -0.1199  2.4673 -0.8239
 3957SOL     OW23329   3.348   4.216   5.834 -0.5426  0.6408 -0.1709
 3957SOL    HW123330   3.369   4.183   5.921  0.5463  0.6831 -0.4069
 3957SOL    HW223331   3.292   4.147   5.798 -1.1193  2.0801 -2.0500
 3958SOL     OW23332   4.207   4.122   9.292 -0.4368 -0.0762  0.4697
 3958SOL    HW123333   4.198   4.048   9.351 -1.1909  0.0307  0.4818
 3958SOL    HW223334   4.252   4.190   9.342  1.1929 -1.7338  1.2732
 3959SOL     OW23335   2.790   4.091   8.086  0.1515  0.3592  0.6743
 3959SOL    HW123336   2.884   4.075   8.097  0.3115  1.3063  0.7452
 3959SOL    HW223337   2.775   4.180   8.117  1.5865  0.4008  1.2583
 3960SOL     OW23338   2.944   1.573   8.054  0.2331  0.0789  0.5565
 3960SOL    HW123339   3.007   1.547   7.987  0.2182  0.6741  0.3145
 3960SOL    HW223340   2.999   1.582   8.131  0.8503 -0.7851  0.2179
 3961SOL     OW23341   4.530   1.615   8.256  0.7017  0.1249  0.8852
 3961SOL    HW123342   4.470   1.549   8.292 -3.0215  2.2487 -1.3440
 3961SOL    HW223343   4.491   1.699   8.282  1.0251 -0.2079  2.4226
 3962SOL     OW23344   0.276   1.088   8.326 -0.5221  0.0844 -0.2049
 3962SOL    HW123345   0.298   1.122   8.413 -2.5632 -1.1831  0.8233
 3962SOL    HW223346   0.243   1.166   8.283 -1.6774 -0.2248  0.1102
 3963SOL     OW23347   0.479   3.257   3.773 -0.0274 -0.4151  0.4906
 3963SOL    HW123348   0.552   3.269   3.834  0.0763  0.4360  0.1968
 3963SOL    HW223349   0.413   3.229   3.837  0.4699  0.3875  1.3641
 3964SOL     OW23350   0.893   0.838   7.636  0.3630 -0.3516  0.2869
 3964SOL    HW123351   0.911   0.922   7.593  0.6642  1.6239  4.3145
 3964SOL    HW223352   0.817   0.855   7.691 -0.6133 -1.4611 -0.7355
 3965SOL     OW23353   1.812   2.978  16.375 -0.1292  0.9520 -0.1680
 3965SOL    HW123354   1.848   3.044  16.316  1.4083  0.1078 -0.1834
 3965SOL    HW223355   1.872   2.973  16.450  0.7412  1.7570 -0.8147
 3966SOL     OW23356   2.546   1.260   7.966 -0.1910 -0.2605 -0.2932
 3966SOL    HW123357   2.634   1.297   7.962 -1.5335  3.2420  1.9776
 3966SOL    HW223358   2.522   1.285   8.055 -0.4026  3.4538 -1.3700
 3967SOL     OW23359   4.121   0.542   7.497 -0.3355 -0.1658  0.1272
 3967SOL    HW123360   4.092   0.505   7.413  3.5331  0.5494 -1.4912
 3967SOL    HW223361   4.043   0.586   7.531  0.2630  0.3541  0.8071
 3968SOL     OW23362   1.379   3.676   1.801  0.1649 -0.4314 -0.1274
 3968SOL    HW123363   1.384   3.580   1.807  1.9459 -0.2142  2.1365
 3968SOL    HW223364   1.330   3.694   1.881 -0.4397 -1.7445 -0.2105
 3969SOL     OW23365   2.308   3.614  10.700 -0.3299 -0.7063 -0.2843
 3969SOL    HW123366   2.265   3.695  10.672  1.2147  0.3023  0.2785
 3969SOL    HW223367   2.372   3.601  10.630  2.1042 -1.2643  2.0565
 3970SOL     OW23368   1.825   0.091   4.074 -0.0729  0.4779 -0.0517
 3970SOL    HW123369   1.798   0.092   4.166  0.8327 -0.1973  0.2261
 3970SOL    HW223370   1.830   0.185   4.057 -1.0261  0.3815 -0.8563
 3971SOL     OW23371   4.126   4.260   3.743 -0.0362 -0.1471 -0.6070
 3971SOL    HW123372   4.201   4.200   3.750  0.0400  0.2528  1.8557
 3971SOL    HW223373   4.100   4.236   3.654  0.6456 -2.1611 -0.2671
 3972SOL     OW23374   3.564   1.526   9.253  0.3445  0.0293  0.3084
 3972SOL    HW123375   3.637   1.522   9.191  0.5700 -1.9061  0.6935
 3972SOL    HW223376   3.498   1.487   9.196 -0.0012  0.1959  0.5906
 3973SOL     OW23377   3.331   2.869   7.026  0.5428 -0.5757 -0.2927
 3973SOL    HW123378   3.263   2.805   7.049  0.1933 -0.0780  0.0598
 3973SOL    HW223379   3.324   2.927   7.101 -0.2929 -1.1063  0.0473
 3974SOL     OW23380   2.864   0.081   5.673  0.5282 -0.7788 -0.1472
 3974SOL    HW123381   2.780   0.127   5.676  0.8714 -0.1595  0.0238
 3974SOL    HW223382   2.890   0.085   5.765 -0.8978 -0.7664  0.2460
 3975SOL     OW23383   0.941   0.361  10.092  0.0720 -0.4582 -0.1147
 3975SOL    HW123384   0.874   0.411  10.140  1.5987  2.3829 -0.9914
 3975SOL    HW223385   0.946   0.288  10.154 -0.7700 -0.2150  0.2440
 3976SOL     OW23386   3.927   2.044  17.093  0.4489  0.1353  0.1482
 3976SOL    HW123387   3.976   1.980  17.144  0.9417  1.3310  1.1707
 3976SOL    HW223388   3.922   2.006  17.005 -2.8597  0.2934  0.2734
 3977SOL     OW23389   3.111   1.722   6.190 -0.1017  0.2439 -0.1013
 3977SOL    HW123390   3.187   1.761   6.147 -2.0431  0.4503 -3.2919
 3977SOL    HW223391   3.132   1.628   6.193 -1.0302  0.0561  0.7461
 3978SOL     OW23392   2.212   0.925   7.338  0.2089  0.1902 -0.2184
 3978SOL    HW123393   2.304   0.902   7.325 -0.1120 -0.7032 -0.8712
 3978SOL    HW223394   2.214   0.984   7.414  2.4493  1.1366 -1.0357
 3979SOL     OW23395   1.113   3.178  12.965 -0.0393 -0.3177  0.0473
 3979SOL    HW123396   1.058   3.252  12.939  0.1748  0.5865  2.1546
 3979SOL    HW223397   1.077   3.123  12.896  1.4884 -1.3150  0.0550
 3980SOL     OW23398   2.944   2.555   7.766 -0.1083 -0.1942 -0.0522
 3980SOL    HW123399   3.006   2.564   7.695  0.5365 -3.7148  0.0481
 3980SOL    HW223400   2.869   2.585   7.715  2.0610  0.7662 -2.6692
 3981SOL     OW23401   4.321   2.556   7.938  0.9448  0.3119 -0.4976
 3981SOL    HW123402   4.321   2.616   7.863  1.1794  0.8768 -0.0483
 3981SOL    HW223403   4.411   2.551   7.971  0.3710  0.0823  1.0274
 3982SOL     OW23404   0.110   0.378   1.542  0.4016 -0.2778 -0.2872
 3982SOL    HW123405   0.040   0.313   1.530 -0.8288  0.9509  0.2978
 3982SOL    HW223406   0.151   0.381   1.456  0.5976  0.6661 -0.1515
 3983SOL     OW23407   0.339   1.177  15.615  0.3164 -0.4010 -0.5183
 3983SOL    HW123408   0.330   1.196  15.522 -0.1777 -1.1566 -0.6233
 3983SOL    HW223409   0.332   1.265  15.653 -1.8811 -1.4458  1.5508
 3984SOL     OW23410   4.212   1.975   8.134 -0.2266 -0.0687 -0.0103
 3984SOL    HW123411   4.150   1.902   8.134 -0.8610  0.4864  1.2232
 3984SOL    HW223412   4.231   1.984   8.228 -1.8363 -1.1548  0.4111
 3985SOL     OW23413   0.504   4.222   7.990  0.2119 -0.1524  0.6671
 3985SOL    HW123414   0.583   4.171   7.973  0.8899  0.9261  0.6094
 3985SOL    HW223415   0.535   4.310   8.009 -0.7184  0.0995  1.0485
 3986SOL     OW23416   0.444   3.333   6.447 -0.1709 -0.3664  0.1027
 3986SOL    HW123417   0.534   3.358   6.429 -0.4712 -0.3885 -1.4260
 3986SOL    HW223418   0.444   3.239   6.467 -0.2309 -0.4085 -0.0928
 3987SOL     OW23419   1.218   3.386   5.884 -0.0988 -0.0325  0.8572
 3987SOL    HW123420   1.133   3.406   5.923 -0.3304  2.8470 -1.1603
 3987SOL    HW223421   1.228   3.475   5.850  1.3637  0.3628  2.2784
 3988SOL     OW23422   2.236   2.812   3.932 -0.1597 -0.3255  0.4537
 3988SOL    HW123423   2.220   2.898   3.894  0.7340 -0.8147 -1.0318
 3988SOL    HW223424   2.331   2.813   3.945 -0.1827 -0.8155  0.6984
 3989SOL     OW23425   1.522   3.877   7.510 -0.5683 -0.1693  0.8863
 3989SOL    HW123426   1.601   3.835   7.545 -0.3572 -0.4980  0.0168
 3989SOL    HW223427   1.532   3.862   7.416 -2.6876 -0.7294  0.7634
 3990SOL     OW23428   2.263   2.333   4.004 -0.1009 -0.4057 -0.2686
 3990SOL    HW123429   2.247   2.354   4.096  0.6510 -1.7079  0.1481
 3990SOL    HW223430   2.218   2.407   3.963 -2.2846 -1.4993  0.1641
 3991SOL     OW23431   2.396   3.346   6.491  0.0743  0.4031  0.0592
 3991SOL    HW123432   2.443   3.267   6.466 -1.4092 -0.7907  1.0380
 3991SOL    HW223433   2.312   3.312   6.459  0.1858  0.3723 -0.1927
 3992SOL     OW23434   0.322   0.163   1.836  0.6714 -0.3176 -0.5620
 3992SOL    HW123435   0.231   0.180   1.810  1.1551  0.4190 -1.8093
 3992SOL    HW223436   0.345   0.256   1.826 -0.0186  0.0398  1.2420
 3993SOL     OW23437   0.153   3.222   2.690 -0.5159 -0.1639 -0.1348
 3993SOL    HW123438   0.115   3.300   2.732 -1.5074 -0.7144 -0.0199
 3993SOL    HW223439   0.074   3.173   2.665 -0.3540 -0.6943  0.4096
 3994SOL     OW23440   3.081   3.336   8.345 -0.3907 -0.5576  0.5540
 3994SOL    HW123441   3.035   3.255   8.323  1.5018 -1.0718 -1.4708
 3994SOL    HW223442   3.017   3.400   8.313 -0.3453 -0.7694  0.0532
 3995SOL     OW23443   0.151   4.387   8.812  0.6149  0.7756 -0.0026
 3995SOL    HW123444   0.107   4.305   8.832 -0.2384  1.4696  0.9064
 3995SOL    HW223445   0.139   4.391   8.717 -1.7723 -2.5921  0.1518
 3996SOL     OW23446   2.207   0.505   2.480  0.4013  0.4325  0.1121
 3996SOL    HW123447   2.264   0.499   2.402  3.0342  2.7125  1.8618
 3996SOL    HW223448   2.207   0.416   2.515  1.4601  0.8712  1.2208
 3997SOL     OW23449   3.005   3.197  10.114  0.4425  0.2483  0.7293
 3997SOL    HW123450   3.094   3.181  10.081  0.0752  1.0249 -0.6357
 3997SOL    HW223451   2.967   3.274  10.071 -1.2445 -1.4542 -0.8340
 3998SOL     OW23452   3.916   3.890   1.971 -0.0002  0.6100  0.2782
 3998SOL    HW123453   3.891   3.978   1.999 -0.6678  0.3509  0.4886
 3998SOL    HW223454   3.946   3.915   1.884 -0.8729  0.8033  0.0393
 3999SOL     OW23455   1.693   4.131   0.166 -0.5008  0.3574  0.3434
 3999SOL    HW123456   1.694   4.064   0.234 -3.2980 -2.5390 -2.4683
 3999SOL    HW223457   1.723   4.084   0.089 -0.2136 -1.4885  1.5691
 4000SOL     OW23458   0.645   4.153  10.438  0.3305 -0.0629 -1.2032
 4000SOL    HW123459   0.659   4.088  10.369  1.5753 -0.5610 -0.4883
 4000SOL    HW223460   0.712   4.212  10.403 -1.8024  2.0754 -1.6545
 4001SOL     OW23461   1.408   1.114  17.305  0.0182 -0.0841 -0.3211
 4001SOL    HW123462   1.323   1.142  17.273  1.2490 -0.4076 -3.8297
 4001SOL    HW223463   1.468   1.185  17.284 -0.5221  0.6024  0.4713
 4002SOL     OW23464   4.072   0.963   9.355  0.2653  0.2740  0.6503
 4002SOL    HW123465   4.131   1.025   9.313 -0.5038  0.2398 -0.4820
 4002SOL    HW223466   4.076   0.986   9.448  0.0308 -2.9804  1.4493
 4003SOL     OW23467   3.561   1.927  15.557  0.1309 -0.2343  0.0252
 4003SOL    HW123468   3.527   2.017  15.556 -0.0104 -0.3039 -1.4277
 4003SOL    HW223469   3.555   1.918  15.462 -3.5093  1.4977  0.0680
 4004SOL     OW23470   1.316   0.638   1.600  0.0211  0.1874 -0.4422
 4004SOL    HW123471   1.261   0.599   1.533 -0.8077 -1.5202  1.2645
 4004SOL    HW223472   1.287   0.593   1.679  0.7794 -2.1404 -1.4887
 4005SOL     OW23473   0.749   3.996   5.804  0.1246  0.2551 -0.3853
 4005SOL    HW123474   0.695   4.024   5.878  1.2510  1.1019  0.1239
 4005SOL    HW223475   0.747   4.070   5.744 -2.0684  0.9220  0.5329
 4006SOL     OW23476   4.065   3.044   2.008  0.3391  0.1800  0.8260
 4006SOL    HW123477   4.064   3.135   2.037 -1.7236  0.1704  0.7858
 4006SOL    HW223478   4.146   3.022   2.054 -0.4762 -1.6242  1.3858
 4007SOL     OW23479   4.300   2.532  12.663  0.2234 -0.0125  0.6310
 4007SOL    HW123480   4.254   2.478  12.599 -1.0767 -1.4585  2.7663
 4007SOL    HW223481   4.347   2.589  12.603  0.7731  0.3481  1.3980
 4008SOL     OW23482   3.200   3.677   5.168 -0.1867  0.5555 -0.3092
 4008SOL    HW123483   3.218   3.732   5.092 -0.3628  0.1604 -0.6319
 4008SOL    HW223484   3.261   3.605   5.153 -1.4838 -0.4903 -0.6341
 4009SOL     OW23485   1.838   1.596   0.725 -0.7251  0.2729  0.0041
 4009SOL    HW123486   1.871   1.580   0.813 -1.1437 -0.5620  0.0018
 4009SOL    HW223487   1.913   1.563   0.676 -0.5529  0.9801 -0.2187
 4010SOL     OW23488   4.264   3.985   1.781  0.0726 -0.5005  0.0850
 4010SOL    HW123489   4.218   4.069   1.775  0.7070 -0.0901  0.9682
 4010SOL    HW223490   4.278   3.967   1.688 -0.8814  1.0954 -0.3646
 4011SOL     OW23491   0.885   1.566   6.418 -0.1512 -0.4011 -0.6072
 4011SOL    HW123492   0.912   1.476   6.399 -2.5465 -1.1783 -0.2665
 4011SOL    HW223493   0.792   1.570   6.394 -0.4130  0.8349  0.6317
 4012SOL     OW23494   2.271   3.999   4.664  0.0168 -0.3131  0.1244
 4012SOL    HW123495   2.323   3.971   4.589  2.2723  0.8645  1.2296
 4012SOL    HW223496   2.266   4.093   4.647 -0.6555 -0.5095 -0.6974
 4013SOL     OW23497   1.940   3.780   8.660  0.2446  0.7450  0.3993
 4013SOL    HW123498   1.879   3.832   8.607  2.6587  1.9173 -1.2411
 4013SOL    HW223499   1.880   3.723   8.708 -0.5864  1.2769 -0.0070
 4014SOL     OW23500   3.556   3.954   3.548 -0.3653  0.4238  0.2768
 4014SOL    HW123501   3.544   3.887   3.481 -1.9960 -0.6898  1.6935
 4014SOL    HW223502   3.485   4.016   3.527 -1.7977 -1.5244 -0.6756
 4015SOL     OW23503   2.934   3.758  15.329  0.3288  0.0916  0.1913
 4015SOL    HW123504   3.003   3.824  15.338 -0.1309  0.3405  1.9939
 4015SOL    HW223505   2.921   3.723  15.417  0.2176 -0.7165 -0.1518
 4016SOL     OW23506   3.151   4.540   5.650 -0.2327 -0.2362 -0.1672
 4016SOL    HW123507   3.139   4.609   5.716 -0.6412  0.4128 -0.9264
 4016SOL    HW223508   3.085   4.473   5.667  1.0817 -1.4703  0.0435
 4017SOL     OW23509   4.258   2.682   5.008  0.2596  0.1830  0.2025
 4017SOL    HW123510   4.342   2.644   5.032  1.8042  2.0932 -2.1648
 4017SOL    HW223511   4.201   2.631   5.066  0.6603 -2.2726 -1.5652
 4018SOL     OW23512   2.680   4.494   6.384 -0.0301 -0.4116 -0.4555
 4018SOL    HW123513   2.648   4.574   6.343  3.1609 -0.0789 -2.3058
 4018SOL    HW223514   2.616   4.429   6.357 -2.1157  0.3795  2.6818
 4019SOL     OW23515   0.898   1.382   7.424  0.0958 -0.1742  0.3448
 4019SOL    HW123516   0.977   1.416   7.382 -0.4800  1.2178  0.3839
 4019SOL    HW223517   0.938   1.319   7.483  0.6734  1.7866  2.0469
 4020SOL     OW23518   4.233   0.003   8.599  0.4347  0.5082  0.3600
 4020SOL    HW123519   4.215   0.002   8.693  2.3983  1.1748  0.7603
 4020SOL    HW223520   4.325   4.702   8.586 -0.4202 -2.9799  1.0226
 4021SOL     OW23521   0.402   1.026   8.996 -0.1324  0.7194 -0.3388
 4021SOL    HW123522   0.330   1.057   9.050  0.4289  1.7075 -0.1578
 4021SOL    HW223523   0.356   0.979   8.927 -1.0241  0.2694  0.5698
 4022SOL     OW23524   2.408   4.530   2.382  0.2933  0.5026  0.4293
 4022SOL    HW123525   2.488   4.483   2.406 -1.0003 -2.5499 -1.2602
 4022SOL    HW223526   2.418   4.559   2.292  0.8295 -2.3060 -0.4150
 4023SOL     OW23527   4.432   0.495   2.441  0.2283 -0.2703 -0.0993
 4023SOL    HW123528   4.462   0.566   2.384 -0.8555 -1.0346 -1.5911
 4023SOL    HW223529   4.401   0.545   2.517 -2.6010 -1.1947 -0.6689
 4024SOL     OW23530   2.127   3.849   3.601 -0.4845 -0.5500 -0.2568
 4024SOL    HW123531   2.137   3.911   3.673  1.4248  0.6830 -1.5691
 4024SOL    HW223532   2.043   3.808   3.618 -0.3278 -1.6675 -2.2031
 4025SOL     OW23533   0.791   3.607   4.523  0.0345 -0.1127 -0.3111
 4025SOL    HW123534   0.770   3.684   4.470  1.1241 -0.2501 -0.9412
 4025SOL    HW223535   0.766   3.616   4.615  2.3469 -1.4857  0.4337
 4026SOL     OW23536   0.689   3.806   4.819 -0.5818 -0.1328 -0.4525
 4026SOL    HW123537   0.692   3.793   4.914  2.1352  1.2383 -0.3614
 4026SOL    HW223538   0.738   3.730   4.789 -0.1771 -0.2554  0.5306
 4027SOL     OW23539   1.147   2.810  12.974  0.2521  0.3187 -0.2301
 4027SOL    HW123540   1.180   2.760  12.899 -1.1012 -0.5252 -0.2559
 4027SOL    HW223541   1.067   2.852  12.943  0.7479  0.0479 -1.8863
 4028SOL     OW23542   0.123   1.067   0.053  0.1333  0.3169 -0.1270
 4028SOL    HW123543   0.030   1.077   0.032  0.5722  1.3759 -1.5423
 4028SOL    HW223544   0.109   1.006   0.126  1.0149 -0.1528 -0.3580
 4029SOL     OW23545   0.709   2.299   7.685  0.2972 -0.2502 -0.0027
 4029SOL    HW123546   0.671   2.271   7.602  1.3923  0.5165 -0.7787
 4029SOL    HW223547   0.768   2.369   7.656  1.0450 -0.5509  0.7830
 4030SOL     OW23548   0.532   2.879  15.182 -0.0433  0.6870 -0.1345
 4030SOL    HW123549   0.598   2.873  15.252 -0.4996 -0.7501  0.1613
 4030SOL    HW223550   0.514   2.973  15.180 -0.6841  0.5742  0.3648
 4031SOL     OW23551   1.616   1.598   7.998 -0.4010 -0.2850  0.4518
 4031SOL    HW123552   1.691   1.573   7.943 -1.0945 -0.8872 -0.2248
 4031SOL    HW223553   1.558   1.635   7.931  1.5407  1.5315 -0.2567
 4032SOL     OW23554   3.366   3.774  16.570 -0.1238 -0.6088 -0.3868
 4032SOL    HW123555   3.349   3.797  16.478 -0.1285 -0.0870 -0.2553
 4032SOL    HW223556   3.449   3.821  16.574 -0.2329 -0.3300 -1.3578
 4033SOL     OW23557   0.670   2.583   2.300 -0.1605  0.2744 -0.0329
 4033SOL    HW123558   0.708   2.515   2.245  3.1869  1.4891  0.8262
 4033SOL    HW223559   0.684   2.543   2.385  0.7601  1.7539  0.5021
 4034SOL     OW23560   2.652   3.565  10.190 -0.5961 -0.0649 -0.3430
 4034SOL    HW123561   2.683   3.500  10.127 -0.6774  0.0134 -0.4652
 4034SOL    HW223562   2.729   3.585  10.243 -1.6512  0.8104  0.8680
 4035SOL     OW23563   2.509   4.633  16.347 -0.3067 -0.2968 -0.2219
 4035SOL    HW123564   2.548   4.668  16.427 -2.3354  1.1397  0.1302
 4035SOL    HW223565   2.413   4.637  16.352 -0.3582  1.7810 -2.6892
 4036SOL     OW23566   2.716   2.625  14.549 -0.1487  0.2750  0.2704
 4036SOL    HW123567   2.723   2.717  14.575  1.0972 -0.5647  2.8818
 4036SOL    HW223568   2.761   2.588  14.625 -2.0950 -0.6166  0.9847
 4037SOL     OW23569   3.172   4.118   4.848 -0.2752  0.8324  0.6870
 4037SOL    HW123570   3.193   4.206   4.880  1.8939  1.2815 -1.9554
 4037SOL    HW223571   3.104   4.090   4.909  0.3020 -0.7092  0.6189
 4038SOL     OW23572   0.472   4.039   2.666  0.0043 -1.0314  1.0769
 4038SOL    HW123573   0.508   4.093   2.736  0.7214 -0.8989  0.5971
 4038SOL    HW223574   0.468   3.961   2.720  3.6930 -0.5182  2.0383
 4039SOL     OW23575   0.930   2.335   9.245  0.6216 -0.4718 -0.6650
 4039SOL    HW123576   0.978   2.418   9.254  0.3375 -0.3611 -0.1256
 4039SOL    HW223577   0.974   2.276   9.305  0.1927  0.6741  0.7857
 4040SOL     OW23578   3.628   0.681   2.702  0.6054 -0.7777 -0.0664
 4040SOL    HW123579   3.621   0.678   2.798  2.1452  1.0077  0.1021
 4040SOL    HW223580   3.645   0.773   2.682 -1.6120 -0.3673 -0.0312
 4041SOL     OW23581   0.009   2.282   9.401  0.4276  0.3842 -0.1944
 4041SOL    HW123582   0.018   2.239   9.316  0.0841  0.4522 -0.2640
 4041SOL    HW223583   0.082   2.345   9.401 -0.5816  1.5370  2.6257
 4042SOL     OW23584   2.817   4.701  10.621  0.2792 -0.1573  0.0506
 4042SOL    HW123585   2.904   0.016  10.614 -0.3228  1.1906  0.2812
 4042SOL    HW223586   2.781   4.696  10.533  0.6851 -0.7581 -0.0860
 4043SOL     OW23587   3.823   3.848  13.993  0.3373  0.2047 -0.3667
 4043SOL    HW123588   3.791   3.880  13.909 -1.4324  0.4896  0.4047
 4043SOL    HW223589   3.912   3.883  13.995  0.7249 -0.8732  1.3217
 4044SOL     OW23590   3.564   2.239  13.665  0.0195  0.4803  0.6567
 4044SOL    HW123591   3.605   2.251  13.751  1.5749  3.6892 -0.5234
 4044SOL    HW223592   3.479   2.281  13.680 -0.0993 -0.7760  3.4879
 4045SOL     OW23593   2.897   3.602   6.377 -0.2786 -0.0730  0.4826
 4045SOL    HW123594   2.819   3.573   6.425 -0.5437  0.4467  0.3583
 4045SOL    HW223595   2.846   3.626   6.300  0.8564  2.1166  0.4186
 4046SOL     OW23596   2.215   3.437   5.358  0.1854 -0.2301 -0.1375
 4046SOL    HW123597   2.234   3.343   5.349  2.7693  0.3108 -0.4704
 4046SOL    HW223598   2.124   3.436   5.330  0.0174 -1.4330  0.4725
 4047SOL     OW23599   2.121   1.623   5.204  0.1141  0.5962  0.4359
 4047SOL    HW123600   2.040   1.573   5.195  2.4436 -2.5673 -3.2368
 4047SOL    HW223601   2.140   1.641   5.112 -1.7625 -2.3622 -0.5691
 4048SOL     OW23602   2.616   3.795  17.682  0.0690  0.6072 -0.2082
 4048SOL    HW123603   2.616   3.742   0.063  1.3362  0.2366 -0.4548
 4048SOL    HW223604   2.641   3.730  17.615  1.1803  0.4346  0.3726
 4049SOL     OW23605   3.542   1.046   4.402  0.6758  0.1250  0.4286
 4049SOL    HW123606   3.458   1.041   4.356  0.8384 -1.9028  0.3799
 4049SOL    HW223607   3.518   1.096   4.480  0.7198  1.0375 -0.1444
 4050SOL     OW23608   1.225   1.853  15.348  0.1657  0.0920  0.4355
 4050SOL    HW123609   1.311   1.886  15.373  0.5652 -1.1365  0.6830
 4050SOL    HW223610   1.231   1.768  15.391  1.6691 -0.1926 -0.3531
 4051SOL     OW23611   3.365   3.153   5.146  0.0551  0.4926 -0.5947
 4051SOL    HW123612   3.419   3.118   5.075 -1.5795  0.9386 -2.0671
 4051SOL    HW223613   3.435   3.162   5.211  2.3970  2.9842 -3.4372
 4052SOL     OW23614   3.486   0.766   5.631  0.0538 -0.9864  0.3757
 4052SOL    HW123615   3.410   0.822   5.643  1.0702  0.9976 -2.4062
 4052SOL    HW223616   3.516   0.801   5.547 -0.7068 -1.2877 -0.0180
 4053SOL     OW23617   0.043   3.456   4.109 -0.0711 -0.1655 -0.5691
 4053SOL    HW123618   0.135   3.462   4.136 -0.8454 -0.9597  2.2443
 4053SOL    HW223619   0.045   3.524   4.041  0.6343  0.4579  0.0690
 4054SOL     OW23620   2.026   2.747   2.059 -0.6869  0.6316  0.2736
 4054SOL    HW123621   1.964   2.807   2.102 -1.1021 -0.1512  0.7657
 4054SOL    HW223622   2.002   2.758   1.967 -0.9152 -0.3110  0.2187
 4055SOL     OW23623   2.138   0.534   3.018 -0.1456  0.2895  0.0576
 4055SOL    HW123624   2.137   0.629   3.032 -0.7764  0.1162  1.1856
 4055SOL    HW223625   2.066   0.525   2.955  0.5960  0.6841 -0.8373
 4056SOL     OW23626   2.024   4.599  11.160 -0.4924 -0.6693 -0.5573
 4056SOL    HW123627   1.996   4.517  11.201 -2.3027  0.4333  0.4187
 4056SOL    HW223628   2.074   4.568  11.084 -0.6649  2.5272 -1.9755
 4057SOL     OW23629   1.728   0.123   7.641 -0.0252 -0.7214  0.0521
 4057SOL    HW123630   1.705   0.081   7.558  0.6711 -1.1158  0.0645
 4057SOL    HW223631   1.820   0.132   7.619 -0.0042  0.1387  0.4579
 4058SOL     OW23632   4.497   2.392   8.559 -0.2624  0.6686 -0.1183
 4058SOL    HW123633   4.564   2.327   8.537 -0.4383 -0.0411  1.4870
 4058SOL    HW223634   4.534   2.471   8.518  1.3379  0.0810  0.1788
 4059SOL     OW23635   1.866   3.937   7.967 -0.1671  0.8406 -0.2924
 4059SOL    HW123636   1.906   3.968   7.886  1.0689 -1.0064 -0.4050
 4059SOL    HW223637   1.941   3.896   8.010 -0.4875 -0.3382 -0.8505
 4060SOL     OW23638   3.995   0.201   4.274  0.0948  0.5391 -0.1790
 4060SOL    HW123639   4.085   0.169   4.286  0.7450  2.4317  0.1061
 4060SOL    HW223640   3.950   0.132   4.323  2.2134 -0.3591  0.5189
 4061SOL     OW23641   2.561   1.348   9.599  0.2195  0.1005 -0.9404
 4061SOL    HW123642   2.512   1.327   9.679 -0.8409 -1.0533 -1.8979
 4061SOL    HW223643   2.494   1.378   9.537 -0.0449  0.1677 -0.6212
 4062SOL     OW23644   1.540   3.715   7.273 -0.3316 -0.9106  0.1797
 4062SOL    HW123645   1.462   3.688   7.322 -1.2173 -0.8055 -1.1569
 4062SOL    HW223646   1.504   3.716   7.184  1.0442 -1.5368 -0.3670
 4063SOL     OW23647   2.090   1.630  11.551  0.7393  0.2129 -0.4066
 4063SOL    HW123648   2.071   1.608  11.459 -1.7634 -1.3500  0.4834
 4063SOL    HW223649   2.173   1.584  11.559  0.1272 -0.7819  0.2449
 4064SOL     OW23650   3.659   0.203   4.581 -0.9738  0.3010 -0.3482
 4064SOL    HW123651   3.591   0.183   4.646 -0.6433  1.9314  0.5061
 4064SOL    HW223652   3.730   0.143   4.602  0.0951  1.9992  0.9078
 4065SOL     OW23653   0.856   4.702   9.039 -0.0853  0.0466  0.1610
 4065SOL    HW123654   0.764   4.718   9.058  0.3072  1.1392  1.1728
 4065SOL    HW223655   0.885   4.651   9.115  0.3593  2.3547  1.5574
 4066SOL     OW23656   3.633   0.364   6.482 -0.4099  0.1214  0.0181
 4066SOL    HW123657   3.690   0.385   6.408  0.7588 -2.1297  0.2859
 4066SOL    HW223658   3.549   0.368   6.436  0.2004  0.4831 -1.0627
 4067SOL     OW23659   4.508   2.790   2.870 -0.4043  0.3957 -0.1765
 4067SOL    HW123660   4.503   2.700   2.900 -2.6540  0.8396  0.8033
 4067SOL    HW223661   4.490   2.772   2.777  1.0029  1.7989 -0.7250
 4068SOL     OW23662   2.710   2.974   8.228 -0.1846  0.2937  0.1862
 4068SOL    HW123663   2.765   2.900   8.203 -0.0527  0.0656  1.1518
 4068SOL    HW223664   2.637   2.935   8.277  0.4789 -0.6998  0.3928
 4069SOL     OW23665   2.279   2.043   6.302  0.1081  0.5442 -0.5386
 4069SOL    HW123666   2.265   2.110   6.369  0.7423 -1.2590  1.3963
 4069SOL    HW223667   2.261   1.958   6.343  2.8543  0.3749  0.2565
 4070SOL     OW23668   2.431   1.282  15.914 -0.0889 -0.1217 -0.7181
 4070SOL    HW123669   2.435   1.317  15.825  0.5641  0.0073 -0.6372
 4070SOL    HW223670   2.475   1.351  15.964  1.0501 -0.2587 -1.5381
 4071SOL     OW23671   0.105   3.462   5.438  0.2168 -0.6650 -0.3538
 4071SOL    HW123672   0.089   3.557   5.444 -1.2633 -1.0706  2.3756
 4071SOL    HW223673   0.136   3.458   5.528  4.2315  1.3446 -1.6758
 4072SOL     OW23674   3.437   3.724  12.354 -0.0974  0.0247 -0.4483
 4072SOL    HW123675   3.374   3.761  12.293 -0.6197  0.2047  0.2070
 4072SOL    HW223676   3.501   3.695  12.289  1.0895 -0.2250  0.8093
 4073SOL     OW23677   1.048   2.142   6.856  0.0454 -0.4938 -0.5428
 4073SOL    HW123678   1.049   2.146   6.951  0.5455  1.9637 -0.6321
 4073SOL    HW223679   1.095   2.061   6.837  0.3196 -0.6073  0.6023
 4074SOL     OW23680   3.654   3.865   8.749  0.4704 -0.3411 -0.5747
 4074SOL    HW123681   3.618   3.917   8.821  0.4387  0.8815 -1.4667
 4074SOL    HW223682   3.712   3.930   8.710  3.0258 -1.9627  0.5390
 4075SOL     OW23683   1.007   4.267   5.710 -0.4016  0.3774  0.1821
 4075SOL    HW123684   1.038   4.310   5.630 -0.3131 -0.2804 -0.1383
 4075SOL    HW223685   1.038   4.177   5.699 -0.0468  0.7079 -1.5240
 4076SOL     OW23686   2.887   2.745   8.215  0.3350 -0.5851 -0.0147
 4076SOL    HW123687   2.958   2.744   8.151  1.4020 -0.5382  1.1942
 4076SOL    HW223688   2.886   2.650   8.231  2.3440 -0.4468  0.8228
 4077SOL     OW23689   1.258   3.698  13.603 -0.0804  0.1783  0.0944
 4077SOL    HW123690   1.239   3.764  13.537 -0.5757  0.4492  0.5066
 4077SOL    HW223691   1.244   3.619  13.552 -0.2538  0.5402 -0.4162
 4078SOL     OW23692   0.459   4.612   4.850 -0.3594 -0.2912  0.0164
 4078SOL    HW123693   0.475   4.606   4.756 -0.3196  1.5357 -0.1026
 4078SOL    HW223694   0.384   4.670   4.862  1.2182  1.1933  2.8917
 4079SOL     OW23695   2.098   3.580   8.573 -0.8867  0.6744  0.4210
 4079SOL    HW123696   2.145   3.571   8.655  2.3470  0.7774 -1.4099
 4079SOL    HW223697   2.048   3.658   8.596 -1.6182  0.5911 -0.8757
 4080SOL     OW23698   0.670   0.850   9.002 -0.0473  0.4996  0.3193
 4080SOL    HW123699   0.600   0.887   9.057 -0.7733 -0.1100 -0.1948
 4080SOL    HW223700   0.696   0.768   9.042 -1.0295  1.6843  3.4074
 4081SOL     OW23701   2.658   0.419  16.347 -0.1520 -0.4409  0.0942
 4081SOL    HW123702   2.632   0.327  16.353  1.5689 -0.9335  0.1498
 4081SOL    HW223703   2.620   0.444  16.431 -1.1934 -1.1308 -0.1796
 4082SOL     OW23704   2.493   4.338  16.008  0.2035 -0.0356 -0.4053
 4082SOL    HW123705   2.454   4.250  16.007  0.7189 -0.2622 -1.1444
 4082SOL    HW223706   2.556   4.321  16.077 -1.4459 -0.9657  0.8674
 4083SOL     OW23707   3.375   0.498   3.065  0.7798 -0.2815  0.6666
 4083SOL    HW123708   3.299   0.488   3.008 -0.3470 -0.9872  2.3025
 4083SOL    HW223709   3.360   0.413   3.106  0.0355 -0.4693 -0.0057
 4084SOL     OW23710   2.270   4.319   0.550 -0.7476 -0.1854  0.0635
 4084SOL    HW123711   2.262   4.401   0.502 -0.2197 -1.0965 -1.5696
 4084SOL    HW223712   2.262   4.347   0.641 -1.4590  1.0805 -0.3785
 4085SOL     OW23713   1.440   2.096   8.057  0.4180 -0.4084  0.3205
 4085SOL    HW123714   1.479   2.022   8.010 -1.3262 -0.8228 -0.4720
 4085SOL    HW223715   1.501   2.162   8.022  2.8183 -1.0518  3.2251
 4086SOL     OW23716   0.630   3.904  12.602  0.0617 -0.0112  0.8249
 4086SOL    HW123717   0.584   3.821  12.613  1.3026 -0.6635  1.0811
 4086SOL    HW223718   0.561   3.964  12.575  1.1360 -0.1961 -2.2440
 4087SOL     OW23719   2.059   0.405  11.400 -0.0307 -0.4851  0.5871
 4087SOL    HW123720   2.106   0.323  11.416 -0.3392 -0.4958  1.4524
 4087SOL    HW223721   2.139   0.454  11.381 -0.7777  1.2524  1.9237
 4088SOL     OW23722   3.203   0.273   6.289  0.7877  0.5553  0.1186
 4088SOL    HW123723   3.138   0.338   6.263 -2.8586 -1.5965  3.8614
 4088SOL    HW223724   3.281   0.325   6.270  0.5514  1.0839  0.6292
 4089SOL     OW23725   3.803   3.761  12.092 -0.0550 -0.2886  0.4162
 4089SOL    HW123726   3.708   3.757  12.083  0.1606 -0.2853 -2.0643
 4089SOL    HW223727   3.816   3.678  12.046 -0.4378  1.0171 -2.0861
 4090SOL     OW23728   3.131   2.943   5.123 -0.5735 -0.1944  0.0493
 4090SOL    HW123729   3.162   2.961   5.034 -2.0404 -2.6587 -0.9712
 4090SOL    HW223730   3.184   3.011   5.165 -0.8366  1.0696 -1.6862
 4091SOL     OW23731   2.651   3.854   5.991 -0.3533  0.2216 -0.1145
 4091SOL    HW123732   2.560   3.883   5.992  0.6267  3.2226  1.6264
 4091SOL    HW223733   2.699   3.916   5.937  0.2351 -2.6830 -2.9835
 4092SOL     OW23734   1.397   4.315   4.523  0.3673 -0.4123 -0.2125
 4092SOL    HW123735   1.441   4.298   4.440 -0.7805  0.1411 -0.9405
 4092SOL    HW223736   1.311   4.279   4.498  0.1418  0.4442 -0.6927
 4093SOL     OW23737   1.055   0.921   3.642  0.1130 -0.4062  0.4089
 4093SOL    HW123738   1.022   0.943   3.729 -2.5718  0.0723 -0.7473
 4093SOL    HW223739   1.136   0.973   3.638 -0.3346  0.1745 -1.1372
 4094SOL     OW23740   1.563   1.238   3.011  0.1533  0.7339 -0.2857
 4094SOL    HW123741   1.582   1.331   3.026  0.8009  0.8926 -2.1754
 4094SOL    HW223742   1.615   1.198   3.081 -1.7761 -0.4420  0.4926
 4095SOL     OW23743   1.288   3.643   7.359  0.0829  0.5449  0.2437
 4095SOL    HW123744   1.218   3.580   7.340  1.5429 -0.3652 -2.0845
 4095SOL    HW223745   1.238   3.724   7.375 -2.2773 -0.5621 -1.4267
 4096SOL     OW23746   0.238   1.739   8.607 -0.7137  0.3816  0.6963
 4096SOL    HW123747   0.185   1.663   8.631  0.8496 -0.7748  0.4945
 4096SOL    HW223748   0.177   1.777   8.544 -0.4457 -2.5894 -1.3656
 4097SOL     OW23749   2.915   4.397  16.212 -0.9073 -1.1348 -0.0243
 4097SOL    HW123750   2.949   4.311  16.236  0.1151  0.3605  3.8245
 4097SOL    HW223751   2.998   4.441  16.195 -0.6127 -1.0026  1.7276
 4098SOL     OW23752   3.978   3.940   4.668 -0.4930 -0.2098 -0.3564
 4098SOL    HW123753   3.927   4.008   4.623  0.6558  0.1395 -1.1320
 4098SOL    HW223754   4.063   3.967   4.632 -1.1828  2.9486  0.3194
 4099SOL     OW23755   3.513   2.449   7.414  0.9176 -0.5678 -0.1318
 4099SOL    HW123756   3.507   2.410   7.326  0.2874  0.2122 -0.4403
 4099SOL    HW223757   3.605   2.441   7.439  1.0345 -1.0987 -0.7201
 4100SOL     OW23758   3.406   4.140   7.431 -0.2976 -0.1903  0.3442
 4100SOL    HW123759   3.448   4.174   7.510 -0.3723 -1.1103  0.7830
 4100SOL    HW223760   3.322   4.111   7.466 -0.7150  0.7678  0.1265
 4101SOL     OW23761   4.419   1.713   6.237 -0.1594 -0.2592  0.6721
 4101SOL    HW123762   4.510   1.739   6.220 -0.3003 -1.1905 -1.4968
 4101SOL    HW223763   4.421   1.629   6.282  0.4360  0.5754  2.1768
 4102SOL     OW23764   1.366   4.231   1.624  0.2225 -0.1946 -0.2404
 4102SOL    HW123765   1.398   4.186   1.702  1.4792 -1.8971 -1.7064
 4102SOL    HW223766   1.280   4.196   1.602 -0.0815  0.2205  0.2909
 4103SOL     OW23767   3.815   3.858   9.143 -0.1287  0.3965  0.1245
 4103SOL    HW123768   3.775   3.859   9.230 -1.6491  1.6492 -0.6025
 4103SOL    HW223769   3.740   3.824   9.095 -0.7899 -0.3952  1.6939
 4104SOL     OW23770   0.794   4.217   2.877 -0.0469 -0.2507  0.3536
 4104SOL    HW123771   0.792   4.227   2.782  0.3155  0.1545  0.3909
 4104SOL    HW223772   0.752   4.296   2.909 -0.4632  0.3917 -1.7513
 4105SOL     OW23773   4.112   0.443   5.219 -0.3693  0.4543  0.0277
 4105SOL    HW123774   4.188   0.395   5.184 -0.9972 -0.0095 -0.7311
 4105SOL    HW223775   4.140   0.449   5.310 -0.8030 -0.2078  0.2098
 4106SOL     OW23776   1.133   0.035   9.340  0.7528 -0.4750  0.2261
 4106SOL    HW123777   1.178   0.004   9.261 -1.4145 -1.1827 -0.7123
 4106SOL    HW223778   1.044   0.044   9.305  1.3000  1.9561 -0.5985
 4107SOL     OW23779   4.622   3.892   2.457 -0.1774 -0.2254 -0.1123
 4107SOL    HW123780   4.561   3.820   2.471 -1.1385  0.9830  1.9223
 4107SOL    HW223781   4.578   3.947   2.391  1.7551 -0.2229 -1.3842
 4108SOL     OW23782   4.207   2.914  11.609  0.6551  0.1141 -0.0395
 4108SOL    HW123783   4.141   2.899  11.677  2.1565 -2.3662  0.8744
 4108SOL    HW223784   4.193   2.844  11.545 -1.8006 -0.2467  0.8959
 4109SOL     OW23785   3.538   4.025   8.126  0.0400  0.1186 -0.3240
 4109SOL    HW123786   3.482   4.004   8.052  0.3446  0.5746 -0.6813
 4109SOL    HW223787   3.584   4.107   8.106  0.5456 -0.3932 -1.2469
 4110SOL     OW23788   0.967   0.817   9.633  0.1085 -0.4663 -0.1009
 4110SOL    HW123789   0.883   0.780   9.661  1.4260 -2.4359  1.2434
 4110SOL    HW223790   1.027   0.775   9.694  1.7272 -0.7569 -1.8958
 4111SOL     OW23791   1.775   0.044   4.337  0.6774 -0.2548 -0.0040
 4111SOL    HW123792   1.804   4.679   4.360 -0.8170 -0.8342 -0.3790
 4111SOL    HW223793   1.680   0.046   4.350  0.8451  2.9040  0.7211
 4112SOL     OW23794   4.189   1.406   0.034  0.5021  0.5572  0.0660
 4112SOL    HW123795   4.156   1.494   0.012 -1.1085 -0.0671  0.0264
 4112SOL    HW223796   4.127   1.353  17.684 -1.6612  0.4119  3.0382
 4113SOL     OW23797   0.317   2.232   8.743 -0.8327 -0.1692 -0.5851
 4113SOL    HW123798   0.354   2.290   8.811 -1.2830 -0.7528  0.1541
 4113SOL    HW223799   0.234   2.268   8.712 -1.3505 -2.1712 -1.4900
 4114SOL     OW23800   0.999   0.742   3.982 -0.7262 -0.2848  0.2945
 4114SOL    HW123801   1.003   0.826   3.935 -0.4363 -0.1165  0.6250
 4114SOL    HW223802   1.071   0.759   4.042  2.3060 -1.5936 -3.0345
 4115SOL     OW23803   1.084   1.449   1.679 -0.0821 -0.1517  0.0417
 4115SOL    HW123804   1.180   1.448   1.682 -0.1101 -0.0899  0.8388
 4115SOL    HW223805   1.072   1.406   1.764  1.5426  0.7930  0.7562
 4116SOL     OW23806   4.513   1.010   6.812 -0.4614  0.1155  0.2351
 4116SOL    HW123807   4.441   1.067   6.840  2.0268  1.1711  4.5483
 4116SOL    HW223808   4.545   0.973   6.895  1.0499  1.0210  0.0632
 4117SOL     OW23809   1.080   3.297   1.421  0.8432 -0.4872  0.3257
 4117SOL    HW123810   1.091   3.310   1.515  0.0947 -0.4246  0.3991
 4117SOL    HW223811   1.166   3.310   1.380  0.5436 -0.2152 -0.2183
 4118SOL     OW23812   3.465   3.858   2.061  0.5262  0.2081  0.1798
 4118SOL    HW123813   3.448   3.933   2.003  1.0818  1.9919  2.3289
 4118SOL    HW223814   3.387   3.805   2.044  0.0733  0.9030  0.0858
 4119SOL     OW23815   0.881   1.399   9.406 -0.1634  0.5684  0.0418
 4119SOL    HW123816   0.975   1.394   9.427 -0.5266 -1.6558  1.1280
 4119SOL    HW223817   0.875   1.493   9.422  0.9086  0.4234  1.2875
 4120SOL     OW23818   3.826   2.367   8.157  0.4385 -0.1214 -0.4102
 4120SOL    HW123819   3.859   2.305   8.222 -0.5996 -0.6116 -0.3574
 4120SOL    HW223820   3.905   2.387   8.106  0.4296 -0.5438 -0.5869
 4121SOL     OW23821   4.622   2.358   4.527 -0.9476 -0.2547  0.0318
 4121SOL    HW123822   4.668   2.289   4.479 -1.4709 -0.3828 -0.2819
 4121SOL    HW223823   4.539   2.310   4.526 -1.0893 -0.0187  0.4609
 4122SOL     OW23824   2.668   4.706   2.474 -0.1900  0.2368 -0.0245
 4122SOL    HW123825   2.624   4.633   2.517 -0.4667 -0.6717 -1.8401
 4122SOL    HW223826   2.714   0.024   2.547  1.2447  0.0049 -0.7860
 4123SOL     OW23827   4.219   2.773  11.128  0.7375 -0.2949 -0.0679
 4123SOL    HW123828   4.245   2.831  11.200  0.0907  2.3550 -1.9709
 4123SOL    HW223829   4.289   2.780  11.063  2.4133  0.9419  1.8465
 4124SOL     OW23830   3.289   0.112   5.276 -0.2966 -0.1911  0.5271
 4124SOL    HW123831   3.241   0.188   5.243  0.6498 -0.1110 -0.6496
 4124SOL    HW223832   3.208   0.068   5.303 -1.3280  0.9244 -0.7666
 4125SOL     OW23833   0.507   2.060   5.584  0.4477  0.1510 -0.4851
 4125SOL    HW123834   0.468   1.973   5.582 -1.7029  1.1752 -2.3175
 4125SOL    HW223835   0.491   2.082   5.675  2.2137  1.8369 -0.5858
 4126SOL     OW23836   3.947   0.710   5.877 -0.3959  0.0017 -0.3049
 4126SOL    HW123837   3.981   0.781   5.931  0.8498  0.0070 -1.0868
 4126SOL    HW223838   3.954   0.747   5.788 -2.7179  0.9656 -0.0810
 4127SOL     OW23839   3.507   3.449   2.513  0.3265  0.1397 -0.1106
 4127SOL    HW123840   3.428   3.448   2.568  1.0416 -0.1954  0.9050
 4127SOL    HW223841   3.475   3.475   2.427 -0.5446  0.3109  0.2559
 4128SOL     OW23842   3.290   2.244  13.638  0.2300 -0.1997 -0.4376
 4128SOL    HW123843   3.246   2.312  13.587 -0.7658  1.2584  2.3541
 4128SOL    HW223844   3.238   2.168  13.613 -0.6672 -0.0950  1.0726
 4129SOL     OW23845   3.181   3.512   7.076  0.2694  0.4951  0.0615
 4129SOL    HW123846   3.218   3.431   7.111  0.1173 -0.0015 -0.9520
 4129SOL    HW223847   3.238   3.547   7.008 -1.2650  2.4672 -0.2304
 4130SOL     OW23848   3.678   1.999   2.411 -0.0985 -0.4892  0.0526
 4130SOL    HW123849   3.677   1.994   2.316  2.0993 -0.8675  0.0522
 4130SOL    HW223850   3.603   2.056   2.424  0.6293  0.7864 -1.3989
 4131SOL     OW23851   3.042   1.182  10.280  0.6235 -0.3620  0.2061
 4131SOL    HW123852   2.982   1.223  10.343  0.9001  0.0913  0.1666
 4131SOL    HW223853   3.017   1.215  10.194  0.4313 -0.2289  0.3113
 4132SOL     OW23854   2.259   3.583   1.665 -0.4172  0.2630  0.0308
 4132SOL    HW123855   2.244   3.619   1.578 -1.9024 -1.0434 -0.2433
 4132SOL    HW223856   2.200   3.509   1.673  0.5189 -0.5431 -0.4662
 4133SOL     OW23857   0.772   3.306   4.552  0.4214  0.0895  0.4652
 4133SOL    HW123858   0.803   3.396   4.556  3.4581 -0.9681  0.6506
 4133SOL    HW223859   0.749   3.302   4.645 -0.0038  2.9945  0.4857
 4134SOL     OW23860   0.850   4.351   7.957  0.3579 -0.1034  0.4728
 4134SOL    HW123861   0.927   4.309   7.996  1.0872  1.6946  0.9966
 4134SOL    HW223862   0.811   4.277   7.912  2.1553  0.3123 -1.7793
 4135SOL     OW23863   4.222   3.318   5.049 -0.0258  0.4944  0.2125
 4135SOL    HW123864   4.266   3.243   5.089  0.4991  0.6473 -0.0746
 4135SOL    HW223865   4.158   3.340   5.117  1.3745 -0.0171  1.6978
 4136SOL     OW23866   2.007   2.703  10.458  0.3298 -0.2900 -0.0089
 4136SOL    HW123867   2.095   2.730  10.432 -0.7660  2.6211 -0.6435
 4136SOL    HW223868   2.004   2.657  10.542  1.1069 -0.6244 -0.1615
 4137SOL     OW23869   1.040   4.442   0.693  0.1811  0.0029  0.4367
 4137SOL    HW123870   1.104   4.406   0.632  1.3005 -0.8517  2.1073
 4137SOL    HW223871   0.963   4.387   0.677  0.4386  0.3463 -1.9631
 4138SOL     OW23872   2.617   3.593   9.226  0.6558 -0.4418  0.7247
 4138SOL    HW123873   2.562   3.522   9.193  0.3420  0.4613 -0.6530
 4138SOL    HW223874   2.576   3.604   9.312  0.7312  1.0832  0.5608
 4139SOL     OW23875   1.332   2.894   1.723 -0.3940 -0.1751 -0.4103
 4139SOL    HW123876   1.354   2.832   1.792  3.1322  1.1800 -0.3317
 4139SOL    HW223877   1.238   2.892   1.742 -0.6791  1.4843 -1.6168
 4140SOL     OW23878   1.210   1.936   9.681 -0.2900 -0.3614 -0.2623
 4140SOL    HW123879   1.222   1.882   9.759  0.9922 -0.6551 -0.6652
 4140SOL    HW223880   1.185   2.014   9.729  1.2536  0.1428 -0.2884
 4141SOL     OW23881   3.924   0.734   7.525 -0.0635  0.1607 -0.2313
 4141SOL    HW123882   3.893   0.817   7.488 -1.8157 -1.1179 -1.5979
 4141SOL    HW223883   3.919   0.746   7.620  1.2047 -0.0617 -0.1398
 4142SOL     OW23884   4.522   0.751  11.915 -0.0217  0.0575 -0.2377
 4142SOL    HW123885   4.606   0.719  11.947 -0.1572 -0.3603 -0.2847
 4142SOL    HW223886   4.514   0.687  11.843  0.9482  0.5349 -0.7677
 4143SOL     OW23887   3.055   3.693   9.262  0.0857  0.7722 -0.1073
 4143SOL    HW123888   3.107   3.619   9.292  1.0847  1.2501 -0.6582
 4143SOL    HW223889   3.001   3.650   9.195  0.4391  2.7173 -1.6461
 4144SOL     OW23890   1.397   4.430  12.114  0.3080 -0.6236  0.1192
 4144SOL    HW123891   1.439   4.435  12.028 -0.5440  2.0179 -0.1622
 4144SOL    HW223892   1.306   4.443  12.087 -0.5120 -2.8253  1.8241
 4145SOL     OW23893   2.575   1.699   8.603 -0.4012 -0.4449  0.8496
 4145SOL    HW123894   2.503   1.740   8.650 -0.4589  1.7055 -1.1162
 4145SOL    HW223895   2.532   1.716   8.519  0.0700  1.6216  1.0359
 4146SOL     OW23896   1.633   2.839   6.679 -0.0437 -0.0275  0.4967
 4146SOL    HW123897   1.719   2.832   6.638 -0.5975  0.7366 -0.7844
 4146SOL    HW223898   1.652   2.914   6.736 -2.6678  0.4303  0.7382
 4147SOL     OW23899   3.864   2.040  16.586  0.1166 -0.4538  0.5806
 4147SOL    HW123900   3.863   2.134  16.566  1.8432 -0.6185 -0.2675
 4147SOL    HW223901   3.955   2.044  16.616  0.5428  1.6787 -0.9678
 4148SOL     OW23902   4.221   4.536  16.573  0.1110 -0.3281 -0.1106
 4148SOL    HW123903   4.173   4.593  16.513  0.2766 -1.2726 -1.1384
 4148SOL    HW223904   4.277   4.487  16.512 -1.6474 -0.5035 -1.6050
 4149SOL     OW23905   4.090   1.217   0.647 -0.2881  0.1624 -0.1039
 4149SOL    HW123906   4.181   1.233   0.624  0.7012  1.0270  4.3301
 4149SOL    HW223907   4.065   1.144   0.590 -0.3831 -1.6466  2.2198
 4150SOL     OW23908   2.107   3.927  15.653 -0.8106 -0.1818  0.9073
 4150SOL    HW123909   2.154   3.881  15.723 -0.9479 -1.3188  0.2445
 4150SOL    HW223910   2.146   4.015  15.652 -2.9799  0.7458 -1.4653
 4151SOL     OW23911   2.790   2.054   4.712 -0.2519  0.8500  0.2257
 4151SOL    HW123912   2.879   2.062   4.679  0.3977 -0.2290  1.7141
 4151SOL    HW223913   2.806   2.078   4.804  1.1775  1.5163 -0.2094
 4152SOL     OW23914   0.711   2.840   7.042 -0.3051 -0.1237 -0.8008
 4152SOL    HW123915   0.709   2.934   7.058 -0.0834 -0.4399  1.1205
 4152SOL    HW223916   0.661   2.824   6.962  0.2603  1.1707 -1.4060
 4153SOL     OW23917   0.776   3.618   3.009  0.3098 -0.2796  0.6168
 4153SOL    HW123918   0.714   3.561   3.054  0.2236 -1.8798 -1.5186
 4153SOL    HW223919   0.849   3.557   3.002 -0.4139 -1.2127  1.1401
 4154SOL     OW23920   1.330   2.600   9.162 -0.3780 -0.2962 -0.0834
 4154SOL    HW123921   1.371   2.556   9.088  0.6414 -0.3855  0.5286
 4154SOL    HW223922   1.387   2.676   9.174 -2.5347  0.9841  1.8778
 4155SOL     OW23923   0.257   3.481   3.799 -0.2189  0.1406 -0.1102
 4155SOL    HW123924   0.339   3.444   3.766 -1.1524 -1.5900 -0.4534
 4155SOL    HW223925   0.277   3.517   3.885 -1.7785  1.6704 -0.3858
 4156SOL     OW23926   2.882   3.264   8.000  0.1404  0.5201 -0.2523
 4156SOL    HW123927   2.815   3.300   8.058 -2.2495 -3.3387 -0.6287
 4156SOL    HW223928   2.905   3.178   8.035 -0.7873  0.5025  0.3183
 4157SOL     OW23929   1.501   0.872  10.622 -0.3653 -0.0831  0.0373
 4157SOL    HW123930   1.415   0.883  10.580 -1.0823  1.3959  1.9127
 4157SOL    HW223931   1.550   0.937  10.573  0.8503 -0.7859  0.3269
 4158SOL     OW23932   3.434   1.616  11.267 -0.0434 -0.2314  0.4268
 4158SOL    HW123933   3.351   1.654  11.239  1.3381  2.4962  0.0133
 4158SOL    HW223934   3.492   1.690  11.248 -0.4347 -0.4416 -1.5560
 4159SOL     OW23935   1.185   2.981   9.846 -0.2181  0.0857 -0.2508
 4159SOL    HW123936   1.274   3.014   9.859  0.8346 -3.6201  2.0066
 4159SOL    HW223937   1.193   2.897   9.801  1.7702 -0.5207  1.1857
 4160SOL     OW23938   1.522   1.577  14.537  0.1268 -0.9414 -0.1592
 4160SOL    HW123939   1.457   1.609  14.475 -2.6452 -2.2406  2.0474
 4160SOL    HW223940   1.469   1.531  14.602 -0.5851  0.2303  0.1073
 4161SOL     OW23941   1.650   4.714  14.045  0.1485 -0.2353  0.0023
 4161SOL    HW123942   1.734   0.022  14.011  0.8854 -0.4616  1.6208
 4161SOL    HW223943   1.680   4.646  14.104 -1.8233  0.0713  1.3697
 4162SOL     OW23944   2.044   4.630   2.013  0.0836  0.5747 -0.2337
 4162SOL    HW123945   2.133   4.599   2.026  0.2495  1.4363  0.6621
 4162SOL    HW223946   2.049   4.712   1.964  1.8304  0.8158  0.3521
 4163SOL     OW23947   0.614   0.602  13.993 -0.1849 -0.1443  0.2771
 4163SOL    HW123948   0.671   0.539  14.036 -1.2462 -2.8278 -2.1959
 4163SOL    HW223949   0.611   0.669  14.061  4.3092  1.1527 -0.7851
 4164SOL     OW23950   2.570   2.838   4.469 -0.7968  0.4477 -0.8746
 4164SOL    HW123951   2.594   2.854   4.378 -0.2768  0.3085 -0.7596
 4164SOL    HW223952   2.648   2.802   4.511 -2.2996  0.4900  1.9413
 4165SOL     OW23953   1.726   3.434   4.455 -0.0441  0.0105 -0.0285
 4165SOL    HW123954   1.784   3.454   4.528  1.6389 -3.8332 -0.3443
 4165SOL    HW223955   1.772   3.361   4.413 -2.8415 -0.3901 -2.4132
 4166SOL     OW23956   0.322   3.619  13.754 -0.2775  0.6421 -0.0550
 4166SOL    HW123957   0.344   3.701  13.798 -0.1203  0.1744  0.7293
 4166SOL    HW223958   0.399   3.567  13.777  0.9356  1.7012 -1.6919
 4167SOL     OW23959   2.274   3.885  10.645 -0.1838  0.6025  0.5312
 4167SOL    HW123960   2.185   3.867  10.615  0.8994 -2.8154 -0.5828
 4167SOL    HW223961   2.263   3.950  10.715 -2.1181  1.1633 -0.2755
 4168SOL     OW23962   0.666   2.740   8.910  0.0260  0.3903  0.9810
 4168SOL    HW123963   0.612   2.661   8.913 -0.1141  0.3183 -4.4531
 4168SOL    HW223964   0.688   2.726   8.818  0.3708  1.0601  0.9610
 4169SOL     OW23965   2.322   0.309  11.235  0.5739 -0.1364 -0.2176
 4169SOL    HW123966   2.323   0.275  11.324 -3.4401  0.9357  0.2297
 4169SOL    HW223967   2.262   0.246  11.196 -1.5163  1.0884  1.0156
 4170SOL     OW23968   0.594   2.944   4.631 -0.7451 -0.0318 -0.0570
 4170SOL    HW123969   0.659   2.940   4.560 -0.4841 -0.2721  0.1947
 4170SOL    HW223970   0.530   3.003   4.592 -2.0416 -1.7725 -0.5592
 4171SOL     OW23971   3.072   0.804   6.355  0.4423  0.3098 -0.0633
 4171SOL    HW123972   2.988   0.782   6.396 -1.3014  1.6967 -2.8391
 4171SOL    HW223973   3.042   0.859   6.282  0.8185 -0.3904 -0.7460
 4172SOL     OW23974   0.275   1.686   3.272  0.2133  0.6673  0.0002
 4172SOL    HW123975   0.295   1.744   3.199 -1.3315  2.3704  0.9178
 4172SOL    HW223976   0.330   1.729   3.337  1.6308 -0.7087 -0.2700
 4173SOL     OW23977   2.211   4.085   2.601 -0.3622 -0.2699 -0.0474
 4173SOL    HW123978   2.289   4.141   2.602 -1.2630  0.9666  0.8556
 4173SOL    HW223979   2.160   4.137   2.539 -2.4375  0.2033  2.0462
 4174SOL     OW23980   3.567   0.867  13.556 -0.4201  0.4167 -0.7939
 4174SOL    HW123981   3.645   0.860  13.501  0.7478 -0.9436  1.0542
 4174SOL    HW223982   3.501   0.895  13.492  0.0123 -0.4564 -1.6276
 4175SOL     OW23983   0.434   3.463   9.873 -0.4316 -0.3354 -0.4288
 4175SOL    HW123984   0.440   3.494   9.963  0.3622  0.4140 -0.7339
 4175SOL    HW223985   0.478   3.530   9.819 -0.2059 -3.4756 -4.1687
 4176SOL     OW23986   2.497   3.122  17.082 -0.2875  0.2914 -0.6250
 4176SOL    HW123987   2.481   3.215  17.098 -2.3236  0.0239 -1.1094
 4176SOL    HW223988   2.407   3.087  17.083  0.4225 -1.4172  2.6734
 4177SOL     OW23989   3.401   2.890   0.254  0.0945  0.4845  0.2891
 4177SOL    HW123990   3.380   2.797   0.263  1.7384  0.0248 -0.5023
 4177SOL    HW223991   3.493   2.900   0.230 -0.3541  0.4998 -1.4463
 4178SOL     OW23992   0.351   1.214   3.650  0.2359  0.1425  0.5214
 4178SOL    HW123993   0.370   1.201   3.557 -2.0641 -1.5337  0.3137
 4178SOL    HW223994   0.383   1.304   3.661  4.8629 -1.3937 -0.1496
 4179SOL     OW23995   3.987   2.915   9.853  0.1729  0.0660 -0.2725
 4179SOL    HW123996   3.953   2.919   9.764 -0.7225  0.1142  0.0784
 4179SOL    HW223997   3.950   2.832   9.883  1.0008 -0.6535 -1.2223
 4180SOL     OW23998   3.628   2.194   8.441 -0.1956  0.9890  0.0523
 4180SOL    HW123999   3.559   2.235   8.389  0.3481  1.6654 -0.1398
 4180SOL    HW224000   3.705   2.250   8.429  0.7957 -0.3492  0.1001
 4181SOL     OW24001   2.904   4.604   1.971 -0.2971 -0.4013 -0.8769
 4181SOL    HW124002   2.867   4.675   1.918 -1.5140 -0.6138 -0.3066
 4181SOL    HW224003   2.997   4.602   1.951 -0.2934 -1.0462 -0.7911
 4182SOL     OW24004   4.397   0.891   4.099  0.1708 -0.1715  0.0896
 4182SOL    HW124005   4.415   0.942   4.178  1.2947 -0.8792  0.2771
 4182SOL    HW224006   4.308   0.919   4.077  0.3424  0.5739  0.3404
 4183SOL     OW24007   2.213   0.124   3.185  0.4462 -0.3955  0.5029
 4183SOL    HW124008   2.141   0.167   3.139  0.9284  1.2219  1.2426
 4183SOL    HW224009   2.169   0.064   3.245  0.6456  1.5130  2.5731
 4184SOL     OW24010   3.259   3.179  10.039 -0.2367  0.5283  0.1267
 4184SOL    HW124011   3.288   3.270  10.041 -1.2612  0.8297  1.3221
 4184SOL    HW224012   3.343   3.132  10.039 -0.0918  0.7895 -1.0594
 4185SOL     OW24013   3.306   0.229   4.015  0.0100  0.5841  0.2556
 4185SOL    HW124014   3.296   0.200   4.106 -2.1040 -1.2634 -0.5754
 4185SOL    HW224015   3.397   0.206   4.000 -0.3780 -3.2042  3.7107
 4186SOL     OW24016   2.056   4.067   5.851  0.1691 -0.0415 -0.3714
 4186SOL    HW124017   2.106   4.125   5.795 -1.8557  2.5870  0.5519
 4186SOL    HW224018   2.096   3.986   5.820  0.1638 -0.1695 -0.0470
 4187SOL     OW24019   2.961   2.628   4.116  0.5632  0.2723  0.2158
 4187SOL    HW124020   2.988   2.660   4.030 -0.6765  0.3747 -0.1250
 4187SOL    HW224021   3.011   2.548   4.131  1.9246  0.6437 -2.3957
 4188SOL     OW24022   2.526   0.405   4.809 -0.7995 -0.5419  0.1918
 4188SOL    HW124023   2.449   0.384   4.862 -0.2150 -0.8604  0.9101
 4188SOL    HW224024   2.479   0.413   4.725  1.5120  3.7424 -0.6863
 4189SOL     OW24025   2.626   0.069  15.703 -0.2334 -0.1098  0.2718
 4189SOL    HW124026   2.535   0.097  15.718 -0.0812 -0.1588  1.2901
 4189SOL    HW224027   2.647   0.153  15.663  2.1904 -1.0673 -0.4446
 4190SOL     OW24028   2.837   3.015   2.601 -0.1428  0.0065  0.3634
 4190SOL    HW124029   2.743   3.010   2.580  0.1132 -1.6835 -0.3432
 4190SOL    HW224030   2.869   2.926   2.591  0.7781  0.2887  0.7818
 4191SOL     OW24031   4.430   0.612   9.012  0.1722  0.6294 -0.1964
 4191SOL    HW124032   4.481   0.557   8.953  0.2435  0.9907 -0.4775
 4191SOL    HW224033   4.497   0.678   9.027 -0.9337  1.4990  0.9196
 4192SOL     OW24034   1.079   0.115   2.869 -0.1289  0.2891  0.4214
 4192SOL    HW124035   1.107   0.025   2.858  0.0546  0.5369 -1.0547
 4192SOL    HW224036   1.100   0.123   2.962 -1.0115  0.6628  0.5880
 4193SOL     OW24037   1.735   4.460   7.926 -0.0055 -0.3149  0.3249
 4193SOL    HW124038   1.753   4.378   7.882  2.2927 -0.3299  1.3057
 4193SOL    HW224039   1.802   4.521   7.896 -0.5098 -0.2821 -0.7313
 4194SOL     OW24040   0.176   2.245  11.689 -0.2990 -1.0460 -0.6863
 4194SOL    HW124041   0.163   2.254  11.784  0.8702  2.7085 -0.9202
 4194SOL    HW224042   0.262   2.284  11.676 -0.5942 -0.5161 -1.0393
 4195SOL     OW24043   1.380   0.771   8.117  0.3397  0.2389  0.1005
 4195SOL    HW124044   1.419   0.809   8.038 -0.1352 -1.6336 -1.0239
 4195SOL    HW224045   1.317   0.838   8.144 -0.0413  0.4973 -1.4839
 4196SOL     OW24046   3.623   3.847   4.632  0.2231 -0.1974 -0.8162
 4196SOL    HW124047   3.534   3.865   4.662  1.0465 -1.7788  2.6026
 4196SOL    HW224048   3.636   3.753   4.615 -0.8769 -0.5914  0.5474
 4197SOL     OW24049   3.398   0.887   2.474  0.1549  0.1226  0.2584
 4197SOL    HW124050   3.455   0.875   2.549  2.9500  1.6720 -1.6159
 4197SOL    HW224051   3.459   0.940   2.422 -1.2406 -0.3631 -1.8529
 4198SOL     OW24052   0.845   3.113   7.380  0.2119  0.7788 -0.6196
 4198SOL    HW124053   0.844   3.128   7.285  1.5072 -0.6126 -0.8522
 4198SOL    HW224054   0.789   3.035   7.381  0.9619  0.2630  0.5500
 4199SOL     OW24055   0.123   1.542   7.130  0.0207 -0.4771  0.2097
 4199SOL    HW124056   0.128   1.518   7.223  2.4671  0.8859  0.4095
 4199SOL    HW224057   0.032   1.571   7.131  1.2244  3.2277  2.0388
 4200SOL     OW24058   2.383   2.088   4.067  0.2329  0.2761 -0.2453
 4200SOL    HW124059   2.372   2.176   4.032  0.5238  0.0980 -0.7851
 4200SOL    HW224060   2.351   2.042   3.990 -2.9638 -0.1680  1.3422
 4201SOL     OW24061   3.187   4.514   2.486  0.2282 -0.8363 -0.5760
 4201SOL    HW124062   3.264   4.549   2.531 -0.7968  1.2458 -0.4383
 4201SOL    HW224063   3.118   4.577   2.509  1.3819 -0.7291  2.6281
 4202SOL     OW24064   0.492   0.048   2.589 -0.1231  0.1579  0.9558
 4202SOL    HW124065   0.525   0.132   2.556 -0.6362  0.0351  0.1340
 4202SOL    HW224066   0.430   0.030   2.519  0.3259  0.2860  0.5225
 4203SOL     OW24067   0.938   1.387   7.815  0.1305  0.0640 -0.1130
 4203SOL    HW124068   0.848   1.418   7.804  0.0086  0.3160  1.6129
 4203SOL    HW224069   0.985   1.469   7.833 -0.6863  0.5395 -0.1214
 4204SOL     OW24070   0.727   2.831   5.159 -0.2573  0.1791  0.6544
 4204SOL    HW124071   0.726   2.739   5.135 -1.8594 -0.0795  1.7376
 4204SOL    HW224072   0.685   2.860   5.078  0.1606  0.5535  0.5732
 4205SOL     OW24073   0.577   0.671   1.106  0.2965  0.0104 -0.2164
 4205SOL    HW124074   0.613   0.698   1.191  1.4742 -1.3234 -0.2791
 4205SOL    HW224075   0.654   0.627   1.070  0.0613 -0.9602  0.4399
 4206SOL     OW24076   3.025   0.731   8.671  0.0023 -0.0655  0.0508
 4206SOL    HW124077   3.085   0.663   8.642 -0.1684  0.2293 -0.9839
 4206SOL    HW224078   3.031   0.715   8.765 -0.4054  0.6637  0.2017
 4207SOL     OW24079   0.984   0.956  10.983  0.2126 -0.5330 -0.6498
 4207SOL    HW124080   1.071   0.995  10.991 -0.8140  1.3735  1.1407
 4207SOL    HW224081   0.999   0.864  11.005  1.3499  0.0438  0.9324
 4208SOL     OW24082   1.820   3.815   3.875 -0.0137  0.1161  0.4072
 4208SOL    HW124083   1.726   3.808   3.863  0.2174  1.1062 -1.8503
 4208SOL    HW224084   1.833   3.903   3.840 -0.6627  0.4797  1.0770
 4209SOL     OW24085   3.302   3.599  11.575  0.1781  0.1265 -0.1413
 4209SOL    HW124086   3.371   3.602  11.642  1.1374  2.6228 -1.2320
 4209SOL    HW224087   3.340   3.658  11.510  1.7807 -1.2186 -0.4313
 4210SOL     OW24088   3.387   3.519  11.968 -0.6237 -0.2885  0.0377
 4210SOL    HW124089   3.326   3.466  12.020 -0.6905  0.5741  0.8350
 4210SOL    HW224090   3.393   3.467  11.888  3.5962  0.1933  0.0243
 4211SOL     OW24091   0.560   2.730  11.428 -0.2621 -0.4788 -0.6131
 4211SOL    HW124092   0.512   2.654  11.394 -3.5968  1.2430  0.2454
 4211SOL    HW224093   0.576   2.686  11.511  0.1348  0.6948 -0.0839
 4212SOL     OW24094   3.662   2.993   9.530  0.6072 -0.3644 -0.0840
 4212SOL    HW124095   3.656   3.046   9.610  1.3160  1.3363 -1.1492
 4212SOL    HW224096   3.631   3.056   9.465 -1.0260 -1.9284 -0.8273
 4213SOL     OW24097   0.095   2.537  15.105  0.2908 -0.1844  0.4268
 4213SOL    HW124098   0.190   2.542  15.096  0.1846  0.4191 -0.3063
 4213SOL    HW224099   0.076   2.444  15.121  2.8709 -0.6106  0.9398
 4214SOL     OW24100   4.418   2.702   5.694  0.1443 -0.3734 -0.0815
 4214SOL    HW124101   4.363   2.769   5.736 -0.8207 -1.1569 -0.0811
 4214SOL    HW224102   4.505   2.741   5.692 -0.0239  0.1147  1.6706
 4215SOL     OW24103   4.343   4.366   3.317 -0.0377 -0.2558 -0.0141
 4215SOL    HW124104   4.381   4.407   3.395  0.1788 -1.1269  0.3477
 4215SOL    HW224105   4.377   4.425   3.251 -0.2001  1.5745  1.5362
 4216SOL     OW24106   0.352   2.276  11.276  0.1382  0.0423 -0.3678
 4216SOL    HW124107   0.373   2.183  11.280 -1.3979 -0.3438 -1.2343
 4216SOL    HW224108   0.262   2.270  11.244 -1.1748  2.5414  2.9052
 4217SOL     OW24109   2.770   3.292   0.987  0.5594  0.0172 -0.0752
 4217SOL    HW124110   2.858   3.306   1.021  1.7740 -1.3642 -2.6134
 4217SOL    HW224111   2.783   3.206   0.946  4.0652  0.2105  0.6947
 4218SOL     OW24112   0.626   2.502   6.025 -0.2122 -0.4981 -0.0219
 4218SOL    HW124113   0.584   2.491   5.940 -0.4271 -0.8884  0.1382
 4218SOL    HW224114   0.566   2.566   6.065  0.6084  0.2750 -0.0108
 4219SOL     OW24115   1.103   1.988   7.534  0.5876  0.2408 -0.0295
 4219SOL    HW124116   1.158   1.988   7.612  0.1830  2.4458  0.2642
 4219SOL    HW224117   1.021   1.961   7.576  0.3840  1.8929  0.6334
 4220SOL     OW24118   0.820   3.468   0.003 -0.1496  0.0172  0.4867
 4220SOL    HW124119   0.793   3.384   0.042  0.0124  0.0021  0.5635
 4220SOL    HW224120   0.733   3.507   0.006  0.2421  0.8837  0.4041
 4221SOL     OW24121   1.920   0.454   0.251  0.0901 -0.4394  0.1336
 4221SOL    HW124122   1.864   0.475   0.176  0.3930  1.2409  0.3720
 4221SOL    HW224123   1.999   0.427   0.205  3.4961  3.3119  3.7296
 4222SOL     OW24124   3.345   1.533   5.091  0.5405  0.4469  0.3515
 4222SOL    HW124125   3.392   1.616   5.103 -0.4280  0.7390  2.0619
 4222SOL    HW224126   3.261   1.567   5.060  0.4433 -0.9215 -0.8691
 4223SOL     OW24127   0.496   0.679   8.472 -0.4647  0.0573  0.5813
 4223SOL    HW124128   0.570   0.627   8.441  0.9378  1.7555  1.0871
 4223SOL    HW224129   0.537   0.728   8.544 -1.5740  0.1285  1.1749
 4224SOL     OW24130   3.578   3.826   7.312 -0.3101  0.1148 -0.4067
 4224SOL    HW124131   3.498   3.874   7.291 -2.0315 -1.3569  2.7906
 4224SOL    HW224132   3.550   3.735   7.302  2.9807 -1.0428  0.9717
 4225SOL     OW24133   3.634   1.788  11.219  0.3231  0.0055  0.3967
 4225SOL    HW124134   3.697   1.806  11.150 -0.4511  2.0946  0.2404
 4225SOL    HW224135   3.631   1.875  11.258  0.0868  0.5088 -0.7373
 4226SOL     OW24136   0.432   2.211   6.519  0.1577  0.9599  0.1552
 4226SOL    HW124137   0.338   2.232   6.516  0.2250  1.3500  1.0002
 4226SOL    HW224138   0.465   2.237   6.433  2.1197 -0.3266  0.5249
 4227SOL     OW24139   1.720   3.840   9.161  0.5785  0.4797 -0.0934
 4227SOL    HW124140   1.795   3.845   9.221  1.8226 -0.6029 -1.5586
 4227SOL    HW224141   1.681   3.756   9.185  0.8529  0.8405  1.6561
 4228SOL     OW24142   0.702   1.064  11.002 -0.1146 -0.0621  0.2737
 4228SOL    HW124143   0.702   1.146  10.953  0.3992 -1.5032 -2.1131
 4228SOL    HW224144   0.792   1.066  11.034 -0.1330 -1.0699  0.3820
 4229SOL     OW24145   2.212   3.653  13.197 -0.7389 -0.2162  0.3932
 4229SOL    HW124146   2.146   3.615  13.255 -1.1975 -0.3044 -0.1824
 4229SOL    HW224147   2.179   3.743  13.191  0.1968  0.0328 -1.0151
 4230SOL     OW24148   0.896   3.543   2.462 -0.0301  0.4514 -0.2805
 4230SOL    HW124149   0.863   3.562   2.550  0.1385  0.3557 -0.1991
 4230SOL    HW224150   0.822   3.497   2.422 -1.8707  1.0968  2.3263
 4231SOL     OW24151   3.702   2.792   2.179 -0.0438  0.1701 -0.4483
 4231SOL    HW124152   3.775   2.745   2.219 -0.2890 -1.2046 -1.5941
 4231SOL    HW224153   3.680   2.744   2.099 -1.2074  1.0210 -0.6402
 4232SOL     OW24154   2.813   3.347  15.636 -0.1295  0.3556  0.3548
 4232SOL    HW124155   2.895   3.318  15.597  1.1487 -0.1322  3.4001
 4232SOL    HW224156   2.767   3.268  15.607  0.6792  0.9111 -2.4027
 4233SOL     OW24157   3.774   2.478   7.450 -0.0809 -0.4062 -0.5937
 4233SOL    HW124158   3.791   2.427   7.371  1.2445 -0.2918 -0.3816
 4233SOL    HW224159   3.850   2.456   7.503 -0.6400 -1.1197 -0.0864
 4234SOL     OW24160   3.540   1.068   8.540 -0.0867 -0.0414  0.2262
 4234SOL    HW124161   3.625   1.109   8.525 -0.5551  0.6574 -0.5054
 4234SOL    HW224162   3.555   0.983   8.499 -1.7093 -1.9804  3.5978
 4235SOL     OW24163   2.213   1.249  10.682  0.2692 -0.1908 -0.1799
 4235SOL    HW124164   2.118   1.260  10.680  0.4850  1.2415 -2.4113
 4235SOL    HW224165   2.234   1.296  10.763  0.2268  0.3587 -0.4840
 4236SOL     OW24166   0.649   3.715   3.472  0.5219  0.1773 -0.3696
 4236SOL    HW124167   0.642   3.774   3.397  2.2461  1.5718  0.5549
 4236SOL    HW224168   0.593   3.648   3.434 -0.0980 -0.0064  0.8892
 4237SOL     OW24169   0.800   1.965   4.745  0.3909 -0.8102 -0.0463
 4237SOL    HW124170   0.834   2.034   4.687 -0.9551 -0.0685  0.0534
 4237SOL    HW224171   0.726   2.008   4.786 -0.4226 -0.5052 -1.8104
 4238SOL     OW24172   0.811   2.222   6.375  0.6826  0.3568  0.7358
 4238SOL    HW124173   0.811   2.310   6.337  5.6462 -0.5690 -1.3308
 4238SOL    HW224174   0.835   2.248   6.464 -0.3522  1.6398  0.6456
 4239SOL     OW24175   4.114   3.344  13.113  0.4860  0.2118  0.0007
 4239SOL    HW124176   4.183   3.307  13.169 -0.1298 -0.3865  0.3712
 4239SOL    HW224177   4.155   3.400  13.048 -0.4517  1.5109  0.5169
 4240SOL     OW24178   2.461   1.483  15.618 -0.1592 -0.5282 -0.5039
 4240SOL    HW124179   2.532   1.484  15.553  0.4597 -0.2131  0.1827
 4240SOL    HW224180   2.491   1.554  15.674 -2.6276  1.0054 -1.1573
 4241SOL     OW24181   3.897   1.427   4.969  0.6178  0.1981 -0.2783
 4241SOL    HW124182   3.963   1.476   5.018 -1.3479  1.2357  1.3122
 4241SOL    HW224183   3.929   1.443   4.881  1.9418 -2.3069 -0.2721
 4242SOL     OW24184   1.094   2.796   3.472 -0.0558  0.2320  0.0910
 4242SOL    HW124185   1.167   2.824   3.415  0.1041  0.3280  0.3421
 4242SOL    HW224186   1.129   2.710   3.496 -0.1824  0.0333 -0.4441
 4243SOL     OW24187   2.805   4.631   7.492  0.3968  0.3512  0.0296
 4243SOL    HW124188   2.898   4.654   7.480  0.7974 -0.5919  1.3104
 4243SOL    HW224189   2.808   4.558   7.430 -1.1691 -0.7271  1.2330
 4244SOL     OW24190   2.922   1.598   6.775  0.3666 -0.3653 -0.0640
 4244SOL    HW124191   2.873   1.592   6.692 -1.6084  2.0616  0.9176
 4244SOL    HW224192   2.863   1.650   6.829  2.0730  1.0115  0.4490
 4245SOL     OW24193   0.346   2.943  15.856 -0.3645  0.0166 -0.6281
 4245SOL    HW124194   0.327   2.958  15.763 -0.9864 -1.2551 -0.6993
 4245SOL    HW224195   0.409   3.009  15.884  0.2022  0.5784 -3.1403
 4246SOL     OW24196   1.936   0.282   0.493  0.5061  0.6419  0.5102
 4246SOL    HW124197   2.020   0.284   0.539  0.8677 -0.4586 -0.0945
 4246SOL    HW224198   1.955   0.341   0.420 -0.7042  0.1675 -0.1914
 4247SOL     OW24199   4.562   3.414   7.126  0.6591  0.0234 -0.6438
 4247SOL    HW124200   4.502   3.357   7.078 -1.8830  1.2008  1.1238
 4247SOL    HW224201   4.610   3.352   7.181  0.1968  2.8901  2.9829
 4248SOL     OW24202   1.642   4.093   6.732  0.2906 -0.0071 -0.6776
 4248SOL    HW124203   1.731   4.105   6.700  0.1436 -1.3812 -1.5656
 4248SOL    HW224204   1.661   4.027   6.799  0.9233  1.5901  0.7267
 4249SOL     OW24205   2.285   3.532   5.824 -0.0285  0.5332  0.1901
 4249SOL    HW124206   2.356   3.577   5.870  0.3367  1.3258 -1.1661
 4249SOL    HW224207   2.326   3.551   5.740  0.5340 -2.2645 -0.1717
 4250SOL     OW24208   2.677   1.561   7.989 -0.1413 -0.4252  0.7025
 4250SOL    HW124209   2.766   1.550   8.024 -0.3839 -1.2904  1.0608
 4250SOL    HW224210   2.696   1.594   7.901 -2.1881  1.2473  0.9024
 4251SOL     OW24211   3.995   3.575   5.174  0.1937  0.2041  0.5973
 4251SOL    HW124212   3.959   3.490   5.199  0.3016  0.6308  2.2731
 4251SOL    HW224213   3.920   3.614   5.128  0.3785  2.0348  1.8234
 4252SOL     OW24214   1.951   4.161   1.586  0.4637  0.0916  0.5590
 4252SOL    HW124215   1.978   4.216   1.659  1.1139  1.5370 -0.7660
 4252SOL    HW224216   1.982   4.078   1.621 -1.1691 -0.2341  1.2459
 4253SOL     OW24217   2.404   1.710  17.223 -0.3828  0.0156  0.4665
 4253SOL    HW124218   2.417   1.800  17.254  0.7085  0.0277 -0.0405
 4253SOL    HW224219   2.473   1.661  17.268  1.2652  1.1310 -0.8405
 4254SOL     OW24220   0.626   0.872   3.267 -0.1299 -0.4422 -0.2102
 4254SOL    HW124221   0.585   0.905   3.186 -0.9715  1.1166  0.8633
 4254SOL    HW224222   0.711   0.915   3.267  0.8237 -2.3410 -0.5642
 4255SOL     OW24223   0.198   1.880   2.862  0.1826 -0.1942  0.3237
 4255SOL    HW124224   0.164   1.792   2.879 -3.0004  0.7442 -1.1514
 4255SOL    HW224225   0.209   1.879   2.767  1.1869  2.5157  0.3892
 4256SOL     OW24226   1.989   2.966   4.254  1.1183 -0.4724 -0.2308
 4256SOL    HW124227   1.988   3.013   4.171  0.2857  0.6899  0.4353
 4256SOL    HW224228   1.918   2.903   4.254  0.5119  0.2081  0.0916
 4257SOL     OW24229   0.370   2.038  17.548  0.8622 -0.0926 -0.1975
 4257SOL    HW124230   0.277   2.020  17.535  0.7216 -0.0991  0.8119
 4257SOL    HW224231   0.404   1.950  17.538  0.7675 -0.0724 -0.7020
 4258SOL     OW24232   2.918   3.822   2.888 -0.0291  0.3367  0.3015
 4258SOL    HW124233   3.011   3.813   2.910 -0.0711  3.1723  1.5112
 4258SOL    HW224234   2.890   3.730   2.887 -2.0634  0.9983 -4.0314
 4259SOL     OW24235   2.533   2.452   5.716 -0.1774 -0.2314 -0.1749
 4259SOL    HW124236   2.625   2.426   5.708  0.3571  2.4988 -2.7770
 4259SOL    HW224237   2.499   2.407   5.794  1.2258  1.2161  1.2607
 4260SOL     OW24238   1.610   3.178  15.583 -0.3613  0.3834  0.3742
 4260SOL    HW124239   1.618   3.086  15.560  2.8027  0.7352 -0.0099
 4260SOL    HW224240   1.664   3.178  15.663 -1.5368 -1.3775  1.1527
 4261SOL     OW24241   0.062   0.397   9.204 -0.0077 -0.3903  0.5024
 4261SOL    HW124242   0.071   0.436   9.291 -0.4508  1.8230 -0.4442
 4261SOL    HW224243   4.692   0.380   9.203 -0.0385 -0.2202  0.4981
 4262SOL     OW24244   0.349   2.844   6.273  0.3220  0.1265 -0.2404
 4262SOL    HW124245   0.288   2.900   6.224 -2.5915 -0.0853  3.0978
 4262SOL    HW224246   0.432   2.885   6.249  0.3523  0.6131  0.7089
 4263SOL     OW24247   1.395   0.391   5.854 -0.1148 -0.1788 -0.0630
 4263SOL    HW124248   1.435   0.409   5.769 -1.3207  0.9356 -0.4017
 4263SOL    HW224249   1.375   0.484   5.871 -3.0547 -0.3540 -2.5738
 4264SOL     OW24250   4.505   3.133   9.595 -0.9905  0.5320 -0.2833
 4264SOL    HW124251   4.528   3.068   9.660 -0.4137  1.2725  0.2546
 4264SOL    HW224252   4.488   3.211   9.649 -2.2094 -0.7663  1.2096
 4265SOL     OW24253   0.730   0.742   5.156 -0.2930  0.5279  0.5905
 4265SOL    HW124254   0.809   0.697   5.187  0.3959  2.6167  1.8534
 4265SOL    HW224255   0.718   0.807   5.225 -2.3670  2.2746 -1.4221
 4266SOL     OW24256   3.668   2.874   0.213 -0.1517  0.0438 -0.1059
 4266SOL    HW124257   3.728   2.886   0.139  1.9582  0.0201  1.6102
 4266SOL    HW224258   3.664   2.779   0.219  0.7729  0.2288  3.3052
 4267SOL     OW24259   2.300   3.337   0.637  0.3791  0.0837 -0.0255
 4267SOL    HW124260   2.328   3.321   0.727  0.7928  0.2597 -0.1264
 4267SOL    HW224261   2.224   3.395   0.640 -0.5556 -1.2795  2.4458
 4268SOL     OW24262   1.937   0.929   9.872 -0.3032  0.0974  1.0852
 4268SOL    HW124263   1.889   0.928   9.788  0.7298 -0.3226  0.4995
 4268SOL    HW224264   1.892   1.003   9.912 -0.9883  1.8236 -2.8649
 4269SOL     OW24265   3.403   0.893  13.250 -0.6677  0.7166 -0.5350
 4269SOL    HW124266   3.422   0.985  13.268  0.3075  0.4335 -0.1155
 4269SOL    HW224267   3.325   0.897  13.196  1.7372 -1.1170 -4.0763
 4270SOL     OW24268   4.694   2.780  10.316  0.3368 -0.0585 -0.3679
 4270SOL    HW124269   0.034   2.827  10.369  1.2963 -2.4159  0.5757
 4270SOL    HW224270   4.635   2.750  10.386  1.7133 -0.8257  0.4582
 4271SOL     OW24271   4.655   2.558   4.346 -0.2294  0.3033  0.2606
 4271SOL    HW124272   4.704   2.512   4.277  3.1155 -1.7102  3.9505
 4271SOL    HW224273   4.639   2.479   4.397 -1.9980  0.2888 -0.3350
 4272SOL     OW24274   0.859   3.134  13.564 -0.1724 -0.1550 -0.0394
 4272SOL    HW124275   0.790   3.191  13.532  1.4101  3.2305  2.5490
 4272SOL    HW224276   0.933   3.151  13.506 -1.1732  1.0865 -0.9398
 4273SOL     OW24277   1.540   3.740   3.032 -0.0257  0.0074  0.7989
 4273SOL    HW124278   1.452   3.707   3.014 -1.4000  2.6758  2.6382
 4273SOL    HW224279   1.538   3.766   3.124 -0.6564 -0.7647  1.0017
 4274SOL     OW24280   2.903   4.525   2.679  0.4875 -0.1352  0.0677
 4274SOL    HW124281   2.950   4.468   2.618  1.5722  0.4147  0.3860
 4274SOL    HW224282   2.832   4.467   2.706  0.4043 -0.9544 -1.9145
 4275SOL     OW24283   1.398   0.595   7.312  0.0247 -0.1175  0.4349
 4275SOL    HW124284   1.443   0.676   7.288 -0.8445  0.2647  0.0640
 4275SOL    HW224285   1.386   0.591   7.407  1.0200  0.2111  0.5659
 4276SOL     OW24286   1.662   0.305   0.534  0.2114  0.2008  0.3583
 4276SOL    HW124287   1.758   0.308   0.528  0.3302 -3.5022  0.5663
 4276SOL    HW224288   1.639   0.287   0.443 -0.0674  0.2730  0.4144
 4277SOL     OW24289   1.809   1.373  17.290 -0.0349 -0.3145 -0.6163
 4277SOL    HW124290   1.849   1.321  17.220 -2.8563 -1.1272 -1.6434
 4277SOL    HW224291   1.859   1.347  17.367 -0.9058  0.1486  0.1119
 4278SOL     OW24292   4.720   3.507   3.059 -0.0872 -0.2449  0.0416
 4278SOL    HW124293   4.653   3.576   3.060 -0.7158 -0.8798  1.6119
 4278SOL    HW224294   4.718   3.492   3.153 -1.0382 -0.3009  0.0141
 4279SOL     OW24295   1.490   3.506   7.044 -0.6283 -0.3829 -0.2678
 4279SOL    HW124296   1.518   3.452   7.117 -1.7230  1.4133  1.4710
 4279SOL    HW224297   1.558   3.488   6.979 -1.2285 -0.9899 -0.7282
 4280SOL     OW24298   2.602   4.439   3.954  0.2540  0.1071 -0.5699
 4280SOL    HW124299   2.696   4.420   3.951  0.3313  0.8351 -2.8281
 4280SOL    HW224300   2.583   4.360   3.903  0.3210  1.0643 -2.0753
 4281SOL     OW24301   4.046   0.150   8.468 -0.2501 -0.0081  0.5015
 4281SOL    HW124302   4.119   0.104   8.510  0.2929 -0.1987 -0.6605
 4281SOL    HW224303   3.976   0.135   8.531  0.0640 -0.0300  0.8424
 4282SOL     OW24304   1.386   1.145   1.746  0.4220  0.2604  0.2085
 4282SOL    HW124305   1.467   1.095   1.756  1.1931  1.2726 -0.9295
 4282SOL    HW224306   1.407   1.223   1.696 -0.8773  1.0228  0.8574
 4283SOL     OW24307   4.362   3.538   1.141 -0.1575 -0.0680 -0.3992
 4283SOL    HW124308   4.383   3.447   1.120 -0.0444  0.0446 -0.7872
 4283SOL    HW224309   4.304   3.528   1.216  0.0377  0.2950 -0.1957
 4284SOL     OW24310   4.375   3.450   5.890  0.0595  0.4193 -0.1031
 4284SOL    HW124311   4.439   3.410   5.831 -0.2328  1.1431 -0.9063
 4284SOL    HW224312   4.301   3.474   5.834 -0.8083 -1.5460  0.2087
 4285SOL     OW24313   3.224   3.083  16.076 -0.1865  0.6097  0.2379
 4285SOL    HW124314   3.183   3.048  15.997  1.0617 -2.2264  0.8212
 4285SOL    HW224315   3.157   3.060  16.141  0.8172 -2.2932  0.2533
 4286SOL     OW24316   4.638   2.905   9.410  0.1796  0.0565  0.3394
 4286SOL    HW124317   4.689   2.954   9.346  0.1427 -0.6629 -0.2312
 4286SOL    HW224318   4.560   2.885   9.358 -0.3457  1.2249  0.6681
 4287SOL     OW24319   3.130   2.446   5.056  0.1750  0.2743 -0.3651
 4287SOL    HW124320   3.154   2.354   5.048 -1.2546 -0.2897  1.8691
 4287SOL    HW224321   3.061   2.447   5.122  1.0071  2.1535  0.4665
 4288SOL     OW24322   2.256   0.647   7.061 -0.2023 -0.3629  0.4420
 4288SOL    HW124323   2.317   0.576   7.084  0.8472 -0.1719 -1.7939
 4288SOL    HW224324   2.173   0.618   7.100  0.3727 -1.4820  0.8379
 4289SOL     OW24325   2.265   0.527   6.373 -0.4273 -0.3966 -0.7378
 4289SOL    HW124326   2.274   0.592   6.304  2.0069  2.1583  2.0010
 4289SOL    HW224327   2.239   0.449   6.323  0.3208 -1.5178  0.6087
 4290SOL     OW24328   4.472   0.376  12.865  0.6311  0.0104 -0.2991
 4290SOL    HW124329   4.455   0.291  12.825  1.5202  0.1373 -0.9516
 4290SOL    HW224330   4.557   0.352  12.903  1.5455  0.9452 -1.7521
 4291SOL     OW24331   2.473   1.129   4.282  0.0957 -0.7162 -0.4455
 4291SOL    HW124332   2.471   1.087   4.368  0.3837 -1.7456 -0.9309
 4291SOL    HW224333   2.545   1.192   4.283 -0.7664  0.2483  0.1283
 4292SOL     OW24334   3.097   1.892   5.419  0.3302 -0.3898  0.0808
 4292SOL    HW124335   3.069   1.965   5.475  1.3238 -0.1973  0.3160
 4292SOL    HW224336   3.185   1.923   5.396 -0.7245  0.7165 -2.5044
 4293SOL     OW24337   0.186   2.398  17.650 -0.1257 -0.3142  0.2589
 4293SOL    HW124338   0.210   2.331   0.016  1.2922 -0.0848 -0.0371
 4293SOL    HW224339   0.138   2.458   0.008 -0.0323 -0.6764  0.7180
 4294SOL     OW24340   0.245   0.688   2.856  0.0455 -0.0813 -0.1579
 4294SOL    HW124341   0.234   0.631   2.779  0.4498  1.0423 -1.0475
 4294SOL    HW224342   0.261   0.624   2.926 -0.3348  0.0343  0.0312
 4295SOL     OW24343   2.776   1.854   4.072  0.3313 -0.3619 -0.3388
 4295SOL    HW124344   2.812   1.768   4.090  0.0576 -0.3751  0.1639
 4295SOL    HW224345   2.813   1.858   3.985  0.4682  0.5778 -0.2371
 4296SOL     OW24346   1.068   0.275   8.437 -0.5156  0.1232  0.3429
 4296SOL    HW124347   0.981   0.239   8.420  0.2035 -0.6867 -1.5872
 4296SOL    HW224348   1.102   0.226   8.512 -1.8185 -1.0523  0.1656
 4297SOL     OW24349   3.854   0.300  16.918  0.7545  0.0048  0.4005
 4297SOL    HW124350   3.887   0.284  16.829  0.7959 -2.2470  0.8049
 4297SOL    HW224351   3.907   0.242  16.973  2.1971  0.7662 -0.1749
 4298SOL     OW24352   4.684   3.834   9.319 -0.4713 -0.1571 -0.2216
 4298SOL    HW124353   4.684   3.772   9.246  0.8533 -0.8126  0.3406
 4298SOL    HW224354   4.592   3.827   9.347 -0.6252  0.6178 -0.5169
 4299SOL     OW24355   4.134   1.243   4.993 -0.3101  0.0269  0.3811
 4299SOL    HW124356   4.151   1.305   5.065  1.5253 -0.6316  0.5264
 4299SOL    HW224357   4.191   1.271   4.921 -1.5816  3.6875  0.8120
 4300SOL     OW24358   0.959   1.779  10.016  0.0134 -0.1576  0.0984
 4300SOL    HW124359   0.967   1.859  10.067 -2.2203 -0.5240  1.0409
 4300SOL    HW224360   0.898   1.723  10.063 -1.0657  0.8563 -0.0953
 4301SOL     OW24361   3.402   2.866  15.627  0.5010 -0.6218 -0.2886
 4301SOL    HW124362   3.435   2.846  15.715  0.9002  0.9759 -0.0807
 4301SOL    HW224363   3.356   2.784  15.606 -2.1079  0.5183  0.9098
 4302SOL     OW24364   3.307   1.755  10.437  0.0637  0.4085 -0.2562
 4302SOL    HW124365   3.287   1.811  10.362  1.0756 -0.5044 -1.1971
 4302SOL    HW224366   3.401   1.741  10.432  0.5385  2.3046  3.1753
 4303SOL     OW24367   3.419   1.987   4.996  0.1616 -0.1247 -0.0523
 4303SOL    HW124368   3.460   1.901   5.001 -2.7435 -1.4749  0.7193
 4303SOL    HW224369   3.485   2.022   4.936  0.0084  0.4945  0.1381
 4304SOL     OW24370   3.318   2.357   5.985 -0.2661 -0.2581 -0.2834
 4304SOL    HW124371   3.362   2.414   6.050  0.8309 -1.2043 -0.1962
 4304SOL    HW224372   3.397   2.312   5.956 -0.6872  0.2228 -2.1211
 4305SOL     OW24373   4.428   3.256  10.899 -0.1013  0.5355  0.6248
 4305SOL    HW124374   4.346   3.295  10.867  0.0149  0.4828  0.2653
 4305SOL    HW224375   4.397   3.189  10.960  0.9653 -0.1562  0.4019
 4306SOL     OW24376   2.396   2.356   2.323  0.0880 -0.2000  0.3973
 4306SOL    HW124377   2.313   2.314   2.344 -0.8471  0.8101 -1.3283
 4306SOL    HW224378   2.358   2.405   2.251 -0.3183 -0.0921  0.6874
 4307SOL     OW24379   0.870   4.397   1.639 -0.8482  0.1362  0.8173
 4307SOL    HW124380   0.834   4.364   1.557 -0.7656 -0.4836  1.0314
 4307SOL    HW224381   0.900   4.484   1.614  0.2409  0.2003  2.3422
 4308SOL     OW24382   2.136   0.285   6.207 -0.0457  0.2280 -0.0141
 4308SOL    HW124383   2.085   0.235   6.270  1.5278  1.1575  1.9837
 4308SOL    HW224384   2.088   0.258   6.129  0.6811  0.6454 -0.6119
 4309SOL     OW24385   0.602   0.754  16.538 -0.1268 -0.6416  0.2088
 4309SOL    HW124386   0.624   0.751  16.445 -0.4350  0.0392  0.1150
 4309SOL    HW224387   0.653   0.833  16.557  1.1002 -1.4765  0.4228
 4310SOL     OW24388   2.074   4.162   0.937  0.2536  0.5045 -0.4491
 4310SOL    HW124389   2.154   4.168   0.989 -1.1412  1.6905  1.5460
 4310SOL    HW224390   2.099   4.095   0.873 -0.8787 -0.0249 -0.3311
 4311SOL     OW24391   0.955   2.504   1.851 -0.0732  0.5174 -0.0010
 4311SOL    HW124392   1.003   2.459   1.780  1.2524 -0.6773  1.6582
 4311SOL    HW224393   0.868   2.473   1.826  0.2087  0.1316 -0.5191
 4312SOL     OW24394   2.374   0.319  16.265  0.4775 -0.3188  0.1347
 4312SOL    HW124395   2.375   0.411  16.290  2.4216 -0.2091 -0.3879
 4312SOL    HW224396   2.379   0.269  16.346 -0.3408 -3.9679 -2.0476
 4313SOL     OW24397   3.350   2.178   3.293 -0.2893  0.2121  0.2337
 4313SOL    HW124398   3.374   2.100   3.343  0.8206  0.3231 -0.1325
 4313SOL    HW224399   3.267   2.211   3.327 -0.7181  2.8085 -3.2724
 4314SOL     OW24400   2.248   0.834   0.677  0.5122 -0.0250  0.0488
 4314SOL    HW124401   2.332   0.803   0.645  0.4657 -0.5431  0.4359
 4314SOL    HW224402   2.229   0.907   0.617  0.5956 -0.0428  0.0023
 4315SOL     OW24403   4.142   1.459   9.854  0.5728 -0.4425 -0.5229
 4315SOL    HW124404   4.175   1.506   9.931 -1.4572 -0.0408  0.1076
 4315SOL    HW224405   4.208   1.478   9.786  1.0786 -3.5401 -0.8765
 4316SOL     OW24406   1.770   2.926   0.749 -0.1257  0.0844 -0.2244
 4316SOL    HW124407   1.837   2.919   0.818  0.3549  1.9319 -0.5138
 4316SOL    HW224408   1.750   3.018   0.766  1.8386  0.2982  0.9933
 4317SOL     OW24409   1.376   2.279   4.426  0.0513  0.1714  0.2510
 4317SOL    HW124410   1.289   2.283   4.386  0.2578  0.9521 -0.1033
 4317SOL    HW224411   1.428   2.283   4.346  0.2055 -0.5840  0.3104
 4318SOL     OW24412   3.116   2.706  15.766  0.1219  0.1492  0.1727
 4318SOL    HW124413   3.118   2.800  15.783 -0.5946 -0.0364  1.3184
 4318SOL    HW224414   3.041   2.696  15.707  0.6823  1.9416 -0.8300
 4319SOL     OW24415   2.193   3.641  10.301  0.5920  0.0557 -0.0829
 4319SOL    HW124416   2.179   3.692  10.381 -1.5303  0.3363 -0.6337
 4319SOL    HW224417   2.106   3.604  10.290  0.7127  0.3608 -2.1762
 4320SOL     OW24418   0.765   1.520   2.944 -0.5771 -0.8078 -0.2448
 4320SOL    HW124419   0.788   1.485   2.858  1.1089 -0.5207  0.0745
 4320SOL    HW224420   0.696   1.579   2.914 -0.4837  0.2694  1.6690
 4321SOL     OW24421   4.200   0.102   7.417  0.1434  0.5604  0.1512
 4321SOL    HW124422   4.241   0.166   7.476  1.1752 -1.1494  1.2953
 4321SOL    HW224423   4.230   0.029   7.471 -0.1907  0.5069  0.2662
 4322SOL     OW24424   3.550   0.742   1.958 -0.0051 -0.2103 -0.1217
 4322SOL    HW124425   3.545   0.650   1.932  0.5185 -0.3798  0.3957
 4322SOL    HW224426   3.612   0.730   2.030  0.3438 -2.5186 -0.8018
 4323SOL     OW24427   2.689   2.843   5.391 -0.4498  0.5128  0.5911
 4323SOL    HW124428   2.686   2.835   5.486  0.8068  1.2023  0.6844
 4323SOL    HW224429   2.728   2.757   5.378 -2.0593 -0.7901  4.3190
 4324SOL     OW24430   0.384   4.231  11.906 -0.1410  0.5832 -0.9575
 4324SOL    HW124431   0.475   4.249  11.930 -0.1283  0.2898 -0.7877
 4324SOL    HW224432   0.405   4.155  11.853  2.0257  0.8593 -0.5290
 4325SOL     OW24433   0.982   4.295   2.374  0.0695 -1.1498 -0.1992
 4325SOL    HW124434   1.008   4.268   2.286  0.8129  1.7872 -0.8649
 4325SOL    HW224435   0.890   4.266   2.372 -1.0717  2.6006 -1.8922
 4326SOL     OW24436   3.585   1.884   9.161  1.0710 -0.5402 -0.1812
 4326SOL    HW124437   3.595   1.857   9.070 -1.2848  0.6190 -0.7765
 4326SOL    HW224438   3.674   1.862   9.188  1.3421  0.3413 -0.3602
 4327SOL     OW24439   4.505   1.314  13.820 -0.0347  0.0353  0.0816
 4327SOL    HW124440   4.542   1.327  13.907 -0.9068  1.7887  0.1775
 4327SOL    HW224441   4.434   1.254  13.845  1.4211 -0.8029  2.2386
 4328SOL     OW24442   0.029   4.156   3.287 -0.2518 -0.3621 -0.4145
 4328SOL    HW124443   0.019   4.072   3.244 -0.6255 -0.3806 -0.2968
 4328SOL    HW224444   4.667   4.166   3.329  0.9140  0.7782  1.7074
 4329SOL     OW24445   2.882   2.115   4.965  0.2076 -0.2920  0.1967
 4329SOL    HW124446   2.968   2.097   5.002  0.7331  2.3892  0.2228
 4329SOL    HW224447   2.833   2.121   5.048  0.8232 -0.7954  0.5981
 4330SOL     OW24448   0.395   1.042   8.050 -0.6032 -0.2657 -0.6911
 4330SOL    HW124449   0.313   1.004   8.018  0.2955  0.6900 -4.1027
 4330SOL    HW224450   0.369   1.084   8.132 -0.4960  0.1670 -0.8809
 4331SOL     OW24451   1.069   2.531   2.471 -0.6121  0.4750 -0.2496
 4331SOL    HW124452   1.086   2.512   2.379  0.6657  1.0625 -0.1299
 4331SOL    HW224453   1.159   2.525   2.503 -0.0037 -0.9146 -2.3073
 4332SOL     OW24454   1.164   2.853   3.088  0.3431  0.3266 -0.0491
 4332SOL    HW124455   1.135   2.884   3.003  1.1274  1.2158  0.0058
 4332SOL    HW224456   1.077   2.833   3.123  0.1951 -0.4533 -0.8792
 4333SOL     OW24457   4.269   3.498   9.426  0.0419 -0.3858  0.1514
 4333SOL    HW124458   4.279   3.536   9.514 -1.4087 -0.7662  0.4754
 4333SOL    HW224459   4.297   3.408   9.440 -1.6061 -0.8759  0.2740
 4334SOL     OW24460   1.595   0.097  11.342 -0.6460 -0.5453  0.0308
 4334SOL    HW124461   1.669   0.153  11.365 -0.5588 -0.9855  0.8174
 4334SOL    HW224462   1.641   0.041  11.280 -0.2094 -0.1135 -0.0297
 4335SOL     OW24463   1.272   2.054   6.352  0.6620 -0.5242  0.5145
 4335SOL    HW124464   1.293   2.028   6.263 -2.1694 -3.0900  0.5960
 4335SOL    HW224465   1.265   1.968   6.393 -1.9112 -2.2195 -3.4649
 4336SOL     OW24466   0.023   4.298  11.597  0.0466  0.7257  0.4529
 4336SOL    HW124467   0.042   4.206  11.581  1.3474  0.7170  1.9744
 4336SOL    HW224468   4.702   4.304  11.682 -0.2104 -0.5960  0.3943
 4337SOL     OW24469   3.544   2.495  15.761  0.0003  0.0866 -0.1443
 4337SOL    HW124470   3.504   2.536  15.684 -2.4228  1.1429  1.6928
 4337SOL    HW224471   3.630   2.537  15.757 -0.8131  1.7699 -0.0654
 4338SOL     OW24472   4.260   0.501   4.535 -0.2892 -0.2742  0.3519
 4338SOL    HW124473   4.335   0.560   4.542 -0.7712  0.6552 -2.4001
 4338SOL    HW224474   4.190   0.561   4.509 -1.0036 -1.4768 -0.4872
 4339SOL     OW24475   0.854   4.575   2.433 -0.1936 -0.9383  0.2455
 4339SOL    HW124476   0.901   4.492   2.446 -0.1274 -0.7569  1.1215
 4339SOL    HW224477   0.920   4.641   2.454 -0.7405 -0.1500 -0.5144
 4340SOL     OW24478   2.155   0.528  11.083  0.3069  0.0268  0.8797
 4340SOL    HW124479   2.064   0.502  11.101  0.8942 -1.6661  1.3912
 4340SOL    HW224480   2.175   0.485  11.000  0.6132 -1.4862  1.7377
 4341SOL     OW24481   4.354   3.258   9.374 -0.7233 -0.3307  0.1817
 4341SOL    HW124482   4.399   3.199   9.434 -3.1798 -1.2475  1.1089
 4341SOL    HW224483   4.268   3.216   9.371  0.5882 -3.0062  0.1101
 4342SOL     OW24484   3.996   0.121  17.042 -0.1377 -0.7613 -0.3669
 4342SOL    HW124485   4.020   0.058  16.974  1.2122 -0.2881 -0.3376
 4342SOL    HW224486   3.971   0.063  17.113 -0.2546  0.0808  0.2826
 4343SOL     OW24487   3.698   4.623   6.406 -0.6000  0.1545 -0.7256
 4343SOL    HW124488   3.723   4.556   6.470  0.0403  1.9587  0.9235
 4343SOL    HW224489   3.696   4.704   6.457 -1.7987 -0.2440 -0.1435
 4344SOL     OW24490   4.073   1.777   8.688  0.5214 -0.5373  0.1551
 4344SOL    HW124491   4.168   1.777   8.698  0.6715 -1.5828 -1.1958
 4344SOL    HW224492   4.061   1.706   8.625 -3.4540  2.6219 -2.7220
 4345SOL     OW24493   3.528   0.945  13.814  0.2048  0.3546 -0.1909
 4345SOL    HW124494   3.567   0.908  13.734 -1.6914  1.2755 -1.5370
 4345SOL    HW224495   3.571   1.030  13.818  0.1580  0.3618  0.0974
 4346SOL     OW24496   1.046   3.326  16.301  0.2262 -0.4468 -0.1129
 4346SOL    HW124497   1.134   3.302  16.272  0.3790  0.6551 -0.5836
 4346SOL    HW224498   1.006   3.239  16.302  1.3390 -0.9672 -0.5645
 4347SOL     OW24499   3.267   2.535  12.613  0.4283 -0.1383  0.6490
 4347SOL    HW124500   3.285   2.493  12.697  3.0549 -2.7383 -1.2630
 4347SOL    HW224501   3.337   2.600  12.611  0.4592 -0.1241  1.9375
 4348SOL     OW24502   1.408   4.260  10.169  0.1073  0.2460 -0.7541
 4348SOL    HW124503   1.417   4.193  10.101  2.1668  0.6408 -0.8844
 4348SOL    HW224504   1.479   4.313  10.131  0.6124  0.1600  0.0815
 4349SOL     OW24505   2.027   3.047   6.434  0.0022  0.0578 -0.2269
 4349SOL    HW124506   2.077   3.129   6.435  1.5730 -0.9008 -0.9593
 4349SOL    HW224507   2.084   3.000   6.374 -0.3823 -1.8059  0.8636
 4350SOL     OW24508   1.522   1.191  11.534 -0.2974  0.4416  0.1060
 4350SOL    HW124509   1.437   1.235  11.539 -0.9782 -0.7106 -1.2680
 4350SOL    HW224510   1.549   1.211  11.445  0.2240 -2.6489 -0.4210
 4351SOL     OW24511   2.641   3.932   3.008  0.1525 -0.5430 -0.8418
 4351SOL    HW124512   2.670   3.913   3.097  0.7241 -1.7342 -1.2893
 4351SOL    HW224513   2.707   3.990   2.970  0.9838 -0.5741  0.5518
 4352SOL     OW24514   0.296   2.732   2.595  0.3253 -0.4749  0.1546
 4352SOL    HW124515   0.323   2.806   2.650 -0.6426 -0.2279  0.3074
 4352SOL    HW224516   0.200   2.733   2.591  0.2567 -2.4801  1.2709
 4353SOL     OW24517   3.824   1.131   7.010 -0.7842  0.1599 -0.1057
 4353SOL    HW124518   3.813   1.045   7.052 -0.4407  0.6858  1.0552
 4353SOL    HW224519   3.738   1.170   7.029 -1.3205 -0.7936 -0.5594
 4354SOL     OW24520   4.296   0.324   5.064  0.2416 -0.0076 -0.5354
 4354SOL    HW124521   4.357   0.398   5.055  1.1697 -0.5169  1.5106
 4354SOL    HW224522   4.346   0.248   5.093  0.1201  0.6565  1.4607
 4355SOL     OW24523   3.716   1.117   1.954 -0.2247 -0.0105  0.5180
 4355SOL    HW124524   3.768   1.138   1.876  3.0592 -1.2266  2.3559
 4355SOL    HW224525   3.706   1.195   2.008 -2.1958  1.6207 -2.2427
 4356SOL     OW24526   3.181   0.562   0.092 -0.0216 -0.1759 -0.3218
 4356SOL    HW124527   3.217   0.560   0.004  1.0471  0.1175  0.1148
 4356SOL    HW224528   3.185   0.471   0.119  2.1564  0.8897  2.9308
 4357SOL     OW24529   1.138   2.218   5.123 -0.4012  0.0249 -0.0452
 4357SOL    HW124530   1.074   2.247   5.188  0.2273  0.1582  0.5152
 4357SOL    HW224531   1.139   2.287   5.057 -0.1895 -0.2602 -0.3366
 4358SOL     OW24532   0.383   3.317   2.418 -0.3298  0.1827 -0.2081
 4358SOL    HW124533   0.313   3.263   2.382 -1.4505  0.3918  1.6393
 4358SOL    HW224534   0.392   3.383   2.350 -0.8676  1.8935  1.3887
 4359SOL     OW24535   3.152   3.558   6.303 -0.4603  0.4184  0.1724
 4359SOL    HW124536   3.160   3.653   6.295 -0.7774  0.4290 -0.0391
 4359SOL    HW224537   3.064   3.559   6.341 -0.5693  1.6554 -0.1175
 4360SOL     OW24538   4.202   2.006   2.778  0.1022  0.3967  0.0392
 4360SOL    HW124539   4.205   1.957   2.696  0.1136 -0.4179  0.5275
 4360SOL    HW224540   4.116   1.984   2.813  0.6742 -2.2674 -0.2376
 4361SOL     OW24541   1.061   4.348   3.496 -0.0429  0.5654  0.2373
 4361SOL    HW124542   1.135   4.293   3.523  0.2446  1.4643  1.2607
 4361SOL    HW224543   1.003   4.327   3.569  0.5046 -0.5109  0.3650
 4362SOL     OW24544   1.736   4.351  17.497  0.2313  0.4128 -0.3897
 4362SOL    HW124545   1.664   4.414  17.505  0.4765  0.8652 -1.7873
 4362SOL    HW224546   1.792   4.374  17.571 -1.5390  1.3935  0.6439
 4363SOL     OW24547   0.799   4.688  10.773  0.0002 -0.1849  0.2287
 4363SOL    HW124548   0.816   4.651  10.860 -0.4879 -1.0653 -0.0472
 4363SOL    HW224549   0.778   4.619  10.710 -0.3317 -1.0087  1.2286
 4364SOL     OW24550   2.527   3.389  13.946 -0.3594 -0.1095 -0.3454
 4364SOL    HW124551   2.616   3.353  13.941 -1.3891 -2.8410  0.6503
 4364SOL    HW224552   2.518   3.432  13.862  2.6675 -2.4079 -1.8460
 4365SOL     OW24553   2.621   2.659   7.114 -0.0387  0.0572 -0.3329
 4365SOL    HW124554   2.713   2.658   7.086  0.0375 -0.2878 -0.0622
 4365SOL    HW224555   2.628   2.736   7.170  1.2026  0.8281 -1.5309
 4366SOL     OW24556   0.828   4.072  12.203 -0.1332 -0.2638 -0.5819
 4366SOL    HW124557   0.882   4.030  12.270  0.5890  0.3325 -0.7959
 4366SOL    HW224558   0.889   4.089  12.132  0.0737  1.9319  0.1246
 4367SOL     OW24559   3.907   1.588  11.717 -0.6802  0.3282 -0.2942
 4367SOL    HW124560   3.996   1.571  11.748 -0.9474  1.4902  1.1419
 4367SOL    HW224561   3.912   1.679  11.687 -1.6847 -0.2716 -2.2411
 4368SOL     OW24562   1.228   2.559   3.480  0.2053  0.7787 -0.2951
 4368SOL    HW124563   1.217   2.557   3.385 -0.7164  2.1572 -0.2034
 4368SOL    HW224564   1.322   2.547   3.491  0.1639  0.0857 -0.7047
 4369SOL     OW24565   0.405   0.318   7.396  0.3079 -0.1051 -0.0845
 4369SOL    HW124566   0.455   0.273   7.328 -0.1056 -3.5708  1.8950
 4369SOL    HW224567   0.441   0.407   7.391  1.8706 -0.7137  0.3145
 4370SOL     OW24568   2.463   1.717  15.044 -0.0135 -0.0611 -0.1896
 4370SOL    HW124569   2.500   1.663  15.114 -0.4461  0.7323  0.6674
 4370SOL    HW224570   2.542   1.736  14.994  1.1025  2.3154  2.4513
 4371SOL     OW24571   2.781   0.675  15.921 -0.7162  0.7065 -0.3579
 4371SOL    HW124572   2.803   0.678  16.014  4.2289 -1.3342 -1.4515
 4371SOL    HW224573   2.837   0.605  15.887  1.9510  1.8532  1.7709
 4372SOL     OW24574   4.027   0.978   8.273 -0.3120 -0.5624 -0.6541
 4372SOL    HW124575   4.118   0.993   8.299 -1.2255  1.6310  1.2989
 4372SOL    HW224576   3.996   0.925   8.347 -3.1273  0.5287 -1.0616
 4373SOL     OW24577   2.199   1.038   7.587 -0.1113 -0.2454 -0.0058
 4373SOL    HW124578   2.197   0.960   7.642  1.1502 -0.4120 -0.2027
 4373SOL    HW224579   2.294   1.051   7.590 -0.1507  0.0665 -0.0806
 4374SOL     OW24580   1.168   0.298   2.520 -0.2712  0.3856 -0.5790
 4374SOL    HW124581   1.163   0.293   2.424 -0.2801 -1.4908 -0.4750
 4374SOL    HW224582   1.260   0.324   2.523 -1.5656  5.1697 -1.0547
 4375SOL     OW24583   1.457   0.769   3.131 -0.0457  0.2753 -0.1880
 4375SOL    HW124584   1.505   0.777   3.213  0.1820 -0.5259 -0.2443
 4375SOL    HW224585   1.474   0.680   3.099 -0.7767  0.4568 -1.0803
 4376SOL     OW24586   0.490   0.706  11.660 -0.3642  0.2853 -0.1566
 4376SOL    HW124587   0.565   0.666  11.703 -1.0033  0.5223  1.1636
 4376SOL    HW224588   0.536   0.780  11.618  2.0824 -1.9809 -1.4765
 4377SOL     OW24589   1.268   1.836   4.278 -0.5034 -0.4675 -0.0341
 4377SOL    HW124590   1.280   1.860   4.186 -3.5934 -0.3188 -0.4122
 4377SOL    HW224591   1.220   1.916   4.299  1.8977  0.9946 -0.1312
 4378SOL     OW24592   2.907   0.670  11.757 -0.3973 -0.2450  0.2768
 4378SOL    HW124593   2.884   0.626  11.675  0.5502  1.3299 -0.8302
 4378SOL    HW224594   2.818   0.668  11.793 -0.1624 -1.2959  0.7803
 4379SOL     OW24595   0.492   1.478   5.599  0.2861  0.1238 -0.6246
 4379SOL    HW124596   0.430   1.550   5.613  0.7390  0.6215 -1.1776
 4379SOL    HW224597   0.441   1.442   5.527 -0.3204 -2.6245  1.1728
 4380SOL     OW24598   1.956   1.579   1.801  0.4278 -0.4922 -0.3671
 4380SOL    HW124599   1.912   1.514   1.855 -1.5883  0.4734 -0.8645
 4380SOL    HW224600   1.893   1.650   1.793  1.7481  0.9185  1.6892
 4381SOL     OW24601   4.329   2.138  14.954 -0.6131 -0.3271 -0.1112
 4381SOL    HW124602   4.404   2.186  14.989  0.5325 -0.7899 -1.9679
 4381SOL    HW224603   4.354   2.134  14.862 -0.4606 -1.7782 -0.0094
 4382SOL     OW24604   1.920   3.781   5.362 -0.4457 -0.3855  0.2067
 4382SOL    HW124605   1.959   3.762   5.447  1.5286 -1.3269 -0.9033
 4382SOL    HW224606   1.943   3.873   5.347 -2.3541 -0.1582 -1.3227
 4383SOL     OW24607   1.583   2.921   7.655  0.1994  0.6160 -0.0886
 4383SOL    HW124608   1.537   3.004   7.668 -0.3136  0.1455  1.0954
 4383SOL    HW224609   1.655   2.946   7.598  1.2441 -0.5491  0.7311
 4384SOL     OW24610   1.421   1.203   3.375 -0.4652 -0.6784 -0.3659
 4384SOL    HW124611   1.349   1.161   3.328 -1.2021  1.4500 -1.1242
 4384SOL    HW224612   1.488   1.207   3.307  0.2042 -1.9047  0.2258
 4385SOL     OW24613   1.137   0.894   8.155 -0.2477  0.0668 -0.0907
 4385SOL    HW124614   1.054   0.848   8.166  0.5669 -1.1479  1.0827
 4385SOL    HW224615   1.141   0.938   8.240 -1.0608  1.3265 -0.7104
 4386SOL     OW24616   1.429   2.965   6.531  0.0317 -0.1655 -0.5852
 4386SOL    HW124617   1.353   2.954   6.589  0.4036 -0.3805 -0.1417
 4386SOL    HW224618   1.492   2.911   6.578  0.3433  1.6276  1.0512
 4387SOL     OW24619   4.336   1.531   9.669 -0.0952  0.2626  1.0001
 4387SOL    HW124620   4.364   1.618   9.640 -0.3226 -0.2742 -0.8580
 4387SOL    HW224621   4.409   1.486   9.625 -0.4385  0.7267 -0.0442
 4388SOL     OW24622   0.979   0.971   4.388 -0.2794 -0.1814 -0.4354
 4388SOL    HW124623   0.892   1.009   4.375 -0.4725 -1.1227 -1.8086
 4388SOL    HW224624   1.031   1.051   4.379  0.7085 -0.9004 -1.0934
 4389SOL     OW24625   4.081   2.795   4.251  0.1049  0.6193  0.3174
 4389SOL    HW124626   4.000   2.811   4.300  1.2040 -0.4689  2.5071
 4389SOL    HW224627   4.107   2.717   4.300  0.2764 -0.0947 -0.9128
 4390SOL     OW24628   3.786   3.826   8.223  0.4995 -0.6141  0.3305
 4390SOL    HW124629   3.830   3.811   8.307  1.0829 -0.0389  0.1250
 4390SOL    HW224630   3.699   3.850   8.256 -0.6434 -0.3307 -2.9572
 4391SOL     OW24631   4.460   1.712   9.304 -0.2133  0.1847 -0.4062
 4391SOL    HW124632   4.505   1.795   9.316 -2.7739  1.3143  1.2976
 4391SOL    HW224633   4.539   1.657   9.297 -1.3190 -1.3722 -0.5925
 4392SOL     OW24634   1.346   2.266   3.907  0.3012  0.1838  0.0692
 4392SOL    HW124635   1.341   2.246   4.000 -1.3849  0.1906 -0.0269
 4392SOL    HW224636   1.440   2.260   3.890  0.7854  2.8787  1.9661
 4393SOL     OW24637   0.582   4.164  12.864 -0.1797 -0.5014  0.7262
 4393SOL    HW124638   0.541   4.216  12.934  0.1843  0.3668  0.2861
 4393SOL    HW224639   0.652   4.135  12.922  0.0789  1.1469  1.2233
 4394SOL     OW24640   1.588   3.738   5.535 -0.7158 -1.2953 -0.4306
 4394SOL    HW124641   1.583   3.729   5.630  0.5344  0.0635 -0.2462
 4394SOL    HW224642   1.554   3.823   5.506  0.1222 -0.7780  0.0948
 4395SOL     OW24643   1.771   1.589   7.689  0.5037 -0.2848  0.2134
 4395SOL    HW124644   1.690   1.635   7.712  0.1547  0.2353 -2.0112
 4395SOL    HW224645   1.753   1.545   7.605 -0.0026 -1.2650  0.8286
 4396SOL     OW24646   0.623   3.735   3.753  0.2254 -0.2986 -0.0943
 4396SOL    HW124647   0.533   3.725   3.784  0.3881 -0.6461  0.2791
 4396SOL    HW224648   0.617   3.744   3.658 -1.6592 -3.1473 -0.2480
 4397SOL     OW24649   3.010   1.499   7.761 -0.1052 -0.5181  0.2565
 4397SOL    HW124650   3.103   1.512   7.743 -1.0831  0.1295 -4.4164
 4397SOL    HW224651   2.992   1.413   7.722  0.3229  0.0668 -1.2573
 4398SOL     OW24652   2.709   0.825  14.599 -0.1529 -0.0900  0.0491
 4398SOL    HW124653   2.714   0.729  14.602  2.5674  0.0328 -0.6273
 4398SOL    HW224654   2.725   0.829  14.505 -1.9743 -0.6219 -0.2708
 4399SOL     OW24655   1.993   3.672  15.594  0.2857  0.3455  0.3108
 4399SOL    HW124656   2.006   3.766  15.606  1.4393  0.1699  0.4720
 4399SOL    HW224657   2.086   3.653  15.582  0.3435  1.0339 -0.4043
 4400SOL     OW24658   3.240   2.931   2.598  0.3136 -0.2122  0.3473
 4400SOL    HW124659   3.314   2.985   2.570  1.5847 -1.0752  2.0331
 4400SOL    HW224660   3.171   2.951   2.534  0.2074  0.1985  0.5916
 4401SOL     OW24661   2.693   1.218   8.458  0.3435  0.5015  0.9266
 4401SOL    HW124662   2.787   1.209   8.475  0.4259  0.9351  0.7098
 4401SOL    HW224663   2.650   1.159   8.519  0.2101 -0.6198 -0.2397
 4402SOL     OW24664   0.736   2.266   0.514 -0.0162  0.2075  1.0130
 4402SOL    HW124665   0.831   2.268   0.505  0.0108  1.2593  1.5236
 4402SOL    HW224666   0.728   2.243   0.606 -3.2409 -0.2456  0.6133
 4403SOL     OW24667   1.081   3.115  16.556 -0.3316  0.3541  0.2975
 4403SOL    HW124668   1.170   3.114  16.522 -0.9823 -0.8555 -1.3536
 4403SOL    HW224669   1.026   3.096  16.480 -0.7719 -0.9876  0.9472
 4404SOL     OW24670   3.014   3.063   4.216 -0.0929  0.1280 -0.2150
 4404SOL    HW124671   2.929   3.101   4.194  0.0210 -1.0967 -2.7918
 4404SOL    HW224672   3.076   3.100   4.153 -1.6760 -0.7458 -2.2991
 4405SOL     OW24673   2.037   4.211   8.505 -0.0632  0.4729 -0.4118
 4405SOL    HW124674   1.999   4.183   8.588  0.7603  0.4647 -0.0439
 4405SOL    HW224675   2.089   4.133   8.484  0.5505  0.0263  2.7358
 4406SOL     OW24676   1.612   4.384   8.551 -0.2479  0.0960 -0.0327
 4406SOL    HW124677   1.693   4.334   8.539  1.3477  2.2237  2.0568
 4406SOL    HW224678   1.571   4.333   8.621  0.0938 -2.7188 -1.8927
 4407SOL     OW24679   4.647   1.426   9.868  0.3191  0.0501  0.1000
 4407SOL    HW124680   4.637   1.486   9.794 -0.4268  0.8163  0.8158
 4407SOL    HW224681   4.614   1.472   9.945  0.4902 -0.5852  0.5593
 4408SOL     OW24682   4.433   2.411   5.966 -0.7756  0.1772 -0.2817
 4408SOL    HW124683   4.364   2.348   5.989 -0.1148 -0.3729  0.1947
 4408SOL    HW224684   4.443   2.460   6.047 -0.9178  0.0968 -0.2151
 4409SOL     OW24685   3.947   0.925  17.503 -0.5465 -0.1555  0.3063
 4409SOL    HW124686   4.016   0.935  17.568  0.2203 -0.8793 -0.3841
 4409SOL    HW224687   3.991   0.976  17.435  0.9629 -0.5078  1.0303
 4410SOL     OW24688   4.571   1.961   5.609 -0.9512  0.1479  0.1442
 4410SOL    HW124689   4.518   1.983   5.686 -1.6620  0.6366 -0.4880
 4410SOL    HW224690   4.510   1.975   5.537 -1.3841  1.8481  0.8425
 4411SOL     OW24691   1.423   1.839   3.438 -0.2819 -0.4040 -0.1332
 4411SOL    HW124692   1.367   1.864   3.365  1.8077  0.7240 -1.3265
 4411SOL    HW224693   1.370   1.879   3.508 -0.2181 -0.0207 -0.3042
 4412SOL     OW24694   1.308   3.140  12.219 -0.0118 -0.2397 -0.2353
 4412SOL    HW124695   1.386   3.191  12.241 -0.9662  0.5137  1.3010
 4412SOL    HW224696   1.319   3.139  12.124  0.8617  0.9580 -0.1499
 4413SOL     OW24697   0.502   2.437  14.042  0.5783  0.3100  0.1849
 4413SOL    HW124698   0.468   2.514  13.996 -1.5699  0.1547  1.5412
 4413SOL    HW224699   0.476   2.467  14.129 -2.6246  0.7623 -0.9209
 4414SOL     OW24700   1.473   3.296   4.455  0.0866 -0.1479 -0.2571
 4414SOL    HW124701   1.564   3.326   4.465  0.2802 -0.2517 -1.6456
 4414SOL    HW224702   1.428   3.345   4.523 -0.4967 -0.4811 -0.4019
 4415SOL     OW24703   1.894   0.770   4.665  0.5474  0.0441  0.1646
 4415SOL    HW124704   1.987   0.785   4.683  0.8820 -1.4144 -0.3564
 4415SOL    HW224705   1.865   0.854   4.628 -1.6531 -1.0092 -0.4559
 4416SOL     OW24706   4.073   2.318  13.637  0.2672  0.3365  0.2533
 4416SOL    HW124707   4.051   2.403  13.599  0.4525  1.3238  2.4029
 4416SOL    HW224708   4.001   2.313  13.700 -0.4484 -0.4809 -0.6332
 4417SOL     OW24709   0.971   2.245   3.197  0.3960  0.4911 -0.3566
 4417SOL    HW124710   1.047   2.267   3.251  0.7162 -0.8149 -0.2716
 4417SOL    HW224711   0.905   2.303   3.235  0.0753  0.0092 -0.1901
 4418SOL     OW24712   4.328   3.704   5.991  0.0327 -0.1783 -0.5327
 4418SOL    HW124713   4.368   3.617   5.981 -3.1652 -1.5153 -1.7860
 4418SOL    HW224714   4.239   3.687   5.962  0.0801  2.3209 -2.1236
 4419SOL     OW24715   2.903   3.551  15.113 -0.4309  0.1534  0.9691
 4419SOL    HW124716   2.932   3.531  15.202 -0.6359  2.5354  1.5626
 4419SOL    HW224717   2.940   3.477  15.065  0.4823  0.9375  0.4635
 4420SOL     OW24718   3.207   1.048   4.976  0.0324  0.0828 -0.0310
 4420SOL    HW124719   3.271   0.981   4.999 -0.3671 -0.5122 -0.6600
 4420SOL    HW224720   3.213   1.091   5.061 -0.1135  0.2322 -0.0966
 4421SOL     OW24721   0.902   1.368   1.486  0.1192  0.1677 -0.1044
 4421SOL    HW124722   0.895   1.278   1.520 -3.1329  0.0689 -1.0000
 4421SOL    HW224723   0.968   1.401   1.547  0.6553  1.6421 -1.4909
 4422SOL     OW24724   0.293   3.063   0.208  0.3463 -0.1932 -0.5808
 4422SOL    HW124725   0.246   3.000   0.263  1.4414 -1.6163 -1.2641
 4422SOL    HW224726   0.256   3.146   0.238  0.9005  0.1332 -0.7991
 4423SOL     OW24727   0.910   0.179   9.257 -0.0790  0.5540 -0.3426
 4423SOL    HW124728   0.955   0.195   9.174  1.8349 -2.4284  0.1487
 4423SOL    HW224729   0.912   0.266   9.297 -1.3526  0.7767 -0.7456
 4424SOL     OW24730   0.859   3.411   1.290  0.5029  0.2529 -0.0738
 4424SOL    HW124731   0.781   3.406   1.346 -0.8153  0.4955 -1.8813
 4424SOL    HW224732   0.926   3.367   1.343  0.7731  2.8507  1.7421
 4425SOL     OW24733   0.922   0.624  11.541 -0.4405 -0.1375  0.1997
 4425SOL    HW124734   0.886   0.707  11.571 -0.5638 -1.0398  2.5613
 4425SOL    HW224735   0.887   0.560  11.604 -1.6122  1.4736  1.1738
 4426SOL     OW24736   3.323   4.314   8.738  0.5873 -0.1345  0.2016
 4426SOL    HW124737   3.359   4.351   8.657  0.5075  1.3811  0.8574
 4426SOL    HW224738   3.228   4.319   8.729  0.5816  1.0829  0.9214
 4427SOL     OW24739   0.805   1.903   6.625 -0.3523 -0.3368 -0.0904
 4427SOL    HW124740   0.827   1.810   6.619  1.2798  0.0001  0.6014
 4427SOL    HW224741   0.780   1.921   6.534  1.8053  0.0362 -0.6018
 4428SOL     OW24742   1.622   0.729   2.493  0.6106 -0.1989  0.6527
 4428SOL    HW124743   1.549   0.758   2.548  0.0599 -1.9483  0.8590
 4428SOL    HW224744   1.572   0.669   2.438  2.6847 -0.5619 -0.8318
 4429SOL     OW24745   0.251   2.493  13.096 -0.0835 -0.3179  0.3686
 4429SOL    HW124746   0.327   2.549  13.081  0.2309 -1.1183 -0.9912
 4429SOL    HW224747   0.290   2.432  13.159  0.1319 -0.7217 -0.1613
 4430SOL     OW24748   3.632   1.005   3.195 -0.2648  0.2396 -0.0946
 4430SOL    HW124749   3.701   0.974   3.255 -0.3890  2.0548  0.9625
 4430SOL    HW224750   3.602   0.919   3.167 -0.1261  0.3784 -0.6644
 4431SOL     OW24751   0.816   3.016  14.996  0.2690 -0.5186 -0.2611
 4431SOL    HW124752   0.819   3.101  15.040 -0.8804 -0.6926  0.1429
 4431SOL    HW224753   0.866   3.039  14.917  2.8023 -0.0612  1.4795
 4432SOL     OW24754   3.093   1.858   8.611  0.5641  0.0963 -0.3711
 4432SOL    HW124755   3.050   1.777   8.581  0.0336  0.6550 -1.1158
 4432SOL    HW224756   3.102   1.908   8.530 -0.7181 -2.9743 -2.4540
 4433SOL     OW24757   0.319   0.723  10.775  0.1693  0.1921 -0.2198
 4433SOL    HW124758   0.338   0.807  10.818  1.1895  0.9368 -2.0951
 4433SOL    HW224759   0.253   0.748  10.709  0.8800  1.1549 -0.5652
 4434SOL     OW24760   0.921   1.746   2.991  0.4183  0.0968  0.2958
 4434SOL    HW124761   0.922   1.764   2.897  2.7297 -0.0483  0.2752
 4434SOL    HW224762   0.871   1.665   2.991 -0.0438  0.4029  2.6123
 4435SOL     OW24763   4.481   2.737   6.844  0.5531  0.3557 -0.5593
 4435SOL    HW124764   4.391   2.746   6.876  0.8934  1.8991 -0.0523
 4435SOL    HW224765   4.498   2.818   6.797  2.0520 -0.0620 -0.7313
 4436SOL     OW24766   4.141   3.401   3.656  0.3115  0.1730 -1.0586
 4436SOL    HW124767   4.124   3.491   3.628  0.3461 -0.3766 -2.8396
 4436SOL    HW224768   4.114   3.346   3.583 -2.9965  0.0180  0.2749
 4437SOL     OW24769   4.263   1.024  10.899  0.0640 -0.2603  0.0224
 4437SOL    HW124770   4.235   1.087  10.966 -0.8377 -1.9556  1.2469
 4437SOL    HW224771   4.222   1.050  10.817  2.3485  2.5003 -0.2512
 4438SOL     OW24772   1.449   3.027   2.623  0.1176 -0.5269 -0.2733
 4438SOL    HW124773   1.373   3.085   2.623 -0.1765 -0.9158 -2.0149
 4438SOL    HW224774   1.488   3.032   2.536  0.6424  1.5268  0.0694
 4439SOL     OW24775   3.169   3.556  11.108 -0.2383 -0.5371 -0.0334
 4439SOL    HW124776   3.173   3.563  11.013 -0.7281  1.0718  0.0622
 4439SOL    HW224777   3.250   3.600  11.131  0.2413 -0.5479 -1.6938
 4440SOL     OW24778   0.106   4.194   1.697 -0.1629  0.0154 -0.5251
 4440SOL    HW124779   0.113   4.276   1.745  0.8948 -0.8313  0.7900
 4440SOL    HW224780   0.151   4.133   1.756  1.2189  3.0665  1.5942
 4441SOL     OW24781   1.135   4.269   5.007 -0.0268 -0.4524 -0.0329
 4441SOL    HW124782   1.153   4.189   4.957 -0.8517 -0.1344 -0.8292
 4441SOL    HW224783   1.122   4.334   4.938  0.1505 -1.2420 -0.8155
 4442SOL     OW24784   2.306   1.547  17.024  0.5546  0.3472  0.0341
 4442SOL    HW124785   2.330   1.617  17.084  0.8925 -0.5215  0.9243
 4442SOL    HW224786   2.342   1.477  17.079  2.3605  1.8269  0.7272
 4443SOL     OW24787   2.911   3.024  11.428 -0.4136  0.2177 -0.3964
 4443SOL    HW124788   2.992   3.074  11.424 -1.1459  1.5780  1.5078
 4443SOL    HW224789   2.939   2.934  11.413 -1.1598 -0.1726  0.5299
 4444SOL     OW24790   1.695   4.716   7.418  0.2033  0.5203  0.0513
 4444SOL    HW124791   1.720   0.020   7.330  0.6574  0.0515  0.0326
 4444SOL    HW224792   1.642   4.638   7.399 -0.9624  1.1192  0.8459
 4445SOL     OW24793   3.730   1.268   3.313 -0.1392  0.3868 -0.7206
 4445SOL    HW124794   3.646   1.223   3.318  0.0317  0.0773 -0.6198
 4445SOL    HW224795   3.786   1.204   3.269  1.4763  1.0465  0.3306
 4446SOL     OW24796   1.521   4.720  10.923 -0.5454  0.0552 -0.5183
 4446SOL    HW124797   1.545   4.699  11.014 -2.9640  1.5560  0.4986
 4446SOL    HW224798   1.456   4.652  10.905 -0.5357 -0.0016 -0.3474
 4447SOL     OW24799   0.210   3.854   7.513  0.9283 -0.8385 -0.9228
 4447SOL    HW124800   0.172   3.853   7.600  0.2201 -0.9094 -1.2298
 4447SOL    HW224801   0.270   3.779   7.515  0.1605 -1.4022  0.7890
 4448SOL     OW24802   1.733   2.566   0.054  0.0219 -0.1445 -0.4872
 4448SOL    HW124803   1.727   2.472   0.070  1.1583 -0.0163  0.6427
 4448SOL    HW224804   1.720   2.574  17.658 -0.4446 -0.0540 -0.4157
 4449SOL     OW24805   4.355   1.167   7.199 -0.6987  0.2955 -0.8069
 4449SOL    HW124806   4.426   1.113   7.232 -3.2775 -2.0183  0.9206
 4449SOL    HW224807   4.400   1.251   7.186  0.4358  0.2793  3.2522
 4450SOL     OW24808   1.904   4.386  10.869  0.2600  0.1477  0.2515
 4450SOL    HW124809   1.818   4.360  10.901 -0.5961  1.6007 -0.8845
 4450SOL    HW224810   1.959   4.377  10.947  0.7093  2.1485  0.1548
 4451SOL     OW24811   3.732   1.409  11.837  0.1426 -0.2255  0.3729
 4451SOL    HW124812   3.788   1.475  11.794 -2.0882  2.5695  1.7491
 4451SOL    HW224813   3.767   1.402  11.926 -2.2365  0.0968  1.3439
 4452SOL     OW24814   2.809   3.006  12.278 -0.3368 -0.0250 -0.5162
 4452SOL    HW124815   2.839   3.090  12.315  0.8599 -2.3261  3.7313
 4452SOL    HW224816   2.748   3.035  12.210 -1.6904 -1.1828  0.2138
 4453SOL     OW24817   1.259   2.901   7.715  0.0435  0.6304 -0.3299
 4453SOL    HW124818   1.233   2.991   7.735 -0.9761  1.1442 -3.9982
 4453SOL    HW224819   1.240   2.893   7.621  0.6012  0.4330 -0.4242
 4454SOL     OW24820   1.199   3.732   4.253 -1.0453  0.6032 -0.1450
 4454SOL    HW124821   1.106   3.711   4.242 -1.2649  2.3519 -1.6248
 4454SOL    HW224822   1.236   3.683   4.180 -1.0378  1.3168 -0.6210
 4455SOL     OW24823   1.342   4.337   2.946  0.2607  0.3215  0.8431
 4455SOL    HW124824   1.426   4.383   2.952  0.0739  0.8698 -0.5014
 4455SOL    HW224825   1.309   4.318   3.033  0.7028  0.0671  0.9548
 4456SOL     OW24826   3.840   3.941  10.058 -0.2173  0.0965 -0.6930
 4456SOL    HW124827   3.794   3.931   9.975  1.9211  1.1574 -1.9979
 4456SOL    HW224828   3.778   3.889  10.109 -1.7175  1.6565 -0.9457
 4457SOL     OW24829   2.311   3.903   8.270  0.4760  0.0754  0.0108
 4457SOL    HW124830   2.297   3.834   8.335  0.3096 -1.4650 -1.6614
 4457SOL    HW224831   2.398   3.881   8.237  0.2921  0.1342 -0.5172
 4458SOL     OW24832   4.201   0.269   2.907 -0.2875 -0.1690 -0.8445
 4458SOL    HW124833   4.132   0.282   2.972  1.9806 -2.3806  2.0370
 4458SOL    HW224834   4.163   0.202   2.852 -0.0117 -1.3757  0.4467
 4459SOL     OW24835   0.533   0.042   7.823 -0.5580 -0.3536 -0.9075
 4459SOL    HW124836   0.574   4.682   7.842 -1.3767 -1.2344 -2.9781
 4459SOL    HW224837   0.449   0.013   7.788 -0.8833  0.2638 -0.6451
 4460SOL     OW24838   4.191   2.301   0.833 -0.5761  0.2266 -0.1025
 4460SOL    HW124839   4.103   2.318   0.867 -0.4424  0.4978  0.1078
 4460SOL    HW224840   4.202   2.383   0.785  3.3456 -0.6656 -0.7221
 4461SOL     OW24841   4.304   2.938   7.089 -0.0747  0.6442  0.1854
 4461SOL    HW124842   4.236   3.003   7.107 -1.1051  0.3010 -2.5601
 4461SOL    HW224843   4.379   2.989   7.059 -0.0374 -0.3846 -1.4718
 4462SOL     OW24844   3.329   3.254   4.701 -0.0645 -0.0036  0.4956
 4462SOL    HW124845   3.367   3.337   4.671 -1.0733  0.3297  0.1464
 4462SOL    HW224846   3.361   3.199   4.629  1.1681 -0.3470  1.3019
 4463SOL     OW24847   4.675   4.200  14.352 -0.2535  0.4695  0.0880
 4463SOL    HW124848   4.710   4.259  14.419  3.2141 -0.7338 -0.6607
 4463SOL    HW224849   4.719   4.115  14.360  0.9998  1.0944 -0.1103
 4464SOL     OW24850   2.030   4.153   9.093 -1.0362 -0.1694 -0.4166
 4464SOL    HW124851   2.007   4.233   9.047  0.6987 -0.1134 -1.1868
 4464SOL    HW224852   1.952   4.146   9.148 -0.4627 -1.8720  0.1983
 4465SOL     OW24853   2.089   2.399  14.024  0.4519 -0.1841 -0.1017
 4465SOL    HW124854   2.035   2.322  14.044  0.4134 -0.3440 -0.8390
 4465SOL    HW224855   2.057   2.471  14.079 -3.2969 -2.0502  0.1766
 4466SOL     OW24856   3.596   2.932   6.678 -0.3964  0.6736 -0.1316
 4466SOL    HW124857   3.509   2.907   6.647  0.8352 -1.9634 -1.4941
 4466SOL    HW224858   3.642   2.958   6.598 -0.1288  0.4397 -0.0528
 4467SOL     OW24859   2.916   3.521   8.546  0.1313 -0.1152 -0.2003
 4467SOL    HW124860   2.905   3.452   8.481 -0.5255 -0.7080  0.5413
 4467SOL    HW224861   2.826   3.545   8.568  0.0831 -1.1840  0.7830
 4468SOL     OW24862   1.779   2.517   2.639  0.8622 -0.7208 -0.7116
 4468SOL    HW124863   1.726   2.514   2.718  2.0066 -2.7630 -0.0441
 4468SOL    HW224864   1.721   2.506   2.564 -0.0011  0.8922 -0.2859
 4469SOL     OW24865   0.598   3.546   5.468  0.0145 -0.0526 -0.0604
 4469SOL    HW124866   0.633   3.627   5.430 -0.5029  0.6942  1.0665
 4469SOL    HW224867   0.609   3.567   5.560  1.1554  0.7363 -0.3710
 4470SOL     OW24868   3.395   3.460   1.026  0.3590  0.6167  0.4976
 4470SOL    HW124869   3.354   3.546   1.021  0.2494  0.4206 -2.0902
 4470SOL    HW224870   3.344   3.408   0.964  0.4178 -0.4284  1.3134
 4471SOL     OW24871   1.814   0.118   1.198 -0.6884  0.6257  0.9001
 4471SOL    HW124872   1.899   0.083   1.222 -0.8933 -0.6076 -0.1636
 4471SOL    HW224873   1.760   0.040   1.184  0.7103 -0.1810  0.0074
 4472SOL     OW24874   3.442   2.736  12.609  0.3749 -0.1139 -0.6196
 4472SOL    HW124875   3.367   2.787  12.640 -0.5413 -0.8655 -1.5868
 4472SOL    HW224876   3.508   2.775  12.666 -0.2311  0.1987 -0.1418
 4473SOL     OW24877   1.173   1.340  14.761  0.0141 -0.1787  0.1855
 4473SOL    HW124878   1.188   1.375  14.673 -1.5679 -0.4146 -0.1785
 4473SOL    HW224879   1.224   1.259  14.765  1.7409  0.9156  0.3364
 4474SOL     OW24880   2.252   4.153   7.773 -0.6255  0.0987  0.1037
 4474SOL    HW124881   2.159   4.135   7.789 -0.6369 -2.7586 -3.0780
 4474SOL    HW224882   2.248   4.188   7.684  0.9541 -0.6582 -0.2756
 4475SOL     OW24883   4.699   3.907   8.467 -0.0492  0.3623  0.6403
 4475SOL    HW124884   0.017   3.874   8.546  0.9683  1.2807  0.4716
 4475SOL    HW224885   4.673   3.826   8.422  0.2542  0.8899 -0.4950
 4476SOL     OW24886   3.844   1.197   3.585 -0.0718  0.2261  0.2414
 4476SOL    HW124887   3.937   1.174   3.573  0.1542  1.6153 -0.7063
 4476SOL    HW224888   3.803   1.191   3.499 -0.1498  0.2523  0.2772
 4477SOL     OW24889   1.678   2.819   4.490 -0.8405 -0.8935  0.2250
 4477SOL    HW124890   1.634   2.764   4.555  1.1776  1.0317  3.2321
 4477SOL    HW224891   1.694   2.898   4.542 -2.2393  0.2759 -1.1337
 4478SOL     OW24892   3.040   1.457  11.194 -0.6365  0.1481 -0.0813
 4478SOL    HW124893   3.054   1.422  11.106  2.7344 -1.2102  1.0036
 4478SOL    HW224894   3.131   1.453  11.225 -0.5247  0.3129 -0.3826
 4479SOL     OW24895   0.247   2.299   1.794 -0.3221  0.2842 -0.5786
 4479SOL    HW124896   0.214   2.372   1.742 -0.3479  0.6829 -0.0020
 4479SOL    HW224897   0.321   2.345   1.836  1.5308 -2.2307 -1.0940
 4480SOL     OW24898   3.546   3.269  15.362  0.0740 -0.5695 -0.4052
 4480SOL    HW124899   3.512   3.185  15.393  1.4430  0.5478  4.0688
 4480SOL    HW224900   3.486   3.282  15.288 -0.0194 -0.3019 -0.2790
 4481SOL     OW24901   2.771   3.239  13.317 -0.0319 -0.0600 -0.7391
 4481SOL    HW124902   2.744   3.202  13.232  0.4618 -1.2233 -0.3877
 4481SOL    HW224903   2.685   3.265  13.349  0.4239  1.4310 -0.7535
 4482SOL     OW24904   3.593   4.690  12.396  0.1764  0.0094 -0.2374
 4482SOL    HW124905   3.634   4.604  12.406 -1.9006 -0.4554  4.6346
 4482SOL    HW224906   3.593   4.714  12.489  0.4077 -2.0972  0.3234
 4483SOL     OW24907   1.059   4.211   9.093  0.0825  0.0477  0.1190
 4483SOL    HW124908   0.996   4.234   9.161 -1.7803  1.9343 -2.2376
 4483SOL    HW224909   1.102   4.128   9.115  1.1753  0.9059  1.2549
 4484SOL     OW24910   4.401   2.711   7.199 -0.1594 -0.3653 -0.1104
 4484SOL    HW124911   4.379   2.788   7.146  2.0927  0.4740  0.1932
 4484SOL    HW224912   4.328   2.716   7.261 -0.3436  1.0550 -0.4544
 4485SOL     OW24913   3.164   4.358  14.926 -0.2669  0.5324  0.0750
 4485SOL    HW124914   3.194   4.357  14.835 -0.0036 -0.3507  0.1646
 4485SOL    HW224915   3.182   4.451  14.938  1.6351  0.1214  0.3598
 4486SOL     OW24916   0.071   3.292   6.212 -0.1735  0.3472 -0.6373
 4486SOL    HW124917   0.002   3.316   6.150 -2.1294  0.7773  1.6971
 4486SOL    HW224918   0.134   3.361   6.192 -0.3428  1.4697  2.7666
 4487SOL     OW24919   0.919   3.796   5.895 -0.1887 -0.3364  0.2589
 4487SOL    HW124920   0.968   3.866   5.937  0.1531  0.0969 -0.8568
 4487SOL    HW224921   0.841   3.846   5.869 -0.4514 -0.3948  0.9225
 4488SOL     OW24922   3.989   3.317   9.884  0.3674 -0.0746 -0.6362
 4488SOL    HW124923   4.017   3.409   9.888 -0.3522  0.2208 -2.1350
 4488SOL    HW224924   4.008   3.278   9.969 -0.9590 -0.1079 -0.3606
 4489SOL     OW24925   0.388   3.992   3.240 -0.1666  0.2297 -0.0585
 4489SOL    HW124926   0.357   4.081   3.252  0.5496  0.5062 -0.2925
 4489SOL    HW224927   0.303   3.952   3.263  0.6101 -1.7620 -0.6095
 4490SOL     OW24928   0.418   4.361  12.573 -0.5370  0.7335 -0.0987
 4490SOL    HW124929   0.415   4.436  12.633 -1.5502  1.0185 -0.5066
 4490SOL    HW224930   0.325   4.366  12.550 -1.3139 -0.6912  2.6768
 4491SOL     OW24931   0.646   2.296   3.439 -0.2039  0.1219 -0.5579
 4491SOL    HW124932   0.636   2.211   3.396 -0.0624 -1.1055  1.8860
 4491SOL    HW224933   0.706   2.277   3.511  0.1732  2.0899 -0.3501
 4492SOL     OW24934   2.371   2.020  14.958  0.4718  0.6896 -0.3507
 4492SOL    HW124935   2.326   2.009  15.042 -0.6780  1.2732 -0.8997
 4492SOL    HW224936   2.311   2.080  14.915  0.5153  0.5596 -0.5931
 4493SOL     OW24937   0.533   0.861   4.192  0.5488 -0.0615  0.1863
 4493SOL    HW124938   0.626   0.839   4.198  1.0134  1.5176 -1.0824
 4493SOL    HW224939   0.509   0.884   4.282 -2.0030  3.5006 -1.4290
 4494SOL     OW24940   2.484   4.649   1.777 -0.0222 -0.3944  0.0140
 4494SOL    HW124941   2.551   4.590   1.743  1.6822  1.6696 -0.2280
 4494SOL    HW224942   2.406   4.603   1.747 -1.3478  0.8206  1.5834
 4495SOL     OW24943   0.484   1.948  16.053  0.0729 -0.0287 -0.0837
 4495SOL    HW124944   0.499   1.959  15.960  0.3780  0.9608  0.0785
 4495SOL    HW224945   0.557   1.889  16.074 -1.0231 -1.1173  0.6702
 4496SOL     OW24946   2.264   3.781   5.358 -0.3539 -0.2119 -0.0651
 4496SOL    HW124947   2.261   3.877   5.352  0.6441 -0.0257  2.3467
 4496SOL    HW224948   2.294   3.772   5.449  2.1871 -1.4424 -1.0157
 4497SOL     OW24949   2.741   1.630  14.954 -0.2551 -0.1720  0.2584
 4497SOL    HW124950   2.777   1.698  14.897 -0.4236  0.1352  0.5145
 4497SOL    HW224951   2.762   1.560  14.892 -0.2856  0.0148  0.0363
 4498SOL     OW24952   2.654   3.024   5.191 -0.0488 -0.0795 -0.7023
 4498SOL    HW124953   2.657   2.942   5.241 -1.0310 -0.7585 -1.7491
 4498SOL    HW224954   2.574   3.002   5.144 -1.1765  1.7517  0.3947
 4499SOL     OW24955   0.117   4.413   8.535  0.1728  0.6342  0.4065
 4499SOL    HW124956   0.034   4.458   8.547 -0.1189  0.1447  0.2125
 4499SOL    HW224957   0.099   4.351   8.465  0.8743  2.6487 -1.5648
 4500SOL     OW24958   0.869   0.133   4.866 -0.4472 -0.1273  0.4067
 4500SOL    HW124959   0.869   0.161   4.775  1.9913 -0.0966  0.4119
 4500SOL    HW224960   0.777   0.154   4.886 -0.5896 -0.4652  0.0865
 4501SOL     OW24961   2.227   1.618   9.704 -0.1641 -0.3633  0.3224
 4501SOL    HW124962   2.146   1.668   9.693  0.2898  0.5236  0.9888
 4501SOL    HW224963   2.193   1.528   9.698  1.8109 -0.9328 -2.4499
 4502SOL     OW24964   2.125   3.147   8.682 -0.1250  0.0390 -0.1159
 4502SOL    HW124965   2.143   3.164   8.775  0.3580 -0.7145 -0.0725
 4502SOL    HW224966   2.032   3.167   8.668  0.3566  1.2246 -1.5257
 4503SOL     OW24967   4.132   0.385   6.980  0.0574 -0.1736 -0.3096
 4503SOL    HW124968   4.158   0.350   6.895 -0.2493 -1.0368 -0.0462
 4503SOL    HW224969   4.160   0.315   7.039  1.3237 -0.4909 -1.2900
 4504SOL     OW24970   1.269   4.384   2.123 -0.2487  0.0280  0.2380
 4504SOL    HW124971   1.201   4.350   2.181 -0.1833  1.8285  1.3592
 4504SOL    HW224972   1.277   4.472   2.160  3.9069 -1.9799  4.0008
 4505SOL     OW24973   1.000   4.429   5.374 -0.5392  0.5821  0.1040
 4505SOL    HW124974   0.918   4.384   5.393  1.4377 -2.2670  1.8856
 4505SOL    HW224975   0.976   4.521   5.368 -1.1959  0.3834 -0.3301
 4506SOL     OW24976   0.632   3.882   5.331  0.1147 -0.2168 -0.6232
 4506SOL    HW124977   0.706   3.824   5.316 -0.6772 -1.4701  0.3391
 4506SOL    HW224978   0.637   3.941   5.255 -0.8168  1.3875  0.5531
 4507SOL     OW24979   0.306   4.233   6.789  0.3035 -0.2071 -0.5574
 4507SOL    HW124980   0.255   4.212   6.868 -1.6225  0.1101 -1.7036
 4507SOL    HW224981   0.241   4.220   6.719 -0.9477  0.8646  0.4110
 4508SOL     OW24982   2.318   4.280  12.567  0.6525 -0.9032  0.4156
 4508SOL    HW124983   2.406   4.271  12.603 -0.2552  0.8103  3.1375
 4508SOL    HW224984   2.342   4.328  12.488  1.7927  0.2509  1.4757
 4509SOL     OW24985   0.788   1.489  10.398 -0.2401  0.5504 -0.2566
 4509SOL    HW124986   0.837   1.514  10.476  0.2790  0.8441 -0.6763
 4509SOL    HW224987   0.704   1.459  10.433 -0.6310  2.0237  0.0675
 4510SOL     OW24988   4.008   1.918   2.205 -0.5458 -0.1349  0.3260
 4510SOL    HW124989   4.010   1.995   2.263 -0.7783  0.0587  0.0775
 4510SOL    HW224990   4.090   1.877   2.233 -0.4361  1.9770  3.1641
 4511SOL     OW24991   2.011   2.138   6.401 -0.4593  0.0468 -0.1877
 4511SOL    HW124992   1.979   2.217   6.446 -2.5426 -1.4895  1.0408
 4511SOL    HW224993   1.976   2.168   6.317 -0.0765 -0.6830 -0.6027
 4512SOL     OW24994   3.466   1.223  10.874  0.2994  0.0825 -0.3973
 4512SOL    HW124995   3.469   1.301  10.929  0.5978 -0.5053  0.4209
 4512SOL    HW224996   3.375   1.197  10.891  0.0074  0.9886 -0.5960
 4513SOL     OW24997   2.101   3.126   8.078  0.1102  0.5611  0.2053
 4513SOL    HW124998   2.100   3.212   8.035  0.0697 -0.1553 -1.2481
 4513SOL    HW224999   2.177   3.084   8.037 -1.8622 -3.3263  0.5122
 4514SOL     OW25000   1.467   0.464   3.058 -0.4524 -0.0388 -0.4214
 4514SOL    HW125001   1.494   0.399   2.993 -0.4535  0.3688 -0.8330
 4514SOL    HW225002   1.399   0.515   3.014 -0.5270 -0.0125 -0.2740
 4515SOL     OW25003   4.524   1.437   9.492  0.5485  0.3656 -0.7182
 4515SOL    HW125004   4.475   1.435   9.410  1.4887 -0.2369 -1.2690
 4515SOL    HW225005   4.563   1.350   9.495  2.3663  1.1756 -0.7440
 4516SOL     OW25006   4.344   3.323   6.980 -0.3361  0.4610 -0.0748
 4516SOL    HW125007   4.267   3.268   6.985 -0.2304  0.2531 -0.8539
 4516SOL    HW225008   4.389   3.277   6.910  0.0091 -1.2707  1.2891
 4517SOL     OW25009   1.133   1.238   6.834 -0.2915 -0.2474 -0.7542
 4517SOL    HW125010   1.080   1.218   6.911 -0.2031 -0.9320 -0.8677
 4517SOL    HW225011   1.140   1.158   6.782 -1.2659 -1.7766  1.4689
 4518SOL     OW25012   2.062   3.867   2.432  0.0702 -0.2739  0.4058
 4518SOL    HW125013   2.038   3.920   2.356  0.4576 -0.2669  0.2880
 4518SOL    HW225014   2.121   3.809   2.384  0.0395  1.1229 -1.3178
 4519SOL     OW25015   3.165   0.340   5.211  0.3478 -0.5503  0.0630
 4519SOL    HW125016   3.071   0.354   5.205  0.3481 -0.7462 -0.3915
 4519SOL    HW225017   3.182   0.378   5.298 -0.7753 -1.0256  0.4864
 4520SOL     OW25018   4.660   3.488   4.400 -0.5321 -0.5614  0.1623
 4520SOL    HW125019   4.656   3.561   4.337 -0.3816 -2.1434 -1.6987
 4520SOL    HW225020   4.696   3.536   4.474  0.8203 -0.6572 -0.4462
 4521SOL     OW25021   3.918   1.099   3.212  0.1445 -0.1060  0.2299
 4521SOL    HW125022   3.953   1.056   3.134 -4.3392 -2.7435 -0.3510
 4521SOL    HW225023   3.974   1.060   3.280 -0.8112 -0.2357  0.9402
 4522SOL     OW25024   4.023   4.049   5.020  0.2633  0.9277 -0.0399
 4522SOL    HW125025   3.999   3.972   4.969 -1.5982  0.6384  1.2830
 4522SOL    HW225026   3.966   4.034   5.096  0.0218 -1.1150 -0.6083
 4523SOL     OW25027   4.448   0.651   4.232  0.5423 -0.5539  0.2294
 4523SOL    HW125028   4.419   0.597   4.159  0.9603 -2.7332  1.6893
 4523SOL    HW225029   4.440   0.735   4.187 -0.2651 -0.8887 -0.2585
 4524SOL     OW25030   2.360   0.940   4.119 -0.4115 -0.2552  0.2318
 4524SOL    HW125031   2.420   1.000   4.164 -0.4567 -1.6266  2.1050
 4524SOL    HW225032   2.331   1.001   4.051  1.4316 -0.7579 -1.0303
 4525SOL     OW25033   4.249   4.589   4.760  0.2826 -0.1223 -0.0867
 4525SOL    HW125034   4.262   4.637   4.678 -2.0633 -1.4316 -1.2463
 4525SOL    HW225035   4.316   4.623   4.819  0.3896  1.2194 -0.9891
 4526SOL     OW25036   4.448   1.425   1.410  0.0229  0.1371  0.2223
 4526SOL    HW125037   4.391   1.475   1.469  0.6225  1.2994 -0.1916
 4526SOL    HW225038   4.529   1.428   1.460 -0.0578  0.9266  0.3048
 4527SOL     OW25039   0.065   2.981   9.612  0.0673  0.2248  0.1085
 4527SOL    HW125040   4.720   2.982   9.679  1.1062  1.3920  1.1631
 4527SOL    HW225041   0.011   2.961   9.535  1.6800  0.9647 -1.2064
 4528SOL     OW25042   4.508   2.976   9.822  0.0454  0.5650  0.3937
 4528SOL    HW125043   4.481   2.885   9.812  0.4100  0.4888  0.1017
 4528SOL    HW225044   4.560   2.981   9.902  0.3008  0.9395  0.2028
 4529SOL     OW25045   1.047   3.795   7.963  0.3307 -0.6816 -0.0072
 4529SOL    HW125046   1.056   3.854   8.038 -0.5586 -1.2426  0.5356
 4529SOL    HW225047   1.077   3.849   7.889  0.8544  0.6576  1.1697
 4530SOL     OW25048   4.306   1.147   6.933  0.0958  0.4865  0.1018
 4530SOL    HW125049   4.220   1.188   6.938  0.0759  0.2264  1.8458
 4530SOL    HW225050   4.331   1.142   7.025  0.7317  1.3659 -0.0192
 4531SOL     OW25051   3.707   0.124   6.574  0.0201  0.0544  0.2507
 4531SOL    HW125052   3.617   0.099   6.595 -0.2679  0.6198 -0.3079
 4531SOL    HW225053   3.674   0.211   6.552  1.4663  1.1106  2.3379
 4532SOL     OW25054   4.028   1.428   8.149  0.3475 -0.0201 -0.2023
 4532SOL    HW125055   4.114   1.389   8.132  0.7040  0.8407 -0.3900
 4532SOL    HW225056   4.040   1.508   8.097  0.0711  0.0555 -0.1502
 4533SOL     OW25057   3.097   3.271   4.871  0.0570  0.3758 -0.2014
 4533SOL    HW125058   3.048   3.350   4.850  0.3825  0.1540 -1.8076
 4533SOL    HW225059   3.173   3.297   4.817  1.7547  2.0648  3.0027
 4534SOL     OW25060   0.941   0.248  14.579 -0.1811 -0.0255 -0.3026
 4534SOL    HW125061   0.922   0.155  14.593  1.7517 -0.5998 -1.4436
 4534SOL    HW225062   0.968   0.272  14.667 -0.8494 -2.3481  0.5262
 4535SOL     OW25063   1.824   0.273  17.650 -0.0006  0.2249  0.0893
 4535SOL    HW125064   1.763   0.334  17.692 -1.0221 -1.0813  0.5060
 4535SOL    HW225065   1.792   0.194  17.694  0.8729 -1.0539 -1.5808
 4536SOL     OW25066   4.486   3.837   2.084  0.3295  0.1817 -0.5041
 4536SOL    HW125067   4.524   3.763   2.132 -0.7067  0.4184  0.6556
 4536SOL    HW225068   4.433   3.791   2.019 -0.7276  1.7275 -0.7300
 4537SOL     OW25069   0.271   2.940   7.378  0.2928  0.3057  0.0903
 4537SOL    HW125070   0.253   2.919   7.286 -2.3667  0.1050  0.6554
 4537SOL    HW225071   0.337   3.010   7.381  2.3890 -1.6201 -0.7751
 4538SOL     OW25072   1.892   0.017   6.041  0.1843 -0.2863 -0.3606
 4538SOL    HW125073   1.800   0.022   6.014  1.0876  0.9082 -3.2238
 4538SOL    HW225074   1.932   0.085   5.987  1.3412 -1.1896 -0.6457
 4539SOL     OW25075   4.135   2.281   0.478 -0.2469  0.2098  0.0258
 4539SOL    HW125076   4.120   2.331   0.558 -3.7387 -1.2582  0.2661
 4539SOL    HW225077   4.164   2.197   0.514  1.3027  1.1059  0.8732
 4540SOL     OW25078   2.375   2.777   8.129  0.4335  0.3689 -0.1213
 4540SOL    HW125079   2.433   2.791   8.203  0.0373 -1.3234  0.5125
 4540SOL    HW225080   2.404   2.687   8.110  2.7645  1.3466 -1.1485
 4541SOL     OW25081   0.951   0.648   1.550  0.0752 -0.1474  0.5348
 4541SOL    HW125082   1.022   0.618   1.493  0.6949  1.4387  0.4660
 4541SOL    HW225083   0.998   0.719   1.594  0.5236  0.2649 -0.5897
 4542SOL     OW25084   3.118   0.879   2.461  0.3854 -0.5178  0.3966
 4542SOL    HW125085   3.091   0.817   2.393 -0.0905  1.0841 -0.8683
 4542SOL    HW225086   3.213   0.878   2.449  0.5937  4.5441  1.5546
 4543SOL     OW25087   3.269   4.403   5.416 -0.3334  0.1364  0.6995
 4543SOL    HW125088   3.199   4.377   5.356  1.0780  0.3412 -1.0153
 4543SOL    HW225089   3.216   4.442   5.486 -0.0046  0.8530  0.5538
 4544SOL     OW25090   0.618   0.913   6.131  0.2154 -0.0410 -0.1375
 4544SOL    HW125091   0.545   0.974   6.141  1.0853  0.6088  2.3336
 4544SOL    HW225092   0.672   0.938   6.206  0.3949 -2.2936  0.4889
 4545SOL     OW25093   2.042   0.490   6.546 -0.3202  0.5504 -0.4691
 4545SOL    HW125094   2.107   0.508   6.478  0.9418 -1.9641  0.0998
 4545SOL    HW225095   2.022   0.397   6.535 -1.1646  0.8742 -1.6450
 4546SOL     OW25096   3.666   0.979   3.490 -0.4150 -0.3127 -0.1560
 4546SOL    HW125097   3.580   0.966   3.530  0.3522  3.3749  2.7257
 4546SOL    HW225098   3.704   1.017   3.570  0.2960  0.1215 -0.6993
 4547SOL     OW25099   1.101   2.481  17.106  0.1948  0.0656 -0.0756
 4547SOL    HW125100   1.176   2.424  17.121  0.6578  0.6261 -0.2842
 4547SOL    HW225101   1.098   2.528  17.190  2.6480  0.5404 -0.2667
 4548SOL     OW25102   3.316   0.693   2.786  0.7345  0.2949  0.3487
 4548SOL    HW125103   3.327   0.658   2.698  0.5380 -0.2363  0.5329
 4548SOL    HW225104   3.388   0.650   2.832 -0.7822 -1.9638  0.6092
 4549SOL     OW25105   3.421   1.556   5.913  0.2802 -0.5636 -0.7548
 4549SOL    HW125106   3.336   1.519   5.889 -0.0893 -0.2348  0.0631
 4549SOL    HW225107   3.414   1.583   6.004 -0.8895  0.6470 -1.2127
 4550SOL     OW25108   3.258   2.418   3.586  0.0703  0.2639 -0.3716
 4550SOL    HW125109   3.258   2.333   3.629  4.0776  1.1137  1.2506
 4550SOL    HW225110   3.212   2.402   3.503 -0.1056  1.3305 -0.4891
 4551SOL     OW25111   3.735   3.017   6.473 -0.3519  0.0604  0.1026
 4551SOL    HW125112   3.830   3.011   6.459 -0.4430  0.4945 -0.6800
 4551SOL    HW225113   3.702   3.091   6.422 -0.7204 -1.5014 -1.9032
 4552SOL     OW25114   0.223   4.706  14.195 -0.7410 -0.4566 -0.4602
 4552SOL    HW125115   0.170   0.033  14.256  1.3305  0.8699  0.2338
 4552SOL    HW225116   0.195   0.034  14.119  1.0303 -0.0692 -0.8512
 4553SOL     OW25117   2.930   1.279  14.271 -0.2692  0.2132 -0.5333
 4553SOL    HW125118   2.991   1.349  14.248 -0.8223  0.7778 -0.2801
 4553SOL    HW225119   2.864   1.298  14.204 -0.5545  0.7879 -0.0956
 4554SOL     OW25120   4.243   1.558   0.495  0.0369  0.3401 -0.2468
 4554SOL    HW125121   4.150   1.557   0.472 -0.0477 -0.0750  0.1140
 4554SOL    HW225122   4.280   1.570   0.407 -2.0374 -0.7230 -1.2581
 4555SOL     OW25123   1.685   0.728   6.518 -0.2439 -0.3079  0.0567
 4555SOL    HW125124   1.594   0.707   6.537 -0.9497  1.2796 -1.5786
 4555SOL    HW225125   1.718   0.663   6.455 -0.6601 -0.0116 -0.4664
 4556SOL     OW25126   2.765   3.439   4.270 -0.0842  0.1474 -0.6475
 4556SOL    HW125127   2.717   3.502   4.216 -1.3632  0.5275  0.9207
 4556SOL    HW225128   2.851   3.478   4.260  0.0270  0.0168 -0.2032
 4557SOL     OW25129   3.420   0.882   2.971 -0.5831  0.5395 -0.3931
 4557SOL    HW125130   3.505   0.893   2.927  0.0175  0.5091  0.7576
 4557SOL    HW225131   3.374   0.812   2.926  0.6538 -0.4966 -0.0582
 4558SOL     OW25132   4.280   2.216   8.450  0.4392 -0.5396 -0.6954
 4558SOL    HW125133   4.291   2.259   8.365 -1.3636  1.4029  0.0524
 4558SOL    HW225134   4.341   2.269   8.500 -3.4874  2.5936  0.8157
 4559SOL     OW25135   3.920   3.286   2.838 -0.2042 -0.2463  0.0771
 4559SOL    HW125136   3.879   3.330   2.764 -2.2027 -1.3232  0.5395
 4559SOL    HW225137   4.009   3.270   2.807 -0.0502 -0.1329  0.4602
 4560SOL     OW25138   2.642   3.783  11.613  0.3213  0.6276  0.1693
 4560SOL    HW125139   2.597   3.843  11.672  0.3208 -0.0705  0.8749
 4560SOL    HW225140   2.693   3.843  11.557  0.3665  0.2018 -0.2499
 4561SOL     OW25141   0.192   4.390   5.611 -0.6934 -0.2440  0.3213
 4561SOL    HW125142   0.232   4.460   5.662 -1.2822  0.6297 -0.4041
 4561SOL    HW225143   0.259   4.361   5.548 -0.9880  0.2648 -0.2267
 4562SOL     OW25144   0.523   0.769   1.797  0.6277 -0.1752  0.0470
 4562SOL    HW125145   0.515   0.692   1.741 -0.6446  0.8980 -1.2612
 4562SOL    HW225146   0.522   0.733   1.886  0.2778  1.8410  0.8655
 4563SOL     OW25147   3.271   3.723  13.765 -0.3905 -0.2559  0.1675
 4563SOL    HW125148   3.337   3.784  13.732 -1.6264  1.0837  0.1462
 4563SOL    HW225149   3.242   3.762  13.848 -1.3751  0.7129 -0.6243
 4564SOL     OW25150   1.000   4.212  11.589  0.3408  0.0485 -0.3841
 4564SOL    HW125151   0.954   4.223  11.506 -2.1243  0.3198  0.9984
 4564SOL    HW225152   1.077   4.167  11.554  1.4511  0.9110  0.9333
 4565SOL     OW25153   1.240   2.624  11.212 -0.2968  0.1155  0.5972
 4565SOL    HW125154   1.217   2.716  11.230  0.1117  0.1661  0.8549
 4565SOL    HW225155   1.283   2.652  11.132  0.4898  2.5004  1.8497
 4566SOL     OW25156   3.695   0.459   3.806 -0.0017 -0.1392  0.4327
 4566SOL    HW125157   3.707   0.504   3.722 -0.0761 -0.2355  0.3703
 4566SOL    HW225158   3.766   0.483   3.866  1.1466  1.3231 -1.5056
 4567SOL     OW25159   4.008   1.468   4.034 -0.5809  0.1860 -0.3215
 4567SOL    HW125160   3.950   1.532   3.993 -0.6668  1.3872  1.6864
 4567SOL    HW225161   4.059   1.431   3.961  1.4598  1.1726  0.5909
 4568SOL     OW25162   3.411   2.554   3.996 -0.1961 -0.2330  0.2051
 4568SOL    HW125163   3.390   2.644   3.973 -0.7076  0.2755  2.7469
 4568SOL    HW225164   3.506   2.561   4.007  0.0373 -2.5013 -0.3862
 4569SOL     OW25165   4.193   3.620   1.619 -0.7040  0.2482  0.4341
 4569SOL    HW125166   4.131   3.599   1.688 -0.4861  0.0481  0.5698
 4569SOL    HW225167   4.270   3.651   1.668 -1.2924  0.0841  1.4575
 4570SOL     OW25168   2.462   3.228   8.178  0.2457 -0.1082  0.0161
 4570SOL    HW125169   2.437   3.304   8.125 -0.6801 -0.1576  0.3699
 4570SOL    HW225170   2.439   3.154   8.121  0.5853 -1.2141  1.3243
 4571SOL     OW25171   3.693   1.194   2.545 -0.5711  0.1803 -0.1065
 4571SOL    HW125172   3.661   1.267   2.491 -2.8100  0.0454  1.0394
 4571SOL    HW225173   3.771   1.244   2.571 -0.9358  0.2860  0.7835
 4572SOL     OW25174   4.297   4.416   4.472 -0.1022 -0.0775 -0.2755
 4572SOL    HW125175   4.250   4.375   4.545  0.8912 -0.0444  0.3832
 4572SOL    HW225176   4.281   4.510   4.481  0.7932 -0.0335  0.8329
 4573SOL     OW25177   3.504   4.472   8.944 -0.0372  0.2996 -0.0315
 4573SOL    HW125178   3.580   4.481   8.886 -0.0670 -0.7893 -0.2327
 4573SOL    HW225179   3.470   4.385   8.921 -1.3514  1.1892 -1.4663
 4574SOL     OW25180   4.500   0.192  12.225  0.0179 -0.6020 -0.5498
 4574SOL    HW125181   4.506   0.284  12.199  2.7135 -0.7611 -0.5461
 4574SOL    HW225182   4.468   0.190  12.315  0.1584 -2.1163 -0.5347
 4575SOL     OW25183   1.819   3.971   8.916  0.1706  0.7015 -0.5526
 4575SOL    HW125184   1.804   3.918   8.994 -0.9074  0.7863 -0.6986
 4575SOL    HW225185   1.730   3.973   8.882  0.0098 -2.3724 -0.3185
 4576SOL     OW25186   1.507   2.838   8.278 -0.1769 -0.0337  0.4971
 4576SOL    HW125187   1.567   2.887   8.334  0.2365 -0.9685  0.8703
 4576SOL    HW225188   1.549   2.836   8.192  1.5219 -1.6374  1.3817
 4577SOL     OW25189   3.184   0.231   1.832 -0.3172  0.3838  0.0111
 4577SOL    HW125190   3.105   0.216   1.883  0.1901  0.3461  0.7915
 4577SOL    HW225191   3.249   0.215   1.901  0.9542  0.6105 -1.1293
 4578SOL     OW25192   4.610   1.057  12.220  0.4371 -0.1580 -0.1295
 4578SOL    HW125193   4.571   1.078  12.136  0.7420 -2.2084 -0.7934
 4578SOL    HW225194   4.689   1.012  12.189 -0.5091 -1.2634 -0.9648
 4579SOL     OW25195   2.545   3.355   6.172  0.1427 -0.0132 -0.7937
 4579SOL    HW125196   2.593   3.369   6.091  0.8169  1.2865 -0.1666
 4579SOL    HW225197   2.603   3.285   6.201 -1.5909 -1.1154  0.0361
 4580SOL     OW25198   0.551   2.362  11.043  0.1934  0.4119  0.4179
 4580SOL    HW125199   0.478   2.311  11.076  0.0337  1.3188  1.4510
 4580SOL    HW225200   0.562   2.431  11.108  1.0994 -1.4251  2.2078
 4581SOL     OW25201   3.797   2.406   7.148 -0.3024  0.8527  0.1044
 4581SOL    HW125202   3.750   2.462   7.086  1.5567  2.0453 -0.2355
 4581SOL    HW225203   3.792   2.320   7.106  1.3693  1.0309 -0.4750
 4582SOL     OW25204   4.327   3.672   3.766  0.0476 -0.5313 -0.1430
 4582SOL    HW125205   4.359   3.604   3.825 -1.0057 -0.6965  0.2387
 4582SOL    HW225206   4.372   3.640   3.688 -1.5102 -2.6482 -0.1617
 4583SOL     OW25207   1.794   4.445   3.898  0.1009 -0.0372  0.1824
 4583SOL    HW125208   1.760   4.435   3.809  1.1322 -1.7317 -0.0212
 4583SOL    HW225209   1.722   4.495   3.934  0.9271  1.1708  0.1530
 4584SOL     OW25210   3.806   0.671   9.263 -0.3591 -0.2459 -0.3017
 4584SOL    HW125211   3.794   0.576   9.255  1.0578 -0.5194  0.8517
 4584SOL    HW225212   3.888   0.682   9.312  0.5477  2.3179 -2.3874
 4585SOL     OW25213   1.791   0.536   4.525 -0.1486  0.1277 -0.2294
 4585SOL    HW125214   1.841   0.615   4.541  1.1373  0.0144 -3.7018
 4585SOL    HW225215   1.779   0.500   4.613 -0.9232 -3.4317 -1.7522
 4586SOL     OW25216   0.555   1.204  10.190  0.0960 -0.0766  0.0312
 4586SOL    HW125217   0.488   1.136  10.189 -0.1503  0.2330 -2.6308
 4586SOL    HW225218   0.500   1.280  10.209  0.0402  0.0730 -0.7553
 4587SOL     OW25219   3.899   1.604   2.363  0.0211  0.1002 -0.3257
 4587SOL    HW125220   3.984   1.611   2.320 -0.6656  1.5445 -1.4601
 4587SOL    HW225221   3.836   1.622   2.293  0.3692  0.8239 -0.4467
 4588SOL     OW25222   3.052   2.709   3.019  0.9028 -0.0717  0.2866
 4588SOL    HW125223   3.057   2.770   3.092 -1.0465 -0.8044  1.0385
 4588SOL    HW225224   3.014   2.771   2.958  0.4574 -0.8394 -0.2192
 4589SOL     OW25225   2.969   2.171   1.203 -0.1251 -0.3523  0.2987
 4589SOL    HW125226   2.888   2.140   1.245 -0.3611  0.2155  0.2592
 4589SOL    HW225227   3.029   2.099   1.223  1.7429  1.1305 -0.0433
 4590SOL     OW25228   4.287   2.679   9.366  0.1549  0.1750 -0.3791
 4590SOL    HW125229   4.194   2.678   9.388  0.1190  0.2347 -0.5354
 4590SOL    HW225230   4.327   2.699   9.451 -1.4868  3.4222 -0.3948
 4591SOL     OW25231   1.581   2.743   9.188 -0.2789  0.2247 -0.5815
 4591SOL    HW125232   1.586   2.838   9.173 -1.2792  0.3662 -0.0458
 4591SOL    HW225233   1.646   2.740   9.259 -0.8880 -1.0863 -0.0961
 4592SOL     OW25234   1.961   4.710   1.497  0.0424  0.2137  0.6305
 4592SOL    HW125235   1.975   4.710   1.403 -0.5640 -1.7736  0.5457
 4592SOL    HW225236   1.948   4.617   1.516 -0.8770 -0.1850 -1.9338
 4593SOL     OW25237   3.306   0.065   7.903 -0.2219 -0.2113 -0.0070
 4593SOL    HW125238   3.327   0.007   7.977 -1.9715  0.9512  1.4099
 4593SOL    HW225239   3.395   0.098   7.885 -0.6200  0.6694 -0.3569
 4594SOL     OW25240   0.144   0.268   3.306  0.2100 -0.2840  0.3392
 4594SOL    HW125241   0.170   0.178   3.324  1.6257  0.0469 -0.0304
 4594SOL    HW225242   0.137   0.279   3.211 -0.2711 -1.0605  0.2882
 4595SOL     OW25243   3.741   2.499   8.694 -0.4178 -0.0935 -0.1641
 4595SOL    HW125244   3.669   2.482   8.755 -1.6624 -0.0755 -1.6286
 4595SOL    HW225245   3.736   2.593   8.708  1.6699  0.0065 -0.0431
 4596SOL     OW25246   4.568   0.405   3.716 -0.1203 -0.0217 -0.2477
 4596SOL    HW125247   4.499   0.410   3.782 -2.0816 -1.8028 -2.1494
 4596SOL    HW225248   4.609   0.491   3.719 -0.1603 -0.1166  2.2881
 4597SOL     OW25249   4.297   0.872   5.171 -0.2682 -0.1373  0.6679
 4597SOL    HW125250   4.246   0.875   5.252  1.7614  1.7881  1.8762
 4597SOL    HW225251   4.241   0.807   5.128  0.8157 -0.0150 -0.9521
 4598SOL     OW25252   0.137   3.097  12.814 -0.2836  0.0447  0.5306
 4598SOL    HW125253   0.204   3.040  12.851 -0.0630 -0.7049 -1.0207
 4598SOL    HW225254   0.117   3.060  12.728 -0.2409 -0.0140  0.5457
 4599SOL     OW25255   3.856   4.366   7.789 -0.3046 -0.1986  0.4116
 4599SOL    HW125256   3.789   4.435   7.782 -0.5764 -0.6648 -1.5257
 4599SOL    HW225257   3.856   4.335   7.879 -1.2046 -2.2146 -0.2862
 4600SOL     OW25258   1.897   0.501   0.789 -0.1913 -0.0742  0.0712
 4600SOL    HW125259   1.968   0.440   0.771  1.5535  1.6524  0.9697
 4600SOL    HW225260   1.836   0.447   0.838  1.1229 -0.7362  0.9824
 4601SOL     OW25261   1.840   3.313   1.109  0.3322 -0.7287  0.8696
 4601SOL    HW125262   1.907   3.334   1.174  0.6781 -1.9063  0.9029
 4601SOL    HW225263   1.873   3.374   1.043 -1.0753  0.6817  1.4855
 4602SOL     OW25264   0.327   1.357  17.529 -0.3442  0.6102  0.1456
 4602SOL    HW125265   0.292   1.431  17.579 -2.1359  0.0427 -0.2392
 4602SOL    HW225266   0.339   1.392  17.441  0.5799 -0.1025 -0.0044
 4603SOL     OW25267   1.600   0.389   1.611  0.1331  0.2919 -0.0408
 4603SOL    HW125268   1.559   0.472   1.586  1.8097  1.0364 -0.3517
 4603SOL    HW225269   1.685   0.380   1.567 -0.3381  1.2222 -1.1528
 4604SOL     OW25270   2.384   0.380   3.417 -0.0043  0.6523  0.2505
 4604SOL    HW125271   2.441   0.311   3.384 -0.5738  0.2265  0.1614
 4604SOL    HW225272   2.322   0.324   3.463  0.4190 -0.9029 -1.0728
 4605SOL     OW25273   3.935   0.706   9.517  0.7029 -0.1231 -0.1094
 4605SOL    HW125274   3.986   0.765   9.572  1.4835 -0.9491  0.0576
 4605SOL    HW225275   3.945   0.621   9.561  0.5146 -0.0801  0.0163
 4606SOL     OW25276   2.272   2.109  11.001 -0.4983 -0.4066  0.0985
 4606SOL    HW125277   2.336   2.137  11.066 -1.8275  0.7960  0.8778
 4606SOL    HW225278   2.209   2.062  11.057 -1.5016  1.5936  0.6327
 4607SOL     OW25279   0.573   0.249   6.358 -0.3204 -0.0806 -0.1449
 4607SOL    HW125280   0.620   0.332   6.352 -0.4739  0.0428  0.4310
 4607SOL    HW225281   0.642   0.192   6.324 -2.0481 -1.5765 -1.1602
 4608SOL     OW25282   1.761   2.550   5.737 -0.5335  0.4155 -0.5056
 4608SOL    HW125283   1.776   2.516   5.648  2.2521 -0.2151  0.2195
 4608SOL    HW225284   1.738   2.462   5.768 -0.5209  0.3402 -0.7071
 4609SOL     OW25285   1.070   0.691   5.573 -0.0923 -0.0891  0.2844
 4609SOL    HW125286   1.060   0.784   5.593 -1.2109 -0.4188  1.2240
 4609SOL    HW225287   0.983   0.656   5.588  0.4319 -1.1799  0.7615
 4610SOL     OW25288   2.578   2.513   3.846 -0.0299 -0.2802 -0.5329
 4610SOL    HW125289   2.563   2.470   3.931  1.6413  0.8877  0.3508
 4610SOL    HW225290   2.643   2.454   3.809 -1.1446 -1.0878 -1.2089
 4611SOL     OW25291   1.154   2.052   9.249  0.5980  0.2120 -0.4184
 4611SOL    HW125292   1.209   2.002   9.310 -1.0757  0.0648  0.9905
 4611SOL    HW225293   1.131   2.122   9.310  2.1202 -1.1764  1.7970
 4612SOL     OW25294   4.545   2.829   2.525  0.1064  0.3245 -0.5743
 4612SOL    HW125295   4.460   2.803   2.561 -0.1202  0.5721 -0.9296
 4612SOL    HW225296   4.536   2.786   2.440 -0.1663  0.2070 -0.4870
 4613SOL     OW25297   2.086   1.212  11.841 -0.2261 -0.2448 -0.2921
 4613SOL    HW125298   2.006   1.179  11.883 -0.1132  0.4688  0.4650
 4613SOL    HW225299   2.151   1.144  11.861  1.7524  1.2689 -1.5951
 4614SOL     OW25300   1.084   2.930  16.749 -0.0292  0.2822  0.2415
 4614SOL    HW125301   0.989   2.925  16.743  0.0341  2.0220 -2.3085
 4614SOL    HW225302   1.096   3.003  16.688 -2.0133 -0.2061 -0.7351
 4615SOL     OW25303   1.869   0.877   1.308 -0.2755 -0.7393  0.0086
 4615SOL    HW125304   1.885   0.788   1.341 -1.1017 -1.0184 -0.3558
 4615SOL    HW225305   1.801   0.899   1.371 -2.0275 -2.1550 -1.3915
 4616SOL     OW25306   1.191   0.022  11.322 -0.2820 -0.4180  0.3841
 4616SOL    HW125307   1.143   4.664  11.333  2.0394 -1.7051  0.9475
 4616SOL    HW225308   1.190   0.031  11.227  1.5251  0.2863  0.4399
 4617SOL     OW25309   2.367   2.173   3.084  0.3827 -0.0399  0.0631
 4617SOL    HW125310   2.293   2.209   3.033 -1.8804 -3.6093  0.8482
 4617SOL    HW225311   2.349   2.080   3.077 -3.0114  0.5366  0.9056
 4618SOL     OW25312   2.505   0.685  15.927 -0.3368 -0.3388  0.3464
 4618SOL    HW125313   2.477   0.677  16.018 -1.6123 -0.3006 -0.0442
 4618SOL    HW225314   2.600   0.672  15.928 -0.6109 -2.3482 -1.3162
 4619SOL     OW25315   0.806   3.858   2.414  0.4922  0.0701 -0.3224
 4619SOL    HW125316   0.742   3.929   2.410 -2.0089 -2.1021  1.2547
 4619SOL    HW225317   0.751   3.783   2.390 -1.5202  1.7180 -0.8431
 4620SOL     OW25318   1.190   4.438   9.252  0.0833 -0.1859  0.3828
 4620SOL    HW125319   1.172   4.393   9.169 -0.1096 -1.6104  1.1927
 4620SOL    HW225320   1.104   4.480   9.263 -0.6314 -1.1611 -1.3171
 4621SOL     OW25321   2.387   0.193   1.842  0.2268  0.5577 -0.1268
 4621SOL    HW125322   2.461   0.238   1.883  0.9808 -0.8911  0.0881
 4621SOL    HW225323   2.421   0.107   1.819  1.1115  0.5244  1.3477
 4622SOL     OW25324   3.446   1.551   4.467 -0.1569 -0.1838 -0.0360
 4622SOL    HW125325   3.383   1.542   4.396 -1.3544 -1.0909  1.1324
 4622SOL    HW225326   3.487   1.635   4.445 -0.4607  0.0365  0.2300
 4623SOL     OW25327   2.857   2.442  12.053 -0.1979  0.3836 -0.3140
 4623SOL    HW125328   2.792   2.379  12.022  2.4187 -2.3732 -0.2611
 4623SOL    HW225329   2.813   2.526  12.041 -1.6885 -0.1073  1.8050
 4624SOL     OW25330   3.029   3.221   3.367  0.2414 -0.0008  1.0377
 4624SOL    HW125331   2.981   3.290   3.414 -1.6780  0.2461 -1.3033
 4624SOL    HW225332   3.022   3.239   3.274  1.0586 -1.7339  0.6363
 4625SOL     OW25333   2.664   0.560  15.444  0.1858 -0.0473  0.2396
 4625SOL    HW125334   2.618   0.631  15.489 -0.9951  0.2532 -1.4175
 4625SOL    HW225335   2.694   0.611  15.368 -1.9613  2.0480  0.8052
 4626SOL     OW25336   1.416   1.897   9.121  0.5951 -0.1810  0.2635
 4626SOL    HW125337   1.406   1.888   9.026  0.6118  2.2689  0.0103
 4626SOL    HW225338   1.327   1.881   9.152  0.5505 -2.3615 -0.9875
 4627SOL     OW25339   3.368   0.724   6.239 -0.3886  0.5201 -0.2989
 4627SOL    HW125340   3.289   0.748   6.287 -1.3868 -2.8153 -0.2617
 4627SOL    HW225341   3.448   0.763   6.274  0.0273 -0.7218  0.1415
 4628SOL     OW25342   3.150   2.140   4.419  0.0163 -0.4701 -0.3528
 4628SOL    HW125343   3.214   2.209   4.431 -1.6117  0.8564  0.6218
 4628SOL    HW225344   3.078   2.200   4.399 -1.0677 -1.1584  1.5005
 4629SOL     OW25345   3.973   3.021   1.273  1.0710 -0.1808 -0.2215
 4629SOL    HW125346   3.921   3.010   1.193 -0.4204  1.5417  0.5057
 4629SOL    HW225347   4.051   2.986   1.231  0.8708  0.9041 -1.4914
 4630SOL     OW25348   3.595   2.696  10.401  0.3678 -0.1196 -0.0469
 4630SOL    HW125349   3.560   2.785  10.395  1.0850  0.3632  2.9658
 4630SOL    HW225350   3.514   2.652  10.426 -0.3363  0.4326 -1.3557
 4631SOL     OW25351   1.897   3.395  15.494 -0.6858 -0.2139  0.2853
 4631SOL    HW125352   1.805   3.394  15.467 -0.5622 -0.0117 -0.1429
 4631SOL    HW225353   1.903   3.477  15.543 -1.5335 -0.7968  1.3579
 4632SOL     OW25354   1.839   0.320   7.299 -0.3776 -0.8130 -0.3748
 4632SOL    HW125355   1.849   0.246   7.239 -0.5808  0.3713 -1.8490
 4632SOL    HW225356   1.745   0.337   7.305 -0.1140 -0.0210  1.7261
 4633SOL     OW25357   4.358   4.635   4.093 -0.0166  0.3075  0.0751
 4633SOL    HW125358   4.318   4.603   4.011  3.4768 -0.9468 -1.1479
 4633SOL    HW225359   4.427   4.691   4.057 -1.1579  1.1108 -0.8626
 4634SOL     OW25360   2.293   1.929   3.841 -0.3475 -0.2477  0.4117
 4634SOL    HW125361   2.254   1.883   3.766 -4.9745 -0.0941  2.7599
 4634SOL    HW225362   2.301   1.852   3.898 -1.1701  0.9740  2.1643
 4635SOL     OW25363   4.456   0.364   7.731  0.3201  0.2700 -0.1472
 4635SOL    HW125364   4.464   0.456   7.754 -1.5423  1.0104 -2.4347
 4635SOL    HW225365   4.523   0.320   7.783 -0.6078 -1.0876 -0.0822
 4636SOL     OW25366   3.220   2.519   3.055  0.4638  0.1987  0.4060
 4636SOL    HW125367   3.187   2.473   3.132 -0.3076 -1.7929 -1.1250
 4636SOL    HW225368   3.157   2.589   3.040  1.9358  1.4401 -0.0140
 4637SOL     OW25369   3.010   2.339   4.693  0.5958 -0.2224  0.2630
 4637SOL    HW125370   2.965   2.335   4.777 -2.0087 -0.4431 -1.1318
 4637SOL    HW225371   2.977   2.415   4.644  1.8441  0.3412  0.2904
 4638SOL     OW25372   2.220   4.266   4.609  0.1169  0.1365  0.2191
 4638SOL    HW125373   2.285   4.337   4.602  2.1037 -1.7709 -0.6415
 4638SOL    HW225374   2.153   4.298   4.549  0.6840  0.7937 -0.0758
 4639SOL     OW25375   3.729   1.745   9.451 -0.0903  0.2260  0.0421
 4639SOL    HW125376   3.637   1.752   9.427  0.2154  1.1620 -0.8520
 4639SOL    HW225377   3.720   1.768   9.543 -0.4804  2.1685 -0.4814
 4640SOL     OW25378   3.782   0.900   6.661 -0.3565  0.1420 -0.2222
 4640SOL    HW125379   3.751   0.991   6.664 -1.0202 -0.2182  3.2363
 4640SOL    HW225380   3.816   0.886   6.572 -0.5104  1.3827 -0.4876
 4641SOL     OW25381   4.257   2.161  16.436  0.2229  0.1694  0.1185
 4641SOL    HW125382   4.278   2.109  16.358  3.0876  1.4440  0.0596
 4641SOL    HW225383   4.308   2.241  16.424  0.6881 -0.1362  0.0529
 4642SOL     OW25384   0.281   2.046  12.313 -0.5427  0.5348  0.0287
 4642SOL    HW125385   0.293   2.113  12.381  0.6613 -0.3905  0.7252
 4642SOL    HW225386   0.348   2.074  12.250 -0.2286  1.0553  0.5982
 4643SOL     OW25387   4.291   4.204   5.459 -0.5439  0.3614  0.3359
 4643SOL    HW125388   4.219   4.144   5.439  1.0497 -0.4417 -3.0550
 4643SOL    HW225389   4.239   4.284   5.463  0.5053  1.0257  0.6710
 4644SOL     OW25390   1.120   3.441   2.111  0.8461 -0.0197  0.4631
 4644SOL    HW125391   1.142   3.522   2.065 -2.1836  1.1056  0.9539
 4644SOL    HW225392   1.124   3.473   2.201  0.3623 -1.8936  1.1327
 4645SOL     OW25393   2.625   2.639   4.783 -0.3636  0.5763  0.3418
 4645SOL    HW125394   2.638   2.582   4.859 -1.3890  1.4247  1.1579
 4645SOL    HW225395   2.702   2.695   4.796 -1.6255  1.8478  2.4265
 4646SOL     OW25396   4.554   2.947   7.489  0.8742 -0.2186 -0.5022
 4646SOL    HW125397   4.467   2.941   7.450  1.3035 -0.4483 -1.4510
 4646SOL    HW225398   4.585   3.023   7.440  0.4994 -0.4769 -1.1438
 4647SOL     OW25399   1.504   3.334  17.219  0.0591 -0.3102  0.0773
 4647SOL    HW125400   1.415   3.362  17.238  0.4780  0.2947  1.1659
 4647SOL    HW225401   1.510   3.267  17.287  0.3412  0.7251  1.0727
 4648SOL     OW25402   3.848   1.970  16.323 -0.5096  0.0989 -0.5262
 4648SOL    HW125403   3.848   2.012  16.409 -0.2753 -0.5776 -0.1983
 4648SOL    HW225404   3.909   2.030  16.279  0.1412  0.9466  1.4967
 4649SOL     OW25405   3.967   1.861   2.761  0.1486 -0.3738  0.0066
 4649SOL    HW125406   3.944   1.871   2.669  0.1474 -0.0446  0.0416
 4649SOL    HW225407   3.937   1.770   2.765  2.4078 -1.1902 -2.3110
 4650SOL     OW25408   0.193   0.973   3.395 -0.1394  0.3858 -0.3065
 4650SOL    HW125409   0.191   0.955   3.301 -4.2498 -1.4867  0.1088
 4650SOL    HW225410   0.282   0.947   3.415  0.0906  1.0149 -0.5153
 4651SOL     OW25411   1.485   1.762  16.369  0.5258  0.0432 -0.6254
 4651SOL    HW125412   1.578   1.741  16.378  0.4606 -0.1437 -0.3590
 4651SOL    HW225413   1.445   1.680  16.399  1.1998 -0.6865 -1.7380
 4652SOL     OW25414   2.663   2.244   4.400 -0.3585 -0.6734 -0.4537
 4652SOL    HW125415   2.639   2.168   4.453  0.6131 -0.0379  0.8972
 4652SOL    HW225416   2.638   2.310   4.465  0.2243  0.6056 -1.5374
 4653SOL     OW25417   3.885   0.898  11.654 -0.1911  0.1735  0.5525
 4653SOL    HW125418   3.894   0.942  11.739 -0.5455 -0.0602  0.7103
 4653SOL    HW225419   3.935   0.817  11.662 -0.2943  0.1144  0.6085
 4654SOL     OW25420   3.505   3.087  16.049  0.1597  0.1772  0.3896
 4654SOL    HW125421   3.410   3.081  16.039  0.1265 -0.0092  0.7888
 4654SOL    HW225422   3.521   3.117  16.139 -1.1652 -1.8112  1.2954
 4655SOL     OW25423   3.917   1.846   4.142  0.1669  0.4891  0.2514
 4655SOL    HW125424   3.968   1.884   4.071  2.1309 -1.8236  0.4207
 4655SOL    HW225425   3.857   1.789   4.092 -0.2228  0.6344  0.5541
 4656SOL     OW25426   2.303   3.395   2.146 -0.4546  0.1792  0.3566
 4656SOL    HW125427   2.211   3.393   2.119 -0.9362 -1.0535  2.0994
 4656SOL    HW225428   2.341   3.462   2.090  0.5573 -1.0188 -0.3956
 4657SOL     OW25429   2.021   1.228   7.718 -0.2447  0.1522 -0.0432
 4657SOL    HW125430   1.949   1.183   7.763 -1.0035  0.3408 -1.0907
 4657SOL    HW225431   2.081   1.156   7.699  1.2012  0.8032  1.9252
 4658SOL     OW25432   0.997   1.332   0.480 -0.2022  0.0233  0.3649
 4658SOL    HW125433   0.987   1.402   0.416  1.4411  1.0334  1.1914
 4658SOL    HW225434   1.038   1.389   0.546  3.4517 -1.3970 -0.7129
 4659SOL     OW25435   2.218   0.728   4.322 -0.2110 -0.3814  0.2661
 4659SOL    HW125436   2.262   0.766   4.398 -0.4651 -1.0866  0.7735
 4659SOL    HW225437   2.275   0.660   4.285  1.7814  0.0421  2.5592
 4660SOL     OW25438   3.772   2.042   1.055 -0.0956 -0.2219 -0.8056
 4660SOL    HW125439   3.720   2.018   1.131  1.4106  1.5672  0.7626
 4660SOL    HW225440   3.816   1.960   1.034 -2.9078 -1.9279 -0.0248
 4661SOL     OW25441   2.546   1.914   5.528 -0.0261  0.1928 -0.8081
 4661SOL    HW125442   2.634   1.950   5.518  1.1546 -2.1733  1.0961
 4661SOL    HW225443   2.549   1.884   5.619  2.0288  0.8303 -0.6625
 4662SOL     OW25444   3.494   1.694   0.924  0.4916 -0.3459 -0.4053
 4662SOL    HW125445   3.448   1.743   0.992 -0.2341  1.3022 -2.1106
 4662SOL    HW225446   3.555   1.638   0.974  1.4548  0.7078 -0.3881
 4663SOL     OW25447   3.522   2.604  13.141 -0.0246  0.0161 -0.1408
 4663SOL    HW125448   3.566   2.660  13.077  2.0374  0.0966  1.3521
 4663SOL    HW225449   3.447   2.659  13.165  1.2737  1.8949 -0.3712
 4664SOL     OW25450   0.461   1.678   8.795 -0.6533  0.0460  0.2916
 4664SOL    HW125451   0.529   1.744   8.812 -1.0684  0.6962 -0.5384
 4664SOL    HW225452   0.434   1.691   8.704  1.0343  0.8141 -0.1041
 4665SOL     OW25453   1.535   0.473  10.345  0.3168 -0.0682  0.4937
 4665SOL    HW125454   1.465   0.473  10.411 -0.1683 -3.0875 -0.0194
 4665SOL    HW225455   1.616   0.468  10.396  0.3808  1.8481  0.5715
 4666SOL     OW25456   1.096   0.230   6.599  0.3868 -0.6136  0.1215
 4666SOL    HW125457   1.115   0.290   6.671 -3.5160  1.4632 -0.5809
 4666SOL    HW225458   1.097   0.147   6.647  0.6284  0.2676  1.6338
 4667SOL     OW25459   4.222   4.607   2.591 -0.1586  0.2048 -0.1601
 4667SOL    HW125460   4.247   4.515   2.604  0.5285  0.5137  0.7500
 4667SOL    HW225461   4.310   4.639   2.613 -0.7014  1.3376  0.3276
 4668SOL     OW25462   1.195   3.960   9.149 -0.4739 -0.1322  0.1605
 4668SOL    HW125463   1.161   3.974   9.237 -1.8278 -1.0041 -0.2301
 4668SOL    HW225464   1.252   3.888   9.175  2.2830  1.1701 -2.2451
 4669SOL     OW25465   3.991   4.018   8.938  0.1032  0.0774 -0.0539
 4669SOL    HW125466   3.930   3.978   9.000 -0.7315  0.4271 -0.6478
 4669SOL    HW225467   4.072   3.970   8.955 -1.0760 -1.3634  1.4837
 4670SOL     OW25468   2.943   2.280   7.456  0.6761 -0.8493  0.4685
 4670SOL    HW125469   2.947   2.364   7.409 -1.3547 -1.2640 -0.4649
 4670SOL    HW225470   2.877   2.284   7.526  0.1343 -2.5573  0.0572
 4671SOL     OW25471   0.441   4.038  10.117  0.3457 -0.2069 -0.5448
 4671SOL    HW125472   0.410   4.115  10.165  1.9592  0.2617 -0.2268
 4671SOL    HW225473   0.384   3.962  10.126 -1.0416  1.0075  1.0103
 4672SOL     OW25474   0.999   4.016   1.983  0.4190  0.4085 -0.0129
 4672SOL    HW125475   1.093   4.016   1.999  0.1402 -0.1279  1.6054
 4672SOL    HW225476   0.975   3.964   2.060 -1.3826  0.8135 -0.2830
 4673SOL     OW25477   1.528   2.188   5.514  0.0723 -0.2742 -0.2373
 4673SOL    HW125478   1.479   2.185   5.432 -2.4218  0.0217  1.2306
 4673SOL    HW225479   1.520   2.283   5.522 -0.8824 -0.4616  0.9501
 4674SOL     OW25480   1.594   4.179   6.225  0.6346 -0.8527 -0.2602
 4674SOL    HW125481   1.581   4.258   6.277  1.2549  0.1099 -1.5725
 4674SOL    HW225482   1.682   4.184   6.188  0.4672  0.4022 -0.4681
 4675SOL     OW25483   1.231   2.898   7.983 -0.5495  0.0788  0.2223
 4675SOL    HW125484   1.166   2.964   8.007 -1.4133 -0.8663  0.4764
 4675SOL    HW225485   1.229   2.894   7.888  2.0906  0.0949  0.1657
 4676SOL     OW25486   3.557   2.082   9.478 -0.2266  0.2124  0.1908
 4676SOL    HW125487   3.507   2.101   9.558 -0.7498  0.6726 -0.2425
 4676SOL    HW225488   3.535   1.991   9.460  0.8813  0.1372 -0.7104
 4677SOL     OW25489   4.480   4.530   3.152 -0.8222  0.8254 -0.5693
 4677SOL    HW125490   4.471   4.617   3.111 -0.0094  1.4422  0.5674
 4677SOL    HW225491   4.520   4.486   3.078 -0.2361 -1.6962  1.2673
 4678SOL     OW25492   1.642   1.085  10.517  1.0076  0.5957 -0.0758
 4678SOL    HW125493   1.606   1.048  10.436 -0.1528 -1.2151  1.2526
 4678SOL    HW225494   1.730   1.057  10.493 -0.4463 -4.7518  0.6204
 4679SOL     OW25495   2.997   0.211  16.883 -0.1674  0.4595 -0.0870
 4679SOL    HW125496   3.033   0.229  16.969 -0.4595 -2.5707  0.6497
 4679SOL    HW225497   2.938   0.139  16.905  1.8128 -1.4150 -0.9029
 4680SOL     OW25498   4.497   0.467   5.980  0.3113 -0.5723 -0.1838
 4680SOL    HW125499   4.591   0.477   5.967  0.1735  2.3281  0.9946
 4680SOL    HW225500   4.475   0.518   5.902 -1.0116 -2.0606 -0.7905
 4681SOL     OW25501   4.540   2.972  11.334 -0.1564 -0.0561  0.3245
 4681SOL    HW125502   4.570   2.956  11.244 -4.3584  2.0663 -1.4852
 4681SOL    HW225503   4.513   3.064  11.342 -1.5775 -0.6126  1.7866
 4682SOL     OW25504   3.337   4.595   3.350  0.1510 -0.8093 -0.0029
 4682SOL    HW125505   3.242   4.586   3.352  0.1256  0.0382  2.5134
 4682SOL    HW225506   3.351   4.621   3.258  2.1579  3.4160  1.4723
 4683SOL     OW25507   4.509   0.028   5.600  0.4631 -0.0206  0.1009
 4683SOL    HW125508   4.485   4.723   5.512  0.9792  0.8816 -0.3480
 4683SOL    HW225509   4.538   4.669   5.635  0.4147  0.0916  0.4044
 4684SOL     OW25510   1.343   1.119   2.924  0.4927 -0.0865 -0.0251
 4684SOL    HW125511   1.418   1.173   2.948  0.0836  0.8331 -0.8322
 4684SOL    HW225512   1.285   1.134   2.998 -0.4515 -0.3762 -0.7058
 4685SOL     OW25513   2.519   4.033   1.591 -0.4192 -0.6287 -0.4958
 4685SOL    HW125514   2.530   3.938   1.601 -0.2240 -0.4838  0.6233
 4685SOL    HW225515   2.552   4.072   1.671 -1.0680 -0.1690 -0.4530
 4686SOL     OW25516   2.205   0.307   4.838 -0.4433 -0.0136 -0.1008
 4686SOL    HW125517   2.233   0.343   4.754  1.1416  0.4803  0.6333
 4686SOL    HW225518   2.132   0.251   4.813 -0.8819  0.5108 -0.0164
 4687SOL     OW25519   4.722   2.507  14.843  0.0489 -0.3502  0.1227
 4687SOL    HW125520   0.032   2.537  14.927 -2.6534  0.4340  0.9472
 4687SOL    HW225521   4.664   2.580  14.824  0.2455 -0.4157 -0.7293
 4688SOL     OW25522   3.812   2.711   8.211 -0.6092  0.8893 -0.5078
 4688SOL    HW125523   3.757   2.642   8.248  2.2028 -1.0605  0.0694
 4688SOL    HW225524   3.797   2.783   8.272 -0.3954  1.7864 -1.5072
 4689SOL     OW25525   1.554   3.476   5.732 -0.2674 -0.2133  0.5583
 4689SOL    HW125526   1.555   3.559   5.780  1.9669 -1.0157  1.8920
 4689SOL    HW225527   1.637   3.475   5.684 -0.4101  1.9287  0.2335
 4690SOL     OW25528   3.174   0.851  11.413  0.7572 -0.1938 -0.2057
 4690SOL    HW125529   3.118   0.929  11.416  0.9098 -0.0477 -1.2723
 4690SOL    HW225530   3.110   0.783  11.397  0.4104  0.4582 -1.6458
 4691SOL     OW25531   0.786   4.392   4.011 -0.1920 -0.8831  0.1778
 4691SOL    HW125532   0.828   4.477   3.996  0.8410 -1.1923  1.3812
 4691SOL    HW225533   0.740   4.390   3.927 -1.2648  1.1199  0.7072
 4692SOL     OW25534   3.983   0.400  17.616  0.3697  0.5450  0.6401
 4692SOL    HW125535   3.904   0.379  17.665  0.0488  1.5965  0.5679
 4692SOL    HW225536   3.941   0.403  17.531  1.0851  0.2323  0.2722
 4693SOL     OW25537   1.719   0.356   7.881 -0.0488 -0.0034  0.1188
 4693SOL    HW125538   1.745   0.267   7.860  0.1425 -0.2186  1.2575
 4693SOL    HW225539   1.648   0.338   7.942  1.1426 -0.7501  1.2722
 4694SOL     OW25540   1.706   1.111   5.026 -0.0550 -0.9146  0.2185
 4694SOL    HW125541   1.682   1.032   5.076  2.4327 -1.9337 -0.2100
 4694SOL    HW225542   1.632   1.169   5.047  0.6902 -0.2656  1.0440
 4695SOL     OW25543   3.893   1.665  16.214  0.0470  0.0674  0.2080
 4695SOL    HW125544   3.832   1.609  16.167 -0.3944 -0.0717  0.9444
 4695SOL    HW225545   3.836   1.738  16.239  1.0536  0.1298  2.3145
 4696SOL     OW25546   3.197   2.901   6.285  0.1904 -0.2176  0.2914
 4696SOL    HW125547   3.226   2.992   6.289 -4.7587  1.5041 -2.6909
 4696SOL    HW225548   3.211   2.891   6.190 -1.1907  2.1145 -0.1750
 4697SOL     OW25549   0.091   4.260  17.551 -0.0666  0.7861  0.4536
 4697SOL    HW125550   0.117   4.212  17.472 -0.8114  2.7594 -0.9992
 4697SOL    HW225551   0.007   4.221  17.575  0.9527 -2.7900 -1.6927
 4698SOL     OW25552   4.043   1.069   8.970  0.1321 -0.1325 -0.2211
 4698SOL    HW125553   3.955   1.057   8.934 -0.3028  0.0478  0.7756
 4698SOL    HW225554   4.075   0.979   8.967 -1.2163 -0.6517  1.1602
 4699SOL     OW25555   4.110   2.690   8.930 -0.5555 -0.2815 -0.0109
 4699SOL    HW125556   4.084   2.682   8.838  0.5786  0.4173 -0.3820
 4699SOL    HW225557   4.174   2.621   8.943  1.8807  2.2559  1.6702
 4700SOL     OW25558   2.842   3.759   5.605  0.7653  0.0822  0.7918
 4700SOL    HW125559   2.860   3.852   5.610 -0.4183  0.4227 -1.5007
 4700SOL    HW225560   2.923   3.722   5.642  1.1925  0.2070 -0.0328
 4701SOL     OW25561   0.622   1.098  13.550 -0.6164  0.1904  0.6408
 4701SOL    HW125562   0.577   1.174  13.513 -1.5949 -0.6464  0.0950
 4701SOL    HW225563   0.549   1.038  13.566  1.3460 -2.1611  0.8802
 4702SOL     OW25564   4.497   2.335   0.603  0.7413  0.4389 -0.3277
 4702SOL    HW125565   4.497   2.245   0.569  0.3849  2.1853 -4.9045
 4702SOL    HW225566   4.482   2.380   0.520 -0.2611 -1.5490 -1.2338
 4703SOL     OW25567   2.017   4.598  17.551 -0.4770 -0.4226 -0.1790
 4703SOL    HW125568   2.094   4.549  17.581 -1.5012 -0.8448  1.7696
 4703SOL    HW225569   1.963   4.587  17.629  0.8025 -0.6177  0.6885
 4704SOL     OW25570   1.049   3.636   3.369 -0.0111 -0.2031 -0.1698
 4704SOL    HW125571   1.065   3.698   3.299  0.9387  0.5361  0.7017
 4704SOL    HW225572   1.126   3.654   3.423  0.0112 -1.8938  0.3622
 4705SOL     OW25573   4.221   1.651  10.355  0.3617  0.3575 -0.2080
 4705SOL    HW125574   4.144   1.613  10.397  0.1732  0.8796 -0.0863
 4705SOL    HW225575   4.297   1.610  10.394 -1.7147  0.2802  3.7409
 4706SOL     OW25576   2.247   0.737   5.370 -0.0712  0.3688  0.2428
 4706SOL    HW125577   2.247   0.680   5.448  2.6777  0.0599 -0.0049
 4706SOL    HW225578   2.260   0.674   5.299  0.1550  0.7225 -0.0232
 4707SOL     OW25579   0.809   0.741   2.857  0.0132 -0.0367  0.2578
 4707SOL    HW125580   0.722   0.715   2.827  0.4673 -1.8043  0.4639
 4707SOL    HW225581   0.835   0.805   2.790 -1.0394 -0.4063 -0.5021
 4708SOL     OW25582   0.130   3.676   1.472  0.1803  0.1504  0.3197
 4708SOL    HW125583   0.086   3.701   1.553  0.5961  0.5497  0.4186
 4708SOL    HW225584   0.164   3.587   1.485  1.7262  0.3303 -2.4799
 4709SOL     OW25585   3.043   3.568   7.583  0.0573 -0.5955  0.3416
 4709SOL    HW125586   2.984   3.626   7.535  0.6038  0.5518  1.0670
 4709SOL    HW225587   3.018   3.485   7.542 -0.5648 -0.8774  1.2722
 4710SOL     OW25588   0.559   1.575  14.749  0.3647  0.8644 -0.1904
 4710SOL    HW125589   0.624   1.505  14.755 -0.0869  0.3800 -0.9460
 4710SOL    HW225590   0.518   1.554  14.833 -0.7294 -0.4720 -1.0518
 4711SOL     OW25591   4.288   2.229   5.133  0.2697  0.5364  0.0470
 4711SOL    HW125592   4.355   2.217   5.201  1.7117 -4.6205 -2.2504
 4711SOL    HW225593   4.333   2.222   5.049 -1.2575 -1.8260 -0.5755
 4712SOL     OW25594   1.760   0.990   7.605 -0.2392  0.0200 -0.4385
 4712SOL    HW125595   1.665   0.997   7.616 -0.0194  1.6869  0.4088
 4712SOL    HW225596   1.784   0.974   7.696 -0.1948 -1.5923 -0.7378
 4713SOL     OW25597   2.960   0.035   6.975  0.2304  0.1338  0.0368
 4713SOL    HW125598   2.999   0.096   7.037  1.3851 -1.4606  0.8953
 4713SOL    HW225599   3.007   0.058   6.896 -0.8439  0.1299 -0.6083
 4714SOL     OW25600   4.235   1.442   0.876 -0.0398  0.1807  0.2933
 4714SOL    HW125601   4.261   1.351   0.860  1.4150  0.5517  0.5656
 4714SOL    HW225602   4.301   1.493   0.829 -0.4180  1.3132  0.9853
 4715SOL     OW25603   0.251   1.591   6.564 -0.0940 -0.2414  0.3331
 4715SOL    HW125604   0.247   1.664   6.627 -1.4318  0.1357 -0.1864
 4715SOL    HW225605   0.266   1.633   6.479 -0.3780  0.2978  0.5411
 4716SOL     OW25606   0.511   3.950   9.504  0.2288  0.4309  0.1846
 4716SOL    HW125607   0.569   3.925   9.431 -2.5182 -1.5488 -1.3154
 4716SOL    HW225608   0.488   4.037   9.472  1.1388  1.6205  2.8262
 4717SOL     OW25609   3.676   0.248   6.913 -0.2931 -0.0516 -0.0498
 4717SOL    HW125610   3.582   0.260   6.902 -0.1817 -0.0757 -1.0457
 4717SOL    HW225611   3.707   0.276   6.827  0.7133 -0.2092  0.2533
 4718SOL     OW25612   3.514   1.268   2.167  0.1011 -0.7581  0.2303
 4718SOL    HW125613   3.452   1.237   2.233  0.8846 -1.1351  0.7884
 4718SOL    HW225614   3.561   1.330   2.222 -0.3432 -1.2941  1.2092
 4719SOL     OW25615   4.670   0.673   7.723 -0.1066 -0.4643 -0.1639
 4719SOL    HW125616   4.618   0.642   7.797 -2.4548 -0.6713 -1.9165
 4719SOL    HW225617   0.003   0.735   7.770 -1.0720  0.3610 -0.0764
 4720SOL     OW25618   4.350   4.375   2.800  0.0188 -0.1679  0.3738
 4720SOL    HW125619   4.437   4.382   2.761  0.1142  0.5912  0.7159
 4720SOL    HW225620   4.302   4.331   2.730  1.3215 -0.4154 -0.3773
 4721SOL     OW25621   2.223   1.137   0.779  0.2190 -0.3109  0.0216
 4721SOL    HW125622   2.195   1.139   0.687  0.4372 -2.4080 -0.0863
 4721SOL    HW225623   2.197   1.227   0.803 -0.9105 -0.1527 -1.7568
 4722SOL     OW25624   1.966   0.645   1.107  0.2693 -0.2684 -0.6741
 4722SOL    HW125625   2.042   0.641   1.165  0.3385  0.2503 -0.7310
 4722SOL    HW225626   1.993   0.692   1.028  1.6933 -3.3162 -1.9921
 4723SOL     OW25627   2.284   2.967   2.342  0.3150 -0.1049 -0.0718
 4723SOL    HW125628   2.283   3.062   2.351  1.5827 -0.4869  4.3576
 4723SOL    HW225629   2.371   2.943   2.373  0.3453  1.3718  0.9760
 4724SOL     OW25630   0.335   2.934   5.050 -0.0440  0.4667 -0.9784
 4724SOL    HW125631   0.388   2.870   5.002  0.1949 -0.5890  0.7050
 4724SOL    HW225632   0.369   3.018   5.019 -1.2677  1.4947  0.4424
 4725SOL     OW25633   1.572   0.405  14.074  0.1735 -0.2188  0.5008
 4725SOL    HW125634   1.537   0.399  13.986 -0.5258 -0.9428  0.8330
 4725SOL    HW225635   1.652   0.450  14.046 -1.9579  3.3123  0.0231
 4726SOL     OW25636   3.610   2.358   6.662 -0.4584  0.2024 -0.7465
 4726SOL    HW125637   3.547   2.417   6.622 -0.1337  1.0220 -0.0485
 4726SOL    HW225638   3.611   2.384   6.754 -0.6976  0.0038 -0.6889
 4727SOL     OW25639   3.068   2.960   1.060  0.6720 -0.0761 -0.4802
 4727SOL    HW125640   3.075   3.006   0.976 -1.1032  0.7073 -0.2113
 4727SOL    HW225641   2.975   2.978   1.074  0.9594  1.7307 -0.9215
 4728SOL     OW25642   0.173   1.882   2.595  0.2853 -0.7801  1.0442
 4728SOL    HW125643   0.212   1.876   2.508 -0.7060 -0.9591  0.6014
 4728SOL    HW225644   0.078   1.886   2.582  0.2453  0.1077  1.6235
 4729SOL     OW25645   3.655   0.549   5.058 -0.1733  0.0544  0.3811
 4729SOL    HW125646   3.717   0.533   4.986 -0.3328 -1.0545  0.4942
 4729SOL    HW225647   3.575   0.505   5.029  0.8195 -2.0036  0.8065
 4730SOL     OW25648   1.327   1.337  15.582  0.0930  0.2770 -0.4539
 4730SOL    HW125649   1.264   1.294  15.524 -0.7656 -0.1346  0.7685
 4730SOL    HW225650   1.288   1.338  15.670  0.0483  3.0099 -0.5053
 4731SOL     OW25651   0.623   0.875   8.071 -0.2330  0.0800  0.6912
 4731SOL    HW125652   0.550   0.920   8.029 -0.0219 -0.1431  0.0778
 4731SOL    HW225653   0.590   0.791   8.103 -0.1975 -0.1256  0.1952
 4732SOL     OW25654   1.623   0.713   4.746 -0.7768 -0.7606 -0.0924
 4732SOL    HW125655   1.577   0.795   4.764 -1.0077 -1.0869  0.7950
 4732SOL    HW225656   1.712   0.744   4.731 -1.4339  0.8588 -0.5544
 4733SOL     OW25657   1.233   4.656   4.854  0.0831  0.1634 -0.1248
 4733SOL    HW125658   1.229   4.561   4.845 -0.4969  0.2854 -1.1702
 4733SOL    HW225659   1.223   4.690   4.765 -1.4665  0.5013  0.1792
 4734SOL     OW25660   1.858   0.063  15.248  0.3103 -0.2554 -0.3069
 4734SOL    HW125661   1.904   4.705  15.260 -1.7802 -0.9083  3.1028
 4734SOL    HW225662   1.922   0.116  15.200  0.4446  0.8567  1.0879
 4735SOL     OW25663   3.756   4.365  15.672 -0.0684 -0.3548  0.3799
 4735SOL    HW125664   3.807   4.344  15.593 -0.0292 -1.6246  0.7428
 4735SOL    HW225665   3.787   4.303  15.737  1.1356 -0.7535 -0.5754
 4736SOL     OW25666   4.711   1.005   9.211 -0.2808  0.8794 -0.2520
 4736SOL    HW125667   4.637   1.065   9.214  0.1279  1.3418  0.5216
 4736SOL    HW225668   4.720   0.991   9.305 -2.3619  0.3049 -0.1597
 4737SOL     OW25669   2.337   0.124   6.270  0.0970  0.0525 -0.0618
 4737SOL    HW125670   2.263   0.184   6.260 -0.2841 -0.3857  0.1136
 4737SOL    HW225671   2.311   0.052   6.213  0.6309 -1.1762  1.2580
 4738SOL     OW25672   3.622   3.009   5.306  0.0789 -0.1920 -0.1127
 4738SOL    HW125673   3.558   3.047   5.366  1.3292  1.7502 -0.0159
 4738SOL    HW225674   3.676   2.955   5.364  0.6510 -2.2506 -2.6106
 4739SOL     OW25675   1.084   0.632   3.613 -0.7906  0.1800  0.4370
 4739SOL    HW125676   1.052   0.722   3.622  0.1419  0.4087  1.4293
 4739SOL    HW225677   1.049   0.602   3.529  0.9918 -1.4603  0.2876
 4740SOL     OW25678   3.647   3.099   5.635  0.2109  0.2524 -0.5971
 4740SOL    HW125679   3.571   3.102   5.578  0.4845  1.1592 -0.9036
 4740SOL    HW225680   3.710   3.043   5.588  0.4576  0.2452 -0.2626
 4741SOL     OW25681   0.180   0.402   6.427  0.1214 -0.4171 -0.3074
 4741SOL    HW125682   0.261   0.405   6.476  0.1403  0.1199 -0.3676
 4741SOL    HW225683   0.170   0.308   6.435  1.4139 -0.5403 -0.1839
 4742SOL     OW25684   2.025   2.330  17.208 -0.0983 -0.1973  0.2915
 4742SOL    HW125685   2.058   2.375  17.286 -1.7046 -0.5373  1.1612
 4742SOL    HW225686   1.995   2.246  17.240  0.0450 -0.2580  0.2671
 4743SOL     OW25687   0.721   1.164  12.637 -0.6865 -0.2491  0.4982
 4743SOL    HW125688   0.782   1.125  12.700 -0.7893 -0.3174  0.5564
 4743SOL    HW225689   0.782   1.214  12.584 -1.0547  0.2549  0.5450
 4744SOL     OW25690   3.491   2.050   8.173  0.2968 -0.3450  0.0709
 4744SOL    HW125691   3.447   2.119   8.124 -0.3435 -0.3731  0.6058
 4744SOL    HW225692   3.580   2.057   8.138 -1.1725  0.9949 -3.3616
 4745SOL     OW25693   2.593   0.222   6.609  0.4343 -0.0059 -0.1192
 4745SOL    HW125694   2.535   0.223   6.686  0.9785  0.2140  0.2890
 4745SOL    HW225695   2.596   0.313   6.580 -1.2813 -0.4100 -1.5613
 4746SOL     OW25696   0.692   2.852   5.480  0.3660  0.4501  0.4185
 4746SOL    HW125697   0.612   2.898   5.455  0.3713 -0.2378 -0.8511
 4746SOL    HW225698   0.664   2.764   5.452 -0.3359  1.0258 -0.6786
 4747SOL     OW25699   0.301   3.773   8.286 -0.0737 -0.2755  0.5515
 4747SOL    HW125700   0.379   3.751   8.338 -0.1735  0.7419  1.1262
 4747SOL    HW225701   0.237   3.734   8.345 -1.5994  2.5501  0.7228
 4748SOL     OW25702   1.648   4.650   1.553 -0.0254  0.1885  0.1662
 4748SOL    HW125703   1.642   4.688   1.640 -0.8544  3.1055 -1.1582
 4748SOL    HW225704   1.564   4.606   1.564  0.1735 -0.0745  0.6274
 4749SOL     OW25705   1.882   1.730  12.821 -0.3148  0.1561 -0.2090
 4749SOL    HW125706   1.943   1.800  12.796  0.4785 -0.0644  1.1073
 4749SOL    HW225707   1.862   1.705  12.730  1.7116  3.4187 -1.5495
 4750SOL     OW25708   0.273   2.575  11.784 -0.3272  0.1775 -0.1312
 4750SOL    HW125709   0.186   2.609  11.803 -0.2240  0.4219 -0.1066
 4750SOL    HW225710   0.280   2.637  11.711 -0.6579  1.3235  0.8268
 4751SOL     OW25711   3.541   3.656   8.601 -0.0275  0.1866 -0.3018
 4751SOL    HW125712   3.501   3.731   8.558  0.5122  0.3965 -0.4422
 4751SOL    HW225713   3.579   3.695   8.679  0.8890 -0.1651 -0.5705
 4752SOL     OW25714   1.347   1.439   2.432 -0.1701  0.3492 -0.1489
 4752SOL    HW125715   1.387   1.373   2.489  2.2990  1.4716 -0.5691
 4752SOL    HW225716   1.341   1.379   2.359  0.2778  0.7596 -0.5237
 4753SOL     OW25717   4.302   3.020   2.695 -0.3378  0.2207  0.4142
 4753SOL    HW125718   4.305   2.931   2.660 -1.1331  0.6808 -0.7961
 4753SOL    HW225719   4.258   2.999   2.778 -1.6707  0.7667 -0.1583
 4754SOL     OW25720   0.245   1.685   9.205 -0.2123 -0.3738 -0.1444
 4754SOL    HW125721   0.310   1.624   9.169 -0.0821 -0.6260  0.5145
 4754SOL    HW225722   0.228   1.733   9.124 -2.3813  0.2412  0.6848
 4755SOL     OW25723   1.053   0.377   6.149 -0.5404 -1.1020 -0.7761
 4755SOL    HW125724   1.114   0.345   6.083  1.3978  0.0921  0.4652
 4755SOL    HW225725   1.008   0.442   6.095  1.9693  0.2575 -1.1991
 4756SOL     OW25726   1.344   4.577   0.710  0.2058  0.1151 -0.1780
 4756SOL    HW125727   1.298   4.656   0.683 -1.0180 -0.5543 -0.0279
 4756SOL    HW225728   1.433   4.603   0.686  0.5223 -0.3386  0.4950
 4757SOL     OW25729   3.114   4.587  17.255  0.6401 -0.1000 -0.1954
 4757SOL    HW125730   3.186   4.592  17.192  1.0600  1.3950  0.4201
 4757SOL    HW225731   3.108   4.674  17.293 -1.4738 -1.9415  3.7300
 4758SOL     OW25732   4.435   4.642   7.533  0.8210  0.4637 -0.3482
 4758SOL    HW125733   4.473   4.592   7.605  0.7450 -2.5565 -2.4054
 4758SOL    HW225734   4.393   4.576   7.477  1.2957 -1.1694  1.2229
 4759SOL     OW25735   0.457   1.551  17.372  0.8657  0.3977  0.3660
 4759SOL    HW125736   0.474   1.585  17.285 -0.1367  0.0465  0.0337
 4759SOL    HW225737   0.421   1.629  17.415 -1.9591 -0.6795 -0.0553
 4760SOL     OW25738   4.583   3.120   8.517 -0.1525 -0.2766  0.2237
 4760SOL    HW125739   4.612   3.169   8.594  1.6151 -0.8847 -0.0682
 4760SOL    HW225740   4.665   3.082   8.485  1.0553  1.0209  1.8108
 4761SOL     OW25741   0.860   3.424   0.796  0.2406 -0.0696  0.2577
 4761SOL    HW125742   0.894   3.430   0.885 -0.1709  0.0077  0.4102
 4761SOL    HW225743   0.859   3.517   0.774 -1.4595  0.0358  0.8391
 4762SOL     OW25744   0.059   2.593   5.826 -0.1068  0.3888 -0.1003
 4762SOL    HW125745   0.029   2.663   5.769  2.2566  0.4374 -1.2760
 4762SOL    HW225746   0.006   2.616   5.903 -0.1681 -2.0836  0.6052
 4763SOL     OW25747   3.133   3.718   7.285 -0.6343  0.1364 -0.3692
 4763SOL    HW125748   3.048   3.680   7.305 -1.1936  1.2998 -0.5435
 4763SOL    HW225749   3.160   3.658   7.215 -0.2257  0.7597 -0.7525
 4764SOL     OW25750   0.646   4.452  15.582  0.2096 -0.2104 -0.2068
 4764SOL    HW125751   0.730   4.498  15.580 -0.0998  0.4086  1.2534
 4764SOL    HW225752   0.647   4.408  15.667  0.0239  0.6094  0.2205
 4765SOL     OW25753   1.623   0.440  12.540 -0.1403  0.4598  0.0478
 4765SOL    HW125754   1.636   0.535  12.546  2.0781  0.0607  1.3621
 4765SOL    HW225755   1.580   0.435  12.454 -0.5935 -0.6470  0.3335
 4766SOL     OW25756   2.402   0.671   4.028 -0.2782 -0.0813  0.0878
 4766SOL    HW125757   2.482   0.649   3.981 -0.2942  0.0356  0.0029
 4766SOL    HW225758   2.416   0.761   4.057  1.9023 -0.1601 -0.6828
 4767SOL     OW25759   2.534   2.411   2.728 -0.2934  0.0785  0.6813
 4767SOL    HW125760   2.605   2.449   2.677 -0.9638  0.3481 -0.0626
 4767SOL    HW225761   2.565   2.384   2.814 -2.1487 -3.0311  0.4188
 4768SOL     OW25762   0.540   0.392  15.124 -1.0239 -0.5773 -0.2569
 4768SOL    HW125763   0.635   0.401  15.137 -0.8655 -1.3249 -0.9226
 4768SOL    HW225764   0.521   0.453  15.053  0.9636 -0.2558 -0.5138
 4769SOL     OW25765   4.454   2.252  11.177  0.1273  0.0192 -0.3285
 4769SOL    HW125766   4.490   2.247  11.266 -1.4482  1.1281  0.3710
 4769SOL    HW225767   4.359   2.249  11.194 -0.0776  1.2428 -1.3143
 4770SOL     OW25768   2.473   3.621   2.557  0.2611  0.5731 -0.1257
 4770SOL    HW125769   2.434   3.534   2.549  1.0571  0.1690  0.4783
 4770SOL    HW225770   2.474   3.632   2.652  0.6122  1.2024 -0.2067
 4771SOL     OW25771   2.657   0.195   7.275 -0.3263  0.2314  0.0454
 4771SOL    HW125772   2.588   0.245   7.318  0.2934 -0.8286  2.3010
 4771SOL    HW225773   2.685   0.250   7.201  3.4772  1.2061  2.1860
 4772SOL     OW25774   0.139   0.191   4.108 -0.1958 -0.4375 -0.2023
 4772SOL    HW125775   0.184   0.209   4.191  0.5063  0.4464 -0.7733
 4772SOL    HW225776   0.102   0.277   4.088  1.1869  0.3695  0.6777
 4773SOL     OW25777   3.072   3.174  12.176  0.0689  0.7625 -0.4052
 4773SOL    HW125778   3.075   3.196  12.269  2.1840 -0.2083 -0.2421
 4773SOL    HW225779   3.155   3.125  12.176 -0.4524 -0.1201  1.4286
 4774SOL     OW25780   3.187   0.512  17.297  0.0272 -0.1969 -0.1343
 4774SOL    HW125781   3.125   0.584  17.281  0.3879  0.5859  2.0132
 4774SOL    HW225782   3.206   0.519  17.390  0.1065  0.3116 -0.1882
 4775SOL     OW25783   1.499   3.378   6.590  0.5272 -0.1798  0.2988
 4775SOL    HW125784   1.413   3.346   6.565  0.0270  0.8541  0.6833
 4775SOL    HW225785   1.531   3.411   6.507  0.1019 -0.7502 -0.0921
 4776SOL     OW25786   3.577   2.029  10.848  0.3623  0.6184  0.0361
 4776SOL    HW125787   3.512   1.979  10.800  1.6303 -0.2975 -0.7236
 4776SOL    HW225788   3.629   2.058  10.773  0.5157  3.2963  1.1766
 4777SOL     OW25789   0.668   4.168  16.083  0.0452 -0.3652  0.2501
 4777SOL    HW125790   0.728   4.136  16.150 -0.0312  0.2568  0.6105
 4777SOL    HW225791   0.607   4.095  16.087  0.0583 -0.5448 -2.2678
 4778SOL     OW25792   0.238   2.820   7.138 -0.1925  0.8622 -0.2205
 4778SOL    HW125793   0.307   2.769   7.095 -1.3180  1.0308 -2.2129
 4778SOL    HW225794   0.165   2.761   7.119  1.1713 -1.8994  2.9616
 4779SOL     OW25795   3.882   1.515   5.564 -0.0836  0.2875  0.3268
 4779SOL    HW125796   3.803   1.471   5.535 -1.0873  1.1736  1.7082
 4779SOL    HW225797   3.954   1.469   5.522  0.1687  0.1682  0.8824
 4780SOL     OW25798   4.074   3.285  17.430 -0.0404  0.1601  0.6106
 4780SOL    HW125799   3.984   3.319  17.424 -0.6250 -1.8030 -1.8972
 4780SOL    HW225800   4.098   3.314  17.342  0.4318  1.1194  1.0624
 4781SOL     OW25801   2.091   2.836  12.433  0.6783 -0.0833  0.6338
 4781SOL    HW125802   2.014   2.787  12.402  0.4291  0.4879  0.3635
 4781SOL    HW225803   2.054   2.912  12.478  1.4061 -0.1662  1.3630
 4782SOL     OW25804   1.315   3.852   3.891  0.1394 -0.3703 -0.2169
 4782SOL    HW125805   1.288   3.786   3.955 -1.3947  0.9820  0.5335
 4782SOL    HW225806   1.250   3.921   3.906 -0.2186 -0.4721 -1.3300
 4783SOL     OW25807   1.308   4.315  10.422  0.7816  0.8114  0.0469
 4783SOL    HW125808   1.348   4.400  10.441  0.5287 -0.0845  4.4738
 4783SOL    HW225809   1.352   4.282  10.343 -0.7889 -0.4458 -0.3102
 4784SOL     OW25810   1.081   0.976   5.690  0.3185 -0.0737  0.2995
 4784SOL    HW125811   1.018   1.018   5.630  0.5267 -1.8903 -1.1761
 4784SOL    HW225812   1.016   0.954   5.757 -0.0011 -1.8985 -0.6215
 4785SOL     OW25813   3.553   0.436   9.664 -0.4981  0.4717 -0.3609
 4785SOL    HW125814   3.493   0.508   9.643 -0.4387  0.2680 -1.2156
 4785SOL    HW225815   3.619   0.483   9.716 -0.7636  0.0418  0.3554
 4786SOL     OW25816   1.495   0.534   0.579  0.3367  0.3646  0.3468
 4786SOL    HW125817   1.587   0.557   0.587  0.0952  1.1963  0.7533
 4786SOL    HW225818   1.500   0.439   0.595  0.6139 -0.0138 -2.0338
 4787SOL     OW25819   1.985   1.640  10.370  1.1621 -0.1318  0.9140
 4787SOL    HW125820   2.052   1.639  10.301 -1.0156  0.7224 -1.2200
 4787SOL    HW225821   1.988   1.545  10.375  0.5261 -0.1393  1.1600
 4788SOL     OW25822   3.189   2.759   4.758  0.0637 -0.3875  0.5963
 4788SOL    HW125823   3.216   2.848   4.776  3.5477 -1.4188  0.3401
 4788SOL    HW225824   3.216   2.721   4.842  0.3185  1.9297  1.5493
 4789SOL     OW25825   1.937   3.945   7.565 -0.1793  0.3838 -0.8254
 4789SOL    HW125826   1.880   3.997   7.509 -0.3498  0.9856 -0.1008
 4789SOL    HW225827   1.877   3.882   7.606 -1.2104  1.8245 -0.1286
 4790SOL     OW25828   4.660   4.371   2.396  0.0088 -0.0826 -0.1010
 4790SOL    HW125829   0.024   4.408   2.384 -0.8143  2.1935  0.8601
 4790SOL    HW225830   4.681   4.281   2.420  2.0145 -0.4388 -3.2278
 4791SOL     OW25831   3.171   0.963   3.085 -0.4909 -0.1887 -0.0161
 4791SOL    HW125832   3.242   0.902   3.102  1.6698  2.1748 -0.6043
 4791SOL    HW225833   3.215   1.024   3.026 -1.8762  0.2319 -0.6182
 4792SOL     OW25834   0.315   1.637  10.064 -0.3756  0.0889  0.3252
 4792SOL    HW125835   0.345   1.712  10.013  3.9704 -0.0062  2.7532
 4792SOL    HW225836   0.226   1.667  10.082 -0.9180 -1.7696  0.7967
 4793SOL     OW25837   1.971   1.286  17.469 -0.0830  0.2667 -0.2046
 4793SOL    HW125838   2.044   1.343  17.492 -1.4205  1.9593 -0.1475
 4793SOL    HW225839   2.008   1.199  17.487 -0.9778 -0.0482  0.1553
 4794SOL     OW25840   3.591   0.493  14.564 -0.2808 -0.4383 -0.1406
 4794SOL    HW125841   3.498   0.473  14.562 -0.1244 -1.0137 -1.6198
 4794SOL    HW225842   3.616   0.414  14.611  0.7287  0.1839  0.3737
 4795SOL     OW25843   1.549   0.648   1.035 -0.1010  0.2153  0.0256
 4795SOL    HW125844   1.596   0.724   1.068  1.2554 -1.4502  1.9022
 4795SOL    HW225845   1.498   0.673   0.958  0.1755 -1.1803 -0.6149
 4796SOL     OW25846   0.346   2.908   5.330 -0.0733 -0.3994  0.3009
 4796SOL    HW125847   0.338   2.813   5.330 -0.1803 -0.3929  0.7382
 4796SOL    HW225848   0.356   2.931   5.238 -0.7789  1.2958  0.6406
 4797SOL     OW25849   3.890   0.050   6.926  0.9379  0.1548  0.2249
 4797SOL    HW125850   3.905   0.005   7.009 -0.0417  0.6264  0.6616
 4797SOL    HW225851   3.795   0.061   6.922  0.8920  0.1240  1.2063
 4798SOL     OW25852   0.331   0.790   6.652 -0.7319 -0.1723 -0.5306
 4798SOL    HW125853   0.315   0.821   6.741 -0.9280 -0.7353 -0.3741
 4798SOL    HW225854   0.346   0.698   6.671  3.5016  0.5752 -0.3563
 4799SOL     OW25855   3.379   0.008   6.120 -0.0537 -0.6985  0.1689
 4799SOL    HW125856   3.355   0.100   6.111 -0.0238 -0.5793  1.2920
 4799SOL    HW225857   3.377   4.699   6.030  0.1913 -1.1551  0.3341
 4800SOL     OW25858   0.394   3.732   6.318 -0.1469 -0.3453  0.2095
 4800SOL    HW125859   0.481   3.767   6.300 -0.7264  1.4503  0.8807
 4800SOL    HW225860   0.405   3.697   6.406  0.2150  0.7454  0.6008
 4801SOL     OW25861   4.548   0.073   3.970  0.0651  0.9177 -0.0322
 4801SOL    HW125862   4.599   0.047   3.893 -1.1987 -0.7253 -0.3205
 4801SOL    HW225863   4.604   0.137   4.013  0.2688  1.1233 -0.5959
 4802SOL     OW25864   0.624   2.365   6.616  0.3969  0.5013 -0.3737
 4802SOL    HW125865   0.684   2.292   6.633  0.2884  0.6052  0.4338
 4802SOL    HW225866   0.545   2.313   6.600  1.0776 -1.0136  1.2277
 4803SOL     OW25867   2.408   3.377  17.017  0.2720  0.0110 -0.0402
 4803SOL    HW125868   2.327   3.409  17.055 -0.0667 -1.8824  0.8081
 4803SOL    HW225869   2.372   3.347  16.933 -2.0580  0.8151  0.6889
 4804SOL     OW25870   1.282   1.257   7.812  0.1552  0.6979 -0.4862
 4804SOL    HW125871   1.278   1.343   7.770 -1.6780  0.3926 -0.9410
 4804SOL    HW225872   1.311   1.281   7.899 -1.8605 -0.9258  0.6357
 4805SOL     OW25873   2.731   0.396  13.090 -0.5774 -0.0738 -0.9323
 4805SOL    HW125874   2.702   0.331  13.025  2.5359 -0.8072 -1.6014
 4805SOL    HW225875   2.674   0.471  13.074  0.0646  0.6960  0.4682
 4806SOL     OW25876   0.677   1.274   2.428 -0.3611  0.7371 -0.5588
 4806SOL    HW125877   0.716   1.356   2.397  0.8440 -0.0250 -1.0766
 4806SOL    HW225878   0.639   1.239   2.348 -1.1568  0.3865 -0.0193
 4807SOL     OW25879   4.135   0.231  10.434  0.1119 -0.1030  0.1879
 4807SOL    HW125880   4.114   0.214  10.525 -2.2064 -0.4203 -0.3858
 4807SOL    HW225881   4.110   0.145  10.400  1.0298 -0.6311  0.8534
 4808SOL     OW25882   3.393   4.618   4.345 -0.6505 -0.2137 -0.0680
 4808SOL    HW125883   3.488   4.620   4.336 -0.8781  1.3437 -2.0527
 4808SOL    HW225884   3.382   4.680   4.417  0.6224  1.4077 -1.2733
 4809SOL     OW25885   1.080   3.258   6.946 -0.2080 -0.0182 -0.4264
 4809SOL    HW125886   1.174   3.263   6.927 -0.2032 -2.5033 -0.9613
 4809SOL    HW225887   1.061   3.347   6.977  0.9436 -0.1404  0.6553
 4810SOL     OW25888   1.669   2.624  15.202  0.3857  0.2561 -0.4890
 4810SOL    HW125889   1.693   2.580  15.283 -0.1399  2.2820  0.7785
 4810SOL    HW225890   1.599   2.682  15.231 -0.9724 -1.3573 -0.5594
 4811SOL     OW25891   2.403   2.073   3.458 -0.2825  0.2958 -0.0044
 4811SOL    HW125892   2.319   2.094   3.416  0.5431 -2.0006 -2.8251
 4811SOL    HW225893   2.421   1.991   3.412 -1.5046 -0.7096  1.2904
 4812SOL     OW25894   0.227   1.939   5.428  0.0588 -0.6507  0.4254
 4812SOL    HW125895   0.251   1.948   5.520  0.8319 -0.5205  0.2082
 4812SOL    HW225896   0.148   1.994   5.429  0.0494 -0.5610 -4.0665
 4813SOL     OW25897   1.883   2.098   1.690  0.1097 -0.2805  0.0128
 4813SOL    HW125898   1.857   2.168   1.749 -0.9577 -1.7330  1.2791
 4813SOL    HW225899   1.808   2.094   1.631  0.1358 -0.8909  0.0177
 4814SOL     OW25900   3.218   2.826   6.013 -0.0199 -0.4219 -0.5767
 4814SOL    HW125901   3.158   2.871   5.953  1.3254  2.3578  0.1883
 4814SOL    HW225902   3.202   2.734   5.991  1.7800 -1.4504  2.5410
 4815SOL     OW25903   4.426   0.021   2.932 -0.3668  0.9858 -0.2718
 4815SOL    HW125904   4.470   0.056   3.009 -3.1280  3.5669  0.1423
 4815SOL    HW225905   4.394   0.103   2.895 -1.1720  0.6482 -0.3364
 4816SOL     OW25906   1.882   3.561   2.472  0.0315 -0.1600 -0.3567
 4816SOL    HW125907   1.817   3.532   2.536  1.0849 -0.4136  0.5862
 4816SOL    HW225908   1.963   3.565   2.523 -0.3723 -1.1329  0.3699
 4817SOL     OW25909   3.295   1.083  10.177  0.2473 -0.2937 -0.1564
 4817SOL    HW125910   3.336   1.165  10.148  2.1608 -1.0711  0.3459
 4817SOL    HW225911   3.211   1.113  10.213  0.2767 -0.2731 -0.1038
 4818SOL     OW25912   0.429   2.381   5.143  0.6937  0.1246  0.2443
 4818SOL    HW125913   0.350   2.343   5.181 -1.0981  1.7673 -1.8672
 4818SOL    HW225914   0.492   2.311   5.160  0.1895 -0.6303 -1.0141
 4819SOL     OW25915   3.639   4.088   1.949 -0.8549 -0.4193 -0.4877
 4819SOL    HW125916   3.641   4.022   1.879  1.3317 -1.1373  0.2320
 4819SOL    HW225917   3.564   4.139   1.919  1.6192  1.7214 -3.0596
 4820SOL     OW25918   0.780   3.807   5.608 -0.0663 -0.1176 -0.0962
 4820SOL    HW125919   0.748   3.730   5.654  1.4185 -1.2635 -0.9786
 4820SOL    HW225920   0.734   3.878   5.653  0.8722  0.2249  0.3238
 4821SOL     OW25921   2.528   1.166   7.084 -0.0253 -0.2397 -0.3263
 4821SOL    HW125922   2.537   1.110   7.161 -0.8533 -0.5534 -0.4621
 4821SOL    HW225923   2.517   1.096   7.021  0.5542  0.7557 -1.5346
 4822SOL     OW25924   3.104   2.820   7.345  0.8069  0.2524 -0.4487
 4822SOL    HW125925   3.140   2.902   7.310  1.5257  0.4296  0.6886
 4822SOL    HW225926   3.147   2.744   7.307 -1.1680 -2.3061  2.4229
 4823SOL     OW25927   3.900   2.999   7.649  0.4167 -0.6692  0.5508
 4823SOL    HW125928   3.960   3.018   7.722  0.7803 -0.7911  0.2844
 4823SOL    HW225929   3.903   3.083   7.603  1.6114 -0.3907  1.1134
 4824SOL     OW25930   0.286   2.923  13.131  0.2731 -0.2491 -0.5513
 4824SOL    HW125931   0.207   2.877  13.102 -0.0873 -1.4942  2.3660
 4824SOL    HW225932   0.324   2.942  13.045 -2.4015  0.0474 -1.6709
 4825SOL     OW25933   3.810   1.595   3.018  0.3377  0.0896  0.2350
 4825SOL    HW125934   3.825   1.512   2.972 -2.2522 -1.0287  1.4180
 4825SOL    HW225935   3.716   1.590   3.032  0.5667 -4.2064  0.0352
 4826SOL     OW25936   4.084   3.362   3.963 -0.3925  0.3135 -0.3464
 4826SOL    HW125937   4.082   3.449   4.002 -1.9048  0.8325 -1.5844
 4826SOL    HW225938   4.084   3.380   3.869 -1.6085  1.8806 -0.0483
 4827SOL     OW25939   3.968   2.174   8.814  0.3732 -0.2593 -0.3596
 4827SOL    HW125940   3.979   2.108   8.746 -0.2845  0.4051 -1.1106
 4827SOL    HW225941   3.896   2.147   8.871 -0.2407 -1.0896 -1.5402
 4828SOL     OW25942   1.380   0.890   4.747  0.0306 -0.4672  0.0834
 4828SOL    HW125943   1.315   0.823   4.766  0.0639 -0.7267 -0.6945
 4828SOL    HW225944   1.356   0.910   4.656  2.0779 -0.1729 -0.4160
 4829SOL     OW25945   2.514   2.351  13.554 -0.3995 -0.3123  0.1143
 4829SOL    HW125946   2.500   2.396  13.637 -0.6214  0.1928 -0.1966
 4829SOL    HW225947   2.575   2.408  13.508  0.1536 -0.2326  0.9499
 4830SOL     OW25948   4.625   0.283   6.572  0.0607  0.2643 -0.4494
 4830SOL    HW125949   4.674   0.232   6.508 -0.3762 -0.6602 -0.0485
 4830SOL    HW225950   4.672   0.270   6.655 -0.3905  0.0915 -0.2192
 4831SOL     OW25951   0.630   3.652   5.745  0.0865  0.0483 -0.0503
 4831SOL    HW125952   0.629   3.573   5.800 -2.3025  0.4289  0.4629
 4831SOL    HW225953   0.536   3.668   5.747 -0.1786 -1.3641 -0.5859
 4832SOL     OW25954   3.826   1.799  10.570 -0.0994 -0.5248 -0.2098
 4832SOL    HW125955   3.902   1.801  10.628  0.5684 -3.1136 -1.0075
 4832SOL    HW225956   3.850   1.862  10.503 -2.1190  0.0173 -0.4406
 4833SOL     OW25957   4.529   2.221   6.303  0.2704 -0.2343  0.4293
 4833SOL    HW125958   4.578   2.303   6.308 -1.4407  0.7227  1.7282
 4833SOL    HW225959   4.438   2.247   6.285  0.8198  3.5402  3.0711
 4834SOL     OW25960   2.323   1.353  16.190 -0.4759  0.2575  0.6881
 4834SOL    HW125961   2.286   1.324  16.273  0.1571 -0.1653  0.8258
 4834SOL    HW225962   2.243   1.385  16.150 -0.3721  0.5105  0.6846
 4835SOL     OW25963   3.679   4.525   9.467  0.4859 -0.3685 -0.0174
 4835SOL    HW125964   3.767   4.531   9.430  1.4173 -3.0619  1.7607
 4835SOL    HW225965   3.690   4.519   9.562 -1.2666 -0.8792  0.1544
 4836SOL     OW25966   4.061   2.900   2.389 -0.2574  0.1736  0.2121
 4836SOL    HW125967   4.059   2.879   2.482 -1.3377 -0.8641 -0.0472
 4836SOL    HW225968   4.001   2.834   2.354  1.4556 -1.3878  0.2410
 4837SOL     OW25969   2.453   1.011   5.987 -0.0689 -0.6692  0.0132
 4837SOL    HW125970   2.499   1.093   6.000 -1.6890  0.4529 -1.3321
 4837SOL    HW225971   2.518   0.950   5.950 -0.4129 -0.7799 -0.4238
 4838SOL     OW25972   1.326   3.751   5.822  0.3545 -0.5509  0.1627
 4838SOL    HW125973   1.327   3.784   5.912  1.4008 -0.8443  0.2602
 4838SOL    HW225974   1.421   3.750   5.809  0.6175 -0.0560  1.9964
 4839SOL     OW25975   3.081   2.064   4.671 -0.1193  0.2808  0.2927
 4839SOL    HW125976   3.142   2.125   4.713 -0.7093  0.0665  1.4695
 4839SOL    HW225977   3.084   2.102   4.583  1.8497  0.5789  0.4775
 4840SOL     OW25978   4.477   1.341   1.069 -0.0676  0.5947 -0.5851
 4840SOL    HW125979   4.402   1.282   1.057  0.5568 -0.2895 -0.0963
 4840SOL    HW225980   4.556   1.288   1.065 -0.2590  0.2511  0.2814
 4841SOL     OW25981   0.656   2.998   3.564  0.1353  0.2858  0.1336
 4841SOL    HW125982   0.744   2.984   3.530 -1.4417 -2.2826 -2.8460
 4841SOL    HW225983   0.649   3.093   3.557 -1.1602  0.1071 -0.9884
 4842SOL     OW25984   4.683   0.592   4.648 -0.0869 -0.5818  0.3902
 4842SOL    HW125985   4.657   0.574   4.738  1.6731  0.3606  1.0634
 4842SOL    HW225986   4.712   0.682   4.655  0.7432 -0.8969  0.9882
 4843SOL     OW25987   3.811   3.997   7.991 -0.7489 -0.3289 -0.3661
 4843SOL    HW125988   3.770   3.929   7.937  0.2326 -0.0207 -1.4866
 4843SOL    HW225989   3.830   3.948   8.071  0.0091  2.3457  1.0883
 4844SOL     OW25990   1.440   4.197   1.897  0.2178 -0.0418 -0.4070
 4844SOL    HW125991   1.439   4.197   1.992  0.7819 -1.5938 -0.4078
 4844SOL    HW225992   1.448   4.292   1.883 -0.5118  0.0179 -0.4406
 4845SOL     OW25993   0.303   2.272   9.174  0.5576  0.4829  0.2060
 4845SOL    HW125994   0.303   2.303   9.264 -0.8273  2.5109 -0.5042
 4845SOL    HW225995   0.391   2.307   9.164 -0.1242  2.0142 -0.3898
 4846SOL     OW25996   3.036   0.778   1.227  0.5060 -0.0241 -0.4575
 4846SOL    HW125997   3.097   0.810   1.160  1.2241 -0.0317  0.2023
 4846SOL    HW225998   2.961   0.833   1.204  0.2250 -0.1847  0.0923
 4847SOL     OW25999   1.176   3.548   8.402  0.1402 -0.1051  0.1188
 4847SOL    HW126000   1.148   3.638   8.418  0.2369 -0.0133 -0.2230
 4847SOL    HW226001   1.241   3.548   8.331  0.0243 -1.9607  0.0073
 4848SOL     OW26002   4.233   1.782   6.451  0.2899  0.3392 -0.3619
 4848SOL    HW126003   4.295   1.734   6.505 -0.9743  0.3456  1.0913
 4848SOL    HW226004   4.280   1.799   6.369 -1.4767  1.8308 -1.0656
 4849SOL     OW26005   2.688   3.318   2.625  0.6710 -0.3317 -0.5187
 4849SOL    HW126006   2.777   3.286   2.608  0.9921  0.2262  0.1140
 4849SOL    HW226007   2.694   3.377   2.700  0.5220 -0.5192 -0.3589
 4850SOL     OW26008   3.432   3.935  14.050 -0.5064 -0.2737 -0.2857
 4850SOL    HW126009   3.518   3.899  14.027 -0.3415  0.8242 -1.3825
 4850SOL    HW226010   3.433   4.020  14.007  1.3903  0.0068  0.3060
 4851SOL     OW26011   1.905   2.037   5.809 -0.4509 -0.3571 -0.3728
 4851SOL    HW126012   1.841   2.023   5.739  1.6604 -2.1930 -1.9470
 4851SOL    HW226013   1.986   2.058   5.762  0.3709  2.7434  2.4731
 4852SOL     OW26014   1.771   3.633  14.099 -0.7090 -0.1474  0.3947
 4852SOL    HW126015   1.763   3.700  14.031 -1.9029 -2.1890 -1.4827
 4852SOL    HW226016   1.830   3.577  14.049  0.6097  0.8286  0.8477
 4853SOL     OW26017   0.373   1.403  15.769 -0.3711 -0.0708 -0.2165
 4853SOL    HW126018   0.453   1.447  15.796  0.4408 -1.8446  0.2484
 4853SOL    HW226019   0.305   1.467  15.790  0.8104  0.2218  2.6251
 4854SOL     OW26020   0.053   4.290  16.467 -0.1347  0.1399  0.1916
 4854SOL    HW126021   0.037   4.240  16.547 -1.9114  0.3247 -0.0612
 4854SOL    HW226022   4.698   4.278  16.415  0.2581  2.1560 -0.9071
 4855SOL     OW26023   3.423   2.231   2.358  0.3798  0.1314  0.0311
 4855SOL    HW126024   3.430   2.204   2.266  0.2806  0.0582  0.0445
 4855SOL    HW226025   3.340   2.277   2.348 -0.8827 -1.5723  2.6218
 4856SOL     OW26026   4.371   3.558   9.923  0.4074 -0.3255  0.4467
 4856SOL    HW126027   4.434   3.629   9.935 -0.4495  0.6001 -0.4978
 4856SOL    HW226028   4.337   3.584   9.837 -2.5276  2.8414  2.5669
 4857SOL     OW26029   0.476   1.624  11.423 -0.5522 -0.2333  0.5801
 4857SOL    HW126030   0.386   1.592  11.426 -0.0363 -2.0463 -2.2001
 4857SOL    HW226031   0.529   1.544  11.424  0.6322  0.5342 -0.9795
 4858SOL     OW26032   0.738   0.357   5.094  0.0966  0.1767 -0.2490
 4858SOL    HW126033   0.823   0.354   5.138 -0.5226 -1.1342  0.8535
 4858SOL    HW226034   0.675   0.375   5.163 -0.8411 -0.2177 -1.0079
 4859SOL     OW26035   0.259   3.159   3.916  0.1228  0.4471 -0.5154
 4859SOL    HW126036   0.176   3.206   3.926  1.2375  2.9979 -3.2699
 4859SOL    HW226037   0.233   3.098   3.847 -1.2613  1.4721 -0.9019
 4860SOL     OW26038   2.169   2.133   2.507  0.1609 -0.1663 -0.3224
 4860SOL    HW126039   2.084   2.174   2.525 -0.6838 -2.0373 -0.1059
 4860SOL    HW226040   2.189   2.164   2.419  0.4832  0.1233 -0.1478
 4861SOL     OW26041   4.254   2.193   9.624  0.0366  0.1826 -0.4090
 4861SOL    HW126042   4.243   2.209   9.717 -0.4428  0.0201 -0.4367
 4861SOL    HW226043   4.307   2.267   9.596  1.6128 -0.7176  0.2323
 4862SOL     OW26044   2.847   0.482   4.520 -0.0436  0.0049 -0.0442
 4862SOL    HW126045   2.845   0.564   4.568  1.1074 -0.4467  0.7957
 4862SOL    HW226046   2.883   0.512   4.436  1.7034 -0.0710  0.6586
 4863SOL     OW26047   1.817   1.529   3.638 -0.0471 -0.0020  0.6445
 4863SOL    HW126048   1.825   1.470   3.563  2.9751  2.0423 -0.6344
 4863SOL    HW226049   1.909   1.537   3.664 -0.1153  0.9959  0.5684
 4864SOL     OW26050   2.194   0.344   5.122  0.2170 -0.2509  0.8378
 4864SOL    HW126051   2.200   0.332   5.027  1.9125  1.7198  0.7031
 4864SOL    HW226052   2.223   0.434   5.136  1.4114 -0.4528 -0.4098
 4865SOL     OW26053   2.720   1.380  12.614 -0.8309  0.9712  0.0659
 4865SOL    HW126054   2.796   1.322  12.607 -1.1016  0.7031 -0.6076
 4865SOL    HW226055   2.724   1.415  12.525 -2.3524  0.8517 -0.0405
 4866SOL     OW26056   3.228   4.087   5.142  0.3200 -0.3302 -1.0790
 4866SOL    HW126057   3.231   4.055   5.232 -1.5488  2.1801 -0.1242
 4866SOL    HW226058   3.267   4.174   5.150  0.2112 -0.3930  0.1070
 4867SOL     OW26059   2.573   3.284   3.688  0.6212  0.1711  0.3027
 4867SOL    HW126060   2.493   3.281   3.635  0.0271  0.6360  1.1914
 4867SOL    HW226061   2.620   3.213   3.643  0.8275  1.7080 -1.9035
 4868SOL     OW26062   1.751   1.531  16.237 -0.0682 -0.1114 -0.0534
 4868SOL    HW126063   1.666   1.494  16.265  0.9453 -1.9500  0.6183
 4868SOL    HW226064   1.779   1.570  16.320  3.1133 -2.3477 -0.1080
 4869SOL     OW26065   4.348   2.244   2.592 -0.2604  0.1473 -0.5903
 4869SOL    HW126066   4.354   2.219   2.500 -0.9478 -0.3985 -0.4929
 4869SOL    HW226067   4.252   2.252   2.597 -0.4619 -1.5181 -1.9099
 4870SOL     OW26068   2.694   1.256   4.685 -0.2246  0.0890  0.0687
 4870SOL    HW126069   2.716   1.345   4.656 -2.3553  1.0808  1.4833
 4870SOL    HW226070   2.777   1.209   4.675 -1.2099 -1.7694  0.6269
 4871SOL     OW26071   3.004   1.638   2.580  0.1849  0.2577 -0.1999
 4871SOL    HW126072   2.912   1.613   2.585  0.5357 -1.1612 -0.7553
 4871SOL    HW226073   2.993   1.732   2.575  1.3227  0.3469 -1.0518
 4872SOL     OW26074   1.107   0.605  17.375 -0.0284  0.5999 -0.3969
 4872SOL    HW126075   1.106   0.563  17.461 -2.0102 -1.2104 -1.3138
 4872SOL    HW226076   1.042   0.554  17.328 -1.1451  0.9984  0.7023
 4873SOL     OW26077   3.113   4.385  15.677  0.2495 -0.1985  0.0447
 4873SOL    HW126078   3.189   4.441  15.663  0.0896  0.4477  1.8119
 4873SOL    HW226079   3.151   4.298  15.685  0.8571  0.1708  1.1180
 4874SOL     OW26080   3.523   4.534   6.229  0.1894 -0.2149 -0.3384
 4874SOL    HW126081   3.583   4.573   6.293 -1.2422  0.9760  0.2623
 4874SOL    HW226082   3.488   4.614   6.191 -1.2154 -0.7761 -0.2069
 4875SOL     OW26083   4.347   1.828  17.545 -0.2759 -0.0647 -0.5110
 4875SOL    HW126084   4.374   1.746  17.586 -1.7429  0.0853  0.7455
 4875SOL    HW226085   4.391   1.894  17.600 -1.7642  2.2646 -2.1004
 4876SOL     OW26086   2.447   4.402   7.261  0.2072 -0.5089 -0.5505
 4876SOL    HW126087   2.461   4.491   7.229  0.9545 -0.6272 -0.5423
 4876SOL    HW226088   2.384   4.411   7.333 -1.5531  0.2751 -2.1834
 4877SOL     OW26089   2.388   4.483  11.880 -0.4758 -0.1492  0.7067
 4877SOL    HW126090   2.449   4.553  11.857  1.1823 -2.6370 -2.5057
 4877SOL    HW226091   2.352   4.521  11.961  0.3277 -1.0799  1.4892
 4878SOL     OW26092   2.228   1.973   9.609 -0.3281 -0.0523 -0.2982
 4878SOL    HW126093   2.155   1.924   9.571  1.5058 -1.4401 -1.9908
 4878SOL    HW226094   2.175   2.029   9.666 -0.3024  1.5530 -1.8441
 4879SOL     OW26095   3.222   1.468  11.703 -0.3664  0.3065  0.2365
 4879SOL    HW126096   3.288   1.476  11.634 -0.4166  2.4563  0.4249
 4879SOL    HW226097   3.246   1.547  11.751  0.5029 -0.2099  0.6528
 4880SOL     OW26098   1.680   2.451   1.298 -0.1197  0.4893 -0.0478
 4880SOL    HW126099   1.612   2.503   1.340  0.7894 -1.0997  3.3749
 4880SOL    HW226100   1.651   2.465   1.208 -2.2818 -0.3298  0.5258
 4881SOL     OW26101   0.379   3.062  11.091 -0.7421  0.1945  0.3305
 4881SOL    HW126102   0.466   3.049  11.128  0.0273 -1.0012 -1.8652
 4881SOL    HW226103   0.388   3.010  11.010 -1.2833 -1.3701  1.2683
 4882SOL     OW26104   2.152   0.816  12.164  0.5644  0.5105  0.1777
 4882SOL    HW126105   2.179   0.733  12.126  1.0415  1.9919 -2.7588
 4882SOL    HW226106   2.132   0.802  12.256 -0.8429 -1.1884 -0.4016
 4883SOL     OW26107   1.103   4.305   2.633 -0.1167  0.3916  0.2710
 4883SOL    HW126108   1.021   4.306   2.682 -0.7185 -2.8629 -0.6418
 4883SOL    HW226109   1.079   4.289   2.541 -0.1415  1.4268  0.0970
 4884SOL     OW26110   3.594   2.534   1.787 -0.3745  0.6892 -0.9486
 4884SOL    HW126111   3.550   2.517   1.871 -1.1717  1.8318 -1.1442
 4884SOL    HW226112   3.593   2.449   1.743 -3.9016  0.6581 -0.7721
 4885SOL     OW26113   4.688   0.729   0.680 -0.0746  0.3184  0.4228
 4885SOL    HW126114   4.710   0.746   0.771 -1.7708  2.4766  0.4375
 4885SOL    HW226115   0.051   0.702   0.651 -0.4460 -2.0488  1.5357
 4886SOL     OW26116   2.270   3.585  14.610  0.0905 -0.8315  0.4268
 4886SOL    HW126117   2.266   3.553  14.520 -0.2719  1.3507 -0.3293
 4886SOL    HW226118   2.335   3.520  14.640  0.1064 -1.6754 -1.4344
 4887SOL     OW26119   1.931   4.083   5.213  0.0537 -0.1977  0.1323
 4887SOL    HW126120   1.968   4.067   5.126 -0.7077 -1.5406  0.0591
 4887SOL    HW226121   1.844   4.057   5.184 -0.6752  2.5189 -0.0597
 4888SOL     OW26122   0.522   0.262   4.306 -0.3438 -0.2479 -0.2405
 4888SOL    HW126123   0.548   0.354   4.302 -1.4243  0.0472 -0.5951
 4888SOL    HW226124   0.553   0.232   4.221 -0.8137  1.4786 -1.0301
 4889SOL     OW26125   4.131   0.158   7.171 -0.6264 -0.1271 -0.4225
 4889SOL    HW126126   4.164   0.145   7.260 -1.2895 -1.3860 -0.3503
 4889SOL    HW226127   4.060   0.095   7.157  1.4367 -2.6845  0.3799
 4890SOL     OW26128   1.629   4.060   5.210 -0.2411 -0.5184  0.4333
 4890SOL    HW126129   1.628   4.138   5.267  0.6125  1.1861 -1.8736
 4890SOL    HW226130   1.603   4.094   5.124 -1.8831  0.1887  1.2137
 4891SOL     OW26131   2.333   2.706   3.399 -0.3068 -0.6015 -0.7668
 4891SOL    HW126132   2.288   2.716   3.483  0.7317  1.7441 -0.4976
 4891SOL    HW226133   2.373   2.621   3.417  0.6117  0.2779  1.3466
 4892SOL     OW26134   2.783   3.793   7.723 -0.3280  0.4801 -0.4497
 4892SOL    HW126135   2.818   3.860   7.666 -1.0074  1.3846  0.1984
 4892SOL    HW226136   2.695   3.771   7.691 -0.6418  0.9597  0.0771
 4893SOL     OW26137   4.406   3.382   8.379  0.0712  0.3211  0.4891
 4893SOL    HW126138   4.375   3.345   8.296  2.3021  0.1979 -0.2960
 4893SOL    HW226139   4.362   3.331   8.447  0.8766  0.6335  1.2453
 4894SOL     OW26140   3.185   3.231   8.585  0.4641  0.5790  0.0785
 4894SOL    HW126141   3.153   3.284   8.512 -1.1580  0.6142  0.8112
 4894SOL    HW226142   3.118   3.164   8.598  2.2598 -1.2715 -0.2149
 4895SOL     OW26143   2.329   2.284   5.337  0.0241 -0.3812 -0.3344
 4895SOL    HW126144   2.347   2.373   5.369 -1.6236 -0.0022 -0.4545
 4895SOL    HW226145   2.235   2.295   5.319  0.2031 -0.2212 -1.1526
 4896SOL     OW26146   4.526   1.556  10.100  0.2276  0.4453  0.4201
 4896SOL    HW126147   4.443   1.601  10.119 -1.6153 -2.7825 -0.0422
 4896SOL    HW226148   4.516   1.480  10.158  0.8812 -0.3599 -0.5376
 4897SOL     OW26149   0.628   1.801  17.355 -0.0225 -0.2824  0.4211
 4897SOL    HW126150   0.609   1.751  17.276 -0.3364  1.0202 -0.3312
 4897SOL    HW226151   0.537   1.812  17.384 -0.5204  0.4258 -1.4510
 4898SOL     OW26152   2.340   1.505   2.677  0.6403  0.4926  0.1230
 4898SOL    HW126153   2.316   1.413   2.665 -0.7675  0.8667  0.0159
 4898SOL    HW226154   2.420   1.502   2.625 -0.5853 -2.3975 -1.6398
 4899SOL     OW26155   1.603   1.933   5.983  0.3963 -0.1473 -0.2409
 4899SOL    HW126156   1.651   1.937   5.901  0.3219 -0.4501 -0.3020
 4899SOL    HW226157   1.635   2.001   6.041  1.4278 -0.6372 -0.2403
 4900SOL     OW26158   1.661   3.389   0.747 -0.0425 -0.5920 -0.0268
 4900SOL    HW126159   1.683   3.482   0.739 -2.2596 -0.0699 -0.0138
 4900SOL    HW226160   1.570   3.389   0.773  0.3558  0.4311  1.3729
 4901SOL     OW26161   2.222   0.268  15.359  0.1307 -0.4118 -0.0983
 4901SOL    HW126162   2.257   0.182  15.380  0.8323 -0.4095 -1.2444
 4901SOL    HW226163   2.309   0.300  15.334  0.1613 -0.3192  0.1318
 4902SOL     OW26164   1.517   3.249   8.009  0.4294  0.2247 -0.6386
 4902SOL    HW126165   1.565   3.292   8.079 -1.1770  2.6143 -1.0030
 4902SOL    HW226166   1.581   3.232   7.939  0.9583 -1.0347  0.1498
 4903SOL     OW26167   2.588   4.234   3.784 -0.6146  0.0427  0.0282
 4903SOL    HW126168   2.647   4.260   3.714  1.4293  0.0553  1.7684
 4903SOL    HW226169   2.645   4.176   3.833 -1.4856 -1.0045 -0.1949
 4904SOL     OW26170   1.760   3.774   2.343  0.0385 -0.4348  0.0796
 4904SOL    HW126171   1.801   3.704   2.394  0.4157 -0.8009 -0.7285
 4904SOL    HW226172   1.728   3.731   2.264 -2.1840  0.1729  0.6500
 4905SOL     OW26173   1.438   2.940   3.898  0.0346  0.2804 -0.4575
 4905SOL    HW126174   1.407   2.939   3.807 -3.6073  0.4367  0.7781
 4905SOL    HW226175   1.396   3.020   3.930  0.3586 -0.0652  0.8382
 4906SOL     OW26176   4.447   1.744   4.240  0.7300  0.3848  0.0264
 4906SOL    HW126177   4.409   1.661   4.210  0.7345  1.1035 -1.9465
 4906SOL    HW226178   4.363   1.781   4.268  0.5977 -0.2428  0.4525
 4907SOL     OW26179   3.572   2.064   6.633 -0.2292 -0.3546  0.0773
 4907SOL    HW126180   3.538   2.056   6.723 -1.9328  1.3983 -0.4139
 4907SOL    HW226181   3.539   2.146   6.599  0.5867  1.1765  2.9353
 4908SOL     OW26182   1.247   3.066   7.291  0.4351  0.2191 -0.4810
 4908SOL    HW126183   1.277   3.053   7.201  0.9818  1.2749 -0.4509
 4908SOL    HW226184   1.326   3.089   7.340  0.4567 -1.5053  0.3120
 4909SOL     OW26185   0.853   2.810  11.139 -0.3392  0.1158 -0.2073
 4909SOL    HW126186   0.920   2.822  11.206 -2.4929 -0.0094  1.9909
 4909SOL    HW226187   0.886   2.867  11.070 -1.3550 -0.3859 -1.1140
 4910SOL     OW26188   0.866   3.982   1.737 -0.2321 -0.3501  0.5383
 4910SOL    HW126189   0.896   4.009   1.823 -3.2360 -1.2459  1.8897
 4910SOL    HW226190   0.773   3.967   1.754  0.1044 -1.4677  1.3334
 4911SOL     OW26191   3.055   2.006   6.203  0.2299 -0.1278  0.1148
 4911SOL    HW126192   2.988   2.039   6.144  0.6726  1.1559  0.3251
 4911SOL    HW226193   3.025   1.916   6.206 -0.3422 -0.0544 -3.7529
 4912SOL     OW26194   3.451   3.646  12.613  0.1367 -0.2029  0.0139
 4912SOL    HW126195   3.544   3.660  12.635 -0.3922 -0.1133  2.2782
 4912SOL    HW226196   3.455   3.672  12.521 -1.7596  1.1309  0.3051
 4913SOL     OW26197   1.440   1.219   8.347 -0.2110  1.2576  0.5951
 4913SOL    HW126198   1.436   1.140   8.400 -1.9723 -0.3210 -1.8836
 4913SOL    HW226199   1.536   1.225   8.337 -0.4047  0.5227 -1.7877
 4914SOL     OW26200   3.300   0.059   3.797  0.1111  0.0244  0.0365
 4914SOL    HW126201   3.317   0.132   3.856  3.6880 -0.1795 -0.6915
 4914SOL    HW226202   3.379   0.005   3.802  1.0659  1.3681 -0.3533
 4915SOL     OW26203   4.686   2.248   8.452 -0.0066  0.1823 -0.0204
 4915SOL    HW126204   4.720   2.278   8.368 -3.5100  0.2846 -1.3764
 4915SOL    HW226205   4.670   2.157   8.431 -1.6577  0.5674 -0.4025
 4916SOL     OW26206   3.250   0.182   4.266  0.4618 -0.3077 -0.0689
 4916SOL    HW126207   3.329   0.212   4.311  0.8409 -1.2731 -0.0802
 4916SOL    HW226208   3.214   0.126   4.335  0.0355 -1.2504 -1.0539
 4917SOL     OW26209   0.958   3.172   3.268  0.4449  0.0509 -0.3604
 4917SOL    HW126210   0.984   3.174   3.176  0.9788 -0.4632 -0.2251
 4917SOL    HW226211   1.034   3.212   3.311 -2.0730  1.6377  2.6132
 4918SOL     OW26212   0.021   4.118   7.532 -0.4752  0.5155  0.1752
 4918SOL    HW126213   0.090   4.117   7.467  0.2087 -2.9632  0.9420
 4918SOL    HW226214   4.718   4.026   7.542 -0.5657  0.3683 -1.4809
 4919SOL     OW26215   4.497   1.606   2.213  0.2929  0.0276  0.1175
 4919SOL    HW126216   4.423   1.650   2.171 -0.1205 -0.8879 -0.1009
 4919SOL    HW226217   4.525   1.558   2.135 -3.1077  0.1508 -1.1697
 4920SOL     OW26218   2.156   0.771   2.502  0.4189  0.0162  0.1482
 4920SOL    HW126219   2.106   0.779   2.583  0.8456  0.5702  0.3624
 4920SOL    HW226220   2.158   0.676   2.493 -0.1088 -0.0104  0.3083
 4921SOL     OW26221   4.522   3.433  11.901  0.0683  0.2998  0.1341
 4921SOL    HW126222   4.506   3.499  11.968 -0.3068  0.2787  0.0693
 4921SOL    HW226223   4.481   3.469  11.822 -1.3111  0.2663  0.8314
 4922SOL     OW26224   2.385   3.873  17.368  0.0652  0.0384 -0.2559
 4922SOL    HW126225   2.406   3.923  17.447  0.8255 -0.1990 -0.3073
 4922SOL    HW226226   2.384   3.788  17.412 -2.3414  0.0313 -0.3260
 4923SOL     OW26227   2.856   0.504  17.263 -0.6604  0.3008 -0.3358
 4923SOL    HW126228   2.787   0.446  17.294  0.0389 -0.3710 -0.0376
 4923SOL    HW226229   2.931   0.450  17.290 -0.5930  0.5522 -0.0238
 4924SOL     OW26230   3.550   1.027  15.609  0.0027  0.1918 -0.5106
 4924SOL    HW126231   3.569   1.098  15.670 -1.3374  1.0893 -1.1474
 4924SOL    HW226232   3.567   1.079  15.531 -0.9466  0.8466 -0.2794
 4925SOL     OW26233   3.178   1.360   6.623 -0.3033  0.2038 -0.4347
 4925SOL    HW126234   3.227   1.413   6.561 -1.4689  3.5106  1.4549
 4925SOL    HW226235   3.243   1.289   6.623 -0.5565 -0.0281 -0.5172
 4926SOL     OW26236   4.151   3.590   4.558 -0.3098 -0.1376 -0.2335
 4926SOL    HW126237   4.205   3.625   4.628 -1.3448 -0.3455  0.6721
 4926SOL    HW226238   4.220   3.529   4.534 -0.2180  0.1814 -0.7704
 4927SOL     OW26239   0.797   1.761   4.100  0.3394 -0.1224  0.1390
 4927SOL    HW126240   0.780   1.678   4.144  0.6768 -0.8655 -1.1224
 4927SOL    HW226241   0.708   1.792   4.085 -0.1199 -1.1587  0.7114
 4928SOL     OW26242   2.655   3.663   5.074 -0.4268  0.0900 -0.1586
 4928SOL    HW126243   2.615   3.750   5.065 -1.0373 -0.1695  0.1234
 4928SOL    HW226244   2.748   3.686   5.072 -0.2505 -0.6033  0.2134
 4929SOL     OW26245   0.216   1.161   5.200 -0.1058 -0.0083 -0.0220
 4929SOL    HW126246   0.256   1.142   5.115  0.5116 -0.8411  0.4436
 4929SOL    HW226247   0.131   1.191   5.168  0.2783  2.4723  1.3170
 4930SOL     OW26248   3.527   4.414  15.883  0.4054  0.8394  0.4647
 4930SOL    HW126249   3.576   4.421  15.966  0.4240  1.7169  0.3792
 4930SOL    HW226250   3.589   4.385  15.816  0.1476  3.3841 -0.8455
 4931SOL     OW26251   2.550   3.658  11.217 -0.4445 -0.2729 -0.2829
 4931SOL    HW126252   2.500   3.583  11.185  0.0083 -0.3166 -0.8970
 4931SOL    HW226253   2.529   3.662  11.310 -0.6812 -3.2358 -0.2046
 4932SOL     OW26254   2.546   2.564   8.075  0.4189 -0.0783 -0.0085
 4932SOL    HW126255   2.562   2.533   8.164  0.9431  0.1591 -0.0182
 4932SOL    HW226256   2.613   2.508   8.034  0.4325  0.0392 -0.1474
 4933SOL     OW26257   2.301   1.352   4.228 -0.2187  0.2161  0.5984
 4933SOL    HW126258   2.364   1.290   4.264 -0.9182 -0.8488  0.0035
 4933SOL    HW226259   2.340   1.360   4.141  0.7819  1.4728  1.1431
 4934SOL     OW26260   1.936   0.760   3.979  0.0485 -0.2596  0.5404
 4934SOL    HW126261   1.945   0.673   3.939  1.2084  0.0906  0.0290
 4934SOL    HW226262   1.999   0.806   3.923  0.2415 -2.1894 -0.8219
 4935SOL     OW26263   3.355   1.451   5.368 -0.6442 -0.6406 -0.1949
 4935SOL    HW126264   3.349   1.461   5.273  1.3358 -0.0461 -0.2543
 4935SOL    HW226265   3.280   1.508   5.384 -0.7509 -0.7439 -0.3269
 4936SOL     OW26266   0.338   1.593   8.181  0.3069  0.3067 -0.7409
 4936SOL    HW126267   0.260   1.585   8.236  1.4048  0.3690  0.8288
 4936SOL    HW226268   0.360   1.680   8.213  0.9824 -0.5823  1.2338
 4937SOL     OW26269   3.914   1.102   5.064  0.5999 -0.1730  0.5898
 4937SOL    HW126270   3.955   1.168   5.008 -1.7846  0.2190 -0.7220
 4937SOL    HW226271   3.969   1.098   5.142  0.0564 -1.9014  0.8864
 4938SOL     OW26272   2.562   0.752   2.087 -0.3187  0.0682  0.6363
 4938SOL    HW126273   2.539   0.693   2.159 -2.3734 -1.8149 -1.5746
 4938SOL    HW226274   2.657   0.745   2.097 -0.5118 -4.0182 -0.5127
 4939SOL     OW26275   0.499   2.506   6.835  0.4980  0.3118  0.4100
 4939SOL    HW126276   0.552   2.457   6.771 -0.6282  1.5251 -1.4357
 4939SOL    HW226277   0.439   2.557   6.781  1.4629 -1.8354 -2.6593
 4940SOL     OW26278   1.880   0.636  10.935 -0.0174  0.1973 -0.0763
 4940SOL    HW126279   1.804   0.686  10.905  0.0138  1.2526  1.5991
 4940SOL    HW226280   1.957   0.678  10.895  0.5102  1.8668  2.6732
 4941SOL     OW26281   1.024   3.018   6.407 -0.2564  0.7935 -0.0685
 4941SOL    HW126282   1.114   3.031   6.378 -0.3239 -0.9416 -1.0323
 4941SOL    HW226283   0.997   2.958   6.337 -1.7704  1.6469 -0.2251
 4942SOL     OW26284   3.493   3.801   2.329  0.0049  0.1115  0.0947
 4942SOL    HW126285   3.454   3.716   2.311 -0.5545  0.5345 -0.6899
 4942SOL    HW226286   3.495   3.839   2.241 -1.5551 -0.1283 -0.0350
 4943SOL     OW26287   3.881   4.382   0.909  0.0147  0.6800  0.0335
 4943SOL    HW126288   3.838   4.439   0.973 -0.5062 -0.6559  0.8530
 4943SOL    HW226289   3.929   4.322   0.967 -0.5633  1.6990  1.5658
 4944SOL     OW26290   2.669   4.387  15.493  0.3222  0.4748 -0.1636
 4944SOL    HW126291   2.745   4.336  15.523  0.0402 -0.2985 -0.7672
 4944SOL    HW226292   2.665   4.367  15.399 -0.9503  0.6321 -0.1407
 4945SOL     OW26293   4.283   2.971   2.219  0.0817 -0.1236  0.1858
 4945SOL    HW126294   4.205   2.948   2.269 -0.1738  2.5182  0.9999
 4945SOL    HW226295   4.328   2.888   2.236  0.0688  0.1774  1.6991
 4946SOL     OW26296   2.555   2.549  14.348  0.3060 -0.6892  0.0165
 4946SOL    HW126297   2.514   2.636  14.352  0.2724 -0.6527 -0.9482
 4946SOL    HW226298   2.636   2.577  14.391 -0.1708  0.8532 -0.0975
 4947SOL     OW26299   1.537   0.340  12.780  0.7781  0.3922  0.0273
 4947SOL    HW126300   1.567   0.379  12.698  0.6333  0.9709  0.2550
 4947SOL    HW226301   1.540   0.246  12.759 -0.6299  0.0981  1.1398
 4948SOL     OW26302   2.049   1.631  16.371 -0.3047 -0.4333 -0.3694
 4948SOL    HW126303   2.037   1.649  16.464 -0.7819  1.2848 -0.7777
 4948SOL    HW226304   2.090   1.716  16.358  1.2835 -1.0611  0.4474
 4949SOL     OW26305   0.911   4.348   5.935 -0.3684 -0.0300 -0.3162
 4949SOL    HW126306   0.992   4.330   5.983 -1.4789 -2.7786  0.5110
 4949SOL    HW226307   0.949   4.318   5.852 -0.1554  2.0325 -0.9492
 4950SOL     OW26308   0.603   2.218   8.438 -0.1957 -0.2117 -0.1870
 4950SOL    HW126309   0.634   2.200   8.349 -1.0078  0.4147 -0.5956
 4950SOL    HW226310   0.683   2.260   8.470 -0.0800 -0.5304 -0.0631
 4951SOL     OW26311   4.344   4.049  11.342  0.4913  0.1450 -0.1599
 4951SOL    HW126312   4.352   4.134  11.298 -1.0767  1.2696  1.7425
 4951SOL    HW226313   4.319   4.074  11.431 -0.0308  0.2697 -0.3426
 4952SOL     OW26314   1.800   2.173   7.399 -0.5429 -0.7573 -0.3241
 4952SOL    HW126315   1.740   2.235   7.440 -0.9635 -0.5290 -1.2979
 4952SOL    HW226316   1.814   2.105   7.466 -0.8759  0.0604  0.5768
 4953SOL     OW26317   4.398   1.029   8.992 -0.2370  0.1895  0.1911
 4953SOL    HW126318   4.471   1.076   9.031  0.0892  0.4979 -0.7975
 4953SOL    HW226319   4.346   1.004   9.069 -3.0486  1.5027 -1.2685
 4954SOL     OW26320   0.930   1.283  12.307 -0.2258 -0.0470  0.2261
 4954SOL    HW126321   0.964   1.196  12.286 -1.1454 -0.9206  2.3700
 4954SOL    HW226322   0.991   1.313  12.374 -0.6331  2.2920 -0.4516
 4955SOL     OW26323   3.228   4.140  15.122 -0.0367 -0.3453 -0.1248
 4955SOL    HW126324   3.221   4.205  15.052 -0.2121  0.0556  0.2658
 4955SOL    HW226325   3.318   4.109  15.110 -0.5307 -1.5798 -0.6303
 4956SOL     OW26326   0.487   3.135   5.425 -0.1044 -0.3016  0.5634
 4956SOL    HW126327   0.439   3.058   5.395  0.4044 -0.8868  1.2496
 4956SOL    HW226328   0.437   3.193   5.367 -1.5480 -3.0299 -0.9054
 4957SOL     OW26329   1.709   3.112   4.538 -0.6968  0.6526 -0.7240
 4957SOL    HW126330   1.628   3.086   4.492  1.4493 -1.8652 -3.1276
 4957SOL    HW226331   1.685   3.112   4.630 -1.7751  0.6264 -1.0051
 4958SOL     OW26332   0.486   3.927   8.137 -1.2832 -0.7652 -0.1217
 4958SOL    HW126333   0.488   3.922   8.041  1.2863  0.2822 -0.1262
 4958SOL    HW226334   0.426   3.855   8.156  0.4899 -1.8924  1.2265
 4959SOL     OW26335   3.617   2.098   0.841  0.1109  0.0610 -0.1698
 4959SOL    HW126336   3.676   2.101   0.917  0.8200 -1.2973 -0.6641
 4959SOL    HW226337   3.677   2.080   0.769 -0.5217  1.7404 -1.1089
 4960SOL     OW26338   4.429   4.312   8.839 -0.0101  0.2977 -0.0736
 4960SOL    HW126339   4.423   4.297   8.745  0.1894  0.4397 -0.1091
 4960SOL    HW226340   4.361   4.255   8.877 -0.1030  0.4408 -0.0262
 4961SOL     OW26341   3.651   0.849  13.145 -0.4279 -0.2749 -0.0232
 4961SOL    HW126342   3.559   0.859  13.170 -0.7347 -1.0438 -0.8359
 4961SOL    HW226343   3.688   0.803  13.221  0.0799 -1.0391 -0.7398
 4962SOL     OW26344   4.156   2.938   6.621 -0.1261  0.0313  0.0028
 4962SOL    HW126345   4.124   2.977   6.541  1.8876  1.7105 -0.0002
 4962SOL    HW226346   4.203   2.865   6.580 -0.0397  0.5013 -0.7207
 4963SOL     OW26347   4.402   1.486   8.573  0.9870 -0.3569  0.2994
 4963SOL    HW126348   4.377   1.439   8.493  0.5198 -0.1652  0.3321
 4963SOL    HW226349   4.497   1.481   8.560  0.9532 -1.2254  0.4023
 4964SOL     OW26350   0.420   2.606   7.073 -0.1613  0.3792 -0.9233
 4964SOL    HW126351   0.362   2.530   7.080 -0.7079  1.0357  1.3770
 4964SOL    HW226352   0.461   2.589   6.987  0.5817 -0.0772 -0.4805
 4965SOL     OW26353   1.418   0.926  14.709 -0.0047 -0.7782 -0.7089
 4965SOL    HW126354   1.509   0.940  14.680 -0.1177  1.9574  0.2219
 4965SOL    HW226355   1.430   0.865  14.781  0.2045  3.8055  3.1608
 4966SOL     OW26356   1.273   2.830   7.438 -0.0367 -0.5058 -0.0542
 4966SOL    HW126357   1.253   2.891   7.367 -0.6847 -1.3400 -0.5845
 4966SOL    HW226358   1.347   2.782   7.401  0.1522 -0.1229 -0.1768
 4967SOL     OW26359   2.891   0.920   1.911  0.1040  0.2873 -0.0206
 4967SOL    HW126360   2.859   0.959   1.830 -0.2242 -2.3339 -1.1659
 4967SOL    HW226361   2.985   0.922   1.890  0.0399 -0.0335 -0.3242
 4968SOL     OW26362   1.029   4.293  10.463  0.1608  0.5325 -0.2652
 4968SOL    HW126363   1.032   4.220  10.525  1.1096  0.3263 -0.5499
 4968SOL    HW226364   1.121   4.315  10.455  0.9698 -2.1461  1.6820
 4969SOL     OW26365   1.084   2.133   7.123 -0.0059  0.1949  0.1567
 4969SOL    HW126366   1.052   2.218   7.151  0.6699  0.5951 -0.2847
 4969SOL    HW226367   1.039   2.072   7.181  0.8998 -1.2648 -0.6467
 4970SOL     OW26368   3.972   4.340  12.643  0.7761 -0.1090 -0.4792
 4970SOL    HW126369   3.948   4.299  12.726 -1.0639  0.6318 -0.6440
 4970SOL    HW226370   4.066   4.324  12.637  0.5295 -1.9993  0.4922
 4971SOL     OW26371   3.392   2.689   1.693  0.8494  0.4973  0.2181
 4971SOL    HW126372   3.468   2.635   1.713  1.2648  0.1967 -2.2628
 4971SOL    HW226373   3.330   2.635   1.742 -1.8619  1.7356 -1.8618
 4972SOL     OW26374   3.179   2.356   5.695  0.3343  0.2095  0.1653
 4972SOL    HW126375   3.191   2.426   5.631  0.0158 -0.2355 -0.3816
 4972SOL    HW226376   3.250   2.362   5.758  1.0915 -2.2829 -0.4426
 4973SOL     OW26377   2.420   3.792  10.939 -0.2863 -0.9579  0.3244
 4973SOL    HW126378   2.504   3.823  10.905 -1.3708  0.1474 -1.3274
 4973SOL    HW226379   2.372   3.873  10.926  0.6943  0.1310  3.5013
 4974SOL     OW26380   1.213   4.515   0.063 -0.0950  0.2555  0.4973
 4974SOL    HW126381   1.292   4.496   0.013 -0.9243 -0.3049 -0.6100
 4974SOL    HW226382   1.174   4.428   0.074 -0.6407  0.3343 -0.8488
 4975SOL     OW26383   3.418   1.782   1.171  0.4217  0.5253 -0.3790
 4975SOL    HW126384   3.435   1.727   1.247  1.1753 -0.2946 -1.1256
 4975SOL    HW226385   3.492   1.841   1.188  0.7954 -0.3788  1.0651
 4976SOL     OW26386   3.242   2.610   6.441  0.4288 -0.5352  0.0913
 4976SOL    HW126387   3.264   2.667   6.368 -0.6995 -1.5942 -1.0771
 4976SOL    HW226388   3.173   2.655   6.490 -0.0255  0.3999 -1.4198
 4977SOL     OW26389   1.690   4.261   9.466 -0.2404  0.2979  0.2676
 4977SOL    HW126390   1.604   4.285   9.432 -1.0887 -1.8786  0.8890
 4977SOL    HW226391   1.663   4.231   9.552 -0.3259  0.0338  0.1507
 4978SOL     OW26392   3.393   3.884  15.357  0.5591  0.0995  0.8183
 4978SOL    HW126393   3.307   3.885  15.398  0.4680  1.0593  0.6111
 4978SOL    HW226394   3.383   3.824  15.283 -3.8979  1.0196  0.6777
 4979SOL     OW26395   2.783   0.441   4.858  0.1726 -0.1209 -0.0886
 4979SOL    HW126396   2.693   0.419   4.832 -0.4867  1.0486  1.1931
 4979SOL    HW226397   2.804   0.511   4.796  0.9128 -0.3503 -0.0916
 4980SOL     OW26398   3.817   3.838   7.437  0.5943  0.4381  0.0759
 4980SOL    HW126399   3.819   3.790   7.520  0.6665 -0.9245 -0.7062
 4980SOL    HW226400   3.726   3.834   7.406  0.7252  1.3905 -0.4116
 4981SOL     OW26401   0.224   3.370   8.652  0.2920 -0.2408 -0.1154
 4981SOL    HW126402   0.133   3.399   8.641  0.1017  0.3317  2.8574
 4981SOL    HW226403   0.248   3.441   8.713 -2.4091 -2.2883  3.3835
 4982SOL     OW26404   3.099   2.759   7.054  0.4926 -0.4698  0.5976
 4982SOL    HW126405   3.054   2.678   7.032  0.9882  0.4040 -3.5341
 4982SOL    HW226406   3.025   2.814   7.080  1.5324  1.8053 -1.2909
 4983SOL     OW26407   2.878   1.018   2.566 -0.3345 -0.4366 -0.3399
 4983SOL    HW126408   2.939   1.084   2.533 -1.2499  0.7353  0.3114
 4983SOL    HW226409   2.932   0.942   2.544  1.0209  0.4904 -0.2680
 4984SOL     OW26410   1.419   4.027   0.021 -0.7221 -0.3769 -0.3800
 4984SOL    HW126411   1.377   4.089   0.081  0.5788  0.2563 -0.1239
 4984SOL    HW226412   1.480   4.091  17.684 -0.3895  0.5808  1.8890
 4985SOL     OW26413   1.656   0.440   0.125 -0.2725  0.2980 -0.2241
 4985SOL    HW126414   1.570   0.399   0.125 -0.9605  1.7213  1.3890
 4985SOL    HW226415   1.643   0.534   0.126  2.9940  0.7091  2.9431
 4986SOL     OW26416   2.832   4.191  17.494  0.5207 -0.1271 -0.0144
 4986SOL    HW126417   2.900   4.243  17.536  0.4067 -0.0146  0.0284
 4986SOL    HW226418   2.817   4.260  17.429 -1.6850  1.3711  2.0871
 4987SOL     OW26419   0.234   4.632   9.316  0.5481 -0.1839 -0.5920
 4987SOL    HW126420   0.295   4.701   9.287  2.5168 -1.9945 -0.7516
 4987SOL    HW226421   0.264   4.563   9.257 -2.6209 -0.3091 -2.0191
 4988SOL     OW26422   0.063   3.675   6.297  0.2284  0.2022 -0.2104
 4988SOL    HW126423   0.028   3.667   6.386  0.8916  0.1168  0.0445
 4988SOL    HW226424   4.719   3.724   6.251  1.8166  0.3232 -2.4419
 4989SOL     OW26425   1.116   2.139   1.431 -0.3402 -0.1208 -0.2455
 4989SOL    HW126426   1.203   2.161   1.466 -0.2353 -0.5064 -0.2643
 4989SOL    HW226427   1.090   2.226   1.401 -1.0645  0.2733  1.5601
 4990SOL     OW26428   3.281   3.532   7.768  0.3388  0.6892  0.3350
 4990SOL    HW126429   3.242   3.459   7.815  1.1876  0.3416  0.5085
 4990SOL    HW226430   3.204   3.572   7.728 -1.6154 -2.8740  0.5696
 4991SOL     OW26431   3.846   1.245   7.750  0.3265 -0.6646 -0.0455
 4991SOL    HW126432   3.823   1.252   7.842  1.8549 -1.0162  0.3570
 4991SOL    HW226433   3.925   1.192   7.762 -0.3947 -1.7975 -0.2481
 4992SOL     OW26434   0.952   4.033   2.980  0.0614  0.4569  0.1263
 4992SOL    HW126435   0.881   4.083   2.941  1.0810  1.9153  0.1247
 4992SOL    HW226436   1.005   3.997   2.909  0.3422 -0.3359  0.7340
 4993SOL     OW26437   3.842   2.224  15.609  0.0210 -0.0855 -0.0209
 4993SOL    HW126438   3.883   2.276  15.678 -2.4036  0.9775  0.6194
 4993SOL    HW226439   3.764   2.276  15.588  0.9011 -0.2754 -3.7162
 4994SOL     OW26440   2.806   1.443   3.138  0.0048 -0.0041 -1.0568
 4994SOL    HW126441   2.825   1.532   3.110  0.4638 -0.6151 -2.6948
 4994SOL    HW226442   2.811   1.393   3.056  0.9320 -3.3971  1.0556
 4995SOL     OW26443   3.803   3.213   8.599  0.0693  0.2873  0.0215
 4995SOL    HW126444   3.777   3.210   8.507  1.1406  0.0594 -0.2718
 4995SOL    HW226445   3.718   3.210   8.643 -0.3584  0.7602 -0.7755
 4996SOL     OW26446   3.479   0.779  15.563  0.2249 -0.2795 -0.3018
 4996SOL    HW126447   3.499   0.870  15.584  1.4736 -0.6685  0.1690
 4996SOL    HW226448   3.514   0.760  15.475  1.6211 -1.5172  0.5209
 4997SOL     OW26449   4.025   2.312  15.791  0.1159  0.0097  0.0400
 4997SOL    HW126450   4.098   2.326  15.730 -0.2617  0.7551 -0.2393
 4997SOL    HW226451   4.011   2.396  15.834 -2.4079  0.6170 -1.9835
 4998SOL     OW26452   2.604   0.168  11.398  0.4527 -0.0725 -0.6929
 4998SOL    HW126453   2.619   0.244  11.343  0.1683 -1.7356 -3.0594
 4998SOL    HW226454   2.512   0.180  11.422  0.3003  0.2152 -1.4374
 4999SOL     OW26455   1.289   2.277   8.457  0.4137 -0.1496  0.0667
 4999SOL    HW126456   1.220   2.252   8.517 -2.3501  1.5942 -2.3874
 4999SOL    HW226457   1.276   2.371   8.468  0.9460 -0.0846  0.1614
 5000SOL     OW26458   3.204   1.979  13.972 -0.0807 -0.1275  0.2444
 5000SOL    HW126459   3.117   1.963  13.937  0.0626  0.8579 -0.5430
 5000SOL    HW226460   3.180   1.972  14.065  1.0893 -0.0101  0.5629
 5001SOL     OW26461   0.093   3.383   4.782  0.0213 -0.9084 -0.3953
 5001SOL    HW126462   0.151   3.406   4.855  3.1037  0.8651 -3.4003
 5001SOL    HW226463   0.148   3.313   4.748 -0.5575  0.1983 -3.6106
 5002SOL     OW26464   3.181   1.954   2.734 -0.0646  0.3364 -0.1971
 5002SOL    HW126465   3.121   1.999   2.675  0.2757 -0.3956 -1.1173
 5002SOL    HW226466   3.266   1.974   2.695 -0.5190  0.4318 -1.1524
 5003SOL     OW26467   4.544   2.802   6.328 -0.0247 -0.4177  0.0397
 5003SOL    HW126468   4.493   2.873   6.367  0.3502  0.3944 -0.9425
 5003SOL    HW226469   4.570   2.748   6.403 -0.6333  1.5840  1.6926
 5004SOL     OW26470   3.635   3.829   6.892  0.2916 -0.8734  0.0753
 5004SOL    HW126471   3.547   3.845   6.926  0.7795  0.4569  0.7181
 5004SOL    HW226472   3.620   3.877   6.811  1.6025  1.0572  0.9628
 5005SOL     OW26473   3.895   1.047   0.850 -0.1110 -0.4171  0.2534
 5005SOL    HW126474   3.876   0.992   0.773  0.9840  1.7645 -1.5856
 5005SOL    HW226475   3.975   1.090   0.821 -0.8038 -0.2973 -1.4767
 5006SOL     OW26476   0.613   3.864   3.255  0.2864 -0.5484  0.1011
 5006SOL    HW126477   0.520   3.888   3.248  0.9327  1.8101 -0.2089
 5006SOL    HW226478   0.645   3.871   3.165 -0.5066 -1.5713 -0.2673
 5007SOL     OW26479   4.203   2.855   8.476  0.3744 -0.4764 -0.2926
 5007SOL    HW126480   4.271   2.845   8.543  1.5056  0.9888 -1.2241
 5007SOL    HW226481   4.153   2.775   8.493  2.2907 -1.3789  1.0142
 5008SOL     OW26482   2.096   4.322   5.987  0.5959 -0.4492 -0.1999
 5008SOL    HW126483   2.132   4.237   5.961  0.6514 -0.7276  0.7875
 5008SOL    HW226484   2.171   4.374   5.959  0.1009 -0.3054 -1.2648
 5009SOL     OW26485   4.651   2.214   6.715  0.3011 -0.4990  0.0938
 5009SOL    HW126486   4.559   2.220   6.689  0.4786 -0.3083 -0.4826
 5009SOL    HW226487   4.678   2.161   6.641  1.8673  0.1548  0.2034
 5010SOL     OW26488   0.281   0.126   8.135  0.5958  0.5343 -0.5346
 5010SOL    HW126489   0.320   0.060   8.077 -0.1526 -0.3520 -0.0208
 5010SOL    HW226490   0.226   0.178   8.077 -0.7828  0.7891  0.9931
 5011SOL     OW26491   4.040   2.330   3.368 -0.2308 -0.0944 -0.2397
 5011SOL    HW126492   3.976   2.400   3.382  1.2081  0.6926  2.4288
 5011SOL    HW226493   4.125   2.366   3.393 -1.5667  2.4815  0.5517
 5012SOL     OW26494   4.063   2.460   7.994 -0.3067  0.2286  0.0323
 5012SOL    HW126495   4.009   2.515   7.938 -2.5761 -0.9293  1.1056
 5012SOL    HW226496   4.150   2.490   7.967 -0.2261 -1.4997 -1.6244
 5013SOL     OW26497   1.439   0.252   2.598  0.1879 -0.8369 -0.2842
 5013SOL    HW126498   1.407   0.162   2.602  2.1500 -1.5040  0.4155
 5013SOL    HW226499   1.485   0.258   2.681  1.7805 -2.3487 -1.0343
 5014SOL     OW26500   3.620   1.638   4.796  0.0694  0.0309  0.2392
 5014SOL    HW126501   3.705   1.682   4.801  0.2374 -0.4726  1.8200
 5014SOL    HW226502   3.585   1.693   4.726 -0.9194  0.0179  0.7239
 5015SOL     OW26503   1.855   0.934   6.564 -0.5126  0.3381  0.2216
 5015SOL    HW126504   1.844   0.945   6.659  1.4316  1.5898  0.3044
 5015SOL    HW226505   1.798   0.862   6.538  0.7032  0.2016 -2.1108
 5016SOL     OW26506   2.034   4.439   9.786  0.1597  0.7158 -0.1900
 5016SOL    HW126507   2.048   4.359   9.837 -0.3505  0.9537  0.3283
 5016SOL    HW226508   1.946   4.464   9.814  1.0923  3.0102  0.6546
 5017SOL     OW26509   3.964   0.407   7.329  0.5550 -1.1914 -0.1603
 5017SOL    HW126510   4.030   0.338   7.321  1.2617 -0.4021 -1.2154
 5017SOL    HW226511   3.904   0.393   7.255 -0.0808  0.4708  0.0427
 5018SOL     OW26512   0.716   4.390   2.235 -0.3207  0.3937  0.4489
 5018SOL    HW126513   0.769   4.367   2.158  1.9703 -0.9668  2.4019
 5018SOL    HW226514   0.742   4.477   2.266  0.3205 -0.4993  2.3915
 5019SOL     OW26515   4.341   0.032  17.504  0.2855  0.2122  0.3425
 5019SOL    HW126516   4.271   0.096  17.498  0.0322 -0.0477  0.5008
 5019SOL    HW226517   4.322   4.708  17.424 -0.9714  1.6285 -0.2092
 5020SOL     OW26518   0.395   4.253  10.511  0.3295 -0.0634 -0.1255
 5020SOL    HW126519   0.474   4.220  10.469 -0.4429 -0.4309 -1.3035
 5020SOL    HW226520   0.426   4.342  10.532 -0.4831 -0.5724  3.0965
 5021SOL     OW26521   3.298   0.128  12.839 -0.5804  0.2153 -0.0195
 5021SOL    HW126522   3.309   0.088  12.752 -1.2707  1.9807 -0.9166
 5021SOL    HW226523   3.325   0.053  12.892 -2.7669 -0.6191 -0.0838
 5022SOL     OW26524   3.781   3.699   2.682  0.5651  0.0939  0.2611
 5022SOL    HW126525   3.767   3.756   2.607  1.6957 -0.0110 -0.0240
 5022SOL    HW226526   3.866   3.732   2.712 -0.5075  1.4809  1.7704
 5023SOL     OW26527   0.336   4.272   7.761  0.0746 -0.0184  0.8168
 5023SOL    HW126528   0.399   4.256   7.831 -0.7707 -1.8031  1.1735
 5023SOL    HW226529   0.287   4.190   7.767 -1.5681  0.8139 -0.9667
 5024SOL     OW26530   0.454   3.157   4.973  0.3046  0.2084  0.2137
 5024SOL    HW126531   0.545   3.186   4.981  1.2683 -3.0054  0.9459
 5024SOL    HW226532   0.440   3.168   4.879  1.1917 -1.8657 -0.1767
 5025SOL     OW26533   0.419   3.013   3.021 -0.5002  0.0546 -0.1423
 5025SOL    HW126534   0.401   2.927   2.983 -0.1140 -0.6431  1.2110
 5025SOL    HW226535   0.475   2.983   3.094  0.8469  0.4343 -1.0209
 5026SOL     OW26536   2.889   0.096  17.193 -0.1662  0.0267  0.0732
 5026SOL    HW126537   2.889   0.091  17.288  4.6103  1.3055  0.1162
 5026SOL    HW226538   2.937   0.177  17.174  1.0058 -0.2489  1.8578
 5027SOL     OW26539   1.111   4.593   3.589  0.2742  0.0075  0.0462
 5027SOL    HW126540   1.160   4.671   3.563  0.2367  0.4113  1.1906
 5027SOL    HW226541   1.117   4.541   3.508 -2.4628 -0.9344  0.4255
 5028SOL     OW26542   4.024   0.767   7.214 -0.6201  0.2655  0.0393
 5028SOL    HW126543   4.017   0.778   7.309 -0.0466 -1.3224  0.2703
 5028SOL    HW226544   4.100   0.824   7.201 -0.2034 -0.3192 -0.1043
 5029SOL     OW26545   3.905   2.346  13.846 -0.1744 -0.2733  0.8175
 5029SOL    HW126546   3.915   2.403  13.923 -0.0619  0.7539  0.0441
 5029SOL    HW226547   3.948   2.269  13.881  0.2265  1.2606  3.7519
 5030SOL     OW26548   0.345   1.238  13.694 -0.3072  0.0513 -0.1747
 5030SOL    HW126549   0.383   1.223  13.607  2.0009  2.2513  0.4583
 5030SOL    HW226550   0.351   1.150  13.732  0.4707  0.7597  1.3559
 5031SOL     OW26551   4.533   2.377   5.724  0.2985  0.2075  0.1441
 5031SOL    HW126552   4.624   2.351   5.739 -0.1496 -1.5971 -0.1981
 5031SOL    HW226553   4.503   2.415   5.806 -0.8309  0.1479 -0.2427
 5032SOL     OW26554   3.382   1.590   2.341  0.3451  0.4984 -0.3459
 5032SOL    HW126555   3.390   1.661   2.404  0.4676  0.4897 -0.3515
 5032SOL    HW226556   3.293   1.557   2.357  0.6689  0.4214  1.3343
 5033SOL     OW26557   3.912   2.816   7.449 -0.3828 -0.0696 -0.7786
 5033SOL    HW126558   3.852   2.863   7.391  0.1243 -0.5801 -1.7175
 5033SOL    HW226559   3.911   2.885   7.516 -1.2615  0.4108 -1.2804
 5034SOL     OW26560   2.313   3.035   7.240  0.6136  0.1110 -0.0818
 5034SOL    HW126561   2.259   3.060   7.314  0.2829 -0.5459 -0.1035
 5034SOL    HW226562   2.318   2.941   7.257 -0.1302 -0.1310 -1.2271
 5035SOL     OW26563   2.745   0.031   6.700  0.1662  0.2247 -0.6093
 5035SOL    HW126564   2.814   0.095   6.716 -0.7659  0.4590  2.4115
 5035SOL    HW226565   2.688   0.093   6.655  0.6703  0.7485 -0.5126
 5036SOL     OW26566   1.144   0.247  14.387  0.0928  0.1814 -0.3610
 5036SOL    HW126567   1.159   0.156  14.413 -0.5814 -0.0904 -0.9076
 5036SOL    HW226568   1.085   0.274  14.457  1.2554 -0.9644  1.0535
 5037SOL     OW26569   0.463   0.583  13.754  0.3716  0.3486 -0.6347
 5037SOL    HW126570   0.373   0.600  13.783  0.0769 -0.8758 -0.8239
 5037SOL    HW226571   0.513   0.600  13.833 -2.1557  1.3180  0.7623
 5038SOL     OW26572   4.675   1.946  10.744  0.1505 -0.1674 -0.5868
 5038SOL    HW126573   0.031   1.908  10.709  1.1917  0.8125  0.7358
 5038SOL    HW226574   4.656   2.011  10.677  0.6291 -1.1093 -1.6364
 5039SOL     OW26575   2.875   1.858   7.903  0.2575  0.1934 -0.3847
 5039SOL    HW126576   2.967   1.852   7.927  0.2528 -0.5156 -0.5477
 5039SOL    HW226577   2.855   1.765   7.893  1.9773 -0.1229 -0.8679
 5040SOL     OW26578   2.643   2.010   8.849  0.3015 -0.4543  0.2531
 5040SOL    HW126579   2.715   1.958   8.814 -0.1145 -0.4139 -0.6628
 5040SOL    HW226580   2.609   2.050   8.769  1.0156 -1.7283 -0.6763
 5041SOL     OW26581   1.357   2.652   5.313 -0.1866 -0.3779  0.1706
 5041SOL    HW126582   1.270   2.621   5.336  0.2541 -1.2954  0.6005
 5041SOL    HW226583   1.400   2.654   5.398  0.7802 -0.0439 -0.3261
 5042SOL     OW26584   1.066   4.713   5.481 -0.5754 -0.1459 -0.1394
 5042SOL    HW126585   1.043   0.082   5.480 -0.6212 -0.1813 -3.0383
 5042SOL    HW226586   1.108   4.700   5.566 -0.0774 -1.2316 -0.5444
 5043SOL     OW26587   1.278   0.026  14.499  0.0808 -0.0783  0.7419
 5043SOL    HW126588   1.321   0.009  14.582  1.5702  2.7840  0.5603
 5043SOL    HW226589   1.245   4.663  14.480 -0.6852 -0.0346  1.8713
 5044SOL     OW26590   4.071   2.551   6.153  0.3653  0.1514  0.7155
 5044SOL    HW126591   4.018   2.480   6.188  1.0567 -0.5805  0.2835
 5044SOL    HW226592   4.147   2.550   6.211  0.2501  1.0112  0.8840
 5045SOL     OW26593   0.101   3.126  10.686 -0.4453 -0.1159 -0.0702
 5045SOL    HW126594   0.035   3.154  10.622  1.3334  4.0396 -0.0943
 5045SOL    HW226595   0.162   3.079  10.630 -2.4515 -0.7353 -1.7127
 5046SOL     OW26596   4.040   4.151   3.480  0.8692 -0.4268 -0.3821
 5046SOL    HW126597   4.035   4.200   3.398 -2.2703  0.4054  0.2930
 5046SOL    HW226598   3.949   4.121   3.488  0.5303  0.1282 -1.9980
 5047SOL     OW26599   1.788   1.373   6.115  0.4975  0.0683 -0.2330
 5047SOL    HW126600   1.841   1.444   6.151 -1.2700  2.6462 -2.7256
 5047SOL    HW226601   1.782   1.317   6.192 -2.0270 -0.9812 -1.2115
 5048SOL     OW26602   1.816   3.468   5.657  0.0467  0.0288 -0.6728
 5048SOL    HW126603   1.791   3.470   5.565 -0.3907 -0.1596 -0.5584
 5048SOL    HW226604   1.910   3.453   5.651  0.1303 -0.4843  1.7596
 5049SOL     OW26605   1.175   0.238   8.004 -0.6191 -0.2051  0.2459
 5049SOL    HW126606   1.188   0.321   7.957 -1.8918 -0.4066 -0.4768
 5049SOL    HW226607   1.198   0.254   8.096  0.0677  0.5652 -0.0579
 5050SOL     OW26608   3.798   3.821   2.443 -0.0194 -0.1715 -0.2546
 5050SOL    HW126609   3.845   3.818   2.360  1.1590  1.2049  0.3363
 5050SOL    HW226610   3.715   3.795   2.405  0.3469  0.4673 -1.4907
 5051SOL     OW26611   2.986   2.419   3.858  0.1912 -0.2699 -0.5040
 5051SOL    HW126612   3.022   2.362   3.925 -0.6518  0.4267  0.5421
 5051SOL    HW226613   2.912   2.450   3.910  1.2556  1.9626 -0.3352
 5052SOL     OW26614   4.190   0.293  12.972  0.0800  0.8646  0.1069
 5052SOL    HW126615   4.174   0.199  12.973  1.2547  0.6442 -1.0884
 5052SOL    HW226616   4.255   0.311  12.904 -1.4016 -1.6832 -1.9827
 5053SOL     OW26617   1.222   0.010   6.084  0.4160  0.0625  0.5185
 5053SOL    HW126618   1.236   4.639   6.089 -2.9032 -0.5484 -2.2159
 5053SOL    HW226619   1.209   0.022   6.178 -1.0973 -1.3716  0.4933
 5054SOL     OW26620   4.067   2.533  14.312 -0.4031 -0.1918  0.4524
 5054SOL    HW126621   4.144   2.533  14.256 -0.8524  0.5919 -0.1651
 5054SOL    HW226622   4.096   2.610  14.361  0.2852  1.2467 -2.1986
 5055SOL     OW26623   0.901   0.155  10.368 -0.0134 -0.2503  0.8347
 5055SOL    HW126624   0.853   0.196  10.440 -0.4486  0.7965 -0.0448
 5055SOL    HW226625   0.865   0.068  10.354 -2.2680  0.4738  2.1428
 5056SOL     OW26626   2.203   1.294   8.144  0.0455 -0.4741 -0.6813
 5056SOL    HW126627   2.247   1.209   8.139  1.2085 -0.0349  2.0143
 5056SOL    HW226628   2.233   1.330   8.061  0.5820 -1.1629 -0.7823
 5057SOL     OW26629   1.180   0.241   5.935 -0.2721  0.3568  0.0869
 5057SOL    HW126630   1.267   0.273   5.912 -0.1589 -1.4541 -2.0467
 5057SOL    HW226631   1.203   0.159   5.978 -1.1844  0.6267  1.0793
 5058SOL     OW26632   3.497   2.626   6.533  0.4004 -0.7615 -0.6347
 5058SOL    HW126633   3.504   2.658   6.443  0.8586  1.4598  0.1890
 5058SOL    HW226634   3.411   2.584   6.526 -0.5099  1.1363 -0.7068
 5059SOL     OW26635   2.063   1.936   3.994 -0.1312  0.2865 -0.4703
 5059SOL    HW126636   2.143   1.958   3.947  0.6793 -1.5547  0.0767
 5059SOL    HW226637   2.076   1.842   4.002  1.6141  0.6705  1.2211
 5060SOL     OW26638   1.436   3.509   5.440  0.2792 -0.0373  0.8756
 5060SOL    HW126639   1.376   3.578   5.414  0.5499  0.1730  0.8201
 5060SOL    HW226640   1.468   3.533   5.527 -1.9071  2.8698  0.8447
 5061SOL     OW26641   2.180   4.459   0.045  0.0973 -0.1777  1.0264
 5061SOL    HW126642   2.248   4.472  17.677 -0.2603 -0.9432  0.5100
 5061SOL    HW226643   2.155   4.546   0.077  3.1779  1.5287 -1.1517
 5062SOL     OW26644   3.024   3.133   6.634  0.1604 -0.3587  0.5532
 5062SOL    HW126645   2.970   3.057   6.611  1.2914 -0.9150 -0.3119
 5062SOL    HW226646   2.967   3.209   6.638  0.4612 -0.0810 -0.5069
 5063SOL     OW26647   3.143   3.300   7.803 -0.3185 -0.6053 -0.4558
 5063SOL    HW126648   3.190   3.261   7.730 -0.3805  0.7698 -1.2407
 5063SOL    HW226649   3.074   3.235   7.811 -1.9168  1.2910  1.4238
 5064SOL     OW26650   0.384   0.104   8.947  0.7597  0.0876  0.2380
 5064SOL    HW126651   0.469   0.102   8.993  0.8591 -0.3861  0.0335
 5064SOL    HW226652   0.351   0.177   9.000  0.9802  0.6152 -0.3584
 5065SOL     OW26653   3.092   0.432  11.039  0.2944  0.3089 -0.2486
 5065SOL    HW126654   3.011   0.456  11.084  0.5306 -0.0075  0.3428
 5065SOL    HW226655   3.085   0.479  10.956 -0.5214  0.9153  0.1644
 5066SOL     OW26656   1.501   2.368   4.178 -0.0820 -0.3901 -0.1050
 5066SOL    HW126657   1.558   2.442   4.199  0.0261 -0.0757 -1.4592
 5066SOL    HW226658   1.470   2.380   4.088  0.5723 -2.8496 -0.6803
 5067SOL     OW26659   3.187   0.940   2.714  0.5094  0.6663 -0.0895
 5067SOL    HW126660   3.256   0.874   2.729 -0.7173 -0.3533  1.0246
 5067SOL    HW226661   3.156   0.907   2.629  1.0211  1.7683 -0.7094
 5068SOL     OW26662   0.255   4.642   4.418 -0.3049  0.1425 -0.5709
 5068SOL    HW126663   0.227   4.669   4.330 -1.2412 -0.0394 -0.3202
 5068SOL    HW226664   0.183   4.583   4.437 -1.5129  2.1925  1.2296
 5069SOL     OW26665   0.868   0.872   8.226 -0.0486  0.1550 -0.3774
 5069SOL    HW126666   0.796   0.862   8.164 -0.6368  4.4416 -0.4008
 5069SOL    HW226667   0.838   0.954   8.265 -3.2005 -1.1775  0.0395
 5070SOL     OW26668   0.680   1.064   3.573 -0.9031 -0.2678  0.2078
 5070SOL    HW126669   0.638   1.122   3.509 -0.0179  1.5373  1.2607
 5070SOL    HW226670   0.752   1.040   3.514 -0.4323  1.9624 -0.1375
 5071SOL     OW26671   2.057   2.760  16.401  0.1486  0.1318 -0.1291
 5071SOL    HW126672   2.055   2.842  16.451 -0.0810  1.6035 -2.5663
 5071SOL    HW226673   1.979   2.718  16.437  0.2444 -0.2947 -0.4225
 5072SOL     OW26674   0.603   3.615   0.094 -0.3984 -0.5872  0.1152
 5072SOL    HW126675   0.531   3.569   0.138 -0.9350  1.8348  1.8338
 5072SOL    HW226676   0.564   3.663   0.021 -1.2284  0.1897  1.0552
 5073SOL     OW26677   2.399   4.520   7.547 -0.4278 -0.0296 -0.3899
 5073SOL    HW126678   2.457   4.525   7.623 -1.5258 -0.3614  0.4670
 5073SOL    HW226679   2.447   4.585   7.495  1.4536 -0.5460  0.7234
 5074SOL     OW26680   4.396   3.097   4.370 -0.5590 -0.0613  0.5158
 5074SOL    HW126681   4.376   3.009   4.403  0.7263 -0.3618  0.4921
 5074SOL    HW226682   4.469   3.113   4.430 -0.4299 -0.0841  0.3642
 5075SOL     OW26683   3.161   0.108   7.549 -0.3286  0.4650  0.7628
 5075SOL    HW126684   3.254   0.131   7.553 -0.6259  1.6279  0.7676
 5075SOL    HW226685   3.155   0.110   7.454  0.6183  3.2412  0.7681
 5076SOL     OW26686   0.842   4.114   4.017 -0.7423 -0.2917  0.5480
 5076SOL    HW126687   0.820   4.206   4.002 -2.2365 -0.5887  0.9094
 5076SOL    HW226688   0.759   4.079   3.986 -0.9204 -0.7966  1.6103
 5077SOL     OW26689   1.042   3.920  12.335 -0.1279  0.0915 -0.6124
 5077SOL    HW126690   1.032   3.921  12.430 -1.5564  0.2260 -0.7654
 5077SOL    HW226691   1.030   3.825  12.333  0.8815 -0.0107 -1.9663
 5078SOL     OW26692   0.228   4.573   6.342 -0.0502 -0.6058  0.1526
 5078SOL    HW126693   0.299   4.601   6.399 -0.7854  2.1714 -0.2735
 5078SOL    HW226694   0.199   4.484   6.363 -2.3618  0.3887  1.1822
 5079SOL     OW26695   1.097   2.005  12.076  0.0161 -0.0245  0.5074
 5079SOL    HW126696   1.080   1.918  12.041  1.1323  0.0396 -0.2077
 5079SOL    HW226697   1.155   2.036  12.007 -0.7288  2.2250  0.8661
 5080SOL     OW26698   2.891   1.295   6.572  0.1471  0.2691  0.5039
 5080SOL    HW126699   2.832   1.322   6.642 -0.4449  2.3861 -0.8221
 5080SOL    HW226700   2.975   1.314   6.614  0.8284 -0.6007 -0.4569
 5081SOL     OW26701   0.981   4.547   7.166 -0.5386 -0.3270 -0.2134
 5081SOL    HW126702   0.956   4.602   7.241  0.4731  0.3033 -0.3315
 5081SOL    HW226703   1.049   4.490   7.202 -0.3532  0.0238 -0.0054
 5082SOL     OW26704   1.875   3.746   7.055  0.0166 -0.1503 -0.3210
 5082SOL    HW126705   1.943   3.778   7.115  0.8368 -2.1886 -0.1829
 5082SOL    HW226706   1.856   3.663   7.097 -0.2014  0.0601 -0.0076
 5083SOL     OW26707   2.909   3.761  15.712  0.2438 -0.2962 -0.1672
 5083SOL    HW126708   2.970   3.824  15.750  0.4551 -0.4933 -0.1797
 5083SOL    HW226709   2.980   3.705  15.680  0.0700 -0.1854 -0.7394
 5084SOL     OW26710   1.811   1.109   3.780 -0.0638  0.2510  0.7708
 5084SOL    HW126711   1.898   1.075   3.805  1.2536  2.1600 -1.2466
 5084SOL    HW226712   1.810   1.197   3.819 -0.2076  0.2566  0.7537
 5085SOL     OW26713   1.809   2.587   7.742  0.0432 -0.2095  0.2272
 5085SOL    HW126714   1.832   2.566   7.833 -0.6190  1.6103  0.8000
 5085SOL    HW226715   1.714   2.581   7.745 -0.1651  2.2857 -1.2437
 5086SOL     OW26716   0.791   1.043   2.198  0.7471  0.2572 -0.5215
 5086SOL    HW126717   0.816   1.123   2.151 -1.2704  1.0433 -0.2430
 5086SOL    HW226718   0.737   0.996   2.135 -1.7594  0.5239  1.4396
 5087SOL     OW26719   0.159   3.004   3.710  0.7014 -0.5241  0.4679
 5087SOL    HW126720   0.181   2.950   3.634 -3.6361 -0.2031 -1.0328
 5087SOL    HW226721   0.106   3.074   3.673  3.1477  1.3989  0.5589
 5088SOL     OW26722   0.138   1.166   2.393  0.4896 -0.0751  0.0360
 5088SOL    HW126723   0.229   1.169   2.363  1.0633  1.0923  1.8667
 5088SOL    HW226724   0.106   1.147   2.305 -1.8860 -0.7344  1.0431
 5089SOL     OW26725   0.935   1.408   3.811  0.0700 -0.0750  0.1130
 5089SOL    HW126726   1.017   1.373   3.777 -0.9096 -0.5482 -1.7498
 5089SOL    HW226727   0.927   1.498   3.779 -0.3998  0.4865  1.8107
 5090SOL     OW26728   2.771   1.042  16.302  0.5046 -0.3315  0.6439
 5090SOL    HW126729   2.684   1.041  16.342 -0.8072  0.3221 -2.2128
 5090SOL    HW226730   2.758   1.008  16.214  0.9554  1.2910 -0.0461
 5091SOL     OW26731   2.821   4.331  11.870 -0.0582  0.4815 -0.6648
 5091SOL    HW126732   2.734   4.298  11.892  0.3702 -0.1634  0.0478
 5091SOL    HW226733   2.820   4.313  11.776 -3.6857 -1.4576 -0.2727
 5092SOL     OW26734   0.144   3.186   6.704 -0.0048  0.3297  0.3498
 5092SOL    HW126735   0.157   3.272   6.663 -1.5546  0.8214  0.8995
 5092SOL    HW226736   0.201   3.123   6.660  0.2053  0.1973  0.8125
 5093SOL     OW26737   4.283   4.049   2.756  0.3330  0.0678  0.4733
 5093SOL    HW126738   4.191   4.033   2.777 -0.1383 -1.4988 -2.8352
 5093SOL    HW226739   4.278   4.041   2.661  0.6028 -2.6807  0.6900
 5094SOL     OW26740   0.221   3.574  12.802 -0.6615 -0.4809 -0.4944
 5094SOL    HW126741   0.198   3.483  12.820  1.9299 -0.9522  0.4889
 5094SOL    HW226742   0.213   3.554  12.708  1.7467  0.5202 -0.9131
 5095SOL     OW26743   3.355   3.551   2.303  0.1517  0.1413 -0.1862
 5095SOL    HW126744   3.411   3.503   2.241 -0.0799 -1.1130  0.5714
 5095SOL    HW226745   3.278   3.567   2.248 -0.4366 -0.3634  0.4952
 5096SOL     OW26746   2.209   0.113  16.724 -0.5352 -0.1891 -0.0320
 5096SOL    HW126747   2.140   0.068  16.773 -1.0733 -0.1087 -0.7087
 5096SOL    HW226748   2.241   0.048  16.661 -2.4902 -0.4200 -0.8019
 5097SOL     OW26749   4.654   4.166   6.016 -0.4132 -0.5982  0.2003
 5097SOL    HW126750   4.580   4.129   6.065 -0.4847  0.6024  1.0133
 5097SOL    HW226751   4.721   4.109   6.052 -1.1254 -1.8424 -0.4503
 5098SOL     OW26752   1.056   0.623   7.622 -0.2215  0.2586 -0.7113
 5098SOL    HW126753   1.020   0.700   7.666 -0.9547 -0.0920 -0.6964
 5098SOL    HW226754   1.146   0.622   7.653 -0.4249 -2.3663 -0.2241
 5099SOL     OW26755   4.053   2.762   7.700  0.5346  0.3859 -0.0784
 5099SOL    HW126756   3.981   2.775   7.762 -0.4665  0.0882 -1.1831
 5099SOL    HW226757   4.009   2.724   7.624  0.8737  1.2020 -0.6739
 5100SOL     OW26758   0.078   2.791   6.866 -0.4202 -0.0161 -0.1468
 5100SOL    HW126759   4.713   2.756   6.869 -1.3872  2.5902  1.3365
 5100SOL    HW226760   0.075   2.872   6.916  3.7387 -1.3967  2.4138
 5101SOL     OW26761   3.936   2.561  13.563  0.4036  0.4598  1.0566
 5101SOL    HW126762   3.858   2.556  13.508  1.1200 -1.3382  0.2160
 5101SOL    HW226763   3.997   2.580  13.493 -2.9107  1.3703 -1.5593
 5102SOL     OW26764   4.247   4.705   2.166 -0.6493  0.6388  0.0174
 5102SOL    HW126765   4.306   4.633   2.191 -2.0283 -1.4822 -2.8214
 5102SOL    HW226766   4.218   0.013   2.252  0.4997 -3.4402  1.9429
 5103SOL     OW26767   2.107   1.853   0.974  0.2964  0.4044 -0.4632
 5103SOL    HW126768   2.123   1.938   1.014 -0.1189  0.2361  0.0637
 5103SOL    HW226769   2.083   1.879   0.885 -0.2333  1.4495 -0.0023
 5104SOL     OW26770   2.011   0.012   0.488  0.0062  0.3328 -0.4921
 5104SOL    HW126771   1.945   4.684   0.443  0.0969 -0.5278  0.3888
 5104SOL    HW226772   1.970   0.098   0.495  0.9159  0.7175  0.1534
 5105SOL     OW26773   2.248   2.350  13.769  0.3892 -0.0725 -0.3854
 5105SOL    HW126774   2.258   2.430  13.718 -2.9785  0.5936  0.0477
 5105SOL    HW226775   2.291   2.360  13.854 -1.4368 -0.6105  0.5946
 5106SOL     OW26776   2.774   0.789   0.414  0.2338  0.4438 -0.2332
 5106SOL    HW126777   2.852   0.747   0.379  0.6110  0.5387  0.4926
 5106SOL    HW226778   2.760   0.865   0.357 -0.9960  1.6281  1.6107
 5107SOL     OW26779   3.853   1.415   8.892 -0.2725 -0.3417  0.1762
 5107SOL    HW126780   3.904   1.477   8.944  0.3481  1.1732 -2.1867
 5107SOL    HW226781   3.899   1.332   8.908  0.6383  0.1811  0.2741
 5108SOL     OW26782   4.234   4.126  10.009 -0.2245  0.3358 -0.3068
 5108SOL    HW126783   4.285   4.159   9.936 -0.9495 -0.8376 -1.3323
 5108SOL    HW226784   4.265   4.182  10.080  1.6668 -0.3576 -0.6113
 5109SOL     OW26785   2.861   2.446   8.236  0.1476  0.4176 -0.4093
 5109SOL    HW126786   2.856   2.425   8.142 -1.4937  1.7667 -0.6336
 5109SOL    HW226787   2.946   2.413   8.264 -0.8941 -1.3610  0.6763
 5110SOL     OW26788   2.956   1.412   7.263 -0.2906  0.1960 -0.1126
 5110SOL    HW126789   2.975   1.346   7.197  1.0694 -0.6549  1.1181
 5110SOL    HW226790   2.861   1.415   7.257 -0.2038  0.7002 -1.1851
 5111SOL     OW26791   4.104   2.871  16.598 -0.1677  0.3090 -0.0945
 5111SOL    HW126792   4.015   2.837  16.589  0.6144 -1.5702 -0.7558
 5111SOL    HW226793   4.105   2.951  16.545 -2.0827 -1.0340 -2.1632
 5112SOL     OW26794   3.908   0.194   6.215 -0.1691 -0.0674  0.0593
 5112SOL    HW126795   3.840   0.256   6.240 -1.0211 -1.3462  0.8901
 5112SOL    HW226796   3.967   0.254   6.169 -0.3511  1.2180  1.4923
 5113SOL     OW26797   4.121   4.522   1.069  0.1757 -0.1133  0.5707
 5113SOL    HW126798   4.209   4.484   1.072  1.0718  1.8584 -0.5364
 5113SOL    HW226799   4.068   4.443   1.058  1.6508 -0.9093 -0.8463
 5114SOL     OW26800   0.846   1.063   9.036 -0.0049  0.1690  0.0418
 5114SOL    HW126801   0.805   1.137   8.990  1.0902  0.6499 -0.1555
 5114SOL    HW226802   0.773   1.002   9.025 -0.0759  0.4220 -0.9653
 5115SOL     OW26803   4.564   3.358   6.065  0.0899  1.1871  0.4007
 5115SOL    HW126804   4.504   3.411   6.012 -0.6131  0.2612  0.2846
 5115SOL    HW226805   4.516   3.278   6.048  0.4396  1.0323  0.1345
 5116SOL     OW26806   3.837   1.322   5.288 -0.2381  0.4379 -0.1648
 5116SOL    HW126807   3.780   1.267   5.342 -0.3579  1.4364  0.7313
 5116SOL    HW226808   3.789   1.338   5.207  0.0875 -0.1052 -0.4602
 5117SOL     OW26809   4.445   3.201   6.707 -0.1450 -0.5344  0.6128
 5117SOL    HW126810   4.499   3.124   6.721  1.5716  0.8550  1.6601
 5117SOL    HW226811   4.506   3.265   6.745 -1.4498 -0.3269  2.3217
 5118SOL     OW26812   2.104   1.710   4.280 -0.0277  0.0154  0.2377
 5118SOL    HW126813   2.024   1.735   4.327  1.4265  1.4909  1.9470
 5118SOL    HW226814   2.079   1.626   4.242 -0.3378 -0.0401  0.5623
 5119SOL     OW26815   4.436   1.334   6.763  0.0833 -0.4435  0.0084
 5119SOL    HW126816   4.411   1.314   6.673  2.8669 -1.1701 -0.5938
 5119SOL    HW226817   4.393   1.271   6.822 -1.2043 -0.0214 -0.4815
 5120SOL     OW26818   1.072   2.479   6.094  0.7823  0.0165 -0.2730
 5120SOL    HW126819   0.993   2.522   6.126 -0.0061 -1.3175 -0.4432
 5120SOL    HW226820   1.046   2.423   6.021  3.1284  0.8861 -1.7826
 5121SOL     OW26821   2.760   0.929  13.972 -0.4799  0.4440 -0.8793
 5121SOL    HW126822   2.811   1.002  14.007  0.9918 -0.6492 -0.7899
 5121SOL    HW226823   2.814   0.852  13.989  0.9954  2.2313  2.5515
 5122SOL     OW26824   3.973   0.922   6.057 -0.2408  0.3245  0.1907
 5122SOL    HW126825   3.909   0.889   6.121  0.4917 -0.2703  0.6127
 5122SOL    HW226826   4.048   0.924   6.115  0.3158 -0.4882 -0.4865
 5123SOL     OW26827   4.531   3.685   6.992 -0.3217  0.3752 -0.0465
 5123SOL    HW126828   4.471   3.700   7.065  0.2970  0.8516  0.3653
 5123SOL    HW226829   4.545   3.592   7.008 -0.7187  0.2567 -0.3949
 5124SOL     OW26830   1.779   1.823   1.098  0.3065 -0.3689  0.1946
 5124SOL    HW126831   1.773   1.885   1.171 -1.3949  0.3364 -0.5246
 5124SOL    HW226832   1.743   1.880   1.030  0.2039 -0.0554  0.5067
 5125SOL     OW26833   0.399   2.474  17.461 -0.0616  0.9157 -0.6320
 5125SOL    HW126834   0.320   2.456  17.512  0.0956 -0.7900 -0.9794
 5125SOL    HW226835   0.437   2.387  17.451 -0.5054  0.7817 -1.0973
 5126SOL     OW26836   3.976   4.470   6.261  0.3452  0.4730 -0.3061
 5126SOL    HW126837   3.961   4.564   6.270 -0.7117  0.2757 -0.0350
 5126SOL    HW226838   3.921   4.445   6.335  1.8104  0.4762  0.7977
 5127SOL     OW26839   0.930   4.200   0.532 -0.5329 -0.3307  0.0076
 5127SOL    HW126840   0.975   4.245   0.461 -0.3568 -1.0770 -0.3606
 5127SOL    HW226841   0.901   4.116   0.495 -0.8569 -0.6450  0.9582
 5128SOL     OW26842   0.621   3.112   6.538  0.1854  0.3397  0.3062
 5128SOL    HW126843   0.659   3.130   6.452 -0.5969  1.6765  0.2319
 5128SOL    HW226844   0.667   3.033   6.566  0.0508 -0.0466 -0.5584
 5129SOL     OW26845   3.350   1.151   7.012  0.6390 -0.3252  0.1343
 5129SOL    HW126846   3.428   1.113   7.053  0.5109 -1.5136 -0.7345
 5129SOL    HW226847   3.351   1.100   6.931 -0.9333 -1.3439  0.7668
 5130SOL     OW26848   2.019   4.252  11.099 -0.4162 -0.2283  0.6023
 5130SOL    HW126849   2.078   4.187  11.137 -0.7100 -0.2372  1.0391
 5130SOL    HW226850   1.999   4.205  11.018  0.5417  0.6159 -0.1272
 5131SOL     OW26851   1.676   1.982   7.657  0.1829  0.2073 -0.2468
 5131SOL    HW126852   1.761   1.975   7.614 -0.6327  2.7554 -2.2898
 5131SOL    HW226853   1.606   1.951   7.601  1.8234 -2.5125 -0.7843
 5132SOL     OW26854   2.986   3.008   8.064 -0.0022 -0.3977 -0.1055
 5132SOL    HW126855   2.960   2.916   8.058 -2.6815  0.5044 -2.3392
 5132SOL    HW226856   3.030   3.022   7.981 -0.6235  3.3947  0.2111
 5133SOL     OW26857   2.769   4.143   2.457  0.7679 -0.0604  0.6757
 5133SOL    HW126858   2.756   4.058   2.499 -1.9267  0.0555  0.0546
 5133SOL    HW226859   2.848   4.174   2.502 -0.1204  1.8789  0.8974
 5134SOL     OW26860   4.117   1.045   2.107 -0.6287  0.4180 -0.4798
 5134SOL    HW126861   4.181   1.115   2.099 -0.4311  0.3461  0.4561
 5134SOL    HW226862   4.147   0.967   2.061  0.8405  1.6977 -1.6616
 5135SOL     OW26863   1.316   3.654   9.944 -0.0076 -0.4047  0.3914
 5135SOL    HW126864   1.233   3.642   9.899 -0.5569 -0.3908  1.4164
 5135SOL    HW226865   1.292   3.717  10.012 -0.5927  1.1360 -1.2522
 5136SOL     OW26866   3.132   3.292   5.135 -0.7490 -0.2194 -0.4941
 5136SOL    HW126867   3.228   3.291   5.130 -0.6022  2.5880  1.7664
 5136SOL    HW226868   3.115   3.274   5.043  1.2892 -0.9083 -0.7482
 5137SOL     OW26869   1.682   0.269  15.673 -0.4644 -0.3115  0.7559
 5137SOL    HW126870   1.772   0.244  15.691 -0.6823 -0.8331  1.1180
 5137SOL    HW226871   1.688   0.269  15.577 -2.5318  1.7787  0.6195
 5138SOL     OW26872   4.038   0.646   6.941 -0.1287 -0.1992  0.3543
 5138SOL    HW126873   4.051   0.553   6.957  0.5898 -0.4350 -1.6370
 5138SOL    HW226874   4.011   0.683   7.025 -3.3854  0.9956 -1.2263
 5139SOL     OW26875   3.801   3.340   6.309 -0.5406 -0.3674  0.2331
 5139SOL    HW126876   3.713   3.310   6.331 -1.0204 -0.6682 -2.0636
 5139SOL    HW226877   3.809   3.423   6.356 -0.4301 -1.5099  2.2337
 5140SOL     OW26878   3.468   4.645   8.089  0.5450 -0.6954  0.3509
 5140SOL    HW126879   3.448   4.649   8.183 -1.2785  1.1322 -0.1420
 5140SOL    HW226880   3.564   4.637   8.095  0.3973 -1.4015  1.8094
 5141SOL     OW26881   0.356   2.513   1.434 -0.1891 -0.1348  0.2456
 5141SOL    HW126882   0.336   2.421   1.419  1.3678 -0.4213 -0.0405
 5141SOL    HW226883   0.436   2.538   1.388  0.1935 -3.0915 -0.6709
 5142SOL     OW26884   0.922   3.734   1.866  0.2767  0.1364  0.4833
 5142SOL    HW126885   0.887   3.801   1.807  0.6678  0.8959  1.1264
 5142SOL    HW226886   0.983   3.775   1.927 -2.0881  1.7899  1.7481
 5143SOL     OW26887   2.031   0.248   4.608  0.0061 -0.1002 -0.0581
 5143SOL    HW126888   2.047   0.338   4.581 -2.0599  0.4197  0.4101
 5143SOL    HW226889   1.940   0.250   4.639 -0.7486 -1.8601 -2.0932
 5144SOL     OW26890   0.963   4.639   7.976 -0.0849 -0.1115  0.1966
 5144SOL    HW126891   0.883   4.690   7.991 -0.3068 -0.2992 -0.3294
 5144SOL    HW226892   0.922   4.555   7.993  0.1070  0.2190  2.3224
 5145SOL     OW26893   4.280   4.126   0.309 -0.0319  0.3742  0.0831
 5145SOL    HW126894   4.368   4.105   0.339 -0.5927  0.4182  1.7850
 5145SOL    HW226895   4.274   4.205   0.363  0.8252 -0.2048  1.0416
 5146SOL     OW26896   2.565   1.366  16.329 -0.4033 -0.1683 -0.2775
 5146SOL    HW126897   2.488   1.341  16.278 -0.8905  1.9149 -0.5464
 5146SOL    HW226898   2.538   1.442  16.380 -1.7969 -0.9619  0.1716
 5147SOL     OW26899   3.649   0.696  14.757  0.1743  0.2416 -0.1166
 5147SOL    HW126900   3.646   0.649  14.674  0.3054 -0.8291  0.4784
 5147SOL    HW226901   3.620   0.628  14.818  1.8499 -1.2482 -0.9641
 5148SOL     OW26902   1.382   4.529   9.405  0.0204 -0.4420 -0.1273
 5148SOL    HW126903   1.403   4.457   9.464  2.3348  1.2621  1.1295
 5148SOL    HW226904   1.335   4.486   9.333  0.4425  0.1665 -0.7662
 5149SOL     OW26905   0.821   2.776   9.143 -0.0196 -0.2858 -0.2452
 5149SOL    HW126906   0.765   2.758   9.068  0.0607 -1.3487 -0.0459
 5149SOL    HW226907   0.904   2.746   9.108  0.7373  0.9039  0.5039
 5150SOL     OW26908   0.253   2.300   5.507 -0.2738 -0.3168  0.2765
 5150SOL    HW126909   0.182   2.250   5.467 -1.2635  0.5566  0.9352
 5150SOL    HW226910   0.210   2.385   5.511 -0.6112 -0.5309  1.2763
 5151SOL     OW26911   1.704   4.474   6.906  0.5275  0.0649 -0.4548
 5151SOL    HW126912   1.772   4.410   6.928  2.0154  2.2151  1.2131
 5151SOL    HW226913   1.728   4.503   6.818  0.1391  0.4759 -0.4257
 5152SOL     OW26914   4.712   4.167  16.132 -0.5417  0.8048 -0.2187
 5152SOL    HW126915   0.024   4.081  16.112 -0.0603  1.0874 -0.5659
 5152SOL    HW226916   0.013   4.222  16.058  0.5862  0.1105 -0.3487
 5153SOL     OW26917   3.172   3.209   1.268 -0.2127  0.5813 -0.3569
 5153SOL    HW126918   3.105   3.225   1.334  0.4109 -0.5244  0.5371
 5153SOL    HW226919   3.252   3.224   1.319 -0.1266 -3.1024  0.6048
 5154SOL     OW26920   1.815   1.001   8.142  0.0741 -0.2439 -0.0503
 5154SOL    HW126921   1.783   0.914   8.118  2.1789 -0.2867 -2.6893
 5154SOL    HW226922   1.900   0.982   8.181  0.8738 -0.7842 -2.0601
 5155SOL     OW26923   2.203   1.173   2.349 -0.0934  0.0399 -0.5843
 5155SOL    HW126924   2.169   1.235   2.413  0.9894  0.9950 -0.9273
 5155SOL    HW226925   2.295   1.165   2.375 -0.2952  0.5832  0.2953
 5156SOL     OW26926   3.312   0.579   5.074  0.1872  0.1488  0.2925
 5156SOL    HW126927   3.332   0.567   5.167  0.1682  2.5116  0.5960
 5156SOL    HW226928   3.261   0.499   5.064  2.3666 -1.4524  1.7878
 5157SOL     OW26929   4.676   2.308   7.950 -0.1078  0.5207  0.2193
 5157SOL    HW126930   4.676   2.398   7.917  4.6127  1.1451  2.0174
 5157SOL    HW226931   4.693   2.269   7.865 -2.3190  1.4753 -0.6605
 5158SOL     OW26932   1.007   4.025  16.889  0.6379  0.4170  0.1544
 5158SOL    HW126933   1.009   4.094  16.823  1.0021 -0.6637 -0.9766
 5158SOL    HW226934   0.913   4.012  16.903  0.4349  1.2458 -0.4239
 5159SOL     OW26935   0.760   3.200  15.244 -0.0573 -0.8236  0.5424
 5159SOL    HW126936   0.717   3.230  15.324 -1.1191  0.8237 -0.6462
 5159SOL    HW226937   0.832   3.151  15.284  0.1022 -0.0006  1.2539
 5160SOL     OW26938   2.126   1.337  16.388  0.3282 -0.4761  0.3182
 5160SOL    HW126939   2.152   1.350  16.480 -3.5642  1.0226  1.2549
 5160SOL    HW226940   2.061   1.407  16.380  0.2449 -0.6261 -0.2930
 5161SOL     OW26941   4.681   4.472   5.488 -0.0883 -0.7517  0.8363
 5161SOL    HW126942   0.036   4.426   5.517  0.8791  0.5474  0.2997
 5161SOL    HW226943   4.703   4.466   5.395 -0.5834  1.5591  0.5744
 5162SOL     OW26944   0.056   2.158   0.323 -0.3281 -0.7361  0.1734
 5162SOL    HW126945   0.088   2.115   0.403  1.5742  0.4336  0.0473
 5162SOL    HW226946   4.703   2.206   0.354 -0.5086  0.0455 -1.5270
 5163SOL     OW26947   2.340   0.506   4.234  0.3223  0.0931  0.4258
 5163SOL    HW126948   2.428   0.478   4.260  0.8125  0.0741 -1.2161
 5163SOL    HW226949   2.364   0.565   4.163 -0.9007  1.1986  0.9408
 5164SOL     OW26950   0.643   1.867   5.057  0.4818 -0.0570  0.0684
 5164SOL    HW126951   0.590   1.926   5.110 -1.3744 -3.2324  1.6922
 5164SOL    HW226952   0.722   1.921   5.051 -0.1990  1.0823  1.5866
 5165SOL     OW26953   4.161   1.147   3.489  0.1499 -0.2919 -0.1727
 5165SOL    HW126954   4.155   1.217   3.424 -0.3691 -0.3790 -0.2139
 5165SOL    HW226955   4.241   1.170   3.536  1.4721 -0.2602 -2.4272
 5166SOL     OW26956   0.168   3.134   8.790 -0.2746  0.0617 -0.6162
 5166SOL    HW126957   0.183   3.212   8.737 -3.7287  3.5778  3.6278
 5166SOL    HW226958   0.143   3.067   8.726  0.3296  2.1273 -3.0133
 5167SOL     OW26959   1.139   1.057   8.377  0.2129  0.0492  0.0253
 5167SOL    HW126960   1.065   1.114   8.358  1.0057  1.3476  0.8369
 5167SOL    HW226961   1.145   1.067   8.472  0.1797 -0.2398  0.0577
 5168SOL     OW26962   3.065   2.850   9.706  0.1797  0.7042  0.2648
 5168SOL    HW126963   3.113   2.921   9.663 -1.5814  0.2686 -2.4876
 5168SOL    HW226964   3.136   2.785   9.710  0.7867  1.2595 -1.4245
 5169SOL     OW26965   1.095   4.595   8.926  0.1164 -0.3460 -0.1675
 5169SOL    HW126966   1.159   4.663   8.944  1.5789 -1.8230  0.2258
 5169SOL    HW226967   1.023   4.626   8.982  1.1197  1.3744  0.1670
 5170SOL     OW26968   3.639   4.623   3.026  0.6434  0.1355  0.1978
 5170SOL    HW126969   3.651   4.549   3.087  3.8267  0.3324 -0.2101
 5170SOL    HW226970   3.649   4.690   3.094 -0.2407  1.1487 -0.6788
 5171SOL     OW26971   0.095   0.252  13.446 -0.2285 -0.4152 -0.3405
 5171SOL    HW126972   0.148   0.321  13.486  0.3340 -0.6077 -0.7508
 5171SOL    HW226973   0.031   0.257  13.517 -0.3853 -2.1789 -0.3485
 5172SOL     OW26974   2.492   2.603  14.038 -0.3096 -0.1785 -0.1570
 5172SOL    HW126975   2.547   2.681  14.047  1.4969 -1.2801 -1.5660
 5172SOL    HW226976   2.457   2.592  14.126 -1.3748  1.2590 -0.4090
 5173SOL     OW26977   1.134   2.446   3.968 -0.1220 -0.0031  0.5139
 5173SOL    HW126978   1.049   2.447   3.925 -0.2346  2.8127  0.8387
 5173SOL    HW226979   1.204   2.423   3.906  1.9259  1.1760  2.3659
 5174SOL     OW26980   0.359   3.425   2.667 -0.1392 -0.2705 -0.1720
 5174SOL    HW126981   0.372   3.416   2.572 -0.3237 -3.6647  0.1212
 5174SOL    HW226982   0.287   3.362   2.678 -2.5534  2.6143  0.6447
 5175SOL     OW26983   2.559   1.553   6.819  0.3151  0.6311 -0.7308
 5175SOL    HW126984   2.613   1.621   6.859 -0.8049  1.2761 -0.3259
 5175SOL    HW226985   2.633   1.492   6.809 -0.0803 -0.0618  0.6236
 5176SOL     OW26986   3.684   2.044   7.376 -0.5018  0.2613  0.6928
 5176SOL    HW126987   3.770   2.056   7.417  0.5018 -0.1079 -1.3094
 5176SOL    HW226988   3.629   2.023   7.451 -1.4235 -1.3271 -0.4415
 5177SOL     OW26989   0.707   3.873   2.984  0.0025  1.2632  0.3294
 5177SOL    HW126990   0.795   3.911   2.989  0.6396 -0.4908  1.9474
 5177SOL    HW226991   0.732   3.781   2.986  1.0790  1.5544  0.5921
 5178SOL     OW26992   1.786   2.934  10.552 -0.2879 -0.0757  0.1914
 5178SOL    HW126993   1.691   2.946  10.546 -0.1862  0.8315  0.4663
 5178SOL    HW226994   1.797   2.851  10.598  0.6914 -0.1035 -0.0950
 5179SOL     OW26995   1.642   2.437   8.358  0.1265  0.4041 -0.0323
 5179SOL    HW126996   1.611   2.442   8.267 -1.1865  0.3757  0.4065
 5179SOL    HW226997   1.578   2.381   8.402  0.8933  0.2622  0.8987
 5180SOL     OW26998   2.501   2.341   3.471  0.1320 -0.0845  0.4105
 5180SOL    HW126999   2.452   2.260   3.484 -1.0400  0.3286 -1.3913
 5180SOL    HW227000   2.581   2.321   3.423  0.3090 -1.6603  1.3675
 5181SOL     OW27001   2.480   2.654   2.264  0.1703 -0.3403  0.2331
 5181SOL    HW127002   2.392   2.637   2.229 -0.4122  3.3133 -0.0822
 5181SOL    HW227003   2.507   2.566   2.290 -1.2253 -0.7332  0.3589
 5182SOL     OW27004   4.498   4.184   5.175 -0.0880  0.6701  0.9892
 5182SOL    HW127005   4.533   4.148   5.094  0.5855 -0.8367  1.9517
 5182SOL    HW227006   4.429   4.121   5.195  0.6725 -0.6478 -0.6034
 5183SOL     OW27007   2.109   2.585  13.093 -0.3732  0.1899  0.4896
 5183SOL    HW127008   2.114   2.502  13.046 -0.5780 -0.6868  2.0103
 5183SOL    HW227009   2.197   2.586  13.129 -0.4749  1.3023  0.7006
 5184SOL     OW27010   3.460   0.560   3.905 -0.6001  0.1950 -0.4680
 5184SOL    HW127011   3.554   0.557   3.885 -0.9593  0.9025 -2.2739
 5184SOL    HW227012   3.422   0.529   3.823 -0.0702 -0.8313 -0.3245
 5185SOL     OW27013   0.443   3.752  11.488 -0.5690 -0.5326  0.6617
 5185SOL    HW127014   0.435   3.670  11.440 -0.1718  0.2616 -0.7530
 5185SOL    HW227015   0.386   3.809  11.436 -0.2896 -0.9860 -0.1421
 5186SOL     OW27016   4.579   2.175   9.720 -0.0689 -0.1248  0.4320
 5186SOL    HW127017   4.657   2.230   9.731 -0.5008  0.3210  1.3497
 5186SOL    HW227018   4.525   2.232   9.666  0.2260 -0.8490 -0.6184
 5187SOL     OW27019   1.524   0.239  16.612  0.1349  0.0493  0.0204
 5187SOL    HW127020   1.587   0.216  16.544 -1.4503  1.0064 -1.7460
 5187SOL    HW227021   1.444   0.188  16.599  0.1132 -0.0092  0.3905
 5188SOL     OW27022   0.766   2.487   2.540  0.1241  0.4188 -0.4696
 5188SOL    HW127023   0.761   2.395   2.568 -1.4122  0.1601 -1.5989
 5188SOL    HW227024   0.857   2.504   2.564  0.1971 -0.4103 -0.1379
 5189SOL     OW27025   2.486   1.903   6.186 -0.4213  0.0684  0.2103
 5189SOL    HW127026   2.420   1.841   6.156  0.4991 -0.3325 -1.0143
 5189SOL    HW227027   2.433   1.965   6.235 -0.5257 -0.7728  1.1677
 5190SOL     OW27028   3.904   2.782   5.183 -0.2276  0.1916  0.4275
 5190SOL    HW127029   3.978   2.815   5.131  0.3495 -1.9681 -0.1052
 5190SOL    HW227030   3.881   2.865   5.226  0.2642  0.5199  0.0566
 5191SOL     OW27031   4.147   3.747  14.487  0.0457  0.0216 -0.6426
 5191SOL    HW127032   4.087   3.763  14.414 -1.9133 -3.8994  0.1278
 5191SOL    HW227033   4.106   3.786  14.564  1.2042  0.9074 -0.4669
 5192SOL     OW27034   2.454   0.292   2.487  0.5680  0.1909  0.2547
 5192SOL    HW127035   2.366   0.258   2.474  1.1799 -0.7010 -1.6502
 5192SOL    HW227036   2.444   0.295   2.582 -1.1404  1.4087  0.0218
 5193SOL     OW27037   3.796   2.907   5.482 -0.3764 -0.1543  0.1370
 5193SOL    HW127038   3.814   2.824   5.526  3.1076 -1.4724 -3.7169
 5193SOL    HW227039   3.884   2.945   5.476  0.3770 -1.9839 -0.4534
 5194SOL     OW27040   3.862   0.642   6.502  0.0637  0.2681  0.1127
 5194SOL    HW127041   3.789   0.619   6.561  0.3057  2.3869  1.2246
 5194SOL    HW227042   3.940   0.623   6.555  0.5128  1.6781 -0.0561
 5195SOL     OW27043   1.931   4.124   1.872 -0.1584  0.4372 -0.0912
 5195SOL    HW127044   1.845   4.110   1.913 -1.0027  3.4973 -0.8218
 5195SOL    HW227045   1.962   4.203   1.917  1.0485 -0.7820  1.2077
 5196SOL     OW27046   0.449   3.734   4.334 -0.7592 -0.0831 -0.5291
 5196SOL    HW127047   0.370   3.723   4.387  1.3553 -2.4498  2.1794
 5196SOL    HW227048   0.436   3.822   4.298  1.2469 -0.2393 -1.6272
 5197SOL     OW27049   3.962   0.096  14.198  0.6145 -0.8613  0.5584
 5197SOL    HW127050   3.906   0.157  14.244 -2.0472 -1.5083 -1.8204
 5197SOL    HW227051   3.950   0.010  14.237 -0.5394 -0.9508  0.0042
 5198SOL     OW27052   2.380   3.527   7.632  0.3970 -0.3052  0.6075
 5198SOL    HW127053   2.362   3.500   7.721  1.0929  2.6500  1.6528
 5198SOL    HW227054   2.381   3.623   7.633  0.5449 -0.2823 -1.7095
 5199SOL     OW27055   1.640   0.258   9.975 -0.8493  0.6517  0.0949
 5199SOL    HW127056   1.574   0.256   9.906  0.2557  1.9504 -0.9842
 5199SOL    HW227057   1.714   0.211   9.938 -0.3121  2.1237 -0.6801
 5200SOL     OW27058   4.041   2.593   8.459 -0.3915  0.0514  0.6715
 5200SOL    HW127059   4.035   2.558   8.548  0.6297 -0.9874  0.3322
 5200SOL    HW227060   4.063   2.514   8.409  1.7034  1.0182  0.0310
 5201SOL     OW27061   3.075   4.661  16.747  0.0775  0.0713 -0.4109
 5201SOL    HW127062   3.003   4.709  16.788  0.2337 -0.2309  0.2145
 5201SOL    HW227063   3.149   4.686  16.803  1.3539 -1.3624 -1.4474
 5202SOL     OW27064   2.019   4.522   3.064  0.2110 -1.3138  0.0286
 5202SOL    HW127065   1.984   4.527   3.153  1.0713 -0.8169  0.3443
 5202SOL    HW227066   1.960   4.456   3.027  0.5362 -1.2897 -0.5284
 5203SOL     OW27067   4.517   1.498  12.571  0.0467  0.3516  0.2077
 5203SOL    HW127068   4.525   1.416  12.523  0.0403  1.1176 -1.0939
 5203SOL    HW227069   4.582   1.554  12.529 -1.5293  1.6440 -0.5346
 5204SOL     OW27070   2.250   1.305   1.845  0.1021 -0.1887  0.4080
 5204SOL    HW127071   2.337   1.343   1.840  0.2923 -0.5953  0.6391
 5204SOL    HW227072   2.238   1.273   1.934  0.0770  2.3456  1.3049
 5205SOL     OW27073   0.995   4.567   4.445 -0.4439  0.5638  0.5264
 5205SOL    HW127074   1.009   4.473   4.458 -1.6252  0.6280  2.4100
 5205SOL    HW227075   0.903   4.584   4.465 -0.1767  1.0511  1.3710
 5206SOL     OW27076   4.377   2.253   4.595  0.5788  0.0157 -0.0813
 5206SOL    HW127077   4.348   2.299   4.674  1.8409 -0.8938  0.9173
 5206SOL    HW227078   4.300   2.271   4.541 -0.4933 -1.3944  0.9464
 5207SOL     OW27079   3.054   0.036   6.315  0.4560  0.2509  0.2874
 5207SOL    HW127080   3.088   0.125   6.305 -0.1756  0.4964  0.3180
 5207SOL    HW227081   3.130   4.723   6.359 -0.3113 -0.2438  1.1904
 5208SOL     OW27082   0.682   2.345   7.213  0.2748 -0.4315 -0.4955
 5208SOL    HW127083   0.660   2.430   7.173  0.0882 -0.0791  0.3608
 5208SOL    HW227084   0.767   2.325   7.174  0.7323 -1.1768  0.9187
 5209SOL     OW27085   1.195   1.577  15.941 -0.1258 -0.5897  0.1187
 5209SOL    HW127086   1.211   1.508  16.005 -1.1848 -1.1308 -0.2069
 5209SOL    HW227087   1.287   1.601  15.930 -0.0407 -1.1013 -0.2321
 5210SOL     OW27088   0.119   0.885   3.022 -0.2414  0.3054  0.7879
 5210SOL    HW127089   0.165   0.829   2.960  0.9557  1.3079  0.7646
 5210SOL    HW227090   0.035   0.839   3.022 -0.5111  0.7954  1.6233
 5211SOL     OW27091   1.904   0.543   8.285  0.1698 -0.3066 -0.1107
 5211SOL    HW127092   1.927   0.588   8.204 -0.4066 -0.2568 -0.2506
 5211SOL    HW227093   1.809   0.553   8.278  0.2476  0.2258 -0.3667
 5212SOL     OW27094   0.704   4.114   7.851 -0.0965  0.1721 -0.7573
 5212SOL    HW127095   0.754   4.059   7.791  0.6401  0.6638 -0.5993
 5212SOL    HW227096   0.627   4.123   7.796 -1.4566 -1.9142  0.8178
 5213SOL     OW27097   3.874   0.554   4.544 -0.1329  0.0538  0.2963
 5213SOL    HW127098   3.855   0.531   4.453  1.1183 -1.5855  0.4451
 5213SOL    HW227099   3.863   0.649   4.539  0.6433  0.0332 -1.8750
 5214SOL     OW27100   4.539   0.772  16.875 -0.4889  0.8163 -0.1172
 5214SOL    HW127101   4.630   0.742  16.871 -0.2550  2.0365 -3.5552
 5214SOL    HW227102   4.496   0.691  16.847 -0.7845  1.8651 -2.7276
 5215SOL     OW27103   1.107   0.809   7.195 -0.4531 -0.1391  0.8121
 5215SOL    HW127104   1.104   0.842   7.285 -0.8462  2.7527 -0.2654
 5215SOL    HW227105   1.018   0.773   7.193 -0.4130 -0.1311 -0.6345
 5216SOL     OW27106   0.366   1.774   7.806 -0.4733  0.0824  0.6016
 5216SOL    HW127107   0.405   1.720   7.875 -0.8702 -0.7792  0.1469
 5216SOL    HW227108   0.333   1.844   7.863  0.8238  3.4429 -2.7866
 5217SOL     OW27109   4.086   1.420   7.449  0.0669  0.6521  0.2042
 5217SOL    HW127110   4.130   1.444   7.367 -1.1001 -1.0818 -0.9277
 5217SOL    HW227111   4.155   1.356   7.467 -0.4207  0.6970  2.1974
 5218SOL     OW27112   0.775   2.164   8.239 -0.0550  0.2925  0.1314
 5218SOL    HW127113   0.831   2.088   8.253 -1.6901 -0.5902  1.8540
 5218SOL    HW227114   0.820   2.205   8.165  0.8824 -1.1398 -0.0964
 5219SOL     OW27115   4.629   1.608  15.868 -0.0609 -0.3204 -0.5753
 5219SOL    HW127116   4.622   1.681  15.929 -2.6044 -0.6229 -0.5071
 5219SOL    HW227117   4.630   1.646  15.780 -2.7322  1.8176  0.3441
 5220SOL     OW27118   0.583   3.580   9.327  0.4321 -0.0006  0.6862
 5220SOL    HW127119   0.571   3.588   9.232  1.2445 -0.0838  0.5815
 5220SOL    HW227120   0.490   3.583   9.352  0.0343  0.7141 -0.8439
 5221SOL     OW27121   0.535   2.624   5.482  0.0886  0.0557 -0.6438
 5221SOL    HW127122   0.543   2.529   5.491 -0.1662  0.1974  0.9981
 5221SOL    HW227123   0.456   2.634   5.429 -1.2410 -3.8862  0.6185
 5222SOL     OW27124   4.641   3.335   3.478  0.6762 -0.3485 -0.3486
 5222SOL    HW127125   4.656   3.262   3.538  0.0031  0.9377  1.3988
 5222SOL    HW227126   4.599   3.294   3.403  1.2278  0.7776 -1.2608
 5223SOL     OW27127   4.082   2.122   1.944 -0.2971  0.2831  0.4130
 5223SOL    HW127128   4.131   2.041   1.953  1.1831  0.8078 -2.7451
 5223SOL    HW227129   3.992   2.093   1.959 -0.2377 -1.1890 -2.0040
 5224SOL     OW27130   4.105   0.225   8.059 -0.0556 -0.1599  0.1959
 5224SOL    HW127131   4.103   0.145   8.111  1.1006  0.8623  1.7976
 5224SOL    HW227132   4.013   0.249   8.069 -0.1784 -1.2258  1.7327
 5225SOL     OW27133   1.969   0.312  14.470  0.3472  0.4733 -0.4002
 5225SOL    HW127134   2.048   0.333  14.521  0.2213 -0.2963  0.1159
 5225SOL    HW227135   1.994   0.221  14.453  0.1818  0.2284  0.6435
 5226SOL     OW27136   2.753   3.173   6.183  0.0255  0.4291 -1.1008
 5226SOL    HW127137   2.842   3.197   6.209 -0.8296  1.2713  1.0999
 5226SOL    HW227138   2.759   3.159   6.089  0.6038 -4.6813 -0.3371
 5227SOL     OW27139   1.148   4.441  13.450  0.0692 -0.4531  0.3031
 5227SOL    HW127140   1.179   4.530  13.469 -1.1001 -0.1446  0.7620
 5227SOL    HW227141   1.130   4.453  13.356  0.0098  1.1676  0.5161
 5228SOL     OW27142   0.364   2.507  15.710 -0.5945 -0.3542  0.3230
 5228SOL    HW127143   0.376   2.548  15.796  0.6514  0.9667 -0.4692
 5228SOL    HW227144   0.405   2.576  15.657  1.0056 -2.1518 -0.7868
 5229SOL     OW27145   3.482   0.393   8.567 -0.2228  0.1460 -0.4428
 5229SOL    HW127146   3.537   0.315   8.564 -0.9269 -0.4101  1.2303
 5229SOL    HW227147   3.530   0.455   8.621 -2.6367  1.4687  0.1761
 5230SOL     OW27148   4.371   1.065   4.321 -0.2044  0.1834  0.0255
 5230SOL    HW127149   4.419   1.035   4.398 -0.9926  0.7608  0.7452
 5230SOL    HW227150   4.299   1.107   4.368  0.6131 -0.1780  1.6001
 5231SOL     OW27151   0.416   0.095  15.418 -0.1353  0.4233  0.3747
 5231SOL    HW127152   0.431   0.161  15.485  1.9015  0.1891  0.1465
 5231SOL    HW227153   0.425   0.012  15.465 -1.0322 -0.3653 -0.8321
 5232SOL     OW27154   4.474   3.510   4.992  0.0860  0.0143  0.0584
 5232SOL    HW127155   4.395   3.475   5.033 -0.1569 -0.1431 -0.5467
 5232SOL    HW227156   4.537   3.509   5.063  0.4415 -0.4296 -0.2654
 5233SOL     OW27157   0.622   4.543  14.085  0.4214  0.4880  0.8251
 5233SOL    HW127158   0.659   4.462  14.048 -1.0368  0.2583 -0.1408
 5233SOL    HW227159   0.532   4.545  14.053  0.1376  3.7590  1.9053
 5234SOL     OW27160   0.247   1.297   7.125 -0.0557  0.1830 -0.1840
 5234SOL    HW127161   0.185   1.369   7.114 -1.5610 -0.7793  2.0341
 5234SOL    HW227162   0.315   1.329   7.066  0.0951  0.7686  0.3110
 5235SOL     OW27163   4.712   1.211   6.883 -0.2217  0.9079  0.0464
 5235SOL    HW127164   4.654   1.166   6.821 -0.5810  1.4398 -0.0055
 5235SOL    HW227165   0.030   1.273   6.824  2.2004  1.6958  2.6275
 5236SOL     OW27166   2.880   2.809  10.087 -0.0084 -0.4804  0.0558
 5236SOL    HW127167   2.864   2.744  10.019 -2.3192  3.6529 -3.3469
 5236SOL    HW227168   2.846   2.768  10.166 -1.4874 -0.0570 -0.3611
 5237SOL     OW27169   0.796   1.576  16.352 -0.2278  0.3856 -0.3211
 5237SOL    HW127170   0.740   1.653  16.357 -0.0468  0.3211  2.6749
 5237SOL    HW227171   0.852   1.593  16.276 -0.1473  1.4027 -0.0335
 5238SOL     OW27172   3.870   1.334   5.772  0.3465 -0.2522  0.4191
 5238SOL    HW127173   3.779   1.350   5.798 -0.3251 -0.2965 -1.9255
 5238SOL    HW227174   3.882   1.411   5.717 -1.1721  0.5061  1.1436
 5239SOL     OW27175   4.410   3.791   9.362  0.1487 -0.0828 -0.0174
 5239SOL    HW127176   4.356   3.804   9.441  0.8158  0.8273  0.2909
 5239SOL    HW227177   4.363   3.746   9.292  0.4217  1.7183 -1.3582
 5240SOL     OW27178   0.351   1.483  16.940 -0.3469  0.1203 -0.0251
 5240SOL    HW127179   0.369   1.486  16.846  1.0700 -1.6624  0.2027
 5240SOL    HW227180   0.379   1.397  16.971  0.9585  0.7659  0.5777
 5241SOL     OW27181   3.312   2.351   8.858 -0.4920  0.2630  0.1022
 5241SOL    HW127182   3.385   2.313   8.809 -2.1636 -0.6100 -1.7187
 5241SOL    HW227183   3.349   2.369   8.944 -0.5410  2.0868 -0.2448
 5242SOL     OW27184   3.142   4.652   2.154  0.0631  0.0575 -0.2112
 5242SOL    HW127185   3.064   4.696   2.187 -0.0746 -1.1828  1.0947
 5242SOL    HW227186   3.130   4.563   2.187 -2.8991 -0.3940 -2.4325
 5243SOL     OW27187   4.473   4.449   3.548  0.3135 -0.3354  0.9791
 5243SOL    HW127188   4.554   4.464   3.596  0.2089  1.9449  0.4391
 5243SOL    HW227189   4.425   4.521   3.589  2.0145  2.1167 -1.3387
 5244SOL     OW27190   4.720   4.499  10.886 -0.0344  0.5019 -0.3499
 5244SOL    HW127191   4.698   4.511  10.978  0.7632  1.2785 -0.2659
 5244SOL    HW227192   0.072   4.443  10.900 -0.3066  0.1051 -0.4270
 5245SOL     OW27193   2.696   3.382   5.925  0.6943 -0.0454  0.4536
 5245SOL    HW127194   2.702   3.359   5.832 -1.9101  1.2869 -0.0312
 5245SOL    HW227195   2.753   3.458   5.929  1.6931 -0.7262 -0.7459
 5246SOL     OW27196   4.055   1.842   3.502 -0.2970 -0.3851  0.5874
 5246SOL    HW127197   3.963   1.856   3.524 -0.3131 -0.4365  0.5538
 5246SOL    HW227198   4.060   1.926   3.454  0.2903 -0.2455  0.8897
 5247SOL     OW27199   1.051   3.871   3.176  0.3251 -0.3166  0.3687
 5247SOL    HW127200   1.086   3.802   3.119  0.8716  0.2806 -0.0261
 5247SOL    HW227201   1.003   3.933   3.121  0.8293  0.3807  0.6985
 5248SOL     OW27202   4.471   4.561   0.225  0.2720  0.0970 -0.1908
 5248SOL    HW127203   4.503   4.614   0.298  0.1950 -1.1178  0.7109
 5248SOL    HW227204   4.548   4.568   0.167 -0.3110 -1.7134 -1.1814
 5249SOL     OW27205   3.836   1.405  12.081 -0.2766  0.5697 -0.3796
 5249SOL    HW127206   3.836   1.309  12.081 -0.0386  0.5670 -0.2020
 5249SOL    HW227207   3.835   1.416  12.176  0.3660  1.2159 -0.4441
 5250SOL     OW27208   0.150   3.127   4.645 -0.3773 -0.8057  0.3530
 5250SOL    HW127209   0.155   3.034   4.625 -1.0137 -0.5106 -1.2328
 5250SOL    HW227210   0.066   3.161   4.614 -0.2109  0.1413  0.9415
 5251SOL     OW27211   1.587   1.304   3.577 -0.5483  0.0862  0.2300
 5251SOL    HW127212   1.666   1.316   3.524 -0.1067  0.4462  0.9707
 5251SOL    HW227213   1.523   1.284   3.508 -0.8156 -0.2938  0.5924
 5252SOL     OW27214   0.725   4.028   5.110  0.0863 -0.0787 -0.1390
 5252SOL    HW127215   0.813   4.043   5.144 -0.0796  0.9652 -0.1545
 5252SOL    HW227216   0.723   3.948   5.059 -1.9048  0.1692 -0.4831
 5253SOL     OW27217   4.705   4.604   8.838 -0.0993  0.2976  0.0016
 5253SOL    HW127218   4.677   4.573   8.752 -0.5409  0.7607 -0.0249
 5253SOL    HW227219   0.026   4.525   8.865 -0.7730  1.0421  3.2528
 5254SOL     OW27220   1.318   1.573  12.125  0.3557 -0.4438 -0.2278
 5254SOL    HW127221   1.272   1.495  12.093 -0.1282 -0.3996  0.3723
 5254SOL    HW227222   1.257   1.596  12.195  0.6338  1.1244 -0.4880
 5255SOL     OW27223   1.958   2.807   6.917  0.1605  0.3755 -0.3328
 5255SOL    HW127224   1.917   2.868   6.978  2.7549 -0.6509  2.3969
 5255SOL    HW227225   1.959   2.864   6.840  0.2329  0.5116 -0.2297
 5256SOL     OW27226   3.759   2.914   8.367  0.2931  0.5111 -0.0021
 5256SOL    HW127227   3.667   2.899   8.342  0.2442  1.5606 -0.4425
 5256SOL    HW227228   3.762   2.872   8.453  1.8970 -2.5977 -1.5653
 5257SOL     OW27229   0.833   3.378   3.980 -0.1276  0.1505 -0.2115
 5257SOL    HW127230   0.922   3.356   4.007  0.1432  0.6598 -0.6871
 5257SOL    HW227231   0.838   3.473   3.987  2.7226 -0.0045 -0.2869
 5258SOL     OW27232   0.485   0.458   6.996 -0.3037 -0.1022  0.3368
 5258SOL    HW127233   0.468   0.521   6.926 -2.8802  0.8040  1.8028
 5258SOL    HW227234   0.519   0.384   6.945  1.8189  0.2595  1.2188
 5259SOL     OW27235   0.335   4.047  13.054 -0.1817  0.1252 -0.2668
 5259SOL    HW127236   0.287   3.969  13.026 -0.8920  0.9153 -1.2696
 5259SOL    HW227237   0.401   4.008  13.112  1.7988  2.3588 -1.0107
 5260SOL     OW27238   2.347   0.791   8.781 -0.1836 -0.7421  0.1041
 5260SOL    HW127239   2.374   0.745   8.701 -1.9230 -1.0197 -0.3313
 5260SOL    HW227240   2.259   0.752   8.790 -0.9780  1.4490  1.5907
 5261SOL     OW27241   2.662   3.347   2.169  0.2980 -0.4972 -0.3066
 5261SOL    HW127242   2.747   3.333   2.129  1.5062  0.7443  1.8052
 5261SOL    HW227243   2.645   3.255   2.189 -0.8033 -0.3319 -0.4722
 5262SOL     OW27244   0.991   2.840  10.090 -0.2564 -0.4630 -0.7128
 5262SOL    HW127245   0.966   2.866  10.001  1.6493 -2.8842 -1.9709
 5262SOL    HW227246   1.058   2.776  10.065  0.3802  0.1779 -0.6431
 5263SOL     OW27247   0.336   4.378   7.516  0.1137 -0.1338  0.0378
 5263SOL    HW127248   0.313   4.397   7.606 -0.7434 -0.3067 -0.1454
 5263SOL    HW227249   0.354   4.284   7.522 -0.9295 -0.2808  0.6843
 5264SOL     OW27250   2.003   1.106   2.557 -0.6318 -0.0211  0.3314
 5264SOL    HW127251   2.033   1.196   2.542  0.1643  0.1327  2.8082
 5264SOL    HW227252   2.043   1.062   2.483 -3.0185  0.6526 -1.3548
 5265SOL     OW27253   0.548   1.454   1.155  0.3068  0.1717  0.2875
 5265SOL    HW127254   0.616   1.387   1.158  1.2377  1.1112 -0.1497
 5265SOL    HW227255   0.555   1.486   1.245 -0.7577  2.4090 -0.4119
 5266SOL     OW27256   0.211   3.487   9.380  0.1541  0.3148 -0.1232
 5266SOL    HW127257   0.160   3.410   9.407  0.2688  1.1000  2.2488
 5266SOL    HW227258   0.191   3.556   9.443 -1.7779 -0.6332  0.3140
 5267SOL     OW27259   3.936   1.354   2.536 -0.2100  0.0100  0.8973
 5267SOL    HW127260   4.014   1.370   2.482 -1.6002 -1.0455 -1.4571
 5267SOL    HW227261   3.904   1.443   2.518 -0.7915 -0.4183 -0.2030
 5268SOL     OW27262   0.955   4.654   1.646  0.4904 -0.2643 -0.2400
 5268SOL    HW127263   0.972   4.663   1.740 -2.2686  1.8857  0.0243
 5268SOL    HW227264   1.017   4.719   1.612 -1.6388  1.2703 -1.1432
 5269SOL     OW27265   1.177   0.836  13.547 -0.1421 -0.1440  0.0884
 5269SOL    HW127266   1.099   0.836  13.492  0.2259  2.3888 -0.4772
 5269SOL    HW227267   1.166   0.748  13.583 -2.5559 -0.0904 -0.4904
 5270SOL     OW27268   0.484   4.673   9.813 -0.0078  0.2799 -0.6729
 5270SOL    HW127269   0.509   4.688   9.904  3.3575 -1.0756 -1.3801
 5270SOL    HW227270   0.425   4.598   9.816 -1.2974  1.3375  0.3938
 5271SOL     OW27271   1.226   1.130   2.648 -0.0626 -0.1696  0.4863
 5271SOL    HW127272   1.290   1.124   2.719  0.1363  1.7253  0.4622
 5271SOL    HW227273   1.231   1.224   2.629 -0.4886  0.0234  1.3477
 5272SOL     OW27274   3.951   1.775   6.116 -0.4505  0.6207 -0.1045
 5272SOL    HW127275   4.030   1.743   6.072 -0.6411  0.0686 -0.0457
 5272SOL    HW227276   3.917   1.697   6.159 -0.6477  0.7767  0.0232
 5273SOL     OW27277   1.313   3.106  10.519  0.4375 -0.1256  0.0357
 5273SOL    HW127278   1.253   3.078  10.449  3.1840 -0.2534 -2.2653
 5273SOL    HW227279   1.252   3.087  10.590  1.7975 -0.1760  1.1862
 5274SOL     OW27280   3.266   3.005   9.534 -0.3428  0.5353  0.1448
 5274SOL    HW127281   3.330   2.936   9.550  1.4964  1.7023 -2.0605
 5274SOL    HW227282   3.272   3.000   9.438 -0.3494 -0.2943  0.1914
 5275SOL     OW27283   3.908   1.950  16.847  0.6233 -0.2003 -0.5890
 5275SOL    HW127284   3.934   1.873  16.797 -0.7290  0.0914 -1.7380
 5275SOL    HW227285   3.902   2.009  16.772 -0.6748  0.7928  0.2861
 5276SOL     OW27286   3.689   4.708  16.094  0.3475 -0.3118 -0.0179
 5276SOL    HW127287   3.701   0.028  16.179 -0.2987  2.0551 -1.1485
 5276SOL    HW227288   3.778   4.685  16.066  0.4810  1.1103 -0.7761
 5277SOL     OW27289   4.399   4.331   4.016  0.1387  0.1399 -0.0524
 5277SOL    HW127290   4.330   4.308   4.078  1.0104  1.7227  1.4990
 5277SOL    HW227291   4.348   4.377   3.949  0.5264 -1.0838 -1.1961
 5278SOL     OW27292   1.912   3.866  14.518 -0.1883  0.2552  0.0615
 5278SOL    HW127293   1.851   3.843  14.587  0.0618 -0.5254  0.0146
 5278SOL    HW227294   1.954   3.788  14.483 -0.8388  0.3673 -0.9762
 5279SOL     OW27295   2.195   3.921   1.441 -0.2728 -0.1342  0.3343
 5279SOL    HW127296   2.132   3.939   1.371  1.6383  1.8584 -0.8643
 5279SOL    HW227297   2.195   3.825   1.445  0.6181 -0.1155  0.9025
 5280SOL     OW27298   0.245   2.545   3.660  0.1164 -0.6531 -0.1359
 5280SOL    HW127299   0.187   2.477   3.627 -1.7487  0.1436  1.4836
 5280SOL    HW227300   0.323   2.548   3.605  1.4880 -0.7731  1.7615
 5281SOL     OW27301   1.371   4.206  13.258  0.3639  0.3274 -0.0568
 5281SOL    HW127302   1.329   4.137  13.206  3.3297 -1.8975  0.5138
 5281SOL    HW227303   1.430   4.149  13.307  1.3294 -1.2916 -3.0719
 5282SOL     OW27304   3.168   3.145  11.395 -0.4305 -0.4451 -0.3426
 5282SOL    HW127305   3.245   3.125  11.342 -0.8089  1.9540 -1.7788
 5282SOL    HW227306   3.173   3.240  11.387  1.1683 -0.3176  2.2408
 5283SOL     OW27307   1.392   2.655   3.870 -0.5437  0.0321 -0.0338
 5283SOL    HW127308   1.312   2.701   3.845  0.7260  2.0017 -0.4441
 5283SOL    HW227309   1.457   2.723   3.889  0.0730  0.0581 -2.3694
 5284SOL     OW27310   4.504   0.998   2.467 -0.2127 -0.8965  0.0940
 5284SOL    HW127311   4.419   1.027   2.433  0.0931  1.0804  1.0482
 5284SOL    HW227312   4.544   0.987   2.381 -0.2636  1.1714 -0.1826
 5285SOL     OW27313   0.009   2.776   4.490  0.3749 -0.2731 -0.1566
 5285SOL    HW127314   0.064   2.725   4.549  1.0616 -0.3731 -0.8828
 5285SOL    HW227315   4.697   2.709   4.432 -3.0466 -0.2077  1.9669
 5286SOL     OW27316   1.275   3.729   8.688 -0.2572  0.4689 -0.5260
 5286SOL    HW127317   1.272   3.773   8.773 -0.3951 -0.6289  0.0410
 5286SOL    HW227318   1.363   3.693   8.692 -0.3507  0.2282 -0.6634
 5287SOL     OW27319   2.913   3.664  13.839 -0.1037 -0.0333  0.1690
 5287SOL    HW127320   2.840   3.722  13.817 -1.3755 -1.1826  1.4357
 5287SOL    HW227321   2.946   3.719  13.910  1.0686  0.1126 -0.4878
 5288SOL     OW27322   4.068   4.197   5.781 -0.1572  0.0952  0.0980
 5288SOL    HW127323   3.994   4.191   5.720  0.3414 -0.4939 -0.4533
 5288SOL    HW227324   4.105   4.109   5.778  0.3053  0.3245 -1.0267
 5289SOL     OW27325   4.383   0.409   8.140  0.5187  0.0040  0.3706
 5289SOL    HW127326   4.431   0.464   8.202 -1.5660  0.5687  1.4675
 5289SOL    HW227327   4.293   0.441   8.146  0.7000  0.5795  0.0152
 5290SOL     OW27328   1.371   3.938  17.143 -0.3396  0.2014  0.4758
 5290SOL    HW127329   1.333   4.025  17.141 -1.7537 -0.4415 -0.5433
 5290SOL    HW227330   1.302   3.899  17.089  1.2647 -1.5242 -0.3666
 5291SOL     OW27331   0.677   4.134  14.662 -0.8334  0.6435  0.3595
 5291SOL    HW127332   0.653   4.212  14.712  0.6791  0.7794  0.8937
 5291SOL    HW227333   0.643   4.064  14.718 -0.4123  0.0020 -0.1910
 5292SOL     OW27334   3.868   2.782   1.311  0.4886 -0.2187  0.0521
 5292SOL    HW127335   3.937   2.848   1.315  2.0897 -1.7715 -1.5460
 5292SOL    HW227336   3.789   2.823   1.276  1.2468  1.7097  0.6132
 5293SOL     OW27337   4.282   4.013   3.395  0.3731 -0.5191  0.6901
 5293SOL    HW127338   4.204   4.045   3.441  0.4785  0.7449 -0.0132
 5293SOL    HW227339   4.247   3.975   3.315 -0.3677  0.2349  0.6589
 5294SOL     OW27340   1.909   4.271  15.052 -0.8721  0.4033 -0.2072
 5294SOL    HW127341   1.825   4.275  15.005 -1.9133 -0.1378  1.6050
 5294SOL    HW227342   1.977   4.273  14.984  1.1073 -1.8639  1.7191
 5295SOL     OW27343   3.235   3.876   4.972  0.1932 -0.8934 -0.0937
 5295SOL    HW127344   3.255   3.957   5.019  0.4702 -1.0428  0.0414
 5295SOL    HW227345   3.140   3.885   4.972  0.3600  0.9994 -0.3546
 5296SOL     OW27346   0.383   3.154   1.516  0.1778  0.2923  0.2937
 5296SOL    HW127347   0.439   3.138   1.592 -0.6363 -1.2676  0.5684
 5296SOL    HW227348   0.300   3.141   1.563  0.8014 -0.4772  1.1831
 5297SOL     OW27349   1.803   1.692  11.875  0.2384 -0.3108  0.2031
 5297SOL    HW127350   1.789   1.747  11.952 -0.8419 -0.5510  0.1844
 5297SOL    HW227351   1.711   1.677  11.851  0.4596 -0.9258 -0.2494
 5298SOL     OW27352   3.322   3.225   6.579 -0.0920  0.4554 -0.0902
 5298SOL    HW127353   3.289   3.220   6.490  1.7729  1.2830 -0.8384
 5298SOL    HW227354   3.274   3.155   6.623  0.2921  0.5498  0.4834
 5299SOL     OW27355   1.919   4.003   3.405 -0.4090  0.2561 -0.3063
 5299SOL    HW127356   1.974   4.041   3.337  2.4413 -1.1606  1.1941
 5299SOL    HW227357   1.939   4.056   3.482  0.1204 -0.4945  0.0764
 5300SOL     OW27358   4.029   4.296  17.449  0.5193 -0.8917  0.7023
 5300SOL    HW127359   3.995   4.220  17.496  1.0108 -0.5403  1.6462
 5300SOL    HW227360   4.104   4.314  17.507  0.2257 -0.6401  1.0039
 5301SOL     OW27361   1.057   0.933   2.889 -0.0764  0.6082  0.1042
 5301SOL    HW127362   1.104   0.909   2.969 -0.8007  0.1225  0.3894
 5301SOL    HW227363   1.129   0.971   2.838  0.5584  1.0632  1.3303
 5302SOL     OW27364   1.431   3.695   9.053  0.5118  0.5994 -0.7747
 5302SOL    HW127365   1.396   3.775   9.015  0.9919  0.3288 -1.7845
 5302SOL    HW227366   1.427   3.717   9.146  0.9176 -0.1201 -0.5849
 5303SOL     OW27367   2.025   2.591   6.021 -0.1746 -0.1520 -0.5492
 5303SOL    HW127368   1.935   2.623   6.007 -0.2762  0.3452  1.2604
 5303SOL    HW227369   2.008   2.497   6.012 -2.8496  0.2114  0.6676
 5304SOL     OW27370   4.303   1.014   8.325 -0.6092 -0.0481  0.0369
 5304SOL    HW127371   4.371   1.056   8.273 -0.6321 -0.5145 -0.3703
 5304SOL    HW227372   4.355   0.972   8.394 -2.6659 -1.8550  0.5245
 5305SOL     OW27373   4.357   1.470   2.996 -0.0894  0.0270 -0.3205
 5305SOL    HW127374   4.319   1.545   3.044 -2.2782 -0.9310 -0.5298
 5305SOL    HW227375   4.450   1.480   3.016  0.3647 -2.6042 -1.1878
 5306SOL     OW27376   3.373   4.137   0.643  0.0566  0.1998  0.6611
 5306SOL    HW127377   3.402   4.161   0.731  1.2710 -0.2493  0.3743
 5306SOL    HW227378   3.333   4.053   0.665 -0.5954  0.1182 -0.8139
 5307SOL     OW27379   4.635   2.835   3.731  0.6334  0.1408  0.5804
 5307SOL    HW127380   4.609   2.808   3.819  1.0489 -1.0385  0.3367
 5307SOL    HW227381   4.719   2.877   3.750  0.5363 -0.6311  2.7055
 5308SOL     OW27382   1.006   2.826   4.100 -0.3542 -0.4332 -0.3800
 5308SOL    HW127383   1.038   2.745   4.140 -0.7788 -1.1183 -1.4408
 5308SOL    HW227384   1.067   2.881   4.151 -0.5982 -0.0131 -0.5411
 5309SOL     OW27385   2.030   2.622  10.831 -0.4509 -0.0731 -0.1603
 5309SOL    HW127386   2.055   2.621  10.923  3.9120  0.9579 -1.3313
 5309SOL    HW227387   1.940   2.656  10.824 -1.1771 -1.5722  2.1989
 5310SOL     OW27388   2.868   3.590   5.898 -0.2321  0.3172 -0.0430
 5310SOL    HW127389   2.850   3.609   5.806 -0.1261 -2.4886 -0.6614
 5310SOL    HW227390   2.954   3.630   5.909  1.2163 -2.3184 -1.7319
 5311SOL     OW27391   2.441   2.801   6.779  0.3165  0.1845 -0.4010
 5311SOL    HW127392   2.390   2.728   6.745  1.3746 -0.8443  0.2387
 5311SOL    HW227393   2.370   2.846   6.825 -0.3416 -0.3187 -0.9074
 5312SOL     OW27394   0.889   4.273   3.703 -0.0764 -0.3085  0.1234
 5312SOL    HW127395   0.851   4.186   3.693 -1.8008  0.3621  0.9163
 5312SOL    HW227396   0.820   4.326   3.742  0.8459  0.2555  1.0091
 5313SOL     OW27397   0.483   0.304   3.519 -0.1248  0.7936 -0.2906
 5313SOL    HW127398   0.553   0.361   3.487 -0.7954  0.7803 -1.7850
 5313SOL    HW227399   0.410   0.365   3.529 -1.2665 -0.6680  0.3292
 5314SOL     OW27400   1.434   0.660   5.800  0.1188 -0.2886  0.2097
 5314SOL    HW127401   1.411   0.695   5.713 -0.4178 -0.4230  0.3006
 5314SOL    HW227402   1.386   0.716   5.861  2.7956  1.6259  0.5575
 5315SOL     OW27403   3.621   0.550   7.117 -0.2579  0.0447  0.3326
 5315SOL    HW127404   3.655   0.567   7.204 -1.2571  1.3134  0.4796
 5315SOL    HW227405   3.693   0.506   7.072 -1.9503 -2.0476 -0.3575
 5316SOL     OW27406   2.760   4.146   7.804 -0.3072 -0.5832 -0.6545
 5316SOL    HW127407   2.789   4.122   7.892 -1.1416  0.9320  0.0332
 5316SOL    HW227408   2.842   4.147   7.755  0.5557 -0.6465  0.8057
 5317SOL     OW27409   2.333   0.585  16.358  0.1040 -0.1107 -0.7162
 5317SOL    HW127410   2.240   0.584  16.379  0.0898 -2.4267 -0.8932
 5317SOL    HW227411   2.374   0.568  16.443  1.3503 -0.2385 -1.3313
 5318SOL     OW27412   2.224   0.584   6.763 -0.4484  0.0147  0.5466
 5318SOL    HW127413   2.208   0.531   6.841 -1.0808 -1.1982 -0.3990
 5318SOL    HW227414   2.177   0.529   6.701 -4.5065  1.8109  2.0771
 5319SOL     OW27415   4.661   0.150  11.902  0.2580  0.8382 -0.5846
 5319SOL    HW127416   0.010   0.102  11.940 -1.8771  0.0658  2.5819
 5319SOL    HW227417   4.593   0.082  11.900 -0.5296  1.5493  1.1830
 5320SOL     OW27418   2.864   0.168  17.469 -0.1952 -0.1826 -0.3473
 5320SOL    HW127419   2.807   0.237  17.435  1.5271  0.1049 -2.6955
 5320SOL    HW227420   2.804   0.102  17.501 -2.3399  1.5607 -0.8007
 5321SOL     OW27421   0.479   3.597   7.988  0.6408 -0.0728  0.3952
 5321SOL    HW127422   0.464   3.614   8.081  1.8680  0.9310  0.3978
 5321SOL    HW227423   0.528   3.515   7.992  0.0729 -0.4965 -1.3658
 5322SOL     OW27424   0.761   4.207   5.654  0.0786 -0.0046 -0.0155
 5322SOL    HW127425   0.843   4.244   5.687  1.0374 -0.9858 -1.3310
 5322SOL    HW227426   0.770   4.237   5.564  1.1444  0.6144  0.2983
 5323SOL     OW27427   3.340   1.931   5.292  0.0976 -1.0133 -0.0129
 5323SOL    HW127428   3.349   1.929   5.196 -0.8712  1.5164 -0.1608
 5323SOL    HW227429   3.394   2.008   5.309 -0.3849 -0.7236  0.2040
 5324SOL     OW27430   4.716   0.580  11.188  0.1595  0.2885  0.5587
 5324SOL    HW127431   0.077   0.539  11.175 -0.2102  0.0947 -1.3525
 5324SOL    HW227432   4.682   0.538  11.267 -0.9252  1.6048  0.7942
 5325SOL     OW27433   0.622   3.636  15.974 -0.2674  0.7957  0.8857
 5325SOL    HW127434   0.602   3.561  15.918  0.3750  1.3147 -0.0221
 5325SOL    HW227435   0.627   3.596  16.061 -1.5138 -2.6243 -0.6000
 5326SOL     OW27436   4.038   3.043   5.480  0.1466 -0.5543  0.2722
 5326SOL    HW127437   4.112   3.039   5.420 -0.4670 -0.6993 -0.4857
 5326SOL    HW227438   4.073   3.072   5.565 -2.4010 -0.5765  1.3304
 5327SOL     OW27439   2.855   1.763   4.799 -0.2506  0.3953  0.4101
 5327SOL    HW127440   2.793   1.830   4.829  0.5484  2.1484 -1.9105
 5327SOL    HW227441   2.937   1.808   4.780 -0.4416  0.0097 -1.3031
 5328SOL     OW27442   2.642   4.547   7.735  0.0140 -0.2575 -0.8654
 5328SOL    HW127443   2.565   4.602   7.753  0.6290 -0.3802  2.1905
 5328SOL    HW227444   2.696   4.592   7.670 -0.6599  2.7131  0.6177
 5329SOL     OW27445   2.955   1.223  12.581 -0.1649 -0.1893 -0.1167
 5329SOL    HW127446   2.987   1.136  12.557  0.2934 -0.3885  1.1970
 5329SOL    HW227447   3.039   1.270  12.573 -0.0362 -0.6220 -1.3315
 5330SOL     OW27448   3.288   3.844  12.177  0.1637 -0.1058 -0.5698
 5330SOL    HW127449   3.197   3.849  12.147 -0.7124  1.5761  2.4119
 5330SOL    HW227450   3.305   3.938  12.185  0.7619 -0.5607  3.2332
 5331SOL     OW27451   2.502   0.243   2.790  0.4024 -0.1299  0.2322
 5331SOL    HW127452   2.475   0.309   2.854 -2.2109  0.0071 -1.0491
 5331SOL    HW227453   2.597   0.249   2.800  0.2411  1.3897  0.8683
 5332SOL     OW27454   2.523   4.539   5.400 -0.3238  0.2479 -0.3035
 5332SOL    HW127455   2.476   4.622   5.388 -0.8889 -0.0466 -0.1424
 5332SOL    HW227456   2.610   4.563   5.369 -0.4235  0.6420 -0.2725
 5333SOL     OW27457   4.406   2.902   4.768 -0.3251 -0.4033  0.3470
 5333SOL    HW127458   4.340   2.858   4.820 -1.1231  2.4185  1.7482
 5333SOL    HW227459   4.480   2.913   4.827  0.5078 -1.9459 -0.4057
 5334SOL     OW27460   1.440   4.570   4.625 -0.2232  0.3054  0.1219
 5334SOL    HW127461   1.346   4.590   4.629 -0.5068 -1.0004 -0.1484
 5334SOL    HW227462   1.446   4.497   4.565  2.2271  0.4997  0.1489
 5335SOL     OW27463   1.317   3.938  10.375  0.3950 -0.2012 -0.3747
 5335SOL    HW127464   1.242   3.997  10.365  0.2853 -0.3172 -0.2360
 5335SOL    HW227465   1.339   3.956  10.466  0.5018 -1.3290 -0.1727
 5336SOL     OW27466   1.482   2.222   9.494 -0.0480 -0.5271 -0.2453
 5336SOL    HW127467   1.467   2.254   9.405  1.4163  0.5852 -0.1034
 5336SOL    HW227468   1.474   2.310   9.531  1.3328  0.0755 -1.3386
 5337SOL     OW27469   1.722   2.552   3.918  0.2608 -0.1213  0.1219
 5337SOL    HW127470   1.647   2.510   3.961 -0.1898  0.6803  0.1112
 5337SOL    HW227471   1.772   2.471   3.905  1.8635  0.4886  2.5122
 5338SOL     OW27472   0.396   3.780  16.008 -0.6168 -0.1271 -0.0105
 5338SOL    HW127473   0.425   3.823  16.088 -1.5057  0.2300  0.1140
 5338SOL    HW227474   0.469   3.722  15.985 -0.6992  0.2490 -1.2395
 5339SOL     OW27475   1.248   2.351   5.539  0.7612  0.7049  0.1946
 5339SOL    HW127476   1.327   2.404   5.546  2.7516 -1.6869 -4.2860
 5339SOL    HW227477   1.193   2.405   5.482  1.4238  1.0904 -0.0810
 5340SOL     OW27478   4.251   2.443   4.776  0.1168  0.0877 -0.0309
 5340SOL    HW127479   4.159   2.443   4.802  0.7188 -2.0356  2.1385
 5340SOL    HW227480   4.275   2.370   4.834 -1.1621 -0.0391  0.3273
 5341SOL     OW27481   4.413   4.573  11.605  0.5621  0.2218  0.0437
 5341SOL    HW127482   4.335   4.610  11.565  0.0431 -1.3881 -0.4430
 5341SOL    HW227483   4.390   4.483  11.582 -1.0804  0.3390  1.2609
 5342SOL     OW27484   3.759   3.520   1.044  0.3399 -0.0718  0.1938
 5342SOL    HW127485   3.731   3.431   1.020  0.4847 -0.0211 -0.1596
 5342SOL    HW227486   3.852   3.501   1.055  0.1393 -0.1420  1.7885
 5343SOL     OW27487   0.696   2.917   5.746 -0.1908 -0.3566  0.3211
 5343SOL    HW127488   0.719   2.889   5.658 -0.6954 -2.3967  0.8160
 5343SOL    HW227489   0.613   2.874   5.766  0.2653 -2.1778 -1.7088
 5344SOL     OW27490   2.654   3.487   6.443 -0.1627 -0.3167 -0.0566
 5344SOL    HW127491   2.560   3.494   6.459  0.3557  2.4578  1.8285
 5344SOL    HW227492   2.655   3.457   6.353 -2.6730 -1.0618  0.1687
 5345SOL     OW27493   2.164   0.330  10.787 -0.6132  0.2485 -0.2328
 5345SOL    HW127494   2.207   0.252  10.822 -0.3047  1.3672  1.8392
 5345SOL    HW227495   2.080   0.323  10.831  0.2786  0.5476  1.4832
 5346SOL     OW27496   3.257   2.231   7.290 -0.8572 -0.3215 -0.5640
 5346SOL    HW127497   3.210   2.175   7.352 -0.4027  1.3476  1.2634
 5346SOL    HW227498   3.337   2.181   7.274  0.7272  1.4378  1.9446
 5347SOL     OW27499   1.160   4.646   4.013  0.4675  0.5195  0.1189
 5347SOL    HW127500   1.198   4.608   4.092 -1.1176  0.9602  1.1159
 5347SOL    HW227501   1.074   4.669   4.050  1.4013  2.9997  0.7500
 5348SOL     OW27502   1.835   0.925   6.844  0.1504  0.0979 -0.2568
 5348SOL    HW127503   1.771   0.891   6.906  1.0636  0.4880  0.9075
 5348SOL    HW227504   1.913   0.871   6.854  0.5234  0.4181 -1.4544
 5349SOL     OW27505   4.192   1.780   0.248  0.4321 -0.1479  0.4818
 5349SOL    HW127506   4.154   1.805   0.332  1.3050 -2.3188  1.5167
 5349SOL    HW227507   4.285   1.774   0.271  0.3435  0.2133  0.9260
 5350SOL     OW27508   3.082   1.425   4.818  0.4866  0.2673  0.0767
 5350SOL    HW127509   3.156   1.481   4.795  0.9397 -0.6586 -0.6821
 5350SOL    HW227510   3.003   1.458   4.776 -0.9896 -1.6584  1.3146
 5351SOL     OW27511   3.674   1.033   7.579 -0.5868 -0.3293  0.3859
 5351SOL    HW127512   3.733   1.039   7.504  0.3292 -0.5980  1.0790
 5351SOL    HW227513   3.696   1.118   7.617 -1.6836  0.8590 -1.6369
 5352SOL     OW27514   1.595   0.361   7.343 -0.2735 -0.2327  0.1307
 5352SOL    HW127515   1.539   0.436   7.326  2.9364  1.8739 -1.1974
 5352SOL    HW227516   1.559   0.347   7.430 -1.3009 -0.1298 -0.2849
 5353SOL     OW27517   1.745   2.118   6.118  0.2263 -0.1181 -0.2485
 5353SOL    HW127518   1.796   2.138   6.039  0.8419  0.0918  0.2003
 5353SOL    HW227519   1.730   2.205   6.154  1.5550  0.3343 -0.7797
 5354SOL     OW27520   3.989   2.568   6.569  0.1371  0.1343 -0.1461
 5354SOL    HW127521   3.906   2.614   6.583  1.2440  1.9611  0.4076
 5354SOL    HW227522   3.980   2.487   6.619  0.7860 -0.3740 -0.8410
 5355SOL     OW27523   1.133   2.320   4.272 -0.2348 -0.3157  0.1818
 5355SOL    HW127524   1.117   2.372   4.194  2.2209 -0.1400 -0.2141
 5355SOL    HW227525   1.048   2.330   4.315  0.3965  0.0089  1.3641
 5356SOL     OW27526   2.438   2.701   5.217  0.5636 -0.6452  0.1464
 5356SOL    HW127527   2.417   2.623   5.270 -0.1143  0.3414  1.3361
 5356SOL    HW227528   2.533   2.707   5.224  0.3588  0.4963  1.9364
 5357SOL     OW27529   0.517   4.142   3.683 -0.1306 -0.5198 -0.3876
 5357SOL    HW127530   0.537   4.118   3.592 -0.3897  0.6015 -0.7374
 5357SOL    HW227531   0.422   4.131   3.678 -0.1325 -1.7359  2.4623
 5358SOL     OW27532   3.093   0.162   6.766  0.3310  0.1664  0.0968
 5358SOL    HW127533   3.019   0.196   6.716  1.0028  1.9635  0.3302
 5358SOL    HW227534   3.174   0.175   6.717  0.3510  1.6887  0.5324
 5359SOL     OW27535   4.273   2.799  12.492  0.5792 -0.3413  0.2886
 5359SOL    HW127536   4.196   2.755  12.455  0.0503  1.0601 -0.2498
 5359SOL    HW227537   4.242   2.889  12.495  1.6316  0.0505 -0.8526
 5360SOL     OW27538   0.026   3.656   0.531  0.1590 -0.2043 -0.1466
 5360SOL    HW127539   4.658   3.666   0.558 -0.0355 -0.1381 -0.8529
 5360SOL    HW227540   0.042   3.562   0.526 -3.0759 -0.6896 -1.1712
 5361SOL     OW27541   1.698   0.548   4.073  0.0493  0.4687  0.1889
 5361SOL    HW127542   1.622   0.572   4.021 -0.2088  0.1732  0.4290
 5361SOL    HW227543   1.757   0.500   4.015  1.8564 -0.0446  2.4272
 5362SOL     OW27544   3.322   3.323   7.575  0.4526  0.2441  0.0559
 5362SOL    HW127545   3.408   3.322   7.534 -1.5538 -0.5797 -4.1916
 5362SOL    HW227546   3.323   3.398   7.634  2.3109  0.3299 -0.1023
 5363SOL     OW27547   0.636   2.564  15.308 -0.2219 -0.7313  0.3675
 5363SOL    HW127548   0.683   2.647  15.315 -1.6134  0.2155 -1.5563
 5363SOL    HW227549   0.671   2.525  15.388  0.0682  1.2928  1.2254
 5364SOL     OW27550   3.574   4.212   8.850 -0.4791  0.1688 -0.1607
 5364SOL    HW127551   3.488   4.237   8.814 -0.8086 -0.4303  0.2061
 5364SOL    HW227552   3.625   4.191   8.772 -0.0211  0.2002  0.1340
 5365SOL     OW27553   0.521   2.231  17.346  0.2502 -0.2453 -0.3137
 5365SOL    HW127554   0.469   2.207  17.269  1.0142 -1.3811 -0.4795
 5365SOL    HW227555   0.483   2.174  17.413  0.5730 -1.1490 -0.9045
 5366SOL     OW27556   4.695   2.793   5.650 -0.0942 -0.2553 -0.3964
 5366SOL    HW127557   0.001   2.872   5.694 -0.1392 -1.6357  2.1081
 5366SOL    HW227558   4.712   2.816   5.558  0.5203  1.6084  0.1781
 5367SOL     OW27559   0.784   1.882   1.851  0.1562  0.4830  0.9055
 5367SOL    HW127560   0.792   1.971   1.817 -3.3965  0.7472  0.7015
 5367SOL    HW227561   0.823   1.830   1.781 -1.9247 -0.1000  0.1630
 5368SOL     OW27562   1.065   3.450   7.395  0.1387  0.2465 -0.3573
 5368SOL    HW127563   1.037   3.522   7.453  1.7030  1.0495 -0.5908
 5368SOL    HW227564   1.037   3.370   7.439 -2.4350  0.5419 -1.4963
 5369SOL     OW27565   1.647   1.986  14.439  0.2923 -0.4880  0.2640
 5369SOL    HW127566   1.673   1.896  14.458 -0.3570 -0.3999  1.6114
 5369SOL    HW227567   1.559   1.975  14.475 -1.0077 -0.2900 -2.8717
 5370SOL     OW27568   4.135   3.482   8.139  0.7002  0.1387 -0.2673
 5370SOL    HW127569   4.123   3.557   8.197  3.6446  2.2556 -2.4185
 5370SOL    HW227570   4.054   3.431   8.146  1.1726 -0.5236  0.4123
 5371SOL     OW27571   2.855   4.069   1.095 -0.5331  0.3360  0.1525
 5371SOL    HW127572   2.945   4.099   1.084 -1.1783  1.9082 -0.8438
 5371SOL    HW227573   2.873   3.977   1.117  0.6706  0.2054 -1.4588
 5372SOL     OW27574   2.156   4.458   3.361  0.2284 -0.5277  0.3120
 5372SOL    HW127575   2.171   4.546   3.395 -1.9066  0.8334 -2.2083
 5372SOL    HW227576   2.062   4.456   3.375  0.0651  0.0304 -0.6736
 5373SOL     OW27577   2.696   3.420  13.616  0.0119 -0.1136 -0.1133
 5373SOL    HW127578   2.630   3.398  13.549 -2.6566  3.1262  1.4807
 5373SOL    HW227579   2.682   3.514  13.628 -1.7589 -0.5458  1.2361
 5374SOL     OW27580   1.276   3.152   3.533 -0.2270  0.1871 -0.1784
 5374SOL    HW127581   1.272   3.234   3.482  0.7016  1.8408  2.3994
 5374SOL    HW227582   1.309   3.085   3.474 -0.2915  1.0418 -1.1937
 5375SOL     OW27583   1.158   2.879  11.277  0.2913  0.4996 -0.2131
 5375SOL    HW127584   1.139   2.920  11.361  1.5887 -1.7686  1.2115
 5375SOL    HW227585   1.137   2.954  11.222 -0.6483  0.5201  0.1799
 5376SOL     OW27586   2.892   2.819   6.821  0.3153  0.2566 -0.4479
 5376SOL    HW127587   2.847   2.876   6.759 -1.3642 -0.4776  0.0928
 5376SOL    HW227588   2.848   2.846   6.902 -0.5714  0.9667 -1.1630
 5377SOL     OW27589   0.460   4.247   2.275 -0.2354  0.1614 -0.1408
 5377SOL    HW127590   0.532   4.310   2.282 -0.3402  0.2137  0.5250
 5377SOL    HW227591   0.392   4.307   2.244  1.0131  0.6239 -1.9754
 5378SOL     OW27592   4.412   1.786   9.557 -0.0828 -0.2383  0.1410
 5378SOL    HW127593   4.405   1.873   9.518 -0.4593 -0.9103 -1.2762
 5378SOL    HW227594   4.410   1.734   9.477  1.1017 -0.7780  0.4575
 5379SOL     OW27595   2.338   0.574   0.978  0.5652 -0.3973 -0.4659
 5379SOL    HW127596   2.273   0.518   1.019 -1.0383  0.7680 -1.4042
 5379SOL    HW227597   2.393   0.576   1.056 -2.0169  1.0849  1.3036
 5380SOL     OW27598   0.592   3.536  16.242 -0.4429  0.6437  0.0943
 5380SOL    HW127599   0.654   3.466  16.263  1.3811  1.5557 -2.2322
 5380SOL    HW227600   0.509   3.490  16.252  0.2665 -0.3629  1.2358
 5381SOL     OW27601   1.621   0.028   4.712  0.3665  0.0645 -0.0445
 5381SOL    HW127602   1.573   4.671   4.697  2.4557 -1.0368 -0.7881
 5381SOL    HW227603   1.703   4.710   4.739 -0.2573 -0.8986  0.3413
 5382SOL     OW27604   0.247   2.961   7.978  0.3728  0.6918 -0.0420
 5382SOL    HW127605   0.186   2.925   7.913  2.4567  0.0632 -1.6703
 5382SOL    HW227606   0.318   2.898   7.970  0.2643  0.5313  0.2634
 5383SOL     OW27607   0.869   2.994   8.262 -0.1782 -0.3533 -0.3933
 5383SOL    HW127608   0.774   3.008   8.263 -0.3685 -1.6889  1.0311
 5383SOL    HW227609   0.887   2.907   8.298 -1.7522  0.0754  1.4687
 5384SOL     OW27610   0.264   1.881  14.699 -0.0469 -0.2344  0.2175
 5384SOL    HW127611   0.204   1.834  14.757  1.8615 -1.6900  1.0100
 5384SOL    HW227612   0.224   1.968  14.700 -0.0020 -0.2344  1.3058
 5385SOL     OW27613   0.290   2.539   4.057  0.4417 -0.6416  0.4424
 5385SOL    HW127614   0.315   2.615   4.004 -0.2811 -0.4301  0.4175
 5385SOL    HW227615   0.359   2.480   4.025 -0.3213 -2.8043  2.7669
 5386SOL     OW27616   2.270   3.781  11.671  0.0738 -0.2841  0.1622
 5386SOL    HW127617   2.201   3.836  11.709 -0.0354 -0.1005 -0.2981
 5386SOL    HW227618   2.230   3.767  11.585 -0.9680  2.0748  0.2419
 5387SOL     OW27619   3.240   0.516   4.100  0.7808 -0.2237  0.1385
 5387SOL    HW127620   3.331   0.493   4.117  1.2037 -0.1408 -2.0414
 5387SOL    HW227621   3.211   0.431   4.067 -0.4509  0.4155 -0.4280
 5388SOL     OW27622   3.636   1.187   6.551  0.2609  0.3787  0.5006
 5388SOL    HW127623   3.584   1.216   6.476  0.0676 -2.1051 -0.3328
 5388SOL    HW227624   3.702   1.135   6.505  0.0934  1.8732 -1.4182
 5389SOL     OW27625   0.460   0.692   5.781 -0.1128  0.0287 -0.2135
 5389SOL    HW127626   0.409   0.731   5.851 -0.6818 -1.3856  0.1657
 5389SOL    HW227627   0.391   0.673   5.717  0.8396 -0.2469 -1.1625
 5390SOL     OW27628   2.429   2.511   1.587 -0.4565  0.1748  0.8675
 5390SOL    HW127629   2.448   2.427   1.543 -0.5264  0.9567 -0.6617
 5390SOL    HW227630   2.345   2.539   1.552  0.3354  1.9795  0.4429
 5391SOL     OW27631   4.239   2.063   4.245  0.3971 -0.0147  0.3731
 5391SOL    HW127632   4.182   2.134   4.215  0.6561 -0.3904 -1.0213
 5391SOL    HW227633   4.321   2.088   4.202  1.7108 -3.4858  0.8775
 5392SOL     OW27634   3.761   0.902   5.714  0.1521 -0.4416 -0.0206
 5392SOL    HW127635   3.750   0.953   5.794 -1.6924 -1.3020  0.2568
 5392SOL    HW227636   3.698   0.944   5.657 -0.3831 -1.5526 -0.2553
 5393SOL     OW27637   4.446   4.037   2.257  0.4367 -0.1538  0.0096
 5393SOL    HW127638   4.440   3.973   2.186 -0.8804  0.8767 -0.7856
 5393SOL    HW227639   4.407   4.115   2.218  0.4044 -0.7073 -1.0673
 5394SOL     OW27640   2.420   4.020   0.155 -0.4218  0.5643  0.1178
 5394SOL    HW127641   2.367   4.099   0.163 -2.6167 -0.9084  0.1131
 5394SOL    HW227642   2.510   4.047   0.175 -1.6365  3.1894  2.0072
 5395SOL     OW27643   1.674   1.779   8.246 -0.3503  0.0259  0.1161
 5395SOL    HW127644   1.732   1.759   8.320 -1.3434 -0.4027  0.7846
 5395SOL    HW227645   1.683   1.715   8.175 -1.2893  1.9788 -1.7439
 5396SOL     OW27646   0.149   2.006   2.294 -0.3403  0.0506 -0.3315
 5396SOL    HW127647   0.072   1.949   2.304 -1.1657  1.0816 -0.8839
 5396SOL    HW227648   0.115   2.071   2.233  1.6606  2.3560  1.0293
 5397SOL     OW27649   0.672   1.916   9.939  0.5510  0.5077 -0.0842
 5397SOL    HW127650   0.721   1.857   9.881 -1.5492  0.7355 -2.1069
 5397SOL    HW227651   0.580   1.906   9.915  0.6560 -0.2144 -0.1977
 5398SOL     OW27652   2.066   2.455  10.606 -0.5475  0.1210  0.2100
 5398SOL    HW127653   2.072   2.360  10.610  1.2204  0.1793 -0.9219
 5398SOL    HW227654   2.055   2.480  10.698 -1.7905  1.4650 -0.3104
 5399SOL     OW27655   4.172   4.551   0.322 -0.2033 -0.5356 -0.6065
 5399SOL    HW127656   4.222   4.560   0.240 -1.4632  0.0327 -1.3084
 5399SOL    HW227657   4.101   4.614   0.310 -0.8399 -1.5756 -2.2782
 5400SOL     OW27658   1.842   4.081   4.526 -0.2083 -0.0299  0.0110
 5400SOL    HW127659   1.759   4.069   4.480 -0.1219 -1.0775  0.1441
 5400SOL    HW227660   1.882   3.994   4.526 -0.6279 -0.2218 -0.7831
 5401SOL     OW27661   0.759   0.843   1.636  0.4399  0.4102  0.0831
 5401SOL    HW127662   0.677   0.806   1.669 -0.0783  1.3141 -0.2058
 5401SOL    HW227663   0.811   0.763   1.625 -0.4388 -0.3026  1.0614
 5402SOL     OW27664   0.245   3.421   6.608 -0.3395  0.1117  0.2488
 5402SOL    HW127665   0.319   3.402   6.550 -0.5849  1.1761 -0.4025
 5402SOL    HW227666   0.290   3.466   6.680 -1.5675  0.9055  0.5078
 5403SOL     OW27667   0.661   2.805   2.122  0.2293 -0.3540 -0.5647
 5403SOL    HW127668   0.649   2.744   2.195 -1.2614  2.4327  1.5288
 5403SOL    HW227669   0.746   2.775   2.088  0.4306 -1.7536  1.1856
 5404SOL     OW27670   0.889   2.873   3.853  0.6536 -0.2580 -0.0078
 5404SOL    HW127671   0.927   2.877   3.940  5.3730  0.6886 -2.1466
 5404SOL    HW227672   0.898   2.966   3.833 -4.0279  0.1988 -0.0993
 5405SOL     OW27673   1.000   3.102   8.065  0.0227 -0.1073  0.4393
 5405SOL    HW127674   0.961   3.058   8.141  0.9069 -1.5582  0.0460
 5405SOL    HW227675   1.008   3.190   8.101  2.5791  0.2082 -0.9341
 5406SOL     OW27676   4.281   1.763   6.011 -0.0566  0.2927 -0.0386
 5406SOL    HW127677   4.334   1.753   6.091 -2.2232  0.8501  1.4689
 5406SOL    HW227678   4.239   1.677   6.015  0.7447 -0.0537  0.8875
 5407SOL     OW27679   2.954   0.350   0.341  0.0134  0.5051  0.4450
 5407SOL    HW127680   2.925   0.437   0.313  0.6611  0.5196 -0.1764
 5407SOL    HW227681   2.875   0.313   0.382  0.4687  0.1724  1.0122
 5408SOL     OW27682   2.505   3.078   3.012 -0.9216  0.2989  0.2848
 5408SOL    HW127683   2.499   3.057   3.105  0.5951 -0.8618  0.1317
 5408SOL    HW227684   2.598   3.101   3.019 -0.6402 -1.0494  0.8975
 5409SOL     OW27685   4.489   0.182   4.601  0.2751 -0.0425  0.1685
 5409SOL    HW127686   4.515   0.274   4.597  1.2155 -0.4228 -2.4587
 5409SOL    HW227687   4.418   0.187   4.665  0.4225 -0.8950  0.3976
 5410SOL     OW27688   3.065   3.611  13.627  0.5514  0.3255 -0.1613
 5410SOL    HW127689   3.157   3.617  13.652  0.3040  1.4004  0.5201
 5410SOL    HW227690   3.021   3.653  13.701  3.2357  2.3239  0.3302
 5411SOL     OW27691   4.260   4.060   9.634  0.4955  0.4272  0.3828
 5411SOL    HW127692   4.260   4.018   9.719 -1.1494  0.7619  0.5439
 5411SOL    HW227693   4.296   4.143   9.664 -0.2907  0.7800  0.3599
 5412SOL     OW27694   4.228   0.082   4.263  0.1023  0.2060 -0.0234
 5412SOL    HW127695   4.247   0.029   4.186  0.1929  0.6920 -0.3369
 5412SOL    HW227696   4.280   0.163   4.267  0.5982 -0.2553  2.8023
 5413SOL     OW27697   3.420   0.233  15.862  0.8113  0.8538  0.1998
 5413SOL    HW127698   3.487   0.295  15.889  2.7021 -0.8082 -0.7401
 5413SOL    HW227699   3.478   0.177  15.810  0.9471 -0.0375  1.3220
 5414SOL     OW27700   0.512   2.882   8.014  0.4374  0.2191  0.6010
 5414SOL    HW127701   0.517   2.944   8.086 -1.4987 -2.2205  2.8539
 5414SOL    HW227702   0.602   2.848   8.016  1.0362  1.9077  1.7902
 5415SOL     OW27703   3.685   2.389  13.224  0.4071 -0.3403 -0.2260
 5415SOL    HW127704   3.674   2.407  13.131 -0.3786 -1.3222 -0.3216
 5415SOL    HW227705   3.612   2.444  13.251  0.2693 -0.2075 -0.8934
 5416SOL     OW27706   3.571   4.100  10.088  0.0746 -0.0648 -0.1767
 5416SOL    HW127707   3.619   4.045  10.150  1.4523  0.2200 -0.9955
 5416SOL    HW227708   3.498   4.043  10.062  0.7778 -0.3244 -1.5859
 5417SOL     OW27709   3.056   4.582   8.537  0.0682 -0.0669 -0.3155
 5417SOL    HW127710   3.004   4.663   8.536  1.4083  0.8123  0.7626
 5417SOL    HW227711   3.117   4.606   8.607 -0.1639 -0.2810 -0.0354
 5418SOL     OW27712   0.592   2.969   6.207  1.0510  0.2198 -0.7480
 5418SOL    HW127713   0.674   2.931   6.239  0.3855 -1.6451 -1.3033
 5418SOL    HW227714   0.625   3.059   6.199  1.1377  0.1828 -0.8208
 5419SOL     OW27715   0.062   3.113   5.146 -0.6434 -0.2881  0.3881
 5419SOL    HW127716   0.134   3.113   5.209 -0.6960  0.5090  0.4529
 5419SOL    HW227717   0.061   3.206   5.123 -4.4724 -0.5239 -0.4563
 5420SOL     OW27718   1.668   3.909   6.929  0.3525 -0.6064  0.3090
 5420SOL    HW127719   1.727   3.837   6.953  0.2445 -0.2162  1.7703
 5420SOL    HW227720   1.586   3.860   6.923  0.0586 -0.1072  0.1992
 5421SOL     OW27721   0.786   4.233   2.617  0.4471 -0.0086 -0.1666
 5421SOL    HW127722   0.830   4.163   2.568 -1.6006 -1.7422  0.4827
 5421SOL    HW227723   0.692   4.233   2.600 -0.0268  0.1443  2.5522
 5422SOL     OW27724   0.931   1.227  10.296  0.3933  0.8442  0.0319
 5422SOL    HW127725   0.903   1.319  10.298  0.0617  0.7338  0.3125
 5422SOL    HW227726   0.943   1.209  10.389 -1.6077 -0.1275  0.0915
 5423SOL     OW27727   2.911   3.172   4.544 -0.7155 -1.1695  0.3110
 5423SOL    HW127728   2.912   3.120   4.624  0.3152 -2.2817 -0.4256
 5423SOL    HW227729   2.932   3.103   4.481 -0.0119  0.2044 -0.9382
 5424SOL     OW27730   4.283   2.396   6.376  0.0456 -0.0751  0.0383
 5424SOL    HW127731   4.219   2.325   6.381 -1.3559  1.2038  0.1379
 5424SOL    HW227732   4.324   2.397   6.463 -2.5301  2.2799  1.2232
 5425SOL     OW27733   0.781   1.974   9.312  0.2126 -0.0746 -0.3272
 5425SOL    HW127734   0.731   1.892   9.307 -0.2866  0.2981 -1.4575
 5425SOL    HW227735   0.847   1.956   9.379 -0.4959 -2.2376 -0.2224
 5426SOL     OW27736   2.190   0.010   0.169 -0.2538  0.4390 -0.3378
 5426SOL    HW127737   2.211   0.064   0.245  1.1029 -0.2223 -0.2414
 5426SOL    HW227738   2.160   0.081   0.111 -0.6933  0.3377 -0.2349
 5427SOL     OW27739   2.168   2.677   9.334 -0.0899 -0.0201  0.3654
 5427SOL    HW127740   2.178   2.757   9.282  1.0020 -0.0775  0.4712
 5427SOL    HW227741   2.139   2.622   9.262  1.5034 -1.1997  0.6130
 5428SOL     OW27742   3.876   0.869  16.542 -0.5282 -0.9867  0.9777
 5428SOL    HW127743   3.850   0.807  16.610 -1.5523  0.3116  1.7693
 5428SOL    HW227744   3.807   0.935  16.548  0.9693  0.5596  1.0713
 5429SOL     OW27745   2.434   4.693  10.436 -0.2461 -0.3206  0.2938
 5429SOL    HW127746   2.516   0.014  10.414 -0.4337  0.3242  0.9372
 5429SOL    HW227747   2.479   4.618  10.475  0.1898 -0.1382  0.1541
 5430SOL     OW27748   4.301   1.928   1.967  0.2726 -0.3199 -0.0452
 5430SOL    HW127749   4.287   1.867   2.040 -0.3372  1.0057  0.9447
 5430SOL    HW227750   4.344   2.002   2.011  1.5388 -0.7526 -0.5527
 5431SOL     OW27751   3.309   0.664   9.841 -0.2125  0.4985  0.0439
 5431SOL    HW127752   3.370   0.700   9.776 -0.6965 -1.0705 -1.2861
 5431SOL    HW227753   3.318   0.723   9.915 -0.2988 -0.6436  0.9607
 5432SOL     OW27754   2.213   1.271   6.974 -0.1716  0.6477  0.3092
 5432SOL    HW127755   2.261   1.237   6.899 -1.4467  1.8284 -1.0554
 5432SOL    HW227756   2.247   1.221   7.048 -2.6485  1.6672  2.1612
 5433SOL     OW27757   1.571   1.908   7.891  0.3907  0.2591 -0.5855
 5433SOL    HW127758   1.620   1.941   7.816  1.3784 -1.9295 -0.8907
 5433SOL    HW227759   1.628   1.952   7.953 -0.4628 -1.1259  1.2022
 5434SOL     OW27760   2.264   3.543  15.505  0.2764 -0.4545 -0.1945
 5434SOL    HW127761   2.355   3.522  15.528  0.8736  1.0120 -1.2355
 5434SOL    HW227762   2.285   3.557  15.413 -0.5990 -1.4482 -0.5462
 5435SOL     OW27763   3.198   1.880   7.628  0.6360 -0.3060  0.1947
 5435SOL    HW127764   3.122   1.825   7.646  0.8144 -1.1341 -1.6028
 5435SOL    HW227765   3.153   1.958   7.596  0.6621 -0.7059 -0.7914
 5436SOL     OW27766   1.526   4.642  13.668  0.2231 -0.4419 -0.1095
 5436SOL    HW127767   1.456   4.628  13.732  0.7814  2.1326  1.0503
 5436SOL    HW227768   1.529   4.555  13.629  0.1274 -1.4256  2.0397
 5437SOL     OW27769   3.999   1.444  10.533  0.3809  0.1390  0.0459
 5437SOL    HW127770   3.911   1.461  10.500 -0.8080 -1.0670  2.6268
 5437SOL    HW227771   4.033   1.385  10.465 -0.1313 -1.9891  1.6426
 5438SOL     OW27772   2.950   4.169  14.995  0.3924  0.7432 -0.0707
 5438SOL    HW127773   2.997   4.193  14.915  0.6502  2.1891  0.5299
 5438SOL    HW227774   3.016   4.110  15.032 -4.1023 -2.4040  2.9258
 5439SOL     OW27775   3.347   1.429   9.102 -0.8114 -0.6695 -0.3488
 5439SOL    HW127776   3.330   1.520   9.124  1.0095 -0.2975 -0.5452
 5439SOL    HW227777   3.287   1.379   9.159 -0.6477  0.4804  0.8303
 5440SOL     OW27778   1.943   3.577  14.424  0.4298 -0.0249  0.4778
 5440SOL    HW127779   1.908   3.523  14.353 -0.0188 -0.5865  1.1296
 5440SOL    HW227780   1.943   3.517  14.498 -1.6089 -1.3996 -0.6253
 5441SOL     OW27781   3.295   2.945   7.737 -0.1660  0.6743 -0.0428
 5441SOL    HW127782   3.384   2.977   7.730 -0.2736  1.5296  2.8931
 5441SOL    HW227783   3.295   2.883   7.810  1.7891 -0.8397 -1.3041
 5442SOL     OW27784   3.905   1.172   0.136  0.4935  0.8396  0.0196
 5442SOL    HW127785   3.946   1.213   0.060  0.1431 -0.3822 -0.8220
 5442SOL    HW227786   3.833   1.233   0.152  0.0767 -0.2047  2.0897
 5443SOL     OW27787   2.276   2.404   4.288  0.5223 -0.0047 -0.0818
 5443SOL    HW127788   2.267   2.470   4.356 -1.4698 -1.8564  1.4599
 5443SOL    HW227789   2.354   2.437   4.243  0.5952  1.4658  1.1441
 5444SOL     OW27790   4.347   3.818   8.148  0.1479  0.3607 -0.1262
 5444SOL    HW127791   4.342   3.912   8.160 -0.8585  0.2602  0.2705
 5444SOL    HW227792   4.329   3.799   8.056 -0.2265 -0.4744  0.1143
 5445SOL     OW27793   0.916   0.302   3.102 -0.0100 -0.1840 -0.3624
 5445SOL    HW127794   0.863   0.328   3.178 -1.0609 -0.0862 -1.1306
 5445SOL    HW227795   0.854   0.237   3.071  1.8768 -3.0411  1.8749
 5446SOL     OW27796   2.613   1.821   3.780 -0.9930 -0.4034 -0.1838
 5446SOL    HW127797   2.564   1.901   3.764 -0.6489  0.0862  1.2035
 5446SOL    HW227798   2.705   1.843   3.794 -1.1670 -0.9282  1.8531
 5447SOL     OW27799   2.774   0.905   8.021  0.4589  0.1544 -0.0419
 5447SOL    HW127800   2.727   0.961   8.083 -0.2103 -1.0658  0.5599
 5447SOL    HW227801   2.820   0.836   8.070  0.8829  0.1802 -0.4011
 5448SOL     OW27802   3.299   3.136   4.246  0.3194  0.1137 -0.3315
 5448SOL    HW127803   3.360   3.207   4.225 -1.4012  2.2144  1.7337
 5448SOL    HW227804   3.239   3.187   4.302  0.4324 -1.2569  1.0140
 5449SOL     OW27805   0.371   2.763  16.299 -0.1567 -0.0500  0.1588
 5449SOL    HW127806   0.311   2.830  16.267  0.0268  0.5008  0.9698
 5449SOL    HW227807   0.325   2.681  16.284 -3.3385  1.5894  0.9060
 5450SOL     OW27808   1.123   0.328   3.447 -0.0547  0.2044 -0.6482
 5450SOL    HW127809   1.093   0.374   3.368 -4.4583 -1.5774  0.0086
 5450SOL    HW227810   1.068   0.371   3.512  3.4051  1.5830  1.3649
 5451SOL     OW27811   2.010   1.093   5.120  0.2293 -0.5453 -0.2544
 5451SOL    HW127812   1.938   1.067   5.063  0.0583  0.7803 -0.6465
 5451SOL    HW227813   2.008   1.032   5.194 -0.2561  0.6654  0.7499
 5452SOL     OW27814   4.142   1.123   3.941  0.1237 -0.0396  0.4321
 5452SOL    HW127815   4.087   1.116   4.018 -2.2544 -0.8660 -1.3349
 5452SOL    HW227816   4.220   1.163   3.980 -0.5778  1.4700  0.3161
 5453SOL     OW27817   4.000   2.485   8.749 -0.1499  0.0653 -0.3621
 5453SOL    HW127818   4.039   2.401   8.772 -0.4390  0.6003  2.0776
 5453SOL    HW227819   3.907   2.470   8.734 -0.2618 -1.4659  1.8662
 5454SOL     OW27820   2.934   3.016  13.515 -0.0344 -0.8012  0.1450
 5454SOL    HW127821   2.867   2.968  13.563  0.4225 -1.1233  0.4568
 5454SOL    HW227822   3.005   2.960  13.546  1.6494  0.3734 -1.5930
 5455SOL     OW27823   2.537   0.678  16.202  0.1068  0.3482 -0.8302
 5455SOL    HW127824   2.477   0.643  16.268  0.9687 -0.3394 -0.4030
 5455SOL    HW227825   2.620   0.645  16.237  0.2765  0.9652 -0.6453
 5456SOL     OW27826   4.032   1.891  10.872 -0.6817 -0.2536 -0.3768
 5456SOL    HW127827   4.065   1.817  10.821  0.2726 -0.5639  0.6866
 5456SOL    HW227828   3.971   1.928  10.809  1.1579  0.0574 -1.9594
 5457SOL     OW27829   2.316   3.902  11.960  0.1214  0.5394 -0.3367
 5457SOL    HW127830   2.223   3.901  11.936 -0.3464  3.4428  1.3733
 5457SOL    HW227831   2.322   3.977  12.020  4.3465 -0.2254  0.1948
 5458SOL     OW27832   4.213   1.603   2.532 -0.6328 -0.6334 -0.1409
 5458SOL    HW127833   4.182   1.587   2.443 -0.2646 -0.3677 -0.3186
 5458SOL    HW227834   4.302   1.568   2.524 -0.9696 -1.7188  0.8066
 5459SOL     OW27835   1.893   1.066   7.376  0.6328  0.3573 -0.2513
 5459SOL    HW127836   1.844   1.023   7.446  0.1283 -0.5903 -1.1883
 5459SOL    HW227837   1.985   1.063   7.403  0.9123 -1.8269 -1.3926
 5460SOL     OW27838   2.731   4.002   6.927 -0.3024 -0.3717 -0.2710
 5460SOL    HW127839   2.738   3.956   6.844  0.0197 -0.7762 -0.0199
 5460SOL    HW227840   2.749   4.091   6.898 -0.9034 -0.1338  0.0862
 5461SOL     OW27841   0.153   0.513  11.632  0.1275 -0.5301 -0.4696
 5461SOL    HW127842   0.062   0.541  11.642  0.1661 -0.2516 -0.8896
 5461SOL    HW227843   0.163   0.418  11.643 -1.4441 -0.7072 -0.5317
 5462SOL     OW27844   2.149   0.315   4.275 -0.2073  0.4907 -0.0725
 5462SOL    HW127845   2.121   0.312   4.183 -0.1478 -0.0141 -0.0760
 5462SOL    HW227846   2.222   0.377   4.276  1.1716 -1.1568  1.3785
 5463SOL     OW27847   3.667   1.434   7.641 -0.5109 -0.3325  0.1140
 5463SOL    HW127848   3.730   1.364   7.658 -0.9851 -0.9500 -0.6791
 5463SOL    HW227849   3.644   1.469   7.727 -2.3869 -0.4277 -0.3549
 5464SOL     OW27850   0.812   0.475  10.965  0.1305 -0.8548  0.1984
 5464SOL    HW127851   0.895   0.458  11.009  2.2212  0.6437 -3.1869
 5464SOL    HW227852   0.806   0.391  10.918  0.3424 -1.6668  1.6133
 5465SOL     OW27853   2.922   0.544   3.246 -0.0736 -0.2163 -0.2431
 5465SOL    HW127854   2.931   0.453   3.218 -1.7756 -0.3991 -0.1837
 5465SOL    HW227855   2.903   0.586   3.163 -1.4949 -1.4112 -0.5345
 5466SOL     OW27856   3.349   4.695   3.112 -0.3357  0.2867 -0.4620
 5466SOL    HW127857   3.440   4.723   3.110 -0.5030  1.0591  2.0831
 5466SOL    HW227858   3.317   4.705   3.022 -1.8090  3.8106  0.4217
 5467SOL     OW27859   0.391   2.067   8.974  0.1416  0.4410  0.3427
 5467SOL    HW127860   0.369   2.112   9.056 -2.6735 -0.8385  0.2834
 5467SOL    HW227861   0.367   2.125   8.902 -1.5980 -1.6135 -0.7313
 5468SOL     OW27862   1.269   3.539  12.470  0.0448  0.7531 -0.0647
 5468SOL    HW127863   1.202   3.607  12.466  0.3102  0.9336 -1.7240
 5468SOL    HW227864   1.248   3.501  12.555  0.9926 -0.5188 -0.3976
 5469SOL     OW27865   0.151   2.793  10.538 -0.0954 -0.0449  0.4592
 5469SOL    HW127866   0.189   2.707  10.522  0.4623  0.2461  0.1919
 5469SOL    HW227867   0.227   2.851  10.531 -0.3770  0.2368 -0.2496
 5470SOL     OW27868   2.671   1.073   0.876 -1.0342 -0.2078 -0.3310
 5470SOL    HW127869   2.580   1.043   0.871 -0.9197 -0.1067 -2.6335
 5470SOL    HW227870   2.718   1.016   0.815 -0.1001 -1.1018  1.2310
 5471SOL     OW27871   4.709   3.502   3.719  0.0240 -0.3365 -0.0225
 5471SOL    HW127872   0.069   3.474   3.755  0.2106  2.6803  1.8223
 5471SOL    HW227873   4.688   3.446   3.644  0.1781 -0.5045  0.0597
 5472SOL     OW27874   1.847   2.322   6.861 -0.7906  0.7851 -0.2726
 5472SOL    HW127875   1.839   2.410   6.896 -0.9682  0.5388  0.3024
 5472SOL    HW227876   1.930   2.299   6.903 -1.2841  0.0391  0.2922
 5473SOL     OW27877   0.182   0.589   8.888 -0.4469  0.0440  0.3204
 5473SOL    HW127878   0.147   0.647   8.956 -0.7400  1.8924 -1.3718
 5473SOL    HW227879   0.194   0.505   8.931 -5.7715 -0.6186  0.4717
 5474SOL     OW27880   4.372   0.519  13.136  0.2685 -0.7274 -0.4550
 5474SOL    HW127881   4.448   0.464  13.155 -0.6572 -1.3738  1.3387
 5474SOL    HW227882   4.343   0.477  13.055  1.3420  0.9522 -1.7211
 5475SOL     OW27883   2.051   4.572   3.693  0.2448  0.4918  0.2073
 5475SOL    HW127884   1.971   4.622   3.706  0.2154  0.6364 -0.5220
 5475SOL    HW227885   2.104   4.640   3.652 -0.6659  0.9955 -0.1238
 5476SOL     OW27886   0.839   4.131  14.038 -0.1622  0.2142 -0.0224
 5476SOL    HW127887   0.913   4.089  14.083 -0.7455 -1.3810 -0.5562
 5476SOL    HW227888   0.789   4.146  14.118 -3.0496 -2.9350 -1.2629
 5477SOL     OW27889   1.495   3.223   5.392 -0.1023 -0.1848  0.8293
 5477SOL    HW127890   1.419   3.174   5.360  0.5805 -0.5012 -0.3200
 5477SOL    HW227891   1.456   3.307   5.416 -2.1621 -0.7373 -0.5478
 5478SOL     OW27892   0.191   1.389   9.738  0.4042  0.1135 -0.0369
 5478SOL    HW127893   0.238   1.386   9.821  1.1478 -0.3367 -0.4798
 5478SOL    HW227894   0.096   1.393   9.755  0.6010 -0.8961  1.3496
 5479SOL     OW27895   0.182   3.161   2.337  0.6350  0.0403  0.7154
 5479SOL    HW127896   0.211   3.094   2.275 -0.9283 -0.6967  0.7877
 5479SOL    HW227897   0.143   3.108   2.406  1.3025 -2.7780 -1.0517
 5480SOL     OW27898   3.188   3.821   2.884 -0.1994  0.4421  0.3635
 5480SOL    HW127899   3.239   3.791   2.959  1.6352  0.4887 -0.8687
 5480SOL    HW227900   3.246   3.888   2.848  0.7629  1.1048  3.1047
 5481SOL     OW27901   0.043   0.932  17.444  0.2630 -0.1853 -0.3306
 5481SOL    HW127902   4.689   0.956  17.394  0.1697 -1.0542 -0.6098
 5481SOL    HW227903   0.093   1.012  17.431  1.2971 -0.6455  0.9136
 5482SOL     OW27904   0.361   3.777   3.767 -0.1095 -0.1971 -0.1184
 5482SOL    HW127905   0.293   3.720   3.732  1.8701 -1.1522 -2.4089
 5482SOL    HW227906   0.355   3.847   3.701 -0.7495 -0.2935 -0.1569
 5483SOL     OW27907   3.592   0.057  15.559 -0.2364  0.0091 -0.0925
 5483SOL    HW127908   3.611   4.688  15.552  0.9650  0.4213 -2.1164
 5483SOL    HW227909   3.572   0.055  15.653  0.3589  0.5010  0.0501
 5484SOL     OW27910   2.946   3.585   6.973  0.0905 -0.3064 -0.0865
 5484SOL    HW127911   3.019   3.539   7.014  0.3241 -1.3838 -1.7179
 5484SOL    HW227912   2.948   3.669   7.020  1.5302 -0.6872  0.5208
 5485SOL     OW27913   1.978   0.795  13.350 -0.0318  0.3503  0.4927
 5485SOL    HW127914   1.923   0.858  13.304 -0.3946  0.9360  1.7379
 5485SOL    HW227915   2.017   0.748  13.276  1.4568  1.3153  0.6638
 5486SOL     OW27916   2.335   3.836   8.962 -0.0974 -0.5949 -0.5831
 5486SOL    HW127917   2.241   3.847   8.943 -0.0094  2.0544  0.4798
 5486SOL    HW227918   2.368   3.923   8.938  0.3504 -0.7230 -0.4094
 5487SOL     OW27919   0.163   0.340   0.493 -0.0121 -0.2013 -0.0742
 5487SOL    HW127920   0.167   0.263   0.436 -0.7032  1.0192 -1.7328
 5487SOL    HW227921   0.068   0.348   0.487  0.0148 -0.4420 -0.8411
 5488SOL     OW27922   2.520   2.715   0.237 -0.2352 -0.1664 -0.2486
 5488SOL    HW127923   2.441   2.709   0.184  0.2427  4.8245 -1.5001
 5488SOL    HW227924   2.548   2.804   0.216 -3.3038  1.0940  0.9990
 5489SOL     OW27925   1.126   3.079   5.852  1.0353  0.5165  0.1813
 5489SOL    HW127926   1.196   3.143   5.864  0.6453  1.1099 -0.6739
 5489SOL    HW227927   1.136   3.052   5.760  0.0686 -1.5704  0.6737
 5490SOL     OW27928   0.883   1.228   5.247 -0.2481  0.1074  0.0876
 5490SOL    HW127929   0.962   1.253   5.294 -1.4325 -1.8745  3.1318
 5490SOL    HW227930   0.904   1.229   5.154  0.8957  1.2020  0.3606
 5491SOL     OW27931   4.590   1.494   6.910  0.0403 -0.2142 -0.5278
 5491SOL    HW127932   4.533   1.439   6.857  1.3454 -0.7070 -1.4294
 5491SOL    HW227933   4.667   1.496   6.853  1.3227  2.7838  1.2944
 5492SOL     OW27934   0.933   2.487   6.453 -0.6434  0.1000 -0.2353
 5492SOL    HW127935   0.978   2.570   6.436 -0.6045 -0.3358 -2.3379
 5492SOL    HW227936   0.996   2.425   6.416 -0.9466  0.7266 -1.8047
 5493SOL     OW27937   1.281   2.033  11.888 -0.1717 -0.3064  0.0374
 5493SOL    HW127938   1.335   2.034  11.968 -1.8126 -0.0043  1.1405
 5493SOL    HW227939   1.336   1.990  11.823  0.1195 -2.4515  1.7226
 5494SOL     OW27940   3.221   2.345   7.632  0.3488 -0.3362  0.2918
 5494SOL    HW127941   3.203   2.268   7.579 -3.4274  0.1887  0.8158
 5494SOL    HW227942   3.188   2.310   7.715  0.6711 -2.0107 -0.2824
 5495SOL     OW27943   0.771   3.595   9.515  0.3361  0.1405  0.8046
 5495SOL    HW127944   0.685   3.581   9.476  0.7396  0.2105 -0.1133
 5495SOL    HW227945   0.810   3.509   9.530 -0.3709 -0.3215 -0.0623
 5496SOL     OW27946   2.005   0.899   2.733 -0.9085  0.4042 -0.1034
 5496SOL    HW127947   1.952   0.844   2.676 -0.1034  1.2061 -1.6239
 5496SOL    HW227948   2.029   0.977   2.682  2.0747  0.7494  1.8293
 5497SOL     OW27949   4.700   4.420   2.926  0.6062  0.4820  0.2864
 5497SOL    HW127950   0.028   4.343   2.902  0.3223  0.2063  0.5352
 5497SOL    HW227951   4.660   4.427   2.840 -0.6017 -1.3329  0.6863
 5498SOL     OW27952   2.092   4.669   7.320 -0.3193 -0.0900  0.0280
 5498SOL    HW127953   2.107   4.594   7.377  1.7180 -0.3893 -0.9373
 5498SOL    HW227954   2.127   4.632   7.239 -0.1247 -0.0950  0.1142
 5499SOL     OW27955   3.083   3.880  11.601 -0.0858 -0.2901 -0.3958
 5499SOL    HW127956   3.063   3.816  11.534 -0.3142  0.3645 -0.9507
 5499SOL    HW227957   3.177   3.887  11.582  0.3176 -1.3411  1.1874
 5500SOL     OW27958   4.518   4.027   4.358  0.3767 -0.0089  0.8449
 5500SOL    HW127959   4.541   4.062   4.272  0.8573 -0.3438  0.8388
 5500SOL    HW227960   4.441   3.975   4.338  0.7278 -0.7627  1.4729
 5501SOL     OW27961   2.626   3.436   2.907 -0.0140  0.2242  0.3990
 5501SOL    HW127962   2.581   3.402   2.985 -0.5727  0.8177  0.3381
 5501SOL    HW227963   2.571   3.512   2.889 -1.8464 -1.7515 -2.2991
 5502SOL     OW27964   0.266   2.734   8.677  0.1184  0.0742  0.4345
 5502SOL    HW127965   0.296   2.652   8.637  1.5840  0.7967  0.0448
 5502SOL    HW227966   0.329   2.801   8.649  0.4810 -0.5281 -0.2098
 5503SOL     OW27967   4.540   1.461  11.176 -0.3382 -0.3423  0.0058
 5503SOL    HW127968   4.538   1.400  11.103  0.1314 -1.6089  1.0560
 5503SOL    HW227969   4.477   1.530  11.153  0.0105  0.0636  0.2575
 5504SOL     OW27970   1.187   1.715  16.341 -0.5822 -0.2991  0.1661
 5504SOL    HW127971   1.144   1.667  16.270  0.5332 -1.1925  0.0861
 5504SOL    HW227972   1.113   1.728  16.400 -3.0541 -2.5923 -2.4760
 5505SOL     OW27973   1.445   3.853   4.777  0.0155  0.5129  0.2452
 5505SOL    HW127974   1.474   3.937   4.740  1.3703  0.1527  0.5167
 5505SOL    HW227975   1.442   3.804   4.694  0.5967  0.1204  0.4619
 5506SOL     OW27976   2.739   4.392   2.877  0.3310  0.0319 -0.0319
 5506SOL    HW127977   2.687   4.317   2.907 -1.7036  2.0428  1.4862
 5506SOL    HW227978   2.800   4.395   2.951  1.7592  1.5456 -1.2744
 5507SOL     OW27979   1.255   0.818  11.868  0.0719 -0.2257  0.2643
 5507SOL    HW127980   1.348   0.838  11.865  0.0521 -0.0054  1.3124
 5507SOL    HW227981   1.227   0.895  11.819 -1.7173 -1.3632 -0.4940
 5508SOL     OW27982   3.448   1.195   3.296  0.3764 -0.9844 -0.2105
 5508SOL    HW127983   3.504   1.143   3.239 -0.5942 -1.6605 -0.5496
 5508SOL    HW227984   3.394   1.133   3.344  1.0851 -2.2692 -1.0674
 5509SOL     OW27985   4.168   0.287  14.950 -0.1456  0.3364  0.4151
 5509SOL    HW127986   4.149   0.246  14.866  0.3383 -1.5303  1.2070
 5509SOL    HW227987   4.260   0.308  14.932 -0.3301  1.9626  1.3834
 5510SOL     OW27988   3.118   3.562  15.593  0.2443 -0.0637  0.0046
 5510SOL    HW127989   3.201   3.523  15.568  0.4791  0.3208  0.1921
 5510SOL    HW227990   3.057   3.489  15.579 -0.2150 -0.2005  2.6757
 5511SOL     OW27991   3.455   2.366  12.777 -0.5525  0.1766 -0.1704
 5511SOL    HW127992   3.525   2.431  12.790 -0.7173  0.1256  0.9023
 5511SOL    HW227993   3.487   2.296  12.834 -0.4023  0.9840  0.7325
 5512SOL     OW27994   1.657   3.040   6.837 -0.1222 -0.3760  0.0314
 5512SOL    HW127995   1.706   3.039   6.919 -0.3745 -0.6871  0.1779
 5512SOL    HW227996   1.697   3.125   6.820 -3.6446  1.2479 -0.0677
 5513SOL     OW27997   0.711   1.499   2.188  0.0623  0.3693  0.8113
 5513SOL    HW127998   0.705   1.480   2.094  3.7364 -0.4432  0.7319
 5513SOL    HW227999   0.620   1.514   2.213 -0.3605 -1.0088  0.0967
 5514SOL     OW28000   1.472   1.152   4.171  0.3591  0.4125  0.4364
 5514SOL    HW128001   1.488   1.118   4.083  1.4045 -0.4338  0.9466
 5514SOL    HW228002   1.431   1.236   4.149 -1.1210 -0.5864 -0.5992
 5515SOL     OW28003   4.131   1.972   9.013 -0.1581  0.4010  0.2301
 5515SOL    HW128004   4.073   1.930   8.950  2.1612 -2.5204  0.0245
 5515SOL    HW228005   4.206   1.999   8.960  0.3993 -1.1688  0.2188
 5516SOL     OW28006   2.721   0.384   7.043 -0.0409 -0.0642  0.0074
 5516SOL    HW128007   2.772   0.405   7.121 -2.6905  0.1186  1.7136
 5516SOL    HW228008   2.692   0.465   7.000  1.4261  0.8851  0.8215
 5517SOL     OW28009   4.701   3.765   3.617  0.0878 -0.7108  0.2765
 5517SOL    HW128010   4.619   3.763   3.568 -0.9062  1.0249  1.8783
 5517SOL    HW228011   4.693   3.672   3.639 -0.2775 -0.6380  0.4537
 5518SOL     OW28012   2.808   1.175  14.490  0.4630 -0.0068 -0.4930
 5518SOL    HW128013   2.845   1.257  14.524  1.2661 -0.7134  0.3535
 5518SOL    HW228014   2.839   1.173  14.400  0.4800  3.0419 -0.5633
 5519SOL     OW28015   0.144   4.520  12.265 -0.3060 -0.4595  0.1704
 5519SOL    HW128016   0.069   4.569  12.232  0.6077  0.4447 -0.5613
 5519SOL    HW228017   0.197   4.593  12.299 -1.4193  1.4182 -2.1697
 5520SOL     OW28018   3.441   2.726  11.666 -0.1229  0.3242 -0.1711
 5520SOL    HW128019   3.476   2.715  11.755  0.6507 -1.0769 -0.6610
 5520SOL    HW228020   3.509   2.771  11.616  1.0693  0.1188  1.2715
 5521SOL     OW28021   2.788   1.038   6.498 -0.1454  0.3904  0.0148
 5521SOL    HW128022   2.837   1.118   6.519 -2.0147  1.2419  1.1726
 5521SOL    HW228023   2.704   1.059   6.537 -0.5860 -0.8362 -0.2791
 5522SOL     OW28024   1.639   4.191   3.425  0.0484 -0.2900  0.0957
 5522SOL    HW128025   1.563   4.169   3.478  1.3494  3.3866  3.5078
 5522SOL    HW228026   1.691   4.111   3.427  1.2534  0.4702 -1.0081
 5523SOL     OW28027   0.868   1.629   7.000  0.1850 -0.4307 -0.0901
 5523SOL    HW128028   0.842   1.640   6.908 -0.9534  0.5708  0.3577
 5523SOL    HW228029   0.790   1.582   7.030  0.6886 -0.7481  0.6913
 5524SOL     OW28030   4.523   2.244   9.179 -0.1715 -0.6211 -0.3438
 5524SOL    HW128031   4.445   2.293   9.203 -0.4892 -1.4130  0.2678
 5524SOL    HW228032   4.587   2.314   9.166 -0.6616  0.0440  0.8400
 5525SOL     OW28033   4.191   4.692   7.670  0.4915 -1.0005  0.1223
 5525SOL    HW128034   4.200   4.604   7.706 -2.3005 -1.8484 -1.2025
 5525SOL    HW228035   4.247   0.014   7.732  0.3470 -2.7740  1.5996
 5526SOL     OW28036   1.922   3.204   2.378 -0.2993 -0.1540 -0.0712
 5526SOL    HW128037   1.967   3.277   2.421  2.6729 -1.8149 -0.4395
 5526SOL    HW228038   1.952   3.128   2.427  1.1735  0.1291 -0.5390
 5527SOL     OW28039   1.837   0.430   5.433 -0.1702  0.4829 -0.8973
 5527SOL    HW128040   1.860   0.487   5.360 -0.1824  0.1499 -1.1651
 5527SOL    HW228041   1.742   0.437   5.423 -0.0940 -0.4614 -2.2792
 5528SOL     OW28042   1.983   3.848   4.638 -0.5213 -0.6259 -0.2541
 5528SOL    HW128043   2.002   3.761   4.603  0.8997 -0.9377  1.3039
 5528SOL    HW228044   2.071   3.875   4.666 -0.4214 -3.0086  1.7495
 5529SOL     OW28045   4.502   1.985   7.601 -0.2916 -0.2065 -0.5185
 5529SOL    HW128046   4.509   1.960   7.509 -1.0023  0.5478 -0.7797
 5529SOL    HW228047   4.461   2.071   7.599 -0.5656 -0.3265  0.1952
 5530SOL     OW28048   1.593   0.054   1.808 -0.3161  0.4408 -0.5038
 5530SOL    HW128049   1.526   0.120   1.827  1.0076  0.3483  4.5552
 5530SOL    HW228050   1.676   0.102   1.797  0.0248  0.1895  0.9537
 5531SOL     OW28051   3.852   1.341   2.928 -0.1298 -0.2576  0.3618
 5531SOL    HW128052   3.797   1.263   2.925  0.7582 -0.8877  0.4805
 5531SOL    HW228053   3.944   1.320   2.915  0.1807  1.5592 -0.4128
 5532SOL     OW28054   0.537   2.649  12.323 -0.2053  0.1576  0.3931
 5532SOL    HW128055   0.502   2.673  12.237 -0.0733  1.0149  0.5748
 5532SOL    HW228056   0.537   2.736  12.363  1.6971  0.2673  0.1401
 5533SOL     OW28057   0.738   3.467   8.471  0.2876  1.0349 -0.5450
 5533SOL    HW128058   0.790   3.387   8.469  0.0939  0.9122 -0.6378
 5533SOL    HW228059   0.648   3.436   8.480  0.4571  0.5255 -0.6245
 5534SOL     OW28060   0.813   0.339   1.257 -0.2555 -0.0054 -0.2309
 5534SOL    HW128061   0.863   0.324   1.338 -1.7195 -1.0141  0.4828
 5534SOL    HW228062   0.775   0.424   1.280 -2.7914 -0.6215 -2.1927
 5535SOL     OW28063   0.302   2.211   3.751 -0.2579  0.0284  0.4599
 5535SOL    HW128064   0.350   2.284   3.714 -1.1425 -1.3645 -3.3748
 5535SOL    HW228065   0.317   2.139   3.690  1.4616 -0.9063  1.9663
 5536SOL     OW28066   1.996   1.876  16.862 -0.4618 -0.5616  0.7630
 5536SOL    HW128067   1.937   1.850  16.932 -0.7906 -1.5654  0.1185
 5536SOL    HW228068   2.080   1.880  16.906 -0.9517  1.1061  1.5587
 5537SOL     OW28069   3.867   2.870  16.221 -0.0325 -0.3004  0.9795
 5537SOL    HW128070   3.850   2.957  16.184 -1.1843  0.9160  4.4005
 5537SOL    HW228071   3.958   2.869  16.251  0.6428 -1.3279 -1.0897
 5538SOL     OW28072   1.339   3.703   9.592  0.2756 -0.8291 -0.0392
 5538SOL    HW128073   1.368   3.740   9.675  0.8440 -2.7160  0.5994
 5538SOL    HW228074   1.257   3.662   9.620 -0.1709 -0.4094 -0.7359
 5539SOL     OW28075   2.079   3.830   8.115  0.1166 -0.1770  0.7734
 5539SOL    HW128076   2.152   3.853   8.173  1.3414 -1.7504 -0.1300
 5539SOL    HW228077   2.017   3.802   8.181  2.1400  1.2691  3.2646
 5540SOL     OW28078   0.672   0.873  16.305 -0.2959  0.4326  0.3707
 5540SOL    HW128079   0.587   0.847  16.269  1.0940 -0.8720 -1.9419
 5540SOL    HW228080   0.694   0.949  16.250 -1.2919  0.7604  0.4211
 5541SOL     OW28081   3.165   3.252   2.112  0.0643  0.5036  0.2022
 5541SOL    HW128082   3.150   3.217   2.024  0.7804  3.4114 -1.0746
 5541SOL    HW228083   3.073   3.262   2.133 -0.5739 -0.5576 -2.0437
 5542SOL     OW28084   1.290   1.467   6.622 -0.2407  0.1734 -0.6121
 5542SOL    HW128085   1.287   1.374   6.642  1.5394  0.1881 -0.2967
 5542SOL    HW228086   1.321   1.465   6.531 -0.7816  1.0314 -0.8236
 5543SOL     OW28087   1.195   1.566  12.376 -0.0064  0.3229 -0.6971
 5543SOL    HW128088   1.242   1.627  12.433  1.0039  0.2145 -1.4040
 5543SOL    HW228089   1.233   1.484  12.407 -1.4107 -0.7375 -1.8151
 5544SOL     OW28090   1.254   3.189   2.288 -0.3697 -0.0323 -0.0377
 5544SOL    HW128091   1.184   3.188   2.222  0.5856  1.7211 -1.0595
 5544SOL    HW228092   1.206   3.189   2.371 -1.2211  0.9172 -0.5272
 5545SOL     OW28093   4.027   1.887   1.676  0.2410  0.1073 -0.9428
 5545SOL    HW128094   4.110   1.841   1.663 -0.0067 -0.5309 -0.2718
 5545SOL    HW228095   4.013   1.880   1.770 -1.9727  0.5269 -1.2545
 5546SOL     OW28096   3.895   1.168  10.725 -0.3996 -0.0990 -0.1481
 5546SOL    HW128097   3.802   1.149  10.710 -0.5969  1.5847 -1.0421
 5546SOL    HW228098   3.885   1.256  10.761  0.9201 -0.0786  0.1679
 5547SOL     OW28099   1.782   4.498  16.289 -0.5082 -0.6297  0.1740
 5547SOL    HW128100   1.825   4.430  16.341 -0.1011 -0.7145 -0.2683
 5547SOL    HW228101   1.689   4.481  16.301 -1.1039  1.9898 -0.6657
 5548SOL     OW28102   1.995   2.855   5.028  0.0670 -0.4031  0.3938
 5548SOL    HW128103   2.068   2.873   4.969 -1.2581  1.3859 -0.6896
 5548SOL    HW228104   1.990   2.760   5.024 -0.1144 -0.5491  3.6882
 5549SOL     OW28105   0.787   4.217  17.024  0.0276  0.1005 -0.6692
 5549SOL    HW128106   0.771   4.212  16.930 -4.3316  1.2065  0.0100
 5549SOL    HW228107   0.716   4.172  17.069 -0.5334  0.6305 -1.0249
 5550SOL     OW28108   3.248   2.866  14.022  0.3334 -0.5646 -0.0427
 5550SOL    HW128109   3.177   2.806  14.044 -1.1844  1.9414  1.8847
 5550SOL    HW228110   3.321   2.811  14.049  1.1827 -0.5255 -2.2108
 5551SOL     OW28111   0.702   0.103  14.173  0.6967  0.1194  0.2302
 5551SOL    HW128112   0.662   0.166  14.113 -0.3026 -0.8094 -0.0672
 5551SOL    HW228113   0.738   0.033  14.119  0.0165  2.6765 -3.5577
 5552SOL     OW28114   2.623   4.011  17.471  0.2399 -0.2961  0.2035
 5552SOL    HW128115   2.647   3.945  17.536  0.5763 -0.7683 -0.3968
 5552SOL    HW228116   2.691   4.079  17.475  0.2637 -0.2835 -0.3538
 5553SOL     OW28117   2.190   1.078   4.541 -0.3419  0.4888 -0.2219
 5553SOL    HW128118   2.220   0.996   4.580  0.9619  0.8060 -0.5581
 5553SOL    HW228119   2.174   1.059   4.449 -1.1884 -1.4955  0.3593
 5554SOL     OW28120   0.709   2.547   5.165 -0.1263  0.3942 -0.2926
 5554SOL    HW128121   0.742   2.520   5.079  3.0059  0.7281  0.7767
 5554SOL    HW228122   0.622   2.509   5.153 -0.5670  1.1933  0.3748
 5555SOL     OW28123   3.826   1.320   2.207  0.0571 -0.1637  0.2900
 5555SOL    HW128124   3.805   1.390   2.144  0.5184  1.0076  1.4386
 5555SOL    HW228125   3.882   1.357   2.275  0.2057 -0.4676  0.3324
 5556SOL     OW28126   0.449   1.902  14.490 -0.0886 -0.2842  0.3037
 5556SOL    HW128127   0.397   1.916  14.569  0.5516  0.9322  0.5049
 5556SOL    HW228128   0.483   1.990  14.473  0.4275 -0.5393  0.0142
 5557SOL     OW28129   0.597   4.062  17.140  0.6311 -0.5874  0.0541
 5557SOL    HW128130   0.666   4.063  17.206 -0.7915  0.3851  1.5331
 5557SOL    HW228131   0.560   3.975  17.155 -2.4218  0.6196 -0.3567
 5558SOL     OW28132   0.415   0.426   3.807  0.2682 -0.0133  0.4898
 5558SOL    HW128133   0.473   0.447   3.735 -0.6483  0.3844 -0.1343
 5558SOL    HW228134   0.336   0.390   3.767 -0.6123 -0.6155  2.7380
 5559SOL     OW28135   1.189   4.697   4.584 -0.1907 -0.5775  0.3942
 5559SOL    HW128136   1.207   0.039   4.517 -0.7392  2.0530  2.8551
 5559SOL    HW228137   1.099   4.677   4.555 -0.8403  0.0444  1.9716
 5560SOL     OW28138   0.322   0.449   7.899  0.1821  0.6905 -0.8695
 5560SOL    HW128139   0.302   0.536   7.866  0.7983  0.4822 -1.8232
 5560SOL    HW228140   0.407   0.435   7.857 -0.3424 -1.5778 -1.2224
 5561SOL     OW28141   1.281   2.488   2.949  0.5330  0.4767 -0.0796
 5561SOL    HW128142   1.311   2.404   2.985  1.8233 -0.1977 -2.7319
 5561SOL    HW228143   1.225   2.450   2.881 -0.5642  2.8034 -0.4670
 5562SOL     OW28144   4.316   1.167   0.096 -0.1964 -0.0921  0.1742
 5562SOL    HW128145   4.232   1.154   0.051  2.3294 -3.5833 -3.5304
 5562SOL    HW228146   4.309   1.262   0.100  4.7303  0.2245  0.7437
 5563SOL     OW28147   2.834   4.688  16.882  0.0189 -0.3705 -0.0122
 5563SOL    HW128148   2.832   4.651  16.970  0.1359 -2.1738 -0.7648
 5563SOL    HW228149   2.742   4.666  16.864  0.6874 -1.3820 -2.1629
 5564SOL     OW28150   0.558   2.596   9.397  0.2399 -0.0277  0.0311
 5564SOL    HW128151   0.514   2.543   9.464  1.8464 -2.6910 -1.0245
 5564SOL    HW228152   0.488   2.651   9.362 -0.3346  0.5323  2.0329
 5565SOL     OW28153   1.736   3.578   5.968 -0.3928 -0.0762  0.2277
 5565SOL    HW128154   1.823   3.539   5.969 -0.3062  0.0743 -1.0207
 5565SOL    HW228155   1.697   3.491   5.964  0.7818 -0.4935 -2.1600
 5566SOL     OW28156   2.135   3.590   6.916  0.0221 -0.5039  0.1834
 5566SOL    HW128157   2.122   3.649   6.842  2.2341  2.1021  1.8475
 5566SOL    HW228158   2.125   3.652   6.988  0.5390  1.1492 -1.1804
 5567SOL     OW28159   4.032   1.663   3.783 -0.0471 -0.0231 -0.1789
 5567SOL    HW128160   4.093   1.589   3.779 -2.6819 -2.2234  1.0200
 5567SOL    HW228161   3.986   1.641   3.703 -0.2413  1.3170 -0.4307
 5568SOL     OW28162   4.619   4.369   1.367  0.0790  0.0166  0.3787
 5568SOL    HW128163   4.684   4.301   1.385 -1.3163 -1.8036 -1.5110
 5568SOL    HW228164   4.664   4.446   1.402  0.2605  1.3811 -2.8392
 5569SOL     OW28165   1.743   2.678   0.342  0.2536  0.3163 -0.4036
 5569SOL    HW128166   1.768   2.653   0.253  0.2549 -0.9490 -0.0484
 5569SOL    HW228167   1.777   2.605   0.394 -0.3314 -0.0919 -0.5875
 5570SOL     OW28168   2.729   2.128   5.194 -0.0888  0.2547  0.5212
 5570SOL    HW128169   2.668   2.167   5.256  1.8419  0.9284  1.9970
 5570SOL    HW228170   2.717   2.037   5.221  0.9720  0.2622  1.0147
 5571SOL     OW28171   4.584   1.942  13.847  0.0466  0.1750  0.0223
 5571SOL    HW128172   4.582   1.986  13.932 -1.4124 -0.7417  0.4455
 5571SOL    HW228173   4.563   2.015  13.788 -0.6616  0.0827  0.1650
 5572SOL     OW28174   0.846   1.365   6.713  0.6051 -0.3264  0.1279
 5572SOL    HW128175   0.897   1.343   6.792 -0.3936 -2.0537  0.2894
 5572SOL    HW228176   0.875   1.453   6.690  1.9709 -0.6636  0.4930
 5573SOL     OW28177   1.897   1.034   7.856 -0.3087  0.3916 -0.1740
 5573SOL    HW128178   1.842   1.081   7.919  0.5050  0.0720  0.7728
 5573SOL    HW228179   1.970   1.006   7.911  0.3108 -0.5092 -1.4382
 5574SOL     OW28180   3.863   1.771   8.137 -0.1649 -0.0797  0.1773
 5574SOL    HW128181   3.908   1.834   8.081  0.9067 -1.0283 -0.0395
 5574SOL    HW228182   3.870   1.703   8.070 -0.1822 -1.0250  1.1317
 5575SOL     OW28183   1.311   0.047   5.311  0.1170  0.4585 -0.0083
 5575SOL    HW128184   1.381   4.709   5.332  1.8219  1.8683 -1.4769
 5575SOL    HW228185   1.244   0.021   5.374 -0.9279 -2.7604 -2.4324
 5576SOL     OW28186   4.674   2.558   3.372  0.0741  0.0965 -0.3858
 5576SOL    HW128187   4.645   2.469   3.353 -0.1091  0.1145 -0.1856
 5576SOL    HW228188   4.665   2.564   3.467 -0.5403 -0.2145 -0.4304
 5577SOL     OW28189   4.420   0.132   1.755  0.0203  0.0276  0.6504
 5577SOL    HW128190   4.472   0.180   1.820 -1.5699  0.5490  1.5366
 5577SOL    HW228191   4.354   0.084   1.805  0.5931 -0.0706  1.3113
 5578SOL     OW28192   3.379   3.894   7.924 -0.3580 -0.0424 -0.5562
 5578SOL    HW128193   3.441   3.833   7.883  1.3553  0.8293  0.7189
 5578SOL    HW228194   3.342   3.836   7.991 -1.7700  0.0887 -1.2350
 5579SOL     OW28195   0.685   3.403  16.597 -0.1666 -0.0251 -0.2839
 5579SOL    HW128196   0.596   3.384  16.628 -0.0344 -0.8397 -0.4008
 5579SOL    HW228197   0.743   3.361  16.661 -1.9835 -1.2934  0.5186
 5580SOL     OW28198   1.331   3.893   6.108  0.4139 -0.6701  0.2999
 5580SOL    HW128199   1.367   3.878   6.195 -2.7814  0.8954  1.8651
 5580SOL    HW228200   1.407   3.938   6.069 -1.2656  0.5048 -1.6202
 5581SOL     OW28201   1.045   3.887   9.639  0.2967 -0.2849  0.7613
 5581SOL    HW128202   0.955   3.855   9.648  1.0379 -2.5590  0.1531
 5581SOL    HW228203   1.088   3.813   9.681  1.9239  1.6184  2.4157
 5582SOL     OW28204   1.170   2.637   6.440 -0.1076  0.4087 -0.1471
 5582SOL    HW128205   1.161   2.686   6.358 -1.2635  0.4738  0.0204
 5582SOL    HW228206   1.261   2.607   6.447 -0.2036  0.2112  0.2311
 5583SOL     OW28207   4.461   4.321   5.865 -0.2087 -0.5669 -0.5416
 5583SOL    HW128208   4.518   4.393   5.839  1.0558 -0.6364  2.0404
 5583SOL    HW228209   4.479   4.322   5.959 -1.9630 -0.9804 -0.2012
 5584SOL     OW28210   3.980   2.879   8.716 -0.6026  0.7630  0.1228
 5584SOL    HW128211   3.933   2.930   8.781 -1.3339 -1.5605  1.4179
 5584SOL    HW228212   4.011   2.951   8.661  0.6272  1.1296  1.3161
 5585SOL     OW28213   1.841   4.014   1.065 -0.4972  0.3158  0.1418
 5585SOL    HW128214   1.801   3.954   1.002 -0.6878 -0.8210  1.3432
 5585SOL    HW228215   1.907   4.043   1.002 -0.3699  0.3927  0.3109
 5586SOL     OW28216   1.459   2.391   6.967 -0.4310  0.5132 -0.4503
 5586SOL    HW128217   1.481   2.389   6.874 -0.1385 -1.8829 -0.3388
 5586SOL    HW228218   1.423   2.303   6.973  0.6232  0.1424  0.4783
 5587SOL     OW28219   4.689   3.037   3.217  0.5674  0.1528 -0.6869
 5587SOL    HW128220   4.675   3.044   3.123 -3.6184 -2.2648 -0.2607
 5587SOL    HW228221   4.669   2.943   3.223  0.6893  0.2545  1.6579
 5588SOL     OW28222   3.634   3.721   6.296 -0.1428  0.5621 -0.2945
 5588SOL    HW128223   3.607   3.642   6.248  1.6765 -0.3007  0.1204
 5588SOL    HW228224   3.695   3.682   6.358  0.0532  2.1659  0.5126
 5589SOL     OW28225   1.804   4.072   5.996  0.1086 -0.2689  0.6029
 5589SOL    HW128226   1.869   4.070   6.067  0.3186  1.0886  0.4585
 5589SOL    HW228227   1.868   4.048   5.929  0.4082 -1.0368  1.1748
 5590SOL     OW28228   4.016   3.258  15.496 -0.2985 -0.1539 -0.6784
 5590SOL    HW128229   4.094   3.259  15.440 -0.5246 -1.6955 -1.0295
 5590SOL    HW228230   3.994   3.165  15.500 -2.4876  0.5026  1.8152
 5591SOL     OW28231   1.973   4.365   9.508 -0.4436 -1.0161  0.6438
 5591SOL    HW128232   1.916   4.356   9.584 -0.7273  1.8825  0.7921
 5591SOL    HW228233   1.918   4.315   9.449  1.0365 -0.9444 -0.8082
 5592SOL     OW28234   4.716   2.079  13.136 -0.0772  0.1608 -0.1679
 5592SOL    HW128235   0.081   2.060  13.165  0.4337  1.2609 -1.0185
 5592SOL    HW228236   4.678   2.018  13.199  0.8849  0.1131  0.3536
 5593SOL     OW28237   1.345   3.315   5.070 -0.1554 -0.3864  0.2202
 5593SOL    HW128238   1.306   3.299   5.156  2.2887 -0.8452  1.2398
 5593SOL    HW228239   1.436   3.290   5.083  0.0348 -0.0241 -0.4260
 5594SOL     OW28240   0.149   1.983   0.918  0.0555 -0.0078 -0.5001
 5594SOL    HW128241   0.087   1.939   0.976  0.9163 -1.7812 -0.9133
 5594SOL    HW228242   0.100   2.065   0.916  2.0909  1.1953 -1.1055
 5595SOL     OW28243   4.244   0.485   9.357  0.0642 -0.5805 -0.2273
 5595SOL    HW128244   4.284   0.527   9.433  1.1090  1.3933 -1.8774
 5595SOL    HW228245   4.267   0.393   9.369  1.7750 -0.0793  0.2367
 5596SOL     OW28246   4.297   1.867  14.986 -0.1144  0.2671  0.0428
 5596SOL    HW128247   4.309   1.961  14.970  0.2120  0.1712 -0.3051
 5596SOL    HW228248   4.303   1.833  14.896  0.5284  2.3120 -0.6919
 5597SOL     OW28249   0.100   0.454   4.054 -0.1284 -0.3105 -0.8255
 5597SOL    HW128250   0.164   0.513   4.014  1.5912  0.7177  3.3615
 5597SOL    HW228251   0.074   0.508   4.129 -2.0309 -2.1985 -0.1577
 5598SOL     OW28252   4.212   2.218  14.162  1.1209  0.2980 -0.3949
 5598SOL    HW128253   4.166   2.186  14.084  1.0081  1.0224 -0.6299
 5598SOL    HW228254   4.167   2.171  14.232  1.2701 -2.6576 -2.2804
 5599SOL     OW28255   2.165   3.434   9.678 -0.4900  0.6671 -0.3305
 5599SOL    HW128256   2.194   3.346   9.654  0.2418  0.9594 -0.5225
 5599SOL    HW228257   2.251   3.474   9.670 -0.7105  1.0583 -0.7795
 5600SOL     OW28258   4.573   3.202   2.399  0.4644 -0.1672  0.3587
 5600SOL    HW128259   4.604   3.134   2.459 -1.5765  0.3030  1.9380
 5600SOL    HW228260   4.627   3.275   2.429 -1.3787  2.9961 -3.9373
 5601SOL     OW28261   2.176   4.365   3.802 -0.9898  0.1513  0.4085
 5601SOL    HW128262   2.126   4.433   3.758 -0.1473 -1.4070 -2.8945
 5601SOL    HW228263   2.220   4.326   3.727  0.7976  1.3381  0.8510
 5602SOL     OW28264   3.440   2.077   4.323 -0.4838  0.1698 -0.0833
 5602SOL    HW128265   3.385   2.029   4.385  1.1514 -2.6331 -0.8045
 5602SOL    HW228266   3.449   2.167   4.355  1.5824 -0.0639  0.0084
 5603SOL     OW28267   4.091   3.187   0.980 -0.0589 -0.0043 -0.2001
 5603SOL    HW128268   3.998   3.168   0.971 -0.2269  0.9240 -0.4419
 5603SOL    HW228269   4.088   3.232   1.064 -1.5257  1.8255 -1.2316
 5604SOL     OW28270   0.562   3.622  11.678  0.1936  0.0867  0.1094
 5604SOL    HW128271   0.628   3.586  11.619 -0.6179 -2.2973  0.6103
 5604SOL    HW228272   0.525   3.674  11.606  0.4229 -1.8007 -1.3791
 5605SOL     OW28273   0.981   3.903   7.106  0.0137 -0.3106  0.4944
 5605SOL    HW128274   0.996   3.873   7.196  2.5328  0.8341  0.4527
 5605SOL    HW228275   0.914   3.970   7.116  0.7523  0.6207 -0.8589
 5606SOL     OW28276   4.246   3.989   5.159 -0.0258  0.1887 -0.5492
 5606SOL    HW128277   4.288   3.916   5.115  1.0303  0.6611 -0.3241
 5606SOL    HW228278   4.170   4.014   5.106  0.3521  1.0723 -0.6803
 5607SOL     OW28279   3.296   3.153   3.443  0.1058 -0.1578 -0.1048
 5607SOL    HW128280   3.213   3.183   3.405  0.9117  2.4574  0.2002
 5607SOL    HW228281   3.299   3.193   3.530 -0.9862 -0.5914  0.1325
 5608SOL     OW28282   0.936   0.085   6.243 -0.1289 -0.4392 -0.0826
 5608SOL    HW128283   0.915   0.034   6.164 -0.9688  0.8360 -0.6925
 5608SOL    HW228284   0.915   0.175   6.218  0.4271  0.2604  2.0248
 5609SOL     OW28285   3.710   0.390  17.679 -0.7498  0.3331 -0.0506
 5609SOL    HW128286   3.634   0.426  17.633 -0.3917 -0.9168 -1.6078
 5609SOL    HW228287   3.669   0.319   0.031 -0.4598  0.9048  0.9870
 5610SOL     OW28288   4.224   0.913   7.910  0.6061  0.1719 -0.1131
 5610SOL    HW128289   4.159   0.874   7.968  0.8779  0.4815  0.4042
 5610SOL    HW228290   4.224   0.847   7.841 -0.3184  0.5552 -0.4849
 5611SOL     OW28291   0.861   4.181   3.176  0.5791  0.0989 -0.2366
 5611SOL    HW128292   0.900   4.268   3.173 -1.2362  0.8519 -2.3979
 5611SOL    HW228293   0.898   4.147   3.095 -0.8348  0.7734 -1.1640
 5612SOL     OW28294   0.726   0.642   3.979 -0.3029 -0.5126 -0.1723
 5612SOL    HW128295   0.693   0.639   4.069 -3.0237 -0.9718 -1.1866
 5612SOL    HW228296   0.817   0.614   3.991 -0.4595 -0.8238  0.2669
 5613SOL     OW28297   2.620   3.609  15.299  0.1740 -0.0535  0.0314
 5613SOL    HW128298   2.690   3.543  15.300 -0.9878 -1.2695  0.9742
 5613SOL    HW228299   2.623   3.628  15.205  2.2433 -0.0839  0.0794
 5614SOL     OW28300   4.181   0.600  15.317  0.0064  0.1045  0.6995
 5614SOL    HW128301   4.204   0.508  15.320  1.0876  0.3471 -0.0981
 5614SOL    HW228302   4.128   0.610  15.396  1.5832  2.1663  1.5179
 5615SOL     OW28303   2.496   4.672   7.202  1.0542 -0.1570  0.4656
 5615SOL    HW128304   2.550   0.015   7.244  0.7312  1.1282 -1.1958
 5615SOL    HW228305   2.544   4.658   7.120  0.4939  2.3810 -0.3071
 5616SOL     OW28306   1.096   4.360   0.369 -0.3896 -0.0312  0.2621
 5616SOL    HW128307   1.165   4.396   0.314 -1.7866 -0.6216 -1.8811
 5616SOL    HW228308   1.016   4.399   0.335 -0.0911  3.0211  3.0049
 5617SOL     OW28309   1.788   4.459  13.828  0.0243  0.0508 -0.0568
 5617SOL    HW128310   1.862   4.426  13.777 -1.6118 -0.4068 -2.1587
 5617SOL    HW228311   1.775   4.547  13.794  0.8688 -0.3629 -1.4650
 5618SOL     OW28312   1.907   0.232   2.626 -0.2692 -0.0180 -0.7504
 5618SOL    HW128313   1.877   0.217   2.715 -0.3408  0.4824 -0.6920
 5618SOL    HW228314   1.979   0.169   2.625 -0.5719 -0.4000  1.4927
 5619SOL     OW28315   4.526   3.472   1.461 -0.6844 -0.5495  0.3206
 5619SOL    HW128316   4.601   3.485   1.403 -3.6663  3.1932 -2.6491
 5619SOL    HW228317   4.538   3.384   1.496  0.2773 -0.1233  1.0831
 5620SOL     OW28318   2.132   0.683   1.534  0.5571 -0.6746 -0.5463
 5620SOL    HW128319   2.147   0.707   1.626  1.1249  2.8667 -1.5906
 5620SOL    HW228320   2.097   0.767   1.505  1.0466 -0.0803  0.5802
 5621SOL     OW28321   0.772   2.850  14.736  0.1009  0.7947  0.1779
 5621SOL    HW128322   0.697   2.901  14.705 -0.6323  0.9805  2.2571
 5621SOL    HW228323   0.822   2.843  14.655  1.0632  2.0198  0.6638
 5622SOL     OW28324   0.011   2.402   7.232  0.4986  0.0469 -0.1046
 5622SOL    HW128325   0.003   2.392   7.327 -2.2881  0.6072 -0.2792
 5622SOL    HW228326   4.680   2.329   7.204  1.4843  0.6582 -3.6522
 5623SOL     OW28327   1.332   2.337   7.252  0.4998 -0.0869 -0.2664
 5623SOL    HW128328   1.289   2.408   7.204  2.3599  0.1454 -1.6147
 5623SOL    HW228329   1.268   2.318   7.321  0.5557  0.8319  0.0347
 5624SOL     OW28330   4.040   0.926   3.772 -0.3605 -0.0646 -0.2401
 5624SOL    HW128331   3.952   0.904   3.805 -0.8307  2.2306  0.0162
 5624SOL    HW228332   4.072   0.984   3.840  0.9063  0.0432 -0.9362
 5625SOL     OW28333   0.924   3.792  13.047 -0.4803 -0.2731  0.1600
 5625SOL    HW128334   0.845   3.843  13.034 -0.5687 -0.3064  0.5899
 5625SOL    HW228335   0.983   3.867  13.041  0.7565 -1.1705  1.0176
 5626SOL     OW28336   4.367   0.964  17.488  0.2742 -0.5611 -0.0384
 5626SOL    HW128337   4.332   0.906  17.421  2.1694  0.8339 -2.2435
 5626SOL    HW228338   4.299   1.030  17.502  0.0035 -0.9673  0.5292
 5627SOL     OW28339   2.740   0.124   4.867 -0.1458  0.0026 -0.1345
 5627SOL    HW128340   2.706   0.152   4.782  0.8554 -1.8038 -1.1424
 5627SOL    HW228341   2.789   0.195   4.908 -1.0714  0.0155  0.9509
 5628SOL     OW28342   3.653   1.023  11.567  0.2172 -0.3796  0.5390
 5628SOL    HW128343   3.665   0.993  11.477 -0.0889 -0.8015  0.6374
 5628SOL    HW228344   3.723   0.971  11.605 -1.1836 -2.6305  0.0068
 5629SOL     OW28345   2.768   2.791  14.995  0.1635 -0.5906 -0.2712
 5629SOL    HW128346   2.783   2.862  15.058 -0.6426  0.8548 -1.7284
 5629SOL    HW228347   2.835   2.728  15.024 -0.1219 -1.3856 -1.3603
 5630SOL     OW28348   1.503   0.263   9.745  0.2091 -0.2526 -0.2396
 5630SOL    HW128349   1.561   0.252   9.670  0.8395  0.8918  0.0778
 5630SOL    HW228350   1.429   0.306   9.701 -0.6701 -2.4980 -0.9596
 5631SOL     OW28351   3.055   0.118   3.235 -0.0311  0.1785 -0.4881
 5631SOL    HW128352   3.017   0.051   3.178  1.3471 -0.9195 -0.1133
 5631SOL    HW228353   2.971   0.145   3.273 -0.7987  0.0788 -2.1110
 5632SOL     OW28354   3.495   3.237  14.121 -0.0652  0.0785 -0.2653
 5632SOL    HW128355   3.461   3.327  14.121  0.2894  0.2105  0.5520
 5632SOL    HW228356   3.539   3.232  14.205 -1.0804 -2.4358  0.0987
 5633SOL     OW28357   3.123   3.185   3.104 -0.4832 -0.4791  0.4569
 5633SOL    HW128358   3.137   3.112   3.164  1.5550 -0.1330  0.4058
 5633SOL    HW228359   3.091   3.141   3.026  1.0855 -0.7124 -0.0508
 5634SOL     OW28360   0.831   2.739   8.505 -0.6106  0.0820  0.5408
 5634SOL    HW128361   0.908   2.787   8.534 -1.2455  1.6962 -0.3901
 5634SOL    HW228362   0.809   2.689   8.583  0.8283 -1.1984  0.1093
 5635SOL     OW28363   1.086   2.343  10.206 -0.1732  0.1616 -0.2417
 5635SOL    HW128364   1.151   2.356  10.275 -1.3033 -1.0120  1.0276
 5635SOL    HW228365   1.008   2.331  10.260  0.5703 -1.4560  0.4679
 5636SOL     OW28366   1.223   4.162   8.401 -0.3304  0.2063  0.2359
 5636SOL    HW128367   1.144   4.199   8.440 -2.1083  0.0425 -3.2216
 5636SOL    HW228368   1.236   4.085   8.456 -0.8849  1.0143  1.4892
 5637SOL     OW28369   4.492   3.711   1.690 -0.0266  0.2327  0.0385
 5637SOL    HW128370   4.551   3.785   1.705  0.3846 -0.2429  0.7423
 5637SOL    HW228371   4.518   3.679   1.603 -1.6261  3.7600 -1.7541
 5638SOL     OW28372   2.903   0.392   5.100 -0.0260  0.1401 -0.0151
 5638SOL    HW128373   2.839   0.454   5.134 -1.6337 -0.9841 -1.0089
 5638SOL    HW228374   2.890   0.395   5.005  0.1454  2.8760  0.0322
 5639SOL     OW28375   2.434   1.272   9.831 -0.2975  0.5043  0.2992
 5639SOL    HW128376   2.339   1.274   9.819 -0.2263  3.5546  0.2089
 5639SOL    HW228377   2.441   1.190   9.880 -0.0053  0.8104  0.7739
 5640SOL     OW28378   1.948   4.390   0.938  0.5718  0.1685  0.0897
 5640SOL    HW128379   1.981   4.300   0.929 -1.3926 -0.6197  0.8886
 5640SOL    HW228380   1.999   4.430   0.868  0.5568  0.3077  0.1594
 5641SOL     OW28381   1.603   0.809  16.481  0.2632  0.0754  0.0828
 5641SOL    HW128382   1.590   0.714  16.487  1.0888  0.0088  0.8637
 5641SOL    HW228383   1.513   0.838  16.463  0.2035 -0.6967 -0.8222
 5642SOL     OW28384   1.260   4.108   9.574 -0.4506  0.4395  0.2396
 5642SOL    HW128385   1.229   4.046   9.640  0.6768 -0.7733 -0.3816
 5642SOL    HW228386   1.207   4.090   9.497  0.4246 -0.6129 -0.1221
 5643SOL     OW28387   2.337   3.591   1.920 -0.2672 -0.3799  0.0321
 5643SOL    HW128388   2.301   3.597   1.832 -1.5530 -0.5236  0.5477
 5643SOL    HW228389   2.361   3.680   1.947 -0.1501 -0.3701 -0.1008
 5644SOL     OW28390   3.045   0.146  12.484  0.7218  0.0164 -0.5271
 5644SOL    HW128391   3.131   0.144  12.525 -0.5539 -0.4216  2.1169
 5644SOL    HW228392   3.052   0.221  12.425  0.0782  1.0502  0.7102
 5645SOL     OW28393   1.357   0.518   3.664 -0.5361  0.0749 -0.0930
 5645SOL    HW128394   1.371   0.568   3.744 -1.4182  0.3774 -0.1168
 5645SOL    HW228395   1.268   0.543   3.638 -0.3661  1.1493  0.3515
 5646SOL     OW28396   4.499   1.004   7.953 -0.4413 -0.7286  0.1539
 5646SOL    HW128397   4.473   1.042   8.038  3.2627  1.5036  0.2869
 5646SOL    HW228398   4.413   0.968   7.931 -0.3924  0.4866 -1.9899
 5647SOL     OW28399   2.348   2.555   1.856 -0.1070 -0.0662  0.0848
 5647SOL    HW128400   2.368   2.564   1.763  1.4705  0.1703  0.4409
 5647SOL    HW228401   2.329   2.648   1.869  2.2853  0.5301 -0.5076
 5648SOL     OW28402   3.855   4.188   1.755  0.0113  0.4568  0.1596
 5648SOL    HW128403   3.880   4.210   1.844  0.1335 -0.2382  0.2937
 5648SOL    HW228404   3.889   4.100   1.737 -1.4835  0.0160 -0.5695
 5649SOL     OW28405   2.452   0.147   4.549 -0.3764  0.3753 -0.4750
 5649SOL    HW128406   2.390   0.102   4.491 -0.2647  0.0235 -0.3197
 5649SOL    HW228407   2.396   0.212   4.591 -1.6056 -1.4196  0.6893
 5650SOL     OW28408   4.102   3.161   9.684  0.3097  0.3652  0.0163
 5650SOL    HW128409   4.166   3.118   9.741  0.3180  0.2173 -0.1019
 5650SOL    HW228410   4.068   3.219   9.751  1.1767  0.4618  0.3736
 5651SOL     OW28411   1.510   3.077   7.362  0.5361  0.4789 -0.2482
 5651SOL    HW128412   1.571   3.007   7.385 -0.0424 -0.1269 -0.5527
 5651SOL    HW228413   1.524   3.133   7.439  0.2608 -1.2266  1.0544
 5652SOL     OW28414   2.472   0.352  15.332 -0.0082 -0.1281 -0.2495
 5652SOL    HW128415   2.531   0.355  15.406  0.5636 -0.0991 -0.7060
 5652SOL    HW228416   2.528   0.398  15.269  0.0284  0.7205  0.4084
 5653SOL     OW28417   4.003   2.286   6.325 -0.2744  0.1594 -0.1995
 5653SOL    HW128418   4.036   2.218   6.383  0.2631 -1.3663 -2.3068
 5653SOL    HW228419   3.953   2.227   6.270  0.1460  1.0116 -1.4967
 5654SOL     OW28420   4.260   0.628   6.060 -0.5184 -0.0711 -0.1567
 5654SOL    HW128421   4.190   0.563   6.075 -0.9978  0.2495 -1.0390
 5654SOL    HW228422   4.344   0.582   6.051 -0.4628  0.1433 -0.7202
 5655SOL     OW28423   2.932   1.127   3.164 -0.4228  0.1154 -0.1382
 5655SOL    HW128424   3.014   1.083   3.141 -1.2055 -0.9157 -0.9734
 5655SOL    HW228425   2.904   1.156   3.077  0.3861  0.3677 -0.3115
 5656SOL     OW28426   0.443   3.437  12.586 -0.6364 -0.1437  0.6124
 5656SOL    HW128427   0.368   3.378  12.582 -0.2311 -0.6664  0.6194
 5656SOL    HW228428   0.475   3.446  12.497  1.4565 -0.0028  1.3655
 5657SOL     OW28429   0.224   1.513  14.315 -0.1767  0.2382 -0.2295
 5657SOL    HW128430   0.230   1.565  14.395 -1.1758  0.3705 -0.2473
 5657SOL    HW228431   0.153   1.562  14.274 -0.0544  3.0099  2.8344
 5658SOL     OW28432   4.498   3.224   3.241 -0.2942  0.0697 -0.5322
 5658SOL    HW128433   4.576   3.167   3.241 -0.0998  0.3305  0.2230
 5658SOL    HW228434   4.422   3.166   3.246  0.1710 -0.4417  0.7942
 5659SOL     OW28435   4.507   2.556   4.710 -0.1545 -0.3503  0.0404
 5659SOL    HW128436   4.418   2.522   4.717 -0.9021  1.6880  0.4313
 5659SOL    HW228437   4.537   2.480   4.660 -0.6056 -0.2866 -0.3268
 5660SOL     OW28438   3.023   2.189   9.066 -0.3960  0.0854  0.4276
 5660SOL    HW128439   2.927   2.188   9.065 -0.3863  0.8429 -1.6126
 5660SOL    HW228440   3.048   2.097   9.078  0.7550  0.5988  1.8877
 5661SOL     OW28441   0.651   3.776   8.769  0.2680  0.2108  0.3553
 5661SOL    HW128442   0.596   3.701   8.788  1.5233 -0.5721  0.8405
 5661SOL    HW228443   0.607   3.812   8.692  2.5284  2.1970 -0.0392
 5662SOL     OW28444   0.019   4.704   2.718 -0.7526  0.5162  0.7969
 5662SOL    HW128445   0.049   4.643   2.786 -0.7848  1.0316  1.2768
 5662SOL    HW228446   0.024   0.064   2.763 -0.1621  0.9338 -0.0711
 5663SOL     OW28447   0.459   2.229   0.386  0.3807 -0.0954  0.5741
 5663SOL    HW128448   0.471   2.156   0.448 -1.5202 -0.6356  0.3117
 5663SOL    HW228449   0.538   2.277   0.410 -1.1542  2.5114  0.3225
 5664SOL     OW28450   3.533   4.077   9.743  0.3519 -0.6975  0.6125
 5664SOL    HW128451   3.563   4.121   9.664 -0.8404  0.2050  0.6660
 5664SOL    HW228452   3.540   4.146   9.810 -1.9519 -1.0429  1.2006
 5665SOL     OW28453   4.624   1.390   5.301 -0.0409  0.4222  0.6780
 5665SOL    HW128454   4.613   1.481   5.327  3.8607  0.6784  1.3567
 5665SOL    HW228455   4.571   1.348   5.368 -2.3900  0.3240 -1.2197
 5666SOL     OW28456   2.738   4.598   1.162 -0.0798 -0.2031  0.4296
 5666SOL    HW128457   2.810   4.550   1.121 -1.1176 -0.6580 -0.8707
 5666SOL    HW228458   2.765   4.689   1.148 -0.1214 -0.1262  0.8612
 5667SOL     OW28459   2.936   0.988   8.956  0.0170 -0.4283 -0.0609
 5667SOL    HW128460   3.031   0.976   8.945  0.3095  0.8937  1.1600
 5667SOL    HW228461   2.925   0.964   9.048 -1.6862 -0.8068 -0.3682
 5668SOL     OW28462   3.776   1.836   3.609  0.5236 -0.4917  0.3099
 5668SOL    HW128463   3.744   1.889   3.682  2.2581  1.6278 -0.4597
 5668SOL    HW228464   3.755   1.747   3.638  2.0092 -0.7516  0.5906
 5669SOL     OW28465   1.294   3.389   7.914  0.0798 -0.1649  0.7188
 5669SOL    HW128466   1.337   3.465   7.875 -0.7060 -0.7750 -1.3322
 5669SOL    HW228467   1.372   3.338   7.937  2.0207  1.8328 -1.4460
 5670SOL     OW28468   2.126   2.771  14.579 -0.4849 -0.0856  0.4763
 5670SOL    HW128469   2.140   2.858  14.540  3.2341  0.0393  2.0690
 5670SOL    HW228470   2.197   2.779  14.643  0.9136 -0.1134 -1.0940
 5671SOL     OW28471   0.094   3.237   0.332 -0.2396  0.1550  0.1216
 5671SOL    HW128472   0.013   3.188   0.318 -0.3340 -0.2288  1.9928
 5671SOL    HW228473   0.085   3.260   0.425  0.1011  2.2677 -0.3524
 5672SOL     OW28474   3.305   1.067   8.396 -0.2399 -0.1985 -0.4019
 5672SOL    HW128475   3.246   1.020   8.455 -1.4056  0.2510 -1.2133
 5672SOL    HW228476   3.380   1.077   8.455  0.8006  0.1178 -1.7870
 5673SOL     OW28477   1.178   1.578   9.238  0.0818  0.1407  0.2059
 5673SOL    HW128478   1.194   1.490   9.271  2.1437  1.1235  1.8612
 5673SOL    HW228479   1.166   1.631   9.317 -0.3258 -0.4784  0.5600
 5674SOL     OW28480   2.614   1.599  15.818  0.1407 -0.5125  0.1068
 5674SOL    HW128481   2.677   1.528  15.812 -0.4724 -0.9786 -0.7599
 5674SOL    HW228482   2.564   1.568  15.893 -0.6191  0.3973 -0.0260
 5675SOL     OW28483   3.200   4.220   7.565 -0.3592 -0.5328 -0.3930
 5675SOL    HW128484   3.221   4.155   7.632 -1.7977 -0.1738  0.3980
 5675SOL    HW228485   3.185   4.298   7.619  0.3271  0.1839 -1.2356
 5676SOL     OW28486   0.500   2.223   7.878  0.6048  0.1589  0.3785
 5676SOL    HW128487   0.569   2.187   7.822  0.1223 -0.7430  0.3512
 5676SOL    HW228488   0.508   2.317   7.867  1.5439  0.0708  0.2908
 5677SOL     OW28489   2.736   2.404   5.386  0.0860 -0.2140 -0.1689
 5677SOL    HW128490   2.654   2.448   5.362  0.4306  0.6088  0.1706
 5677SOL    HW228491   2.699   2.322   5.420 -0.1219 -0.4099 -0.8536
 5678SOL     OW28492   2.402   1.491   9.255 -0.2317  0.3618  0.0909
 5678SOL    HW128493   2.346   1.468   9.329  0.6527  1.0225  0.9533
 5678SOL    HW228494   2.420   1.581   9.279 -0.4053  0.4164  0.0170
 5679SOL     OW28495   4.686   4.253   0.250 -0.1712 -0.4486 -0.1423
 5679SOL    HW128496   0.023   4.278   0.182  1.0594 -0.1294  1.0720
 5679SOL    HW228497   4.642   4.177   0.214  0.0795 -0.3834 -0.5853
 5680SOL     OW28498   4.679   4.234  11.326 -0.0220 -0.5287 -0.3121
 5680SOL    HW128499   4.695   4.148  11.288 -5.6280 -1.4123 -0.6405
 5680SOL    HW228500   4.713   4.221  11.415  0.2329 -0.4881 -0.4033
 5681SOL     OW28501   3.635   2.739   5.110  0.1949 -0.2089 -0.1787
 5681SOL    HW128502   3.727   2.753   5.134 -0.4524  3.3130  0.2550
 5681SOL    HW228503   3.619   2.645   5.118 -1.5247  0.2137  1.2922
 5682SOL     OW28504   0.135   2.609   3.169 -0.2853 -0.2897  0.1361
 5682SOL    HW128505   0.195   2.552   3.216  1.2468 -0.6008 -2.1805
 5682SOL    HW228506   0.069   2.630   3.235 -0.1200 -2.6137  1.0502
 5683SOL     OW28507   1.914   0.111  17.421  0.3322 -0.2575 -0.4178
 5683SOL    HW128508   1.875   0.182  17.473 -0.1838 -1.8137  1.3074
 5683SOL    HW228509   1.918   0.046  17.491  1.0051 -1.3658 -1.5062
 5684SOL     OW28510   1.204   2.203   8.019 -0.1998 -0.1826  0.6398
 5684SOL    HW128511   1.203   2.250   8.103  3.5384 -0.6580  0.9499
 5684SOL    HW228512   1.279   2.145   8.032 -1.3688 -2.0608 -0.8912
 5685SOL     OW28513   2.302   1.193   6.310  0.5852 -0.0220 -0.3939
 5685SOL    HW128514   2.300   1.151   6.396  0.6645  0.2804 -0.2447
 5685SOL    HW228515   2.298   1.117   6.253 -1.7141  0.2196 -0.5283
 5686SOL     OW28516   0.941   0.704   8.447  0.3455 -0.2650  0.4877
 5686SOL    HW128517   0.901   0.739   8.368  2.7308  0.5301 -0.3659
 5686SOL    HW228518   0.903   0.756   8.518  1.7187 -0.8275  1.6471
 5687SOL     OW28519   4.043   1.448  11.497  0.4027  0.1117  0.0133
 5687SOL    HW128520   3.999   1.531  11.516  3.4109  1.4953  0.8545
 5687SOL    HW228521   3.983   1.383  11.534 -0.0869 -0.3699 -1.6144
 5688SOL     OW28522   4.319   3.408   3.397 -0.1012  0.1263  0.4907
 5688SOL    HW128523   4.376   3.370   3.330  0.2639  1.2005  0.1941
 5688SOL    HW228524   4.242   3.357   3.371 -0.6723  1.0788  0.3174
 5689SOL     OW28525   3.074   2.281  13.265  0.0492  0.4578  0.4530
 5689SOL    HW128526   2.992   2.234  13.275 -0.2136  0.9418  0.5688
 5689SOL    HW228527   3.063   2.350  13.200 -0.6965 -0.3691 -0.2989
 5690SOL     OW28528   0.594   1.364   9.159  0.7849  0.0310 -0.2452
 5690SOL    HW128529   0.604   1.284   9.109  0.0644  0.1435 -0.5749
 5690SOL    HW228530   0.675   1.410   9.138  1.0160 -1.1381 -1.8799
 5691SOL     OW28531   0.887   0.871   1.193 -0.2306  0.0353 -0.0167
 5691SOL    HW128532   0.805   0.881   1.241  0.1281  2.4470  0.0862
 5691SOL    HW228533   0.933   0.952   1.216  0.3194 -0.6169  1.2160
 5692SOL     OW28534   3.800   0.075   9.157 -0.2536  0.2217 -0.0619
 5692SOL    HW128535   3.751   0.001   9.194 -3.0154  1.5583 -1.0671
 5692SOL    HW228536   3.889   0.062   9.190 -1.8530 -2.1794  3.3348
 5693SOL     OW28537   2.373   4.193   8.242 -0.0531 -0.2592  0.1434
 5693SOL    HW128538   2.414   4.176   8.157  0.3218 -0.5568  0.3793
 5693SOL    HW228539   2.297   4.136   8.237  1.1143 -1.7891 -0.4651
 5694SOL     OW28540   2.451   3.487  12.547  0.1159 -0.0372 -0.2546
 5694SOL    HW128541   2.364   3.508  12.513 -0.3479 -0.0384  0.9231
 5694SOL    HW228542   2.504   3.525  12.478  0.2107 -1.6311 -1.0667
 5695SOL     OW28543   4.388   4.421   1.021  0.4879  0.0902 -0.8047
 5695SOL    HW128544   4.364   4.369   0.944 -0.2308 -1.4414  0.4375
 5695SOL    HW228545   4.471   4.464   1.000  0.8242  0.3965  1.1461
 5696SOL     OW28546   0.739   3.282  14.503 -0.2424 -0.1744  0.4623
 5696SOL    HW128547   0.726   3.293  14.597 -1.5754 -0.8233  0.3435
 5696SOL    HW228548   0.665   3.326  14.462 -0.2857  1.5454  2.3915
 5697SOL     OW28549   1.563   0.295   2.236 -0.4346 -0.2773  0.7628
 5697SOL    HW128550   1.632   0.241   2.274 -0.3461 -2.2900 -2.3048
 5697SOL    HW228551   1.549   0.347   2.315 -1.5346  0.2770  0.2210
 5698SOL     OW28552   4.260   1.437   5.179 -0.1277 -0.0890 -0.2153
 5698SOL    HW128553   4.305   1.449   5.263 -0.7843 -1.9487  0.3947
 5698SOL    HW228554   4.190   1.502   5.179  0.1105  0.1685 -0.0003
 5699SOL     OW28555   1.162   3.162   7.734  0.0871 -0.2126  0.1076
 5699SOL    HW128556   1.142   3.242   7.783  1.2170 -0.5537  1.1219
 5699SOL    HW228557   1.138   3.181   7.644 -2.5007 -1.6025  0.4894
 5700SOL     OW28558   3.314   0.604  11.522 -0.0661  0.0692 -0.3618
 5700SOL    HW128559   3.282   0.542  11.587 -1.0659 -1.3224 -2.2022
 5700SOL    HW228560   3.229   0.634  11.489  0.5488  0.7727 -1.3055
 5701SOL     OW28561   0.953   2.216   5.341 -0.0487 -0.1757  0.1193
 5701SOL    HW128562   1.004   2.151   5.390  0.8195  0.7909  0.4998
 5701SOL    HW228563   0.862   2.208   5.367  0.2328 -1.0142  0.8602
 5702SOL     OW28564   0.778   0.030   5.461  0.2042  0.0646  0.1402
 5702SOL    HW128565   0.788   4.660   5.446 -2.8930 -0.3382  0.4844
 5702SOL    HW228566   0.684   0.030   5.443  0.0613  1.5362  0.8565
 5703SOL     OW28567   0.546   1.789   7.177 -0.3203  0.3975 -0.0242
 5703SOL    HW128568   0.579   1.836   7.101 -0.0463  1.3065  0.6602
 5703SOL    HW228569   0.460   1.771   7.141 -0.1979  0.0535 -0.1495
 5704SOL     OW28570   3.815   0.175   8.140  0.4689 -0.8586  0.6018
 5704SOL    HW128571   3.763   0.181   8.221 -1.0803 -3.3312 -0.2320
 5704SOL    HW228572   3.782   0.093   8.104 -0.9886 -1.1362  2.5855
 5705SOL     OW28573   1.928   4.296   6.843 -0.3548 -0.2523 -0.0634
 5705SOL    HW128574   1.913   4.285   6.750  2.1874  0.8952 -0.6137
 5705SOL    HW228575   1.920   4.206   6.876 -0.3871  0.2281  1.2677
 5706SOL     OW28576   2.757   2.158   7.118  0.1312 -1.1344  0.0754
 5706SOL    HW128577   2.677   2.200   7.149 -0.3882 -1.4887 -0.7877
 5706SOL    HW228578   2.804   2.240   7.102 -1.0432 -0.0925  1.8729
 5707SOL     OW28579   1.573   0.199   5.447 -0.4078  0.0775 -0.4373
 5707SOL    HW128580   1.534   0.209   5.359  3.1228  0.0484 -2.0090
 5707SOL    HW228581   1.531   0.270   5.495 -3.4136 -1.9700 -0.0787
 5708SOL     OW28582   1.688   4.396   2.054  0.4452 -0.3844  0.3797
 5708SOL    HW128583   1.708   4.402   2.147  1.1710  0.7616  0.1393
 5708SOL    HW228584   1.627   4.469   2.041  0.6039 -0.4925 -1.0032
 5709SOL     OW28585   3.819   3.584   6.433  0.0370 -0.2079 -0.3608
 5709SOL    HW128586   3.901   3.622   6.401  0.0117  0.5836  0.5103
 5709SOL    HW228587   3.823   3.622   6.521  2.0253 -0.9368 -0.1610
 5710SOL     OW28588   2.217   0.307   7.774 -0.3972 -0.1741 -0.1915
 5710SOL    HW128589   2.193   0.322   7.865 -0.4251 -2.2473  0.1496
 5710SOL    HW228590   2.129   0.290   7.743 -0.4551  1.4805 -0.9220
 5711SOL     OW28591   2.941   0.695  13.986 -0.9468 -0.0916 -0.0465
 5711SOL    HW128592   3.020   0.736  14.019 -0.8443 -2.3840  2.5731
 5711SOL    HW228593   2.978   0.642  13.915  0.5383 -0.6419  1.1544
 5712SOL     OW28594   2.427   0.956   0.882  0.5916  0.5110 -0.2812
 5712SOL    HW128595   2.401   0.886   0.822 -1.1528 -0.8808  2.1068
 5712SOL    HW228596   2.361   1.017   0.849  0.8723  0.5484 -0.7703
 5713SOL     OW28597   3.374   0.878   9.995 -0.5100  0.0613  0.7296
 5713SOL    HW128598   3.418   0.939   9.936 -2.3969  0.6119 -0.0985
 5713SOL    HW228599   3.334   0.937  10.059 -0.9954  1.8473 -1.2321
 5714SOL     OW28600   1.503   4.470  17.677 -0.1245  0.1425  0.2547
 5714SOL    HW128601   1.471   4.380  17.682 -0.8751  0.3809 -0.3250
 5714SOL    HW228602   1.493   4.498   0.070 -0.7880 -2.0830  0.8445
 5715SOL     OW28603   4.280   1.816   3.709 -0.0145  0.2357  0.0004
 5715SOL    HW128604   4.211   1.830   3.644 -0.0993 -3.0162 -0.6325
 5715SOL    HW228605   4.345   1.777   3.652 -1.7486 -2.6016 -0.0528
 5716SOL     OW28606   3.054   4.398   6.727 -0.0987  0.1889  0.3594
 5716SOL    HW128607   3.001   4.429   6.800  2.3794  1.5695  1.5577
 5716SOL    HW228608   2.987   4.403   6.658  0.0227 -0.5081  0.1961
 5717SOL     OW28609   1.945   3.663  11.869  0.4261 -0.3574 -0.1055
 5717SOL    HW128610   1.906   3.697  11.789 -0.8388 -2.3456 -0.3392
 5717SOL    HW228611   1.894   3.701  11.940 -3.1562 -1.9289 -1.7967
 5718SOL     OW28612   2.798   2.653  11.593  0.6093 -0.8045  0.1725
 5718SOL    HW128613   2.850   2.591  11.644 -1.1113 -2.3708  0.0268
 5718SOL    HW228614   2.854   2.729  11.584 -0.0148 -0.2257  1.1684
 5719SOL     OW28615   0.637   3.508   5.175 -0.0609  0.1829 -0.3409
 5719SOL    HW128616   0.550   3.535   5.203 -0.0980 -1.5815  1.2086
 5719SOL    HW228617   0.673   3.508   5.264 -0.0786  0.5564 -0.3325
 5720SOL     OW28618   0.783   1.306  10.064  0.5464 -0.4254 -0.2962
 5720SOL    HW128619   0.699   1.279  10.102  1.7517 -1.0879  1.8647
 5720SOL    HW228620   0.834   1.244  10.117  0.9722  1.3011  1.3091
 5721SOL     OW28621   0.955   1.502  15.592 -0.9646  0.0083 -0.3054
 5721SOL    HW128622   1.025   1.564  15.614  2.5981 -4.8485  1.8300
 5721SOL    HW228623   0.940   1.533  15.503 -0.8847  1.2195  0.0958
 5722SOL     OW28624   1.278   0.913   4.460 -0.1105  0.1730  0.3055
 5722SOL    HW128625   1.212   0.861   4.415  0.8515  0.0684 -0.9941
 5722SOL    HW228626   1.250   1.003   4.443 -0.3163  0.2595  1.1032
 5723SOL     OW28627   2.025   4.493   8.244  0.6087  0.2631  0.5255
 5723SOL    HW128628   2.055   4.506   8.334  0.1601 -0.2376  0.7480
 5723SOL    HW228629   2.097   4.517   8.185 -0.3392 -0.2127 -0.8356
 5724SOL     OW28630   1.649   1.625   6.589 -0.0429  0.4145  0.2687
 5724SOL    HW128631   1.674   1.533   6.579 -2.0667  0.3780 -4.3189
 5724SOL    HW228632   1.583   1.647   6.523  0.8448  0.5555 -0.5582
 5725SOL     OW28633   2.475   0.401   0.299  0.7858 -0.6944  0.9429
 5725SOL    HW128634   2.542   0.425   0.235  1.1289  0.2528  1.6490
 5725SOL    HW228635   2.520   0.413   0.383  0.6444  0.1740  0.8911
 5726SOL     OW28636   3.067   2.009   3.343 -0.3463 -0.3730  0.1320
 5726SOL    HW128637   3.078   2.098   3.377  1.9027  0.3008 -2.3918
 5726SOL    HW228638   3.003   2.014   3.272 -1.4613 -1.8777  1.0429
 5727SOL     OW28639   1.140   0.804   2.031  0.2213 -0.3643  0.0901
 5727SOL    HW128640   1.057   0.824   1.987  0.3211 -0.2609 -0.0526
 5727SOL    HW228641   1.200   0.837   1.964 -2.5280  1.5723 -1.4240
 5728SOL     OW28642   3.229   3.971  12.822 -1.1314  0.3370  0.2340
 5728SOL    HW128643   3.206   3.970  12.728 -0.2805 -1.9017  0.0588
 5728SOL    HW228644   3.168   4.034  12.861 -0.2575 -0.1043  2.2695
 5729SOL     OW28645   1.058   4.313   1.825  0.0953  0.6982  0.0939
 5729SOL    HW128646   1.095   4.232   1.790 -3.5295 -0.1787 -1.6887
 5729SOL    HW228647   1.000   4.341   1.755 -1.2878 -2.1170  0.1158
 5730SOL     OW28648   2.217   2.387  17.033  0.5233  0.4076 -0.8223
 5730SOL    HW128649   2.267   2.432  17.102 -1.9133 -0.3525  1.4570
 5730SOL    HW228650   2.139   2.379  17.087  0.9830  0.6645 -0.1028
 5731SOL     OW28651   2.888   3.621   7.359  0.2397 -0.0456  0.3738
 5731SOL    HW128652   2.805   3.641   7.402  0.6748  4.3101 -0.8267
 5731SOL    HW228653   2.848   3.560   7.299  0.7329 -0.9052  0.9085
 5732SOL     OW28654   4.289   4.098  12.879 -0.0393 -0.0689 -0.0722
 5732SOL    HW128655   4.331   4.164  12.934 -0.7487 -0.4601  0.9343
 5732SOL    HW228656   4.291   4.148  12.798 -1.7074  0.6883  0.3539
 5733SOL     OW28657   0.702   1.250   7.653 -0.0505 -0.4012 -0.4003
 5733SOL    HW128658   0.673   1.217   7.738 -0.7968 -0.8073 -0.8136
 5733SOL    HW228659   0.684   1.342   7.672 -0.7050 -0.5578 -0.2509
 5734SOL     OW28660   1.057   0.337  14.135  0.5940  0.2778 -0.3022
 5734SOL    HW128661   1.084   0.306  14.221 -1.2306 -0.2519  0.0841
 5734SOL    HW228662   1.141   0.359  14.095  1.6912  0.0998  1.9538
 5735SOL     OW28663   0.166   0.798   9.459 -0.1571 -0.6449  0.1599
 5735SOL    HW128664   0.177   0.808   9.554 -0.4483 -1.9185  0.3256
 5735SOL    HW228665   0.091   0.856   9.444 -0.3266 -1.0714 -0.6101
 5736SOL     OW28666   4.595   3.356   5.736  0.5916 -0.2387  0.3602
 5736SOL    HW128667   4.650   3.278   5.742  2.7888  1.2217 -0.7157
 5736SOL    HW228668   4.658   3.428   5.729  0.2205 -0.1192 -1.6387
 5737SOL     OW28669   3.456   1.275   5.010  0.5792  0.3583 -0.8660
 5737SOL    HW128670   3.421   1.356   5.047 -0.0201  0.1821 -1.0625
 5737SOL    HW228671   3.526   1.307   4.953  1.5159  0.9349  0.6204
 5738SOL     OW28672   2.236   1.320  10.936  0.4706 -0.6412  0.1782
 5738SOL    HW128673   2.319   1.346  10.975 -0.1669 -1.4303  2.0517
 5738SOL    HW228674   2.221   1.235  10.977 -0.9467  0.3614  1.7408
 5739SOL     OW28675   0.601   1.260   7.386  0.1047 -0.0971  0.6013
 5739SOL    HW128676   0.678   1.312   7.362  0.1641 -1.3476 -1.9597
 5739SOL    HW228677   0.601   1.279   7.480  2.2742 -0.9743  0.7689
 5740SOL     OW28678   4.159   1.955   8.402 -0.5667 -0.7025  0.4586
 5740SOL    HW128679   4.182   2.043   8.429 -0.2102 -0.0719 -1.8602
 5740SOL    HW228680   4.064   1.964   8.400 -0.5525 -0.6547  0.0106
 5741SOL     OW28681   3.508   1.340   7.443  0.1139  0.2038 -0.1850
 5741SOL    HW128682   3.435   1.399   7.460  1.3334  1.2941  1.2183
 5741SOL    HW228683   3.562   1.361   7.519 -0.1410 -1.4715  0.4647
 5742SOL     OW28684   3.367   3.070   2.936  0.5141 -0.2171  0.4148
 5742SOL    HW128685   3.373   2.979   2.966  2.9347 -0.5817 -1.2067
 5742SOL    HW228686   3.400   3.110   3.017  2.7566 -0.0410 -0.5849
 5743SOL     OW28687   3.623   4.174   7.189 -0.0999 -0.4346 -0.1155
 5743SOL    HW128688   3.543   4.123   7.205  0.6848 -1.3462  0.9463
 5743SOL    HW228689   3.594   4.231   7.118 -1.2126 -1.1043 -0.1924
 5744SOL     OW28690   1.104   3.316   3.822 -0.5360 -0.5557 -0.1418
 5744SOL    HW128691   1.088   3.390   3.882 -1.8421 -1.1531  0.2462
 5744SOL    HW228692   1.118   3.244   3.883 -2.8781 -0.5725  0.3931
 5745SOL     OW28693   1.381   1.434   1.615 -0.0011  0.6248  0.1564
 5745SOL    HW128694   1.436   1.378   1.560  0.0797 -0.3853  1.2748
 5745SOL    HW228695   1.328   1.481   1.551 -1.2604 -2.6672 -1.2214
 5746SOL     OW28696   2.211   2.131   4.576 -0.2060 -1.2027 -0.7126
 5746SOL    HW128697   2.279   2.102   4.515  1.3332  2.2365 -0.6291
 5746SOL    HW228698   2.135   2.120   4.520  0.1336  0.7976 -1.5786
 5747SOL     OW28699   0.578   1.269   0.183 -0.3777  0.2563 -0.1075
 5747SOL    HW128700   0.483   1.272   0.178 -0.4901  0.2064  2.1220
 5747SOL    HW228701   0.591   1.188   0.133  0.4055  0.5303 -0.3609
 5748SOL     OW28702   2.909   4.408   3.925  0.2641  0.4061 -0.0179
 5748SOL    HW128703   2.970   4.335   3.916  0.8461  0.9592 -0.5772
 5748SOL    HW228704   2.898   4.410   4.020 -1.2643  1.4897 -0.2179
 5749SOL     OW28705   1.924   3.235   3.123  0.3039  0.0348  0.9306
 5749SOL    HW128706   1.958   3.146   3.134 -0.4205 -0.8055 -3.6326
 5749SOL    HW228707   1.832   3.210   3.126 -0.1537  1.7537  1.2554
 5750SOL     OW28708   0.591   3.457   1.370 -0.1848  0.4941 -0.4865
 5750SOL    HW128709   0.586   3.498   1.457  1.4485 -1.3718  0.4817
 5750SOL    HW228710   0.535   3.519   1.323 -2.7560 -0.4062  1.3610
 5751SOL     OW28711   1.930   0.063   7.124  0.3535 -0.2938 -1.0522
 5751SOL    HW128712   1.841   0.029   7.125  0.1770  0.2719  2.7204
 5751SOL    HW228713   1.964   0.025   7.206 -1.7802  2.0520  0.9363
 5752SOL     OW28714   2.123   0.081   1.805  0.4816 -0.0918 -0.4004
 5752SOL    HW128715   2.204   0.129   1.823  0.5033  0.6673 -2.5382
 5752SOL    HW228716   2.144   0.004   1.752 -2.1443 -0.1874 -1.2909
 5753SOL     OW28717   0.278   2.494   8.938 -0.1232  0.2473  0.1418
 5753SOL    HW128718   0.214   2.516   9.006  1.2815  0.4607  1.3742
 5753SOL    HW228719   0.273   2.561   8.869 -1.2554 -1.0647 -1.0540
 5754SOL     OW28720   2.654   1.964   0.368 -0.2342  0.3447 -1.0396
 5754SOL    HW128721   2.660   2.047   0.413 -1.1209  0.7461 -1.6534
 5754SOL    HW228722   2.562   1.967   0.344 -0.6030  0.9283  0.4648
 5755SOL     OW28723   4.012   4.491   5.712 -0.2641 -0.2088 -0.2668
 5755SOL    HW128724   4.003   4.570   5.766  1.7648 -0.9111  1.0810
 5755SOL    HW228725   4.007   4.423   5.779  0.9628  0.6692  0.7097
 5756SOL     OW28726   1.153   1.921   8.325 -0.6174  0.7759  0.4035
 5756SOL    HW128727   1.236   1.874   8.340 -0.2270  0.7440 -1.8256
 5756SOL    HW228728   1.147   1.962   8.411 -1.0798  2.4522 -0.4221
 5757SOL     OW28729   1.381   1.998   8.516 -0.9311 -0.3989  0.3686
 5757SOL    HW128730   1.430   2.026   8.594  0.0538  0.4288 -0.5383
 5757SOL    HW228731   1.432   2.043   8.448  0.7647 -2.8563 -0.0064
 5758SOL     OW28732   0.901   3.726   5.383 -0.1632 -0.2342 -0.7924
 5758SOL    HW128733   0.977   3.678   5.417 -0.2410  0.9016  0.9745
 5758SOL    HW228734   0.866   3.755   5.467  1.7808  1.1545 -0.4647
 5759SOL     OW28735   0.076   4.302   7.170 -0.6690  0.4484 -0.1399
 5759SOL    HW128736   0.007   4.244   7.202 -0.4922 -1.5243 -3.3346
 5759SOL    HW228737   0.046   4.379   7.220 -2.8745 -0.8557  0.5428
 5760SOL     OW28738   3.092   1.209   2.781  0.5098 -0.0594  0.2377
 5760SOL    HW128739   3.125   1.256   2.705  4.0017 -1.6313  0.7282
 5760SOL    HW228740   3.094   1.120   2.747 -1.0969 -0.8624  2.2066
 5761SOL     OW28741   1.056   0.835   3.364 -0.7863  0.2753 -0.0935
 5761SOL    HW128742   1.024   0.753   3.400 -0.3789 -0.7862 -2.1730
 5761SOL    HW228743   1.076   0.880   3.446  0.5706 -0.0461 -0.2349
 5762SOL     OW28744   4.690   2.696   7.177 -0.2919  0.7640 -0.1054
 5762SOL    HW128745   4.706   2.602   7.190  1.0933  0.9673 -0.3734
 5762SOL    HW228746   4.594   2.692   7.183 -0.3286  1.4499 -0.2674
 5763SOL     OW28747   1.193   1.584   0.293 -0.2022 -0.7745  0.1768
 5763SOL    HW128748   1.258   1.605   0.226  0.1019 -1.5894  0.2104
 5763SOL    HW228749   1.213   1.647   0.363 -1.7275 -1.7548  1.4938
 5764SOL     OW28750   1.768   3.547   7.249  0.1268 -0.6128 -0.2578
 5764SOL    HW128751   1.692   3.596   7.278  2.8402  3.4338 -0.0374
 5764SOL    HW228752   1.796   3.514   7.334 -0.5116 -1.6870 -0.4587
 5765SOL     OW28753   2.734   3.575  15.822  0.2450  0.3733 -1.0920
 5765SOL    HW128754   2.747   3.511  15.753  1.9801  1.4053 -1.7106
 5765SOL    HW228755   2.785   3.649  15.789  1.5516  0.5762  1.4053
 5766SOL     OW28756   0.810   3.444   7.582  0.9931 -0.1748  0.0175
 5766SOL    HW128757   0.718   3.463   7.603  0.5078  0.0723 -2.3900
 5766SOL    HW228758   0.835   3.445   7.675  2.8661  1.6845 -0.5033
 5767SOL     OW28759   2.888   4.345  12.463 -0.4754 -0.5054  0.2024
 5767SOL    HW128760   2.819   4.351  12.396  0.7769  0.7624 -0.9893
 5767SOL    HW228761   2.967   4.363  12.413 -1.4668  1.4078 -0.7152
 5768SOL     OW28762   1.101   2.482   6.723 -0.0706 -0.1995  0.3811
 5768SOL    HW128763   1.057   2.403   6.753 -0.6468  0.9631  2.5788
 5768SOL    HW228764   1.098   2.477   6.627 -1.0648 -1.9318  0.5040
 5769SOL     OW28765   4.094   3.356   6.120  0.4981  0.0937 -0.3933
 5769SOL    HW128766   4.144   3.324   6.195 -1.3787 -0.2467  0.7170
 5769SOL    HW228767   4.056   3.282   6.072  0.9505 -0.0317 -0.5637
 5770SOL     OW28768   2.348   0.376   1.337  0.2193  0.2476 -0.5781
 5770SOL    HW128769   2.425   0.421   1.303 -0.1645  1.2388 -0.1300
 5770SOL    HW228770   2.367   0.365   1.430  1.6191  0.8784 -0.7933
 5771SOL     OW28771   0.391   0.794   2.527 -0.4519  0.1688 -0.0709
 5771SOL    HW128772   0.305   0.828   2.551 -0.1821  0.1555  0.9053
 5771SOL    HW228773   0.426   0.873   2.486 -0.0166 -0.1067 -0.2354
 5772SOL     OW28774   0.969   2.269  13.868  0.1597 -1.2868  0.2608
 5772SOL    HW128775   0.965   2.328  13.792  0.4612  0.4211  1.5534
 5772SOL    HW228776   0.881   2.236  13.853 -1.2728  1.7591  1.9701
 5773SOL     OW28777   1.247   1.103  14.826 -0.2401 -0.2754 -0.3783
 5773SOL    HW128778   1.316   1.050  14.787  0.0524  1.5697 -2.2836
 5773SOL    HW228779   1.192   1.029  14.853 -0.0621 -0.6333 -1.0150
 5774SOL     OW28780   4.663   2.237  12.919  0.1934 -0.3895 -0.4608
 5774SOL    HW128781   0.031   2.243  12.893  0.1074 -2.1218 -1.2184
 5774SOL    HW228782   4.664   2.173  12.990  3.9160  1.0741  0.7958
 5775SOL     OW28783   3.638   3.200   6.756  0.2148 -0.1657 -0.1242
 5775SOL    HW128784   3.718   3.216   6.706 -0.2636  2.6712 -0.0005
 5775SOL    HW228785   3.600   3.119   6.721 -0.2630 -0.7365  1.7224
 5776SOL     OW28786   2.435   4.529   9.919 -0.0255  0.5057 -0.7580
 5776SOL    HW128787   2.436   4.567  10.007 -1.5064 -3.5351  0.9950
 5776SOL    HW228788   2.371   4.586   9.876 -0.9852 -0.1120 -0.1362
 5777SOL     OW28789   1.112   3.982   7.763 -0.1296 -0.1613  0.0891
 5777SOL    HW128790   1.174   3.990   7.690  0.9853  0.4056  1.1036
 5777SOL    HW228791   1.028   3.973   7.717 -1.0388 -1.6388  2.0685
 5778SOL     OW28792   0.718   4.146  10.082 -0.2872 -0.0514 -0.0157
 5778SOL    HW128793   0.626   4.127  10.063 -0.6138  0.5542  0.9705
 5778SOL    HW228794   0.762   4.130   9.999  0.3109 -2.5557  0.7963
 5779SOL     OW28795   0.871   2.670   6.173 -0.3635  0.5755  0.7041
 5779SOL    HW128796   0.840   2.751   6.212 -3.1879  1.4346 -3.3546
 5779SOL    HW228797   0.867   2.676   6.078  2.4876  0.7055  0.5658
 5780SOL     OW28798   2.545   0.923   7.270  0.4300 -0.2629  0.0895
 5780SOL    HW128799   2.583   0.956   7.351  3.0048 -0.1395 -1.1983
 5780SOL    HW228800   2.604   0.849   7.259  1.6398  0.7962 -0.4581
 5781SOL     OW28801   0.395   1.855   9.851 -0.6410  0.1772  0.3601
 5781SOL    HW128802   0.328   1.922   9.861 -2.0695 -1.4976  1.9953
 5781SOL    HW228803   0.346   1.778   9.822  0.3154  0.8558 -3.0474
 5782SOL     OW28804   2.167   1.533  13.753  0.0783  0.2233 -0.1000
 5782SOL    HW128805   2.087   1.573  13.788 -0.3631 -1.9215  1.3344
 5782SOL    HW228806   2.159   1.548  13.659 -0.3711 -4.1513 -0.7458
 5783SOL     OW28807   2.884   1.026   7.178 -0.3720 -0.1972  0.2463
 5783SOL    HW128808   2.960   1.075   7.148  0.3161 -0.8009  0.9862
 5783SOL    HW228809   2.886   1.033   7.274  2.5946 -1.1053  0.2446
 5784SOL     OW28810   1.018   4.595   1.913 -0.2830  0.1884  0.9350
 5784SOL    HW128811   1.087   4.604   1.980 -0.6887 -1.5919  1.5974
 5784SOL    HW228812   0.983   4.508   1.931 -1.2631  0.5111  0.5620
 5785SOL     OW28813   0.732   2.008   1.329 -0.7782  0.3123  0.0477
 5785SOL    HW128814   0.704   2.015   1.238  2.9317  2.6270 -0.8986
 5785SOL    HW228815   0.801   1.943   1.317  0.5520  1.4406  1.5778
 5786SOL     OW28816   4.258   4.657   6.764  0.3046  0.5137  0.3332
 5786SOL    HW128817   4.339   4.685   6.807 -0.1235  0.0609  1.4416
 5786SOL    HW228818   4.269   4.564   6.784  1.6822  0.2113 -1.8075
 5787SOL     OW28819   4.524   0.532   0.676 -0.4309 -0.2172 -0.3129
 5787SOL    HW128820   4.592   0.596   0.657  1.3398 -1.9009  0.3501
 5787SOL    HW228821   4.469   0.586   0.733 -1.2028 -1.0369 -0.2674
 5788SOL     OW28822   1.751   4.082  17.586 -0.1797 -0.2625  0.0081
 5788SOL    HW128823   1.736   4.175  17.571  2.3734  0.3533  1.2905
 5788SOL    HW228824   1.834   4.072  17.539  0.4995 -0.3409  1.2228
 5789SOL     OW28825   2.076   3.099   1.871  0.6488  0.0941  0.3198
 5789SOL    HW128826   2.023   3.079   1.948  1.4914  0.3590  0.9578
 5789SOL    HW228827   2.003   3.112   1.810  0.8432  0.0941  0.0865
 5790SOL     OW28828   3.521   0.021   2.239  0.6138 -0.0156 -0.2326
 5790SOL    HW128829   3.603   0.064   2.217  0.0858 -0.0629 -2.2854
 5790SOL    HW228830   3.558   4.691   2.309  0.7572  0.2476 -0.1035
 5791SOL     OW28831   3.168   4.593   3.920 -0.1267  0.2315 -0.7369
 5791SOL    HW128832   3.225   4.664   3.889 -0.8643  1.0100 -0.3071
 5791SOL    HW228833   3.215   4.545   3.988 -1.6746  0.4436  0.4621
 5792SOL     OW28834   2.569   4.214  15.270 -0.2174 -0.3606  0.2853
 5792SOL    HW128835   2.554   4.225  15.176  2.0551 -0.4976 -0.0984
 5792SOL    HW228836   2.665   4.207  15.270 -0.2453 -0.7297 -0.1369
 5793SOL     OW28837   3.078   2.477  16.443 -0.4153  0.2573 -0.6402
 5793SOL    HW128838   3.066   2.465  16.349  0.0112 -2.9493 -0.2709
 5793SOL    HW228839   3.081   2.387  16.474  2.1393  0.0448 -1.5076
 5794SOL     OW28840   4.032   0.783   8.456  0.0294 -0.4776  0.8158
 5794SOL    HW128841   4.117   0.759   8.493  0.9258  0.8314 -0.4036
 5794SOL    HW228842   3.994   0.847   8.517  0.0420  0.8353 -0.5799
 5795SOL     OW28843   1.158   1.277   5.696  0.2159 -0.1652 -0.6360
 5795SOL    HW128844   1.227   1.320   5.645  1.9619 -1.6776  0.4817
 5795SOL    HW228845   1.164   1.188   5.662  0.9065  0.5497 -2.4260
 5796SOL     OW28846   4.308   4.088   8.399 -0.0688  0.5298  0.3463
 5796SOL    HW128847   4.249   4.109   8.327 -2.5907 -0.3362  2.1430
 5796SOL    HW228848   4.392   4.071   8.356 -0.3017  0.3667 -0.0413
 5797SOL     OW28849   2.455   0.044   4.949 -0.1844  0.2664 -0.2681
 5797SOL    HW128850   2.519   0.090   5.004 -0.4006  2.0669 -1.5056
 5797SOL    HW228851   2.373   0.088   4.973 -0.4185 -0.9874  1.2121
 5798SOL     OW28852   0.137   3.326   7.966  0.3952 -0.2179  0.5112
 5798SOL    HW128853   0.043   3.335   7.983  0.4298 -0.0861  0.6346
 5798SOL    HW228854   0.133   3.260   7.898  0.1292  1.0923 -0.7503
 5799SOL     OW28855   1.229   2.321   9.966 -0.0401 -0.5434  0.7061
 5799SOL    HW128856   1.187   2.310  10.052 -0.7796  0.7686  0.5072
 5799SOL    HW228857   1.235   2.416   9.960  2.9603 -0.6654  1.6338
 5800SOL     OW28858   1.467   2.744   1.910 -0.1756  0.1280  0.1330
 5800SOL    HW128859   1.436   2.735   2.001 -1.4555 -0.2778 -0.3429
 5800SOL    HW228860   1.539   2.801   1.936 -1.1870  1.9572 -1.0692
 5801SOL     OW28861   0.482   2.964   3.777 -0.2622  0.2661 -0.0358
 5801SOL    HW128862   0.433   3.045   3.764 -2.2938 -1.2470 -1.8306
 5801SOL    HW228863   0.545   2.974   3.705 -0.3381  0.9948 -0.0032
 5802SOL     OW28864   4.288   3.253   1.968 -0.3224 -0.1953 -0.3078
 5802SOL    HW128865   4.321   3.241   2.057 -0.5563 -1.4558 -0.3891
 5802SOL    HW228866   4.338   3.182   1.928  0.0074  0.2600 -0.7005
 5803SOL     OW28867   2.615   2.397   4.966 -0.0053 -0.2907 -0.4208
 5803SOL    HW128868   2.653   2.311   4.981  3.0237  1.2850  0.7798
 5803SOL    HW228869   2.538   2.373   4.914 -0.6650 -1.7215  1.2054
 5804SOL     OW28870   0.793   1.489   5.838  0.8000  0.3502  0.2224
 5804SOL    HW128871   0.795   1.406   5.792  3.0327  0.5670 -0.0818
 5804SOL    HW228872   0.703   1.503   5.867  0.2387 -0.3991 -1.1671
 5805SOL     OW28873   1.522   1.679   7.401  0.3840  0.1597  0.4581
 5805SOL    HW128874   1.475   1.714   7.477  0.1855  0.5757  0.1438
 5805SOL    HW228875   1.562   1.755   7.358  1.0910 -1.3717 -1.5538
 5806SOL     OW28876   3.159   4.156  17.695  0.1854  0.4061  0.5825
 5806SOL    HW128877   3.212   4.217  17.645 -0.0026 -0.4694 -0.6774
 5806SOL    HW228878   3.186   4.071  17.660 -1.9338 -0.6658  1.5049
 5807SOL     OW28879   0.110   0.876   8.621 -0.5573  0.1320 -0.0246
 5807SOL    HW128880   0.087   0.961   8.658  1.0717  0.5363  0.0976
 5807SOL    HW228881   0.200   0.864   8.653 -0.9727  0.3949  1.2388
 5808SOL     OW28882   0.653   1.258   6.430 -0.2224  0.3300 -0.2956
 5808SOL    HW128883   0.649   1.163   6.425  0.5981  0.2476  0.6423
 5808SOL    HW228884   0.742   1.275   6.400 -0.1509  0.3596 -0.0651
 5809SOL     OW28885   2.619   3.068   4.690 -0.0945 -0.1000  0.2037
 5809SOL    HW128886   2.695   3.093   4.742  0.8580 -1.7450 -0.3863
 5809SOL    HW228887   2.659   3.001   4.634 -0.7857  0.8407 -1.4109
 5810SOL     OW28888   0.001   0.767  11.422 -0.0501  0.4171 -0.3554
 5810SOL    HW128889   4.709   0.732  11.334 -2.5585 -0.0778  0.3022
 5810SOL    HW228890   0.015   0.857  11.392 -0.0860  0.9294  1.2114
 5811SOL     OW28891   2.625   0.497   0.030  0.0497 -0.3895 -0.4527
 5811SOL    HW128892   2.696   0.539  17.679 -2.4154  0.6713 -3.1024
 5811SOL    HW228893   2.666   0.416   0.059  0.2494 -0.0112  0.3266
 5812SOL     OW28894   0.866   0.834  14.608  0.4288 -0.0731 -0.1092
 5812SOL    HW128895   0.785   0.838  14.557  0.1507 -0.8128  0.2761
 5812SOL    HW228896   0.882   0.740  14.614 -2.4539 -0.5030  0.8536
 5813SOL     OW28897   0.785   2.458  14.195 -0.5496 -0.4204 -0.1022
 5813SOL    HW128898   0.776   2.364  14.177 -0.5272 -0.8189  1.9368
 5813SOL    HW228899   0.822   2.468  14.283  1.7967  1.1411 -1.2775
 5814SOL     OW28900   4.575   0.615   2.756 -0.6379 -0.3030 -0.5070
 5814SOL    HW128901   4.638   0.604   2.685  0.2341  1.1573  0.0408
 5814SOL    HW228902   4.501   0.571   2.715 -0.1713 -0.2723 -1.3776
 5815SOL     OW28903   0.827   4.226   5.394  0.1575  0.2353  0.4429
 5815SOL    HW128904   0.872   4.142   5.388 -0.3554  0.1612 -2.6015
 5815SOL    HW228905   0.750   4.203   5.342  0.4977  0.7918 -0.3026
 5816SOL     OW28906   2.334   3.112   8.500 -0.4103 -0.2418 -0.4406
 5816SOL    HW128907   2.247   3.122   8.540  1.6275  0.8860  3.6666
 5816SOL    HW228908   2.349   3.200   8.466  0.0032 -1.1313 -2.5350
 5817SOL     OW28909   4.484   1.287   1.667 -0.2050 -0.3779 -0.3799
 5817SOL    HW128910   4.532   1.367   1.643 -0.2488 -0.6236 -1.2836
 5817SOL    HW228911   4.518   1.220   1.608  0.8662  0.0506 -0.2483
 5818SOL     OW28912   3.779   4.493  12.509 -0.2828  0.2010  0.5125
 5818SOL    HW128913   3.819   4.430  12.568  0.8700 -2.8657 -3.5502
 5818SOL    HW228914   3.824   4.575  12.530  1.1677  0.0434 -2.0076
 5819SOL     OW28915   2.947   2.721   3.355  0.0017 -0.1910 -0.1606
 5819SOL    HW128916   3.041   2.702   3.351 -0.1975 -0.6988 -2.8427
 5819SOL    HW228917   2.908   2.672   3.427  0.8771 -1.0668 -0.2939
 5820SOL     OW28918   0.841   0.688  10.745 -0.0726 -0.2287 -0.1609
 5820SOL    HW128919   0.758   0.650  10.718  1.2071 -1.8464 -1.8512
 5820SOL    HW228920   0.852   0.647  10.831 -3.0775 -0.7629 -0.0447
 5821SOL     OW28921   1.622   2.420   4.474 -0.2095 -0.1639  0.0536
 5821SOL    HW128922   1.541   2.371   4.463  1.3235 -2.9703  1.0426
 5821SOL    HW228923   1.665   2.354   4.529 -0.8380  0.8836  1.7810
 5822SOL     OW28924   4.326   3.344   4.563 -0.0933  0.0929 -0.0078
 5822SOL    HW128925   4.329   3.273   4.499  2.2912 -1.6554  2.0199
 5822SOL    HW228926   4.308   3.300   4.646  1.9902  1.5225  1.1975
 5823SOL     OW28927   1.141   4.274  10.163  0.6828 -0.1874 -0.1063
 5823SOL    HW128928   1.234   4.257  10.174  0.7003 -0.0768 -0.0845
 5823SOL    HW228929   1.101   4.209  10.222 -0.4112  0.6306  0.0690
 5824SOL     OW28930   1.562   2.631   6.104 -0.5540 -0.8626 -0.1888
 5824SOL    HW128931   1.483   2.592   6.068 -0.4915 -0.3484 -0.8901
 5824SOL    HW228932   1.529   2.691   6.171  0.3399 -1.3335  0.6732
 5825SOL     OW28933   2.955   2.771   2.569  0.3947 -0.3845 -0.3452
 5825SOL    HW128934   2.907   2.727   2.639  1.3599  0.4197  0.8199
 5825SOL    HW228935   3.040   2.733   2.591  0.3522 -0.1012  0.3010
 5826SOL     OW28936   0.484   4.385   6.419  0.2175 -0.2364  0.2815
 5826SOL    HW128937   0.498   4.382   6.324  0.7406  0.8559  0.3224
 5826SOL    HW228938   0.392   4.357   6.423  0.1366  0.3342  2.2967
 5827SOL     OW28939   2.623   3.762   3.599  0.1411 -0.0941 -0.5000
 5827SOL    HW128940   2.542   3.778   3.647 -0.0591 -1.5783 -0.3520
 5827SOL    HW228941   2.646   3.675   3.632 -1.2953 -0.4477 -0.4499
 5828SOL     OW28942   4.112   0.708   9.226  0.1298  0.9329 -0.1284
 5828SOL    HW128943   4.120   0.779   9.291  3.4342  2.5154 -2.2641
 5828SOL    HW228944   4.167   0.643   9.270 -0.8068 -0.6057 -1.2347
 5829SOL     OW28945   0.587   4.583   7.169  0.0309  0.1724 -0.5758
 5829SOL    HW128946   0.537   4.575   7.250 -1.5910  1.4211 -1.4610
 5829SOL    HW228947   0.637   4.501   7.161 -1.2513 -0.6515 -0.2003
 5830SOL     OW28948   0.443   0.534   6.676  0.3076  0.1064  0.0612
 5830SOL    HW128949   0.424   0.458   6.621  0.8779 -1.3561  1.8663
 5830SOL    HW228950   0.538   0.538   6.663  0.7630 -2.1906  2.5231
 5831SOL     OW28951   2.133   0.453   5.723  0.1735  0.2116  0.2253
 5831SOL    HW128952   2.076   0.442   5.799  0.1132  0.0132  0.1514
 5831SOL    HW228953   2.123   0.547   5.708 -0.5211 -0.2897 -2.3364
 5832SOL     OW28954   4.474   2.787  12.759 -0.0933  0.3636  0.4778
 5832SOL    HW128955   4.536   2.748  12.821 -0.5908  0.4241  1.0197
 5832SOL    HW228956   4.400   2.818  12.812 -0.3569  0.2180  0.1926
 5833SOL     OW28957   3.705   2.323   9.634  0.6360 -0.0557  0.3762
 5833SOL    HW128958   3.755   2.382   9.577 -2.2561  0.3307 -1.7765
 5833SOL    HW228959   3.624   2.313   9.583  1.3448  0.2537 -0.8018
 5834SOL     OW28960   0.429   0.016   1.563  0.1500  0.1204  0.3172
 5834SOL    HW128961   0.391   0.102   1.581 -1.5381 -0.7883  1.1404
 5834SOL    HW228962   0.520   0.046   1.563  0.2192 -0.0792  1.1747
 5835SOL     OW28963   4.291   4.305   4.749 -0.2929  0.1097  0.3117
 5835SOL    HW128964   4.264   4.274   4.836 -1.1016 -0.9774 -0.3243
 5835SOL    HW228965   4.291   4.400   4.762 -3.3039  0.0606  0.8194
 5836SOL     OW28966   0.915   1.896  14.550 -0.2766 -0.3177  0.0073
 5836SOL    HW128967   0.940   1.805  14.537 -1.4670 -0.7799  1.0148
 5836SOL    HW228968   0.825   1.879  14.576 -0.7993  1.4662 -0.6441
 5837SOL     OW28969   3.492   0.145  13.313  0.7059 -0.2553  0.6860
 5837SOL    HW128970   3.552   0.157  13.239 -1.1026 -1.3060 -0.9237
 5837SOL    HW228971   3.504   0.231  13.355 -2.5196  1.0028 -0.9261
 5838SOL     OW28972   4.236   0.590  12.854  0.4963 -0.6877 -0.2414
 5838SOL    HW128973   4.178   0.534  12.803 -1.0556 -0.1960  0.9722
 5838SOL    HW228974   4.304   0.526  12.877  2.4633  2.4156  2.6260
 5839SOL     OW28975   3.513   3.825   6.066  0.2091  0.4053 -0.0411
 5839SOL    HW128976   3.576   3.896   6.054 -0.0784  0.7170  0.2680
 5839SOL    HW228977   3.540   3.788   6.150  0.7883 -0.1024 -0.4563
 5840SOL     OW28978   4.458   3.264  11.286 -0.0459 -0.1620 -0.1381
 5840SOL    HW128979   4.428   3.280  11.375 -3.3161  0.1471 -1.2766
 5840SOL    HW228980   4.441   3.350  11.247  0.8877  0.4032  0.7018
 5841SOL     OW28981   0.759   0.523  14.726 -0.3808  0.0156 -0.0979
 5841SOL    HW128982   0.697   0.506  14.655 -0.4910  1.1155 -0.2515
 5841SOL    HW228983   0.838   0.524  14.672 -1.2781 -0.5598 -1.4025
 5842SOL     OW28984   3.005   3.807   9.517  0.2205 -0.0213 -0.1750
 5842SOL    HW128985   2.980   3.715   9.512 -0.2749  0.0524  1.3099
 5842SOL    HW228986   3.097   3.797   9.490  0.9135  1.9265  1.5708
 5843SOL     OW28987   0.931   3.489   1.039  0.2514 -0.2873  0.3419
 5843SOL    HW128988   0.945   3.580   1.064  0.5621  1.2737 -5.5419
 5843SOL    HW228989   0.908   3.454   1.125  1.9324 -1.9588  0.1073
 5844SOL     OW28990   3.392   1.172  13.307  0.1578  0.2972 -0.1790
 5844SOL    HW128991   3.356   1.166  13.218  2.4341 -1.7047 -0.9842
 5844SOL    HW228992   3.355   1.258  13.327 -0.5886 -0.0770  0.0082
 5845SOL     OW28993   4.462   2.553   0.761  0.1285 -0.2380 -0.0413
 5845SOL    HW128994   4.436   2.475   0.711  1.2723 -0.2485 -0.6400
 5845SOL    HW228995   4.539   2.519   0.807  1.9460  2.5166 -1.0658
 5846SOL     OW28996   2.112   4.263   5.078  0.1670 -0.2549 -0.1287
 5846SOL    HW128997   2.136   4.185   5.028  0.3246 -0.7809  0.7596
 5846SOL    HW228998   2.188   4.284   5.132 -0.6675  0.1248  0.8886
 5847SOL     OW28999   2.906   4.250   8.422  0.4705  0.2345 -0.2094
 5847SOL    HW129000   2.824   4.299   8.424  0.1614 -0.2569 -1.2129
 5847SOL    HW229001   2.872   4.167   8.454 -2.2437  1.1090 -0.8004
 5848SOL     OW29002   1.025   4.171   9.906  0.1557 -0.9993  0.2077
 5848SOL    HW129003   1.011   4.263   9.880 -2.0877 -1.2199  0.6494
 5848SOL    HW229004   1.035   4.172  10.001 -0.7007  1.5600  0.2849
 5849SOL     OW29005   3.933   4.490   4.290  0.4687 -0.1680  0.0029
 5849SOL    HW129006   3.948   4.438   4.211 -2.9600 -0.4423 -0.4864
 5849SOL    HW229007   3.957   4.427   4.358  0.6720  2.1046  2.0266
 5850SOL     OW29008   4.552   1.615  13.960  0.7050 -0.0631  0.0936
 5850SOL    HW129009   4.614   1.602  14.032 -3.0131  0.6809  3.3971
 5850SOL    HW229010   4.482   1.561  13.996 -1.1120  1.1548 -1.6146
 5851SOL     OW29011   0.355   0.090   5.796  0.4136  0.3787 -0.0307
 5851SOL    HW129012   0.413   0.135   5.858  1.9823 -0.4311 -0.9049
 5851SOL    HW229013   0.368   0.141   5.716  0.8629 -0.0535 -0.2324
 5852SOL     OW29014   2.618   3.419   7.885 -0.1917  0.0328 -0.2882
 5852SOL    HW129015   2.604   3.513   7.898  0.4979  0.2307 -0.9452
 5852SOL    HW229016   2.527   3.390   7.880 -0.4539  0.9456 -0.9502
 5853SOL     OW29017   1.398   2.200   5.245  0.1366  1.2406 -0.1559
 5853SOL    HW129018   1.304   2.200   5.232  0.0778  2.0482  0.2763
 5853SOL    HW229019   1.401   2.110   5.278 -1.1963  1.0660 -0.5142
 5854SOL     OW29020   2.821   0.590   7.705  0.3179 -0.4095 -0.0207
 5854SOL    HW129021   2.786   0.677   7.724 -0.8232 -1.0491  0.7963
 5854SOL    HW229022   2.824   0.558   7.795 -2.8130 -1.0617 -0.1508
 5855SOL     OW29023   2.720   4.498  14.279  0.0793 -0.3783 -0.1679
 5855SOL    HW129024   2.668   4.560  14.332 -0.7399 -0.0655 -1.3429
 5855SOL    HW229025   2.654   4.477  14.213  0.0153  0.8496 -0.5018
 5856SOL     OW29026   2.708   4.159   4.128  0.0133 -0.1932 -0.2371
 5856SOL    HW129027   2.684   4.077   4.085 -0.7691  0.1849 -0.5133
 5856SOL    HW229028   2.767   4.123   4.195 -1.2899 -0.4280  0.7859
 5857SOL     OW29029   4.470   2.684   4.207  0.1270 -0.1555 -0.1301
 5857SOL    HW129030   4.549   2.644   4.243 -0.2346  0.7258  1.6321
 5857SOL    HW229031   4.456   2.751   4.273 -0.7894  1.1288 -1.6331
 5858SOL     OW29032   0.102   0.810  11.068 -0.2689  0.3481 -0.1414
 5858SOL    HW129033   0.081   0.725  11.107  0.2034  0.1067 -0.4207
 5858SOL    HW229034   0.192   0.814  11.101  0.0766 -0.6252 -0.9698
 5859SOL     OW29035   4.021   2.842   3.182  0.3919 -0.3313  0.1370
 5859SOL    HW129036   4.018   2.778   3.112 -1.3253  1.7566 -1.6769
 5859SOL    HW229037   4.031   2.793   3.264  1.6035 -1.0982 -0.4601
 5860SOL     OW29038   4.583   0.414   2.991 -0.4438  0.4023  0.0523
 5860SOL    HW129039   4.572   0.465   2.910 -2.2571  0.8356  0.5735
 5860SOL    HW229040   4.616   0.479   3.053 -0.7296 -0.0411  0.6663
 5861SOL     OW29041   1.261   1.982   7.763 -0.3291 -0.5605  0.5936
 5861SOL    HW129042   1.211   1.930   7.826 -1.2510  0.0131  0.3270
 5861SOL    HW229043   1.260   2.071   7.798 -1.7898  0.0457 -0.9698
 5862SOL     OW29044   3.077   0.385   4.820 -0.6483 -0.2625  0.1168
 5862SOL    HW129045   3.124   0.456   4.777 -0.3005 -1.3427 -1.2612
 5862SOL    HW229046   2.987   0.417   4.827 -0.8849 -1.0801  0.9308
 5863SOL     OW29047   1.310   2.126  15.748 -0.2715  0.7279 -0.0367
 5863SOL    HW129048   1.280   2.044  15.787 -0.7620  0.0844 -1.7894
 5863SOL    HW229049   1.398   2.127  15.787 -0.1800  0.6951 -0.2383
 5864SOL     OW29050   3.381   3.505   2.819 -0.1786 -0.1334 -0.5590
 5864SOL    HW129051   3.340   3.551   2.747 -0.0347  0.7010 -0.1079
 5864SOL    HW229052   3.378   3.412   2.797  1.7107  0.0517 -1.5878
 5865SOL     OW29053   3.072   4.102   6.768 -0.3654 -0.3860 -0.4260
 5865SOL    HW129054   2.987   4.090   6.726 -0.2381  2.3990 -1.4895
 5865SOL    HW229055   3.066   4.194   6.794  0.2464 -0.6632  0.6937
 5866SOL     OW29056   2.367   2.822  14.724  0.4104 -0.3061  0.2183
 5866SOL    HW129057   2.455   2.817  14.687 -0.1328  1.1535 -1.2338
 5866SOL    HW229058   2.396   2.839  14.814 -1.2129  1.2661  0.4323
 5867SOL     OW29059   0.042   1.589   3.190 -0.2105  0.3709  0.3396
 5867SOL    HW129060   0.079   1.563   3.105 -0.3800 -0.5583  0.5558
 5867SOL    HW229061   0.119   1.629   3.231  0.7798 -0.4906 -0.6806
 5868SOL     OW29062   3.369   3.986   6.376 -0.2593 -0.1040  0.1800
 5868SOL    HW129063   3.418   4.067   6.391  0.2858 -0.5352  0.7365
 5868SOL    HW229064   3.364   3.947   6.463 -0.7750  1.0037  0.6496
 5869SOL     OW29065   3.588   2.619   8.950  0.2550 -0.4825  0.1806
 5869SOL    HW129066   3.578   2.701   8.999  0.5053 -1.3815  1.7101
 5869SOL    HW229067   3.544   2.567   9.017  1.1963 -2.6349 -0.8990
 5870SOL     OW29068   1.766   0.135   8.255  0.1708 -0.7699  0.7312
 5870SOL    HW129069   1.763   0.040   8.250  1.0103 -0.8216  1.2686
 5870SOL    HW229070   1.833   0.142   8.187 -0.1676  0.0391  0.4727
 5871SOL     OW29071   1.391   2.203   1.573 -0.0833 -0.0128  0.1758
 5871SOL    HW129072   1.456   2.139   1.543  0.3785  1.1313 -1.2844
 5871SOL    HW229073   1.441   2.254   1.638  1.4253 -0.9355 -0.2659
 5872SOL     OW29074   0.381   3.069   8.959  0.0518 -0.0730 -0.5417
 5872SOL    HW129075   0.297   3.063   8.914  0.9824 -3.4059 -1.8301
 5872SOL    HW229076   0.387   2.987   9.008  1.4780  0.6189  0.4393
 5873SOL     OW29077   3.870   3.053   4.231 -0.4874 -0.3199  0.2100
 5873SOL    HW129078   3.866   2.975   4.286  2.3342 -2.5003 -2.6353
 5873SOL    HW229079   3.950   3.089   4.268 -0.1078 -2.0504  1.0895
 5874SOL     OW29080   3.083   2.690  13.689  0.1920 -0.0110 -0.6706
 5874SOL    HW129081   3.102   2.598  13.705  2.4756 -0.2360 -4.8042
 5874SOL    HW229082   3.005   2.699  13.744  1.3095  0.4595  0.8326
 5875SOL     OW29083   3.359   3.051   8.717  1.0286 -0.6255 -0.2002
 5875SOL    HW129084   3.324   3.135   8.685  1.0353  1.0009  3.9696
 5875SOL    HW229085   3.281   3.007   8.750  0.6206 -0.0790 -0.4299
 5876SOL     OW29086   0.192   1.669   2.131 -0.2616  0.0853  0.2126
 5876SOL    HW129087   0.122   1.700   2.188 -0.9006  0.9407 -1.0463
 5876SOL    HW229088   0.153   1.675   2.044  0.5955  2.1532 -0.0347
 5877SOL     OW29089   1.128   0.437   6.783  0.0443 -0.2028  0.0325
 5877SOL    HW129090   1.043   0.437   6.828 -1.2367 -0.0768 -2.3866
 5877SOL    HW229091   1.165   0.513   6.826  1.7624 -0.6639 -0.6564
 5878SOL     OW29092   0.915   0.943  10.723  0.2651 -0.3602  0.0410
 5878SOL    HW129093   0.874   0.857  10.731  0.7641 -0.6900 -1.0061
 5878SOL    HW229094   0.937   0.940  10.816  0.8215 -1.3455 -0.1243
 5879SOL     OW29095   3.146   1.511   5.847  0.0150 -0.2197  0.6463
 5879SOL    HW129096   3.152   1.511   5.752  1.3705 -1.6215  0.7402
 5879SOL    HW229097   3.083   1.443   5.869  0.4081 -0.7579  0.0962
 5880SOL     OW29098   2.572   2.442   4.579 -0.0579 -0.6323  0.0132
 5880SOL    HW129099   2.488   2.412   4.614  0.7302 -0.5313  1.9679
 5880SOL    HW229100   2.585   2.516   4.639  0.3760 -0.3413 -0.4285
 5881SOL     OW29101   0.907   3.333  12.893 -0.5740  0.2283 -0.0051
 5881SOL    HW129102   0.837   3.365  12.836  0.4149  2.6990  0.1821
 5881SOL    HW229103   0.865   3.352  12.977  0.2430 -2.4408  1.0101
 5882SOL     OW29104   4.456   1.974   4.520  0.0106  0.3266  0.0041
 5882SOL    HW129105   4.410   2.050   4.554 -2.8477 -2.3657  2.1363
 5882SOL    HW229106   4.449   1.980   4.425 -0.9741 -0.9090  0.0066
 5883SOL     OW29107   1.803   4.586   6.684  0.3686 -0.1698  0.7400
 5883SOL    HW129108   1.752   4.660   6.718  0.0511  0.2196 -0.5732
 5883SOL    HW229109   1.783   4.600   6.591 -1.0582  0.9974  1.2252
 5884SOL     OW29110   3.961   4.586   2.476 -0.3970  0.5187  0.3747
 5884SOL    HW129111   3.905   4.551   2.546  2.7324 -0.3519  2.4125
 5884SOL    HW229112   4.049   4.551   2.492 -1.6188 -2.3112  1.0326
 5885SOL     OW29113   1.206   1.557   4.907 -0.4146  0.3398  0.6840
 5885SOL    HW129114   1.140   1.567   4.838  1.0056  0.0268 -0.7117
 5885SOL    HW229115   1.256   1.638   4.896 -0.6971  0.0608 -2.8018
 5886SOL     OW29116   3.321   1.390  12.019  0.0200 -0.0905  0.1933
 5886SOL    HW129117   3.231   1.383  11.988 -0.2526 -0.1984  1.0215
 5886SOL    HW229118   3.324   1.485  12.026 -0.5470 -0.0448 -0.2000
 5887SOL     OW29119   2.244   3.992   0.722  0.1104 -0.9744 -0.0244
 5887SOL    HW129120   2.297   3.996   0.643 -1.4143  0.6496 -0.9951
 5887SOL    HW229121   2.289   4.051   0.783  0.4425  0.3239 -1.5089
 5888SOL     OW29122   2.517   0.780   3.149  0.2481  0.6264 -0.1361
 5888SOL    HW129123   2.584   0.848   3.148 -0.9012  1.7484 -1.1512
 5888SOL    HW229124   2.541   0.719   3.218  1.1269  1.6899  0.4989
 5889SOL     OW29125   3.370   0.950   9.086  0.5227 -0.3369  0.1676
 5889SOL    HW129126   3.425   0.979   9.159  0.7595  2.3510 -1.0758
 5889SOL    HW229127   3.349   0.861   9.114  4.6811 -1.4013 -0.1338
 5890SOL     OW29128   3.363   0.840   2.125  0.3015 -0.1050 -0.1440
 5890SOL    HW129129   3.432   0.809   2.066  0.0374  0.9758 -1.0280
 5890SOL    HW229130   3.394   0.931   2.131 -0.9401  0.3715 -1.0879
 5891SOL     OW29131   1.045   4.657  13.632 -0.1347  0.3565 -0.7017
 5891SOL    HW129132   1.018   4.707  13.555 -0.3671  0.8434 -0.3054
 5891SOL    HW229133   0.977   4.591  13.627  1.5496 -1.4306 -0.0206
 5892SOL     OW29134   2.979   3.085  16.218  0.0103 -0.2238  0.2940
 5892SOL    HW129135   2.953   2.999  16.252 -3.0774  0.9377  0.8957
 5892SOL    HW229136   2.897   3.106  16.173  1.1288 -0.5213 -1.8758
 5893SOL     OW29137   2.361   4.258   1.476 -0.4991 -0.9327  0.4253
 5893SOL    HW129138   2.318   4.242   1.560 -0.0716 -2.0579  0.4262
 5893SOL    HW229139   2.424   4.186   1.479 -0.0577 -0.4870  1.6682
 5894SOL     OW29140   1.460   3.146   1.789  0.4295 -0.5574 -0.1159
 5894SOL    HW129141   1.386   3.092   1.818  0.3048  0.5239  1.5846
 5894SOL    HW229142   1.530   3.081   1.793  4.3241  3.7234  0.3818
 5895SOL     OW29143   2.751   2.582   3.523  0.1824  0.2300  0.3956
 5895SOL    HW129144   2.799   2.504   3.550 -1.9942 -1.1535  0.1899
 5895SOL    HW229145   2.713   2.549   3.442  1.4537 -0.5611  0.1164
 5896SOL     OW29146   0.518   1.774   3.400 -0.1807 -0.2033 -0.4391
 5896SOL    HW129147   0.532   1.865   3.374 -0.2817 -0.2898 -0.7919
 5896SOL    HW229148   0.598   1.739   3.359 -0.4988  0.1783 -1.3755
 5897SOL     OW29149   0.727   1.648   3.626  0.3298 -0.1213  0.0758
 5897SOL    HW129150   0.641   1.669   3.589  0.1007  0.7222  1.0911
 5897SOL    HW229151   0.728   1.554   3.609  1.8959 -0.0742 -0.0322
 5898SOL     OW29152   3.792   4.518   1.134  0.2791 -0.1831  0.0159
 5898SOL    HW129153   3.807   4.605   1.099  0.1851 -0.0056  0.4208
 5898SOL    HW229154   3.768   4.542   1.224 -0.4952 -2.5489  0.4462
 5899SOL     OW29155   0.415   2.291   2.675 -0.4792 -0.4822  0.2957
 5899SOL    HW129156   0.420   2.379   2.639  0.3449 -1.3302 -1.7274
 5899SOL    HW229157   0.371   2.236   2.610 -0.2350  0.4418 -0.6652
 5900SOL     OW29158   4.262   3.603   9.694  0.3850  0.4660 -0.3065
 5900SOL    HW129159   4.179   3.616   9.740 -0.1929  1.3673 -1.6052
 5900SOL    HW229160   4.261   3.681   9.638 -0.2598 -0.0482 -0.9895
 5901SOL     OW29161   4.533   0.191   6.087 -0.1448 -0.2527  0.0018
 5901SOL    HW129162   4.622   0.186   6.051 -0.0186 -1.5809  0.4998
 5901SOL    HW229163   4.486   0.237   6.018  1.6100  1.1777 -0.2532
 5902SOL     OW29164   1.999   2.370   7.618  0.2375  0.8450 -0.0699
 5902SOL    HW129165   1.968   2.351   7.707  1.4582 -2.1513 -0.2714
 5902SOL    HW229166   2.000   2.464   7.605  0.2912  1.0095  1.1281
 5903SOL     OW29167   2.567   2.153   8.652  0.3713 -0.1663 -0.2564
 5903SOL    HW129168   2.550   2.246   8.671  0.3953 -0.1680 -0.2274
 5903SOL    HW229169   2.477   2.122   8.646  0.7093 -1.2300  0.2902
 5904SOL     OW29170   1.286   1.541  17.238  0.1101 -0.6677 -0.2266
 5904SOL    HW129171   1.260   1.449  17.245 -2.1662  0.1249  1.9187
 5904SOL    HW229172   1.377   1.526  17.214 -0.0273 -0.5445 -0.8332
 5905SOL     OW29173   1.518   3.318  12.217  0.5498  0.5801 -0.1797
 5905SOL    HW129174   1.571   3.239  12.222 -0.1850  0.1944  1.5090
 5905SOL    HW229175   1.564   3.379  12.275  0.7148  2.1635 -1.9862
 5906SOL     OW29176   1.076   0.497   3.865  0.0594 -0.2772 -0.0325
 5906SOL    HW129177   1.050   0.531   3.780 -0.5394  0.5992  0.5002
 5906SOL    HW229178   1.041   0.562   3.926  0.9699 -0.1441  0.3572
 5907SOL     OW29179   4.656   1.767   4.398  0.1322 -0.3095 -0.2290
 5907SOL    HW129180   4.605   1.825   4.454  0.0358 -0.8221  0.2173
 5907SOL    HW229181   4.590   1.734   4.336  1.5171 -1.0941 -1.2892
 5908SOL     OW29182   3.170   2.141  12.330  0.6580 -0.0867 -0.1172
 5908SOL    HW129183   3.127   2.226  12.344  0.9199 -0.2842  1.8662
 5908SOL    HW229184   3.235   2.147  12.400  0.9878  0.9805 -0.5117
 5909SOL     OW29185   0.874   0.434   2.557 -1.3680  0.4130  0.4140
 5909SOL    HW129186   0.898   0.499   2.491  0.2924 -1.4891 -0.8762
 5909SOL    HW229187   0.780   0.450   2.561 -1.5333 -0.8774  1.7599
 5910SOL     OW29188   0.324   2.132   2.467 -0.4364 -0.3838  0.5976
 5910SOL    HW129189   0.381   2.182   2.409 -0.0517 -2.2162 -0.5931
 5910SOL    HW229190   0.266   2.082   2.409  1.6378 -0.7236 -1.1756
 5911SOL     OW29191   4.483   3.072   1.896 -0.3566 -0.2347  0.3119
 5911SOL    HW129192   4.480   3.000   1.832 -0.5348  0.9216 -0.9787
 5911SOL    HW229193   4.576   3.072   1.919  0.0330  1.6167 -1.1952
 5912SOL     OW29194   0.203   1.776   8.939  0.1222 -0.2290 -0.1299
 5912SOL    HW129195   0.255   1.852   8.965  0.5236 -0.7397  0.5478
 5912SOL    HW229196   0.267   1.730   8.885 -0.4179 -0.3154 -0.6924
 5913SOL     OW29197   3.547   3.191   4.465 -0.3028 -0.1797  0.4855
 5913SOL    HW129198   3.557   3.096   4.471 -2.3222 -0.3310  1.5706
 5913SOL    HW229199   3.637   3.218   4.485  0.1321  0.2378 -2.1273
 5914SOL     OW29200   0.676   1.987  16.368  0.6122 -0.2341  0.2930
 5914SOL    HW129201   0.730   2.006  16.444 -1.0086  0.6494  1.2087
 5914SOL    HW229202   0.725   2.030  16.297  1.8700 -1.3833  0.4576
 5915SOL     OW29203   0.067   2.362   8.704  0.3820  0.0798  0.2620
 5915SOL    HW129204   0.048   2.302   8.633  0.2777  0.7565 -0.2870
 5915SOL    HW229205   0.021   2.441   8.673  0.1250 -0.8203 -1.6197
 5916SOL     OW29206   3.923   2.929   9.572  0.5273  0.1253  0.1775
 5916SOL    HW129207   3.836   2.930   9.532  0.7573  1.7698 -0.3043
 5916SOL    HW229208   3.936   3.024   9.573  0.1439  0.1635  2.5680
 5917SOL     OW29209   3.910   3.905  13.639 -0.2235  0.3321  0.0318
 5917SOL    HW129210   3.927   3.990  13.679 -1.0938  0.0922  0.9025
 5917SOL    HW229211   3.830   3.886  13.688 -0.4472 -1.3890 -0.9878
 5918SOL     OW29212   4.656   2.247   3.739  0.1829  0.5045  0.2084
 5918SOL    HW129213   4.640   2.217   3.650  0.1547 -0.3527  0.5062
 5918SOL    HW229214   4.659   2.342   3.730 -2.4470  0.3037 -2.6606
 5919SOL     OW29215   1.101   1.101   9.736  0.0306  0.2645 -0.5264
 5919SOL    HW129216   1.037   1.038   9.703  0.0764 -0.6411  1.1438
 5919SOL    HW229217   1.048   1.162   9.787 -0.7444 -2.4301  1.8621
 5920SOL     OW29218   1.569   1.301   1.457 -0.2876 -0.4890 -0.0008
 5920SOL    HW129219   1.639   1.333   1.401 -2.7218  1.1265 -2.1093
 5920SOL    HW229220   1.554   1.215   1.416  0.0745 -0.5796  0.0631
 5921SOL     OW29221   1.072   2.153   1.945 -0.9340 -0.0060  0.2399
 5921SOL    HW129222   1.042   2.150   1.855 -2.1927  1.6963  0.6042
 5921SOL    HW229223   1.102   2.243   1.958 -0.1882 -0.5660  2.4953
 5922SOL     OW29224   0.599   1.487   1.956  0.7186 -0.2658  0.0027
 5922SOL    HW129225   0.562   1.427   1.891 -0.4189 -1.1169  1.4454
 5922SOL    HW229226   0.587   1.568   1.906 -0.4519 -0.6503 -0.3303
 5923SOL     OW29227   3.100   2.151   2.901  0.2026 -0.0303 -0.0602
 5923SOL    HW129228   3.189   2.142   2.935  0.7204  0.7036 -1.2132
 5923SOL    HW229229   3.075   2.067   2.862 -2.3774  0.1113  1.3197
 5924SOL     OW29230   3.506   3.449   1.315  0.4462 -0.1717 -0.1588
 5924SOL    HW129231   3.436   3.419   1.372  1.0349 -2.1535 -0.4928
 5924SOL    HW229232   3.560   3.496   1.379 -1.4203 -0.5740  1.6772
 5925SOL     OW29233   0.248   1.770   6.790 -0.1159  0.1470  0.4015
 5925SOL    HW129234   0.293   1.850   6.764  1.2935 -1.8863 -3.3686
 5925SOL    HW229235   0.163   1.812   6.805 -1.4704 -1.1182 -3.6670
 5926SOL     OW29236   2.194   0.173   5.331  0.0597 -0.0501  0.1364
 5926SOL    HW129237   2.143   0.211   5.403  0.5440  1.0910 -0.1349
 5926SOL    HW229238   2.184   0.233   5.258  2.4817 -1.2699 -1.1856
 5927SOL     OW29239   1.614   1.019   1.814  0.2215  0.2214 -0.4192
 5927SOL    HW129240   1.661   0.966   1.877  1.2245 -2.5028 -3.4988
 5927SOL    HW229241   1.681   1.081   1.786  0.2379  0.1064 -0.6318
 5928SOL     OW29242   1.839   1.906   6.826 -0.2886  0.4063  0.6489
 5928SOL    HW129243   1.923   1.935   6.862 -0.2269  0.7434  0.2368
 5928SOL    HW229244   1.855   1.852   6.749  2.2973  0.6861  0.9906
 5929SOL     OW29245   2.539   4.185  11.283  0.1576 -0.0055  0.4141
 5929SOL    HW129246   2.566   4.095  11.267  0.2395  0.0550  0.2072
 5929SOL    HW229247   2.496   4.207  11.200 -0.5457  0.5086  0.9169
 5930SOL     OW29248   1.155   4.682   5.737  0.6394 -0.8753 -0.7497
 5930SOL    HW129249   1.176   4.589   5.724  1.9906 -0.4980 -1.2136
 5930SOL    HW229250   1.061   4.677   5.757  0.0181  1.4952 -3.0195
 5931SOL     OW29251   0.098   0.384   2.635 -0.0718  0.5300  0.5209
 5931SOL    HW129252   0.077   0.339   2.553  2.1019  0.0389  0.2342
 5931SOL    HW229253   0.103   0.466   2.587  0.4370 -0.2195 -0.6940
 5932SOL     OW29254   0.784   3.517  12.624 -1.0717 -0.4684 -0.6768
 5932SOL    HW129255   0.775   3.556  12.710  1.1752  0.2218 -0.7456
 5932SOL    HW229256   0.720   3.446  12.631 -1.4127 -0.1680 -0.7522
 5933SOL     OW29257   2.597   4.324   5.810  0.2055  0.3967  0.1385
 5933SOL    HW129258   2.578   4.401   5.863 -1.5430  1.7110 -2.4213
 5933SOL    HW229259   2.614   4.368   5.727  0.3331 -0.5799 -0.3560
 5934SOL     OW29260   4.326   3.455   3.038 -0.2450 -0.2975  0.5539
 5934SOL    HW129261   4.416   3.433   3.062 -0.0803  0.9076  1.0103
 5934SOL    HW229262   4.303   3.371   2.997  0.4325  0.0160 -0.4771
 5935SOL     OW29263   3.684   1.372  17.008 -0.6736 -0.3845 -0.0631
 5935SOL    HW129264   3.634   1.321  17.072  0.0360  0.1125  0.9006
 5935SOL    HW229265   3.623   1.372  16.934  0.3833  0.0702 -0.9279
 5936SOL     OW29266   4.625   0.023   8.104 -0.5354  0.8579 -0.3155
 5936SOL    HW129267   4.644   4.663   8.061 -0.7789  0.6538 -0.0234
 5936SOL    HW229268   4.545   0.001   8.151  0.5565 -0.6922  0.8200
 5937SOL     OW29269   1.254   1.016  10.987 -0.2589 -0.2337  0.1750
 5937SOL    HW129270   1.322   1.084  10.989 -0.2444 -0.2966  2.5714
 5937SOL    HW229271   1.221   1.026  10.898 -2.6237  1.1347  1.2011
 5938SOL     OW29272   2.588   0.652   5.512  0.0505 -0.8062  0.5027
 5938SOL    HW129273   2.657   0.587   5.529  0.3465  0.0467  2.6437
 5938SOL    HW229274   2.536   0.614   5.442  0.9213 -1.6603  0.3144
 5939SOL     OW29275   3.338   4.349  13.346  0.6992 -0.2274  0.3912
 5939SOL    HW129276   3.315   4.441  13.358  1.3021  0.2607 -2.2588
 5939SOL    HW229277   3.333   4.349  13.250 -1.5285  1.3469  0.5217
 5940SOL     OW29278   1.124   0.632   5.852  0.3989 -0.4335 -0.1357
 5940SOL    HW129279   1.161   0.657   5.767  0.3760  0.7368  0.2036
 5940SOL    HW229280   1.065   0.560   5.831  1.1410 -1.3744  0.9797
 5941SOL     OW29281   1.534   3.605  10.107  0.0196  0.1858  0.0375
 5941SOL    HW129282   1.506   3.641  10.191 -1.8847 -0.1941 -0.4308
 5941SOL    HW229283   1.464   3.616  10.042  0.4826 -0.3536 -0.5641
 5942SOL     OW29284   1.601   1.245  15.509  0.5444  0.4314  0.3760
 5942SOL    HW129285   1.668   1.313  15.522 -3.4271  4.1789  1.2875
 5942SOL    HW229286   1.525   1.273  15.559  1.0949  1.2116  0.7734
 5943SOL     OW29287   3.423   0.474   7.986 -0.1652  0.5343 -0.0473
 5943SOL    HW129288   3.470   0.466   8.069  2.3025  1.3139 -1.3813
 5943SOL    HW229289   3.421   0.385   7.951  1.2878  0.8334 -0.8838
 5944SOL     OW29290   2.678   1.042   8.785  0.6357 -0.0123  0.1619
 5944SOL    HW129291   2.583   1.042   8.802  0.7451  0.5050  0.8285
 5944SOL    HW229292   2.712   1.032   8.874  0.9517 -2.8383 -0.3096
 5945SOL     OW29293   1.643   4.475  15.366 -0.2574 -0.0034 -0.2679
 5945SOL    HW129294   1.555   4.440  15.352  0.6201 -2.1526 -0.3881
 5945SOL    HW229295   1.696   4.409  15.321 -0.5588  0.9189 -1.9479
 5946SOL     OW29296   3.635   3.008   4.110 -0.0859 -0.4619  0.2323
 5946SOL    HW129297   3.606   3.082   4.057  0.9549  0.6507  1.2496
 5946SOL    HW229298   3.721   3.034   4.144 -0.1024 -1.2777  0.8975
 5947SOL     OW29299   0.831   3.423  15.931  0.0711  0.3957  0.5040
 5947SOL    HW129300   0.825   3.348  15.990  0.6682 -0.0088  0.0479
 5947SOL    HW229301   0.865   3.489  15.992 -0.9143  1.6606 -0.2972
 5948SOL     OW29302   0.592   1.288   4.404 -0.6233  0.3764  0.2225
 5948SOL    HW129303   0.530   1.339   4.351  0.4620  1.2974 -0.1725
 5948SOL    HW229304   0.606   1.348   4.477 -0.7696 -0.7471  1.1610
 5949SOL     OW29305   3.683   2.091  13.246  0.2904 -0.7865  0.0236
 5949SOL    HW129306   3.641   2.005  13.254 -0.1765 -0.7926 -2.5354
 5949SOL    HW229307   3.614   2.139  13.292 -1.4054 -1.4179 -1.9087
 5950SOL     OW29308   3.407   0.474   4.679  0.8732  0.3337 -0.2243
 5950SOL    HW129309   3.420   0.504   4.589 -0.7873 -1.3410 -1.0075
 5950SOL    HW229310   3.464   0.535   4.726  0.6938  2.2102 -2.4086
 5951SOL     OW29311   2.737   1.744   7.205 -0.2442  0.1943  0.4177
 5951SOL    HW129312   2.695   1.828   7.224 -0.3510  0.6845 -1.9340
 5951SOL    HW229313   2.678   1.679   7.245 -0.7693 -0.4894 -1.4184
 5952SOL     OW29314   1.919   3.696   4.970 -0.3157 -0.6150  0.2299
 5952SOL    HW129315   1.825   3.684   4.956 -0.7462  4.6267 -1.5924
 5952SOL    HW229316   1.922   3.733   5.058 -0.7786  0.9451 -0.3988
 5953SOL     OW29317   3.308   4.550  15.599 -0.2631  0.7665 -0.0339
 5953SOL    HW129318   3.279   4.596  15.520 -1.7482 -2.2264 -1.2108
 5953SOL    HW229319   3.397   4.529  15.570  0.5751 -0.2999  3.2901
 5954SOL     OW29320   4.127   1.476   6.370 -0.0935 -0.4470  0.3131
 5954SOL    HW129321   4.071   1.436   6.437 -0.1948  0.0824  0.5502
 5954SOL    HW229322   4.091   1.565   6.366  1.0949 -0.0423 -1.2036
 5955SOL     OW29323   2.475   0.076   5.360  0.3874 -0.1339  0.0548
 5955SOL    HW129324   2.508   0.112   5.278  0.4506 -1.9456 -0.7256
 5955SOL    HW229325   2.380   0.087   5.352  0.5384  0.2103 -1.2197
 5956SOL     OW29326   0.630   1.479  15.856 -0.2951 -0.5345 -0.2959
 5956SOL    HW129327   0.724   1.459  15.860 -0.3559 -0.9501 -0.9583
 5956SOL    HW229328   0.636   1.573  15.872  0.9264 -0.7002  0.2566
 5957SOL     OW29329   1.865   0.237  17.178  0.2743  0.0883 -0.0166
 5957SOL    HW129330   1.884   0.193  17.261  2.7313 -2.1035 -1.7264
 5957SOL    HW229331   1.951   0.263  17.145 -0.3699  0.4117 -1.4307
 5958SOL     OW29332   0.536   4.181   6.609  0.1867  0.4477  0.1936
 5958SOL    HW129333   0.446   4.209   6.592 -0.6759 -2.9470 -0.8248
 5958SOL    HW229334   0.573   4.260   6.648 -1.4458  1.0706  0.5043
 5959SOL     OW29335   4.711   2.797   6.565 -0.1635  0.1203  0.2790
 5959SOL    HW129336   0.075   2.830   6.548  0.2772 -0.3317  1.7254
 5959SOL    HW229337   4.724   2.703   6.551 -1.0982 -0.0418  0.4953
 5960SOL     OW29338   3.865   2.483   9.477  0.2923  0.6213  0.1421
 5960SOL    HW129339   3.918   2.415   9.519  1.2595  1.7868  0.8101
 5960SOL    HW229340   3.928   2.527   9.419  1.0468 -1.5915 -0.7571
 5961SOL     OW29341   0.702   3.683   4.020 -0.1677  0.2936  0.3875
 5961SOL    HW129342   0.703   3.650   3.930 -0.3812 -1.5012  1.0469
 5961SOL    HW229343   0.671   3.772   4.002 -0.4775 -0.0126 -0.5726
 5962SOL     OW29344   1.243   2.841   2.379 -0.3142 -0.0387 -0.3477
 5962SOL    HW129345   1.148   2.838   2.366 -0.3946  0.3373  0.1475
 5962SOL    HW229346   1.274   2.840   2.289 -0.8205 -0.2311 -0.5204
 5963SOL     OW29347   4.517   1.130   4.746 -0.8691  0.3153 -0.3097
 5963SOL    HW129348   4.457   1.094   4.812 -0.4813  0.8897  0.3501
 5963SOL    HW229349   4.468   1.211   4.731 -0.0974  0.2699 -3.1501
 5964SOL     OW29350   3.526   2.420   3.278 -0.0421  0.1956 -0.5351
 5964SOL    HW129351   3.514   2.427   3.373 -1.1214  0.2024 -0.6757
 5964SOL    HW229352   3.476   2.339   3.269  0.4926 -0.2407  0.3914
 5965SOL     OW29353   3.432   0.895   8.116 -0.2353  0.3940  0.1729
 5965SOL    HW129354   3.447   0.989   8.130  1.6864 -0.4085  3.3270
 5965SOL    HW229355   3.520   0.857   8.120 -0.1306  0.5096 -0.8151
 5966SOL     OW29356   1.426   0.228  11.184  0.0438 -0.0443  0.1517
 5966SOL    HW129357   1.471   0.176  11.250  2.6142 -0.5974 -2.0619
 5966SOL    HW229358   1.390   0.297  11.241  0.0040  0.3021 -0.2940
 5967SOL     OW29359   1.503   2.853   7.959 -0.2931 -0.7144 -0.0306
 5967SOL    HW129360   1.417   2.892   7.974 -0.3775 -0.6879 -0.5855
 5967SOL    HW229361   1.477   2.780   7.903  1.1897 -2.1975  1.1999
 5968SOL     OW29362   3.737   0.140   2.138 -0.2198 -0.7576  0.4788
 5968SOL    HW129363   3.827   0.164   2.158 -0.4142 -0.4978  1.0308
 5968SOL    HW229364   3.735   0.159   2.044 -1.6404  2.0635  1.0759
 5969SOL     OW29365   1.000   1.302  12.611 -0.4881 -0.2146  0.0805
 5969SOL    HW129366   1.094   1.310  12.621 -0.3616 -0.6748 -0.7517
 5969SOL    HW229367   0.963   1.378  12.656 -2.0890 -0.3609 -0.9827
 5970SOL     OW29368   2.865   2.380  15.872  0.4045 -0.2640  0.0088
 5970SOL    HW129369   2.823   2.436  15.937  2.5149  0.7023  0.5482
 5970SOL    HW229370   2.825   2.399  15.788  2.5628 -1.9843 -1.4367
 5971SOL     OW29371   2.738   0.309   2.469  0.0241 -0.3439 -0.3174
 5971SOL    HW129372   2.762   0.282   2.557  0.2249  1.4039  0.1790
 5971SOL    HW229373   2.644   0.295   2.460 -0.3393  2.3597 -0.8439
 5972SOL     OW29374   0.099   3.315  15.549 -0.2547 -0.5779 -0.3751
 5972SOL    HW129375   0.138   3.392  15.509  0.8465 -2.1492 -2.3297
 5972SOL    HW229376   0.013   3.305  15.508 -0.1466 -0.4594 -0.6245
 5973SOL     OW29377   0.250   2.248   0.158  0.1988 -0.8462  0.1427
 5973SOL    HW129378   0.185   2.194   0.203  1.5784 -3.1367 -0.6237
 5973SOL    HW229379   0.309   2.267   0.231  1.6968  1.2997 -1.6105
 5974SOL     OW29380   3.789   4.087   8.725 -0.3383 -0.1994 -0.2714
 5974SOL    HW129381   3.862   4.047   8.772  1.1458  1.3841 -1.2439
 5974SOL    HW229382   3.826   4.130   8.648 -1.1732 -0.4582 -0.8142
 5975SOL     OW29383   0.467   3.959  11.691 -0.5135 -0.1351  0.2956
 5975SOL    HW129384   0.436   3.893  11.629 -0.8111  0.3583 -0.0820
 5975SOL    HW229385   0.477   4.028  11.625 -1.2520  0.0008  0.3238
 5976SOL     OW29386   0.677   0.428   8.414  0.3189 -0.5638 -0.0733
 5976SOL    HW129387   0.749   0.366   8.428  0.5535  0.1415  1.9127
 5976SOL    HW229388   0.655   0.413   8.323 -0.1685  1.0060 -0.2229
 5977SOL     OW29389   4.237   3.638  17.133  0.6449 -0.6511  0.4697
 5977SOL    HW129390   4.237   3.645  17.229  1.4836 -2.5342  0.5991
 5977SOL    HW229391   4.291   3.563  17.107  1.7026  0.9396 -1.9240
 5978SOL     OW29392   0.078   3.589   0.998  0.7700 -0.0836  0.0599
 5978SOL    HW129393   0.139   3.558   0.931  0.5484  0.7356 -0.5210
 5978SOL    HW229394   0.111   3.679   1.001  1.4346 -0.3222 -0.0881
 5979SOL     OW29395   3.548   4.215   8.556  0.0636 -0.0271 -0.4815
 5979SOL    HW129396   3.613   4.215   8.486  2.6793  0.9106  1.9612
 5979SOL    HW229397   3.490   4.144   8.528 -2.2987  1.7469 -0.0936
 5980SOL     OW29398   4.625   4.722   6.255 -0.2214 -0.3459  0.2747
 5980SOL    HW129399   4.586   0.061   6.195  0.3474 -1.8043 -1.6393
 5980SOL    HW229400   4.695   4.688   6.198 -0.6267  3.8078 -2.7034
 5981SOL     OW29401   0.497   2.470  11.865 -0.1487 -0.2932  0.2833
 5981SOL    HW129402   0.420   2.522  11.845  0.0690  0.6462  1.8640
 5981SOL    HW229403   0.492   2.395  11.807  0.5778  0.1335 -0.3352
 5982SOL     OW29404   3.549   2.735   6.290  0.0826 -0.5306  0.3596
 5982SOL    HW129405   3.624   2.696   6.246 -0.0590  1.2454 -1.4645
 5982SOL    HW229406   3.586   2.815   6.326  1.2325 -0.5237 -0.8248
 5983SOL     OW29407   1.535   4.247   1.148  0.3760  0.1659  0.6710
 5983SOL    HW129408   1.471   4.313   1.121  2.2622  0.9237 -2.0103
 5983SOL    HW229409   1.488   4.197   1.215 -2.0442  1.1999 -0.2329
 5984SOL     OW29410   3.143   3.642  11.822 -0.8185  0.0475  0.3473
 5984SOL    HW129411   3.226   3.640  11.869 -0.9899 -2.0896  0.5643
 5984SOL    HW229412   3.163   3.609  11.735  2.5893  1.3155  0.6422
 5985SOL     OW29413   1.730   0.472   6.087 -0.0637  0.8112  0.3510
 5985SOL    HW129414   1.647   0.518   6.103 -1.2006 -1.0644 -0.1593
 5985SOL    HW229415   1.692   0.391   6.053  1.4769  0.7105 -1.0902
 5986SOL     OW29416   1.618   3.159  13.733 -0.3318  0.3798 -0.2827
 5986SOL    HW129417   1.524   3.148  13.721 -0.0285 -1.8695 -0.7199
 5986SOL    HW229418   1.645   3.195  13.649  0.8629 -1.2044 -0.5879
 5987SOL     OW29419   0.122   3.708   8.663 -0.5709 -0.1562 -0.7447
 5987SOL    HW129420   0.153   3.647   8.596 -0.0216 -1.0606  0.3467
 5987SOL    HW229421   0.119   3.658   8.744 -1.4684 -0.2040 -0.8115
 5988SOL     OW29422   4.233   0.855   3.207  0.0627  0.3509  0.2110
 5988SOL    HW129423   4.245   0.848   3.113 -0.7155  0.8862  0.0748
 5988SOL    HW229424   4.311   0.909   3.219  0.0993  0.0673  1.2876
 5989SOL     OW29425   3.238   3.953  11.896 -0.2202 -0.2614 -0.1083
 5989SOL    HW129426   3.205   4.038  11.924 -1.7943 -1.1093  0.6074
 5989SOL    HW229427   3.330   3.954  11.925  0.6310 -0.2538 -2.8615
 5990SOL     OW29428   2.908   3.953  17.599  0.1315  0.1656 -0.2311
 5990SOL    HW129429   2.880   3.984  17.685 -0.0955  3.6553 -1.5935
 5990SOL    HW229430   2.879   4.021  17.539 -1.5673  0.7683  1.2597
 5991SOL     OW29431   2.662   2.393   4.100 -0.0177  0.8491 -0.0926
 5991SOL    HW129432   2.672   2.411   4.193  1.2121  0.0372 -0.0637
 5991SOL    HW229433   2.689   2.301   4.098  0.2645  0.9190  0.4579
 5992SOL     OW29434   2.327   0.156   1.203 -0.4206  0.6269 -0.5373
 5992SOL    HW129435   2.294   0.226   1.259 -0.5464 -0.3938  0.6446
 5992SOL    HW229436   2.413   0.138   1.241 -1.3406 -1.4085  0.5416
 5993SOL     OW29437   2.927   4.226   5.001  0.4592 -0.0486 -0.0338
 5993SOL    HW129438   2.994   4.288   4.973  0.7906 -0.1795  0.4717
 5993SOL    HW229439   2.857   4.268   4.951  2.4104  1.1374 -1.7546
 5994SOL     OW29440   1.020   3.482   5.504 -0.0172 -0.0929 -0.2063
 5994SOL    HW129441   1.078   3.536   5.558  1.0390 -0.3294 -1.1013
 5994SOL    HW229442   0.990   3.418   5.569  3.7933 -2.7653 -0.9990
 5995SOL     OW29443   0.220   3.032   6.147 -0.0102  0.2126 -0.1352
 5995SOL    HW129444   0.145   3.086   6.171  2.4522  2.5939  2.2064
 5995SOL    HW229445   0.277   3.090   6.097 -0.4017  1.6640  1.1107
 5996SOL     OW29446   0.345   2.707  15.289 -0.1180 -0.0334  0.1372
 5996SOL    HW129447   0.406   2.758  15.237  0.7769 -0.2626  0.9696
 5996SOL    HW229448   0.335   2.640  15.221 -1.9590  0.5473 -0.1802
 5997SOL     OW29449   0.646   1.513   1.391 -0.0648 -0.6661 -0.3629
 5997SOL    HW129450   0.622   1.545   1.478 -1.3554 -2.5948  0.0045
 5997SOL    HW229451   0.735   1.479   1.402 -0.7170 -1.8452  1.3896
 5998SOL     OW29452   0.006   2.982   7.221 -0.2672 -0.0768 -0.7176
 5998SOL    HW129453   4.686   2.897   7.217 -1.2675  0.4967 -2.0049
 5998SOL    HW229454   0.099   2.959   7.218  0.2627  1.7889  1.5716
 5999SOL     OW29455   3.469   1.805   9.811  0.2354 -0.3675 -0.2702
 5999SOL    HW129456   3.388   1.760   9.833  0.0201  0.2932  0.3277
 5999SOL    HW229457   3.541   1.748   9.837  1.2473  0.8379 -0.4269
 6000SOL     OW29458   2.208   2.429   7.357  0.0438 -0.5553 -0.1393
 6000SOL    HW129459   2.136   2.412   7.417 -0.2514 -1.0376 -0.6320
 6000SOL    HW229460   2.192   2.363   7.289  0.3256  0.4566 -1.2068
 6001SOL     OW29461   0.051   0.287   5.405 -0.2506  0.1482 -0.5509
 6001SOL    HW129462   0.085   0.373   5.378  1.1527 -0.2064  0.1401
 6001SOL    HW229463   0.080   0.281   5.496 -1.6454 -1.3431 -0.2099
 6002SOL     OW29464   0.713   0.607   1.964 -0.6132 -0.3493 -0.4731
 6002SOL    HW129465   0.790   0.591   2.018 -1.1570 -0.1467  0.3704
 6002SOL    HW229466   0.743   0.569   1.882 -0.5034  0.4113 -0.7865
 6003SOL     OW29467   2.558   0.915   6.835 -0.7880  0.0091 -0.3422
 6003SOL    HW129468   2.542   0.860   6.758  0.1068 -0.1034 -0.4407
 6003SOL    HW229469   2.495   0.880   6.898 -1.4861  0.3932 -0.8278
 6004SOL     OW29470   2.012   0.597   3.353  0.5069  0.3718 -0.0157
 6004SOL    HW129471   1.989   0.648   3.430  0.9731 -0.0452  0.3927
 6004SOL    HW229472   2.098   0.638   3.338  0.2235  0.5184 -1.3022
 6005SOL     OW29473   0.227   4.025  12.020 -0.0869 -0.1527  0.2334
 6005SOL    HW129474   0.263   4.111  12.041 -2.9338  0.5024  2.4669
 6005SOL    HW229475   0.135   4.046  12.038 -0.0772 -0.3975  0.5769
 6006SOL     OW29476   1.434   1.899   7.531 -0.4045 -0.1306 -0.2748
 6006SOL    HW129477   1.386   1.940   7.603 -1.0779  0.9096 -1.3243
 6006SOL    HW229478   1.406   1.956   7.460 -0.4845  0.4301  0.2111
 6007SOL     OW29479   3.370   1.942   8.382  0.3055  0.2532  0.1388
 6007SOL    HW129480   3.330   2.019   8.422 -0.3503 -0.0315  0.0340
 6007SOL    HW229481   3.395   1.981   8.298  0.6781 -0.6158 -0.1519
 6008SOL     OW29482   0.374   4.582  13.979 -0.0440 -0.0307 -0.5930
 6008SOL    HW129483   0.310   4.564  13.909 -2.0067 -0.5244  1.3353
 6008SOL    HW229484   0.314   4.618  14.044  0.3455 -1.6821  0.6868
 6009SOL     OW29485   2.090   0.541   4.541  0.2757 -0.8092  0.5684
 6009SOL    HW129486   1.999   0.527   4.515  0.4205 -0.0938 -0.3433
 6009SOL    HW229487   2.127   0.583   4.463 -0.2544  0.3189  0.9206
 6010SOL     OW29488   0.216   1.814  10.571  0.3337  0.1450  0.0152
 6010SOL    HW129489   0.184   1.832  10.483 -1.1441  0.9104  0.6988
 6010SOL    HW229490   0.224   1.718  10.567  1.0080  0.2600 -1.3800
 6011SOL     OW29491   1.199   2.661   8.653 -0.0044 -0.0745 -0.2209
 6011SOL    HW129492   1.186   2.686   8.745  0.0996 -0.0564 -0.2112
 6011SOL    HW229493   1.125   2.706   8.612 -1.2938 -1.6956  0.3220
 6012SOL     OW29494   3.921   2.331   5.589  0.1240 -0.7139 -0.0742
 6012SOL    HW129495   3.944   2.353   5.680  0.5286 -1.6479  0.0449
 6012SOL    HW229496   3.826   2.327   5.595  0.0139 -0.4649 -1.7600
 6013SOL     OW29497   2.641   3.124  13.611  0.4700  0.0831  0.2221
 6013SOL    HW129498   2.669   3.104  13.522  1.7982  1.3372  0.3566
 6013SOL    HW229499   2.635   3.219  13.621 -3.5820 -0.0947 -0.4484
 6014SOL     OW29500   3.511   0.978   9.343  0.5043 -0.2224  0.0836
 6014SOL    HW129501   3.604   0.980   9.323  0.5386 -0.1644  0.2505
 6014SOL    HW229502   3.524   0.901   9.398  0.6393  0.8718  1.5931
 6015SOL     OW29503   1.606   4.363   6.511 -0.4870  0.2161 -0.1241
 6015SOL    HW129504   1.617   4.457   6.528  1.6000 -0.3938  1.8236
 6015SOL    HW229505   1.692   4.322   6.508 -1.3692 -1.8706  2.9258
 6016SOL     OW29506   2.646   3.530  10.891 -0.0609  0.4429  0.0139
 6016SOL    HW129507   2.661   3.438  10.869  0.5230 -0.2122  3.0970
 6016SOL    HW229508   2.716   3.565  10.837 -0.2056 -0.1175 -0.5423
 6017SOL     OW29509   3.180   0.556   7.589 -0.4871 -0.1076 -0.3074
 6017SOL    HW129510   3.263   0.537   7.544  0.1818 -0.2904  0.9948
 6017SOL    HW229511   3.208   0.618   7.657  1.5338 -0.1781 -1.0552
 6018SOL     OW29512   4.710   1.783   2.238 -0.1023 -0.3836 -0.0599
 6018SOL    HW129513   4.683   1.827   2.157 -0.0251  0.5421  0.4216
 6018SOL    HW229514   4.622   1.753   2.257  0.6365 -2.7483 -0.3504
 6019SOL     OW29515   2.337   2.993   7.686  0.5520  0.5965 -0.0092
 6019SOL    HW129516   2.428   3.024   7.682  1.2564 -1.1215  2.6037
 6019SOL    HW229517   2.307   3.030   7.769 -0.9980 -1.9280  0.5419
 6020SOL     OW29518   1.798   3.657   0.218 -0.4038  0.2437 -0.0220
 6020SOL    HW129519   1.820   3.688   0.130 -0.2220  0.2856  0.0378
 6020SOL    HW229520   1.768   3.567   0.208 -1.5803  0.4191  2.0355
 6021SOL     OW29521   2.283   3.866   2.055 -0.0929  0.0226 -0.1903
 6021SOL    HW129522   2.322   3.934   2.111  0.2182 -0.0741 -0.2911
 6021SOL    HW229523   2.260   3.799   2.119 -1.5293 -0.5848 -1.3466
 6022SOL     OW29524   3.813   2.801  12.545 -0.0978 -0.3249 -0.0763
 6022SOL    HW129525   3.892   2.789  12.598 -1.1165  1.5708  1.8804
 6022SOL    HW229526   3.747   2.809  12.615 -0.2715 -1.1527 -0.1442
 6023SOL     OW29527   2.705   1.790   1.691 -0.2874  0.1480 -0.1942
 6023SOL    HW129528   2.783   1.759   1.645 -0.1377 -0.5975  0.5588
 6023SOL    HW229529   2.711   1.717   1.753  0.0750  0.5783  0.2664
 6024SOL     OW29530   0.848   3.792   6.828  0.0796  0.0139  0.5188
 6024SOL    HW129531   0.870   3.718   6.884  0.5986  0.6505  1.1658
 6024SOL    HW229532   0.926   3.847   6.819 -0.5635  1.0634  1.2925
 6025SOL     OW29533   2.400   4.407  12.345  0.4084 -0.1711 -0.2080
 6025SOL    HW129534   2.489   4.417  12.379 -0.0074  0.6179  0.6569
 6025SOL    HW229535   2.413   4.322  12.304 -0.2713  0.2453 -1.2777
 6026SOL     OW29536   3.828   3.857   4.185 -0.4710 -0.6225  0.0126
 6026SOL    HW129537   3.797   3.877   4.274  1.1946  0.0418  0.4309
 6026SOL    HW229538   3.744   3.855   4.139 -0.0892 -1.5148 -0.6243
 6027SOL     OW29539   3.469   1.242   9.310  0.5750  0.0909  0.7057
 6027SOL    HW129540   3.464   1.147   9.321 -0.6343 -0.1443 -1.6655
 6027SOL    HW229541   3.532   1.261   9.241 -0.2058  1.7149  0.4282
 6028SOL     OW29542   1.860   2.242   4.250  0.2854 -0.4567 -0.1110
 6028SOL    HW129543   1.821   2.161   4.282 -1.1736  0.3575  0.1799
 6028SOL    HW229544   1.952   2.227   4.271  0.4510 -1.3564 -1.4990
 6029SOL     OW29545   0.095   2.390   2.543 -0.4461 -0.2647 -0.4100
 6029SOL    HW129546   0.118   2.449   2.471 -0.9234 -0.3788 -0.6561
 6029SOL    HW229547   0.128   2.432   2.622 -1.0046 -0.6791  0.0379
 6030SOL     OW29548   2.215   4.279   7.528 -0.3786  0.0367 -0.7013
 6030SOL    HW129549   2.265   4.360   7.534  0.8887 -0.7983 -0.1548
 6030SOL    HW229550   2.133   4.319   7.555 -0.2460  0.6991 -1.2763
 6031SOL     OW29551   3.323   0.811   5.272 -0.2432  0.3466 -0.1984
 6031SOL    HW129552   3.347   0.793   5.180 -1.3879 -2.4472  0.0347
 6031SOL    HW229553   3.344   0.727   5.313  1.1410  0.7519 -0.0560
 6032SOL     OW29554   4.098   0.727  16.563 -0.0125 -0.0931  0.0399
 6032SOL    HW129555   4.025   0.779  16.531  0.0252  0.2739  0.5447
 6032SOL    HW229556   4.151   0.797  16.601 -0.3941 -0.3973  1.1300
 6033SOL     OW29557   3.600   1.366   6.329 -0.2074  0.0131 -0.3679
 6033SOL    HW129558   3.647   1.441   6.366 -3.3710  0.5685  2.5987
 6033SOL    HW229559   3.664   1.348   6.261  0.7521 -2.3541  1.1618
 6034SOL     OW29560   2.276   4.301   3.576  0.0207 -0.1735 -0.1825
 6034SOL    HW129561   2.350   4.353   3.544 -2.1008  0.9302 -3.3775
 6034SOL    HW229562   2.229   4.288   3.493  0.7580  1.8849 -0.9274
 6035SOL     OW29563   2.853   4.337   3.127 -0.2108  0.3904  0.4109
 6035SOL    HW129564   2.836   4.250   3.165 -0.2613  0.1807 -0.0894
 6035SOL    HW229565   2.946   4.341   3.107 -0.9366  1.7519 -2.5564
 6036SOL     OW29566   1.176   2.909  14.369 -0.1050 -0.2469 -0.6064
 6036SOL    HW129567   1.221   2.831  14.336  2.4051  0.9055  0.1382
 6036SOL    HW229568   1.094   2.866  14.394 -0.4738  1.1164  0.5031
 6037SOL     OW29569   3.646   3.484  13.895  0.0807  0.5227 -0.0619
 6037SOL    HW129570   3.613   3.427  13.826  1.4993 -0.8216  0.3753
 6037SOL    HW229571   3.710   3.421  13.927 -1.4879 -1.5128 -0.9228
 6038SOL     OW29572   2.493   2.703  13.674 -0.1624  0.0122 -0.2147
 6038SOL    HW129573   2.545   2.641  13.726  1.1649  0.3755 -1.1015
 6038SOL    HW229574   2.410   2.656  13.667  0.3239 -0.3766 -3.4436
 6039SOL     OW29575   1.619   4.423   5.215  0.6396 -0.2768 -0.3274
 6039SOL    HW129576   1.591   4.384   5.132  2.7725 -0.0051 -1.1527
 6039SOL    HW229577   1.637   4.510   5.181 -2.8402 -0.0085 -1.5065
 6040SOL     OW29578   2.990   4.500  15.914 -0.1602  0.8383  0.3746
 6040SOL    HW129579   2.938   4.427  15.947  1.5462  0.4932  2.2857
 6040SOL    HW229580   3.040   4.458  15.845 -1.1562 -0.6744  0.5832
 6041SOL     OW29581   2.860   3.950   9.756 -0.2323  0.0093  0.3617
 6041SOL    HW129582   2.952   3.929   9.738  0.3329  0.5422  2.6986
 6041SOL    HW229583   2.810   3.895   9.696  2.3910 -0.2523 -1.5770
 6042SOL     OW29584   2.426   4.220  11.014  0.1794  0.2985  0.1280
 6042SOL    HW129585   2.395   4.302  11.053  2.1951  1.0565  0.1346
 6042SOL    HW229586   2.348   4.170  10.989 -1.2817  1.8276  1.5601
 6043SOL     OW29587   4.162   1.520   6.694  0.1844  0.4662 -0.0336
 6043SOL    HW129588   4.074   1.519   6.730  0.3178  2.6246  0.3963
 6043SOL    HW229589   4.164   1.435   6.651 -0.3948 -1.3638  3.5134
 6044SOL     OW29590   1.783   1.520   4.202  0.0099 -0.5404  0.2932
 6044SOL    HW129591   1.879   1.523   4.200 -0.1288  2.5057 -2.1365
 6044SOL    HW229592   1.779   1.456   4.273 -1.8130 -0.2570  0.4440
 6045SOL     OW29593   0.356   2.811   9.328  0.0461  0.1638  0.3327
 6045SOL    HW129594   0.426   2.825   9.264  1.0531 -0.3851  1.3017
 6045SOL    HW229595   0.324   2.901   9.337 -2.7795 -0.6053 -2.2736
 6046SOL     OW29596   3.641   1.408  11.568 -0.0050  0.2666  0.2201
 6046SOL    HW129597   3.673   1.424  11.657  2.1207 -1.3517 -0.2493
 6046SOL    HW229598   3.707   1.439  11.506  3.5775 -1.0079  3.3601
 6047SOL     OW29599   2.205   4.152   6.716 -0.5187 -0.2665 -0.2861
 6047SOL    HW129600   2.266   4.100   6.767 -2.4252 -0.7865  1.4749
 6047SOL    HW229601   2.191   4.232   6.767 -0.2798 -1.0147  0.9400
 6048SOL     OW29602   0.688   2.748  12.870 -0.0510 -0.0356  0.1404
 6048SOL    HW129603   0.604   2.707  12.849 -0.5903  0.2108  1.7562
 6048SOL    HW229604   0.727   2.751  12.783 -2.7217 -0.2944 -1.0754
 6049SOL     OW29605   0.236   4.009   7.814 -0.5061 -0.0918  0.3486
 6049SOL    HW129606   0.295   3.960   7.871  0.6192  0.6076 -0.2304
 6049SOL    HW229607   0.152   3.963   7.821 -0.3431 -0.4468 -0.0526
 6050SOL     OW29608   3.662   0.136   8.684  0.1170 -0.1621  0.8142
 6050SOL    HW129609   3.710   0.218   8.676 -0.2374  0.0924  1.2983
 6050SOL    HW229610   3.710   0.098   8.759  0.1497 -2.4017 -0.3423
 6051SOL     OW29611   2.700   2.640   5.167  0.1509 -0.4082 -0.5253
 6051SOL    HW129612   2.790   2.673   5.164  0.4259 -1.1118  0.1653
 6051SOL    HW229613   2.708   2.547   5.144  1.1869 -0.1476 -1.2739
 6052SOL     OW29614   2.704   3.483   4.528 -0.2947 -0.1494 -0.5464
 6052SOL    HW129615   2.711   3.476   4.433 -2.2130 -0.3643 -0.6782
 6052SOL    HW229616   2.616   3.446   4.529  0.1878 -1.3107 -1.4630
 6053SOL     OW29617   3.612   0.356   4.220 -0.1660 -0.0655 -0.2266
 6053SOL    HW129618   3.556   0.339   4.296  0.5704  1.2125  0.6046
 6053SOL    HW229619   3.626   0.271   4.179  1.0188  0.0532 -0.0649
 6054SOL     OW29620   0.448   2.698  15.902  0.0626  0.0142 -0.1409
 6054SOL    HW129621   0.395   2.776  15.917 -0.6622 -0.7531  1.3307
 6054SOL    HW229622   0.526   2.732  15.859  0.9476 -1.0251  0.6116
 6055SOL     OW29623   3.422   3.661  11.195  0.2432  0.3742 -0.6027
 6055SOL    HW129624   3.394   3.716  11.268 -2.6209 -0.8235 -0.7783
 6055SOL    HW229625   3.509   3.689  11.169 -0.3897  1.9104 -1.0677
 6056SOL     OW29626   2.070   1.509  11.842 -0.0925 -0.0521  0.4103
 6056SOL    HW129627   2.059   1.414  11.849  2.6182 -0.2195  2.2491
 6056SOL    HW229628   2.164   1.515  11.827 -0.1620 -2.4906 -0.9769
 6057SOL     OW29629   2.767   4.221   9.808 -0.2803  0.5126 -0.3719
 6057SOL    HW129630   2.806   4.273   9.738 -0.9243  0.8512 -0.4842
 6057SOL    HW229631   2.802   4.136   9.782  2.3796  0.6080  2.8891
 6058SOL     OW29632   3.451   3.801   0.937 -0.2991 -0.2543  0.1039
 6058SOL    HW129633   3.529   3.745   0.942 -0.3835 -0.6692 -3.3614
 6058SOL    HW229634   3.387   3.759   0.995 -0.1117 -2.0871 -1.0030
 6059SOL     OW29635   4.527   1.982  10.316 -0.0022  0.0458  0.1410
 6059SOL    HW129636   4.519   2.065  10.268  2.0366  1.3307  2.0103
 6059SOL    HW229637   4.438   1.947  10.304  0.0228 -0.4779  1.4546
 6060SOL     OW29638   1.289   3.224   6.637  0.7915  0.1352 -0.0861
 6060SOL    HW129639   1.342   3.227   6.716  3.2444 -2.5392 -1.6029
 6060SOL    HW229640   1.323   3.138   6.612  2.2189  0.2642  1.4707
 6061SOL     OW29641   0.431   1.181   9.289  0.0808  0.4153 -0.1937
 6061SOL    HW129642   0.485   1.238   9.235 -0.8943  0.6913 -0.8685
 6061SOL    HW229643   0.355   1.175   9.232  0.5865 -0.9628 -0.7115
 6062SOL     OW29644   4.229   1.230   4.531 -0.3321  0.1817 -0.1544
 6062SOL    HW129645   4.266   1.283   4.601 -0.9593  0.1348  0.2053
 6062SOL    HW229646   4.172   1.298   4.495  0.9748  1.0644 -0.5548
 6063SOL     OW29647   3.535   1.773   5.663  0.2488 -0.2906 -0.7447
 6063SOL    HW129648   3.571   1.726   5.588 -2.7336 -0.0631 -2.3482
 6063SOL    HW229649   3.593   1.752   5.735  1.2413  1.2629 -1.1008
 6064SOL     OW29650   0.552   1.117   6.703 -0.3732  0.2927  0.1345
 6064SOL    HW129651   0.596   1.149   6.625 -2.8608  0.2849 -1.2752
 6064SOL    HW229652   0.468   1.154   6.677 -1.1249 -0.8398  0.9067
 6065SOL     OW29653   1.077   3.944   4.402  0.2181 -0.0233  0.4640
 6065SOL    HW129654   1.068   3.885   4.328 -0.9112 -0.1138  0.6735
 6065SOL    HW229655   0.998   3.996   4.387  0.1265 -0.6323 -1.1089
 6066SOL     OW29656   1.251   0.108   0.394  0.1471 -0.3741 -0.1335
 6066SOL    HW129657   1.187   0.178   0.408 -1.0790 -2.0535  2.8010
 6066SOL    HW229658   1.227   0.047   0.465  0.7804  0.0695  0.4653
 6067SOL     OW29659   3.448   2.370   9.111  0.5370 -0.1238  0.6945
 6067SOL    HW129660   3.535   2.345   9.141  1.3912 -0.6125 -2.1797
 6067SOL    HW229661   3.400   2.289   9.128  2.2940 -1.4492 -0.7763
 6068SOL     OW29662   3.222   3.634  16.761 -0.7174 -0.3893 -0.0121
 6068SOL    HW129663   3.157   3.700  16.787  0.0625  0.1597  0.5659
 6068SOL    HW229664   3.286   3.691  16.716  1.3813 -1.0221  2.1820
 6069SOL     OW29665   3.272   1.329  17.016 -0.6336 -0.0827 -0.1428
 6069SOL    HW129666   3.361   1.297  17.034 -1.3668 -0.0827  3.4511
 6069SOL    HW229667   3.217   1.251  17.007 -1.1657 -0.0806  3.1788
 6070SOL     OW29668   4.091   4.114   6.161 -0.3321 -0.0594  0.0247
 6070SOL    HW129669   4.147   4.131   6.237  0.3081  0.4058 -0.5545
 6070SOL    HW229670   4.142   4.044   6.120 -1.1343 -0.0667 -0.9457
 6071SOL     OW29671   2.819   2.429   7.967 -0.0101 -0.2823 -0.1849
 6071SOL    HW129672   2.807   2.343   7.928 -0.9203 -0.1925 -0.0846
 6071SOL    HW229673   2.864   2.473   7.894 -0.8878  0.4711 -0.2677
 6072SOL     OW29674   1.579   0.276   6.959 -0.1371 -0.0586  0.1723
 6072SOL    HW129675   1.667   0.307   6.979 -0.5327  1.2099 -0.0779
 6072SOL    HW229676   1.599   0.193   6.914 -0.4096 -1.1640  2.0970
 6073SOL     OW29677   2.999   0.589  13.733  0.1264 -0.5984 -0.2703
 6073SOL    HW129678   2.985   0.511  13.679 -3.3140 -0.1065 -0.0806
 6073SOL    HW229679   2.984   0.657  13.668 -1.4927 -0.4785  0.2373
 6074SOL     OW29680   2.047   0.384   7.998  0.1256 -0.3423  0.2927
 6074SOL    HW129681   1.988   0.408   7.927  1.6674 -1.3638 -1.3494
 6074SOL    HW229682   2.032   0.463   8.049 -0.6217  2.0553 -3.5867
 6075SOL     OW29683   0.099   3.634   2.342 -0.4061 -0.3950  0.1195
 6075SOL    HW129684   0.010   3.624   2.308 -0.9505 -0.1371  1.4656
 6075SOL    HW229685   0.146   3.646   2.259 -1.0814  0.1935 -0.1753
 6076SOL     OW29686   3.517   3.605   7.863  0.0422  0.4282  0.0094
 6076SOL    HW129687   3.555   3.555   7.935 -0.0003  1.3417  0.6723
 6076SOL    HW229688   3.443   3.552   7.833  3.0201 -4.0160  0.6419
 6077SOL     OW29689   3.163   1.256   4.031 -0.0387  0.3886  0.0852
 6077SOL    HW129690   3.152   1.161   4.031  0.3119  0.3487  0.6283
 6077SOL    HW229691   3.137   1.279   3.942  0.4942 -0.3407 -0.2562
 6078SOL     OW29692   1.289   3.377   4.257  0.2912 -0.4280  0.0010
 6078SOL    HW129693   1.332   3.351   4.176  1.1903  0.2526  0.2651
 6078SOL    HW229694   1.358   3.367   4.321  0.0674  0.1627  0.3360
 6079SOL     OW29695   0.137   3.046   8.481 -0.4229 -0.2513 -0.2041
 6079SOL    HW129696   0.163   3.104   8.409 -0.7257  1.7815  1.3347
 6079SOL    HW229697   0.150   2.962   8.436  0.3342 -0.0947 -0.2828
 6080SOL     OW29698   3.307   1.989  13.225  0.5869 -0.0112  0.1791
 6080SOL    HW129699   3.363   2.065  13.240  1.2925 -0.3109 -0.9470
 6080SOL    HW229700   3.360   1.923  13.272  2.4282  2.0834  1.0335
 6081SOL     OW29701   3.643   2.732   5.990  0.2711 -0.4320 -0.3173
 6081SOL    HW129702   3.584   2.663   6.021 -1.3321  0.9454 -0.3431
 6081SOL    HW229703   3.726   2.710   6.033  0.3763 -0.3865 -0.4948
 6082SOL     OW29704   1.597   4.278   1.449  0.1359  0.3178 -0.1601
 6082SOL    HW129705   1.524   4.218   1.468  0.2246 -0.4523 -2.2588
 6082SOL    HW229706   1.552   4.359   1.427 -0.5284 -0.3183 -1.1390
 6083SOL     OW29707   3.793   1.185   8.569 -0.6313 -0.2997 -0.1696
 6083SOL    HW129708   3.794   1.241   8.491 -0.7225  1.7619  1.3090
 6083SOL    HW229709   3.765   1.247   8.635  1.9464 -0.8848  1.4791
 6084SOL     OW29710   1.839   0.558   3.764  0.0054 -0.0427 -0.1290
 6084SOL    HW129711   1.910   0.609   3.726 -1.4070  1.0375 -1.2901
 6084SOL    HW229712   1.776   0.563   3.693 -1.0075 -1.9643  0.6364
 6085SOL     OW29713   2.799   4.232   9.128 -0.0226  0.6171  0.2113
 6085SOL    HW129714   2.736   4.177   9.081 -1.5985 -0.9107  4.1429
 6085SOL    HW229715   2.794   4.315   9.080  1.2911  1.2197  1.1218
 6086SOL     OW29716   0.664   1.701   5.688 -0.4369 -0.2357 -0.2891
 6086SOL    HW129717   0.744   1.649   5.695 -0.7151 -0.5997  0.1542
 6086SOL    HW229718   0.603   1.641   5.646 -0.3276  0.3922 -1.3398
 6087SOL     OW29719   1.210   0.392   1.150 -1.2937 -0.2104 -0.5027
 6087SOL    HW129720   1.304   0.395   1.169 -1.1790 -0.7821 -0.9883
 6087SOL    HW229721   1.204   0.311   1.100 -3.7869 -0.5358  0.2810
 6088SOL     OW29722   1.053   1.277   3.344  0.9292 -0.0004 -0.2824
 6088SOL    HW129723   1.045   1.371   3.357  0.5647 -0.0426 -0.2022
 6088SOL    HW229724   1.013   1.249   3.427  0.4658  2.3138  0.2521
 6089SOL     OW29725   3.100   0.262  11.993  0.1013 -1.1584 -0.3743
 6089SOL    HW129726   3.103   0.168  12.009 -3.3624 -0.7486  2.5348
 6089SOL    HW229727   3.065   0.262  11.904 -0.0385 -1.0494 -0.3184
 6090SOL     OW29728   3.185   1.686  11.222 -0.0730  0.7363  0.3725
 6090SOL    HW129729   3.128   1.718  11.292  1.1008 -0.0626  1.6856
 6090SOL    HW229730   3.106   1.672  11.169  0.4787 -0.9345 -0.0143
 6091SOL     OW29731   3.405   0.002  16.125 -0.2627 -0.1045  0.1583
 6091SOL    HW129732   3.389   4.663  16.195 -0.2807 -1.3733 -0.9906
 6091SOL    HW229733   3.499   4.713  16.108 -1.0087 -0.8444 -3.3727
 6092SOL     OW29734   2.961   3.815  16.689  0.0884  0.2127  0.2347
 6092SOL    HW129735   2.975   3.768  16.770 -1.9604  0.2535  0.6213
 6092SOL    HW229736   3.039   3.866  16.669  0.7218 -0.8524  0.0397
 6093SOL     OW29737   0.172   2.041   0.561  0.0385 -0.1041 -0.2263
 6093SOL    HW129738   0.257   2.022   0.521 -0.6934 -0.5988 -1.5450
 6093SOL    HW229739   0.152   1.952   0.591 -0.5686  0.3974  0.8634
 6094SOL     OW29740   4.349   1.134  12.352  0.2471  1.2023 -0.3698
 6094SOL    HW129741   4.319   1.059  12.404  0.5256  1.0253 -0.4649
 6094SOL    HW229742   4.414   1.083  12.303  0.2847 -0.8111  1.7430
 6095SOL     OW29743   4.703   3.944  11.276  0.1585 -0.0957  0.6234
 6095SOL    HW129744   4.670   3.963  11.189  1.4473 -0.2132  0.1116
 6095SOL    HW229745   4.724   3.851  11.269 -1.9046 -0.6154  1.5380
 6096SOL     OW29746   3.972   1.588   2.710 -0.0374 -0.1111  0.1766
 6096SOL    HW129747   4.045   1.570   2.651 -0.8682  0.1588 -0.9461
 6096SOL    HW229748   3.993   1.535   2.787  0.1552  0.1050  0.2736
 6097SOL     OW29749   2.991   2.837   7.586 -0.5562 -0.1483 -0.4245
 6097SOL    HW129750   3.032   2.750   7.587  3.5504  1.8006  0.9281
 6097SOL    HW229751   3.006   2.845   7.492 -0.0973 -0.9365 -0.4230
 6098SOL     OW29752   2.695   2.433   1.440 -0.7191  0.0068 -0.2872
 6098SOL    HW129753   2.786   2.407   1.424 -0.6694 -0.7864  1.3534
 6098SOL    HW229754   2.703   2.466   1.529 -0.2343 -0.5558 -0.1189
 6099SOL     OW29755   3.039   0.336   7.705  0.1359 -0.8636  0.4046
 6099SOL    HW129756   3.094   0.405   7.667  1.7492 -0.7242  2.9746
 6099SOL    HW229757   3.067   0.254   7.665  0.5690 -1.1457  1.2834
 6100SOL     OW29758   0.342   0.440   1.817 -0.1732  0.8718 -0.0019
 6100SOL    HW129759   0.390   0.499   1.759 -0.4610  1.6977  0.6143
 6100SOL    HW229760   0.379   0.473   1.899  0.3130 -2.8448  1.2876
 6101SOL     OW29761   3.643   3.302   3.636  0.3462 -0.1392  0.0831
 6101SOL    HW129762   3.556   3.268   3.654  0.4380 -0.5263 -0.2178
 6101SOL    HW229763   3.665   3.354   3.713 -1.9953 -0.7564  1.1599
 6102SOL     OW29764   4.388   2.772  10.013  0.3578  0.1847  0.6020
 6102SOL    HW129765   4.372   2.725  10.095  2.0373  1.1746  1.4802
 6102SOL    HW229766   4.302   2.815  10.008  0.6076  1.1139  4.3078
 6103SOL     OW29767   4.575   0.015  17.669 -0.2051  0.2452 -0.4433
 6103SOL    HW129768   4.637   4.676  17.633  0.5283  0.0605  1.1913
 6103SOL    HW229769   4.507   0.011  17.601  0.5575  0.3762 -1.2114
 6104SOL     OW29770   3.075   0.315  12.257 -0.1726 -0.3065 -0.3526
 6104SOL    HW129771   3.072   0.305  12.162  2.9098  0.5092 -0.5323
 6104SOL    HW229772   3.113   0.403  12.263 -0.1702 -0.3021 -0.4304
 6105SOL     OW29773   2.842   1.581   4.138 -0.5511  0.5197  0.0640
 6105SOL    HW129774   2.924   1.593   4.089  0.8444  0.2005  2.3072
 6105SOL    HW229775   2.848   1.486   4.139 -2.8716  0.3727 -0.7853
 6106SOL     OW29776   2.921   1.916   3.835 -0.5802 -0.8143  0.0273
 6106SOL    HW129777   3.003   1.881   3.870  0.7526 -0.5786 -2.8680
 6106SOL    HW229778   2.951   1.968   3.761 -4.3242 -0.8303 -1.5356
 6107SOL     OW29779   2.087   3.647   4.162  0.4242 -0.1392 -0.1990
 6107SOL    HW129780   2.130   3.730   4.180 -0.7754  0.4256  0.0356
 6107SOL    HW229781   2.145   3.621   4.090  0.1846  0.0671 -0.4704
 6108SOL     OW29782   0.462   4.231  14.961 -0.4312  0.2781 -0.3789
 6108SOL    HW129783   0.380   4.276  14.984 -0.6243 -0.6897  0.8621
 6108SOL    HW229784   0.424   4.172  14.896 -1.1190  0.7218 -0.3838
 6109SOL     OW29785   1.293   3.727  13.855  0.3675  0.6128 -0.3955
 6109SOL    HW129786   1.377   3.689  13.880 -0.9542  0.2126  3.3722
 6109SOL    HW229787   1.298   3.725  13.759 -2.1433  0.6735 -0.5434
 6110SOL     OW29788   0.071   4.165   6.917  0.1343 -0.3600 -0.0614
 6110SOL    HW129789   0.031   4.114   6.988 -0.4707  1.3691  0.8370
 6110SOL    HW229790   0.001   4.163   6.853 -0.1674  0.9699  0.2283
 6111SOL     OW29791   0.729   0.900   2.424  0.1500  0.0006  0.5860
 6111SOL    HW129792   0.643   0.943   2.422  0.4086  0.5041  0.1794
 6111SOL    HW229793   0.764   0.942   2.345 -1.0363 -1.5753 -0.7867
 6112SOL     OW29794   2.390   3.758  10.052  0.7209 -0.4974 -0.0362
 6112SOL    HW129795   2.479   3.782  10.079 -0.1083  1.6491  0.8071
 6112SOL    HW229796   2.391   3.787   9.961  1.5798 -1.3825 -0.3081
 6113SOL     OW29797   0.257   2.124   5.128  0.5350  0.4001  0.5055
 6113SOL    HW129798   0.285   2.118   5.036  0.6253 -1.0803  0.6320
 6113SOL    HW229799   0.163   2.139   5.117  0.2738 -0.5899  1.3755
 6114SOL     OW29800   4.284   3.707   8.864 -0.8051  0.0881 -0.0062
 6114SOL    HW129801   4.362   3.654   8.847  0.3708  1.8387 -0.0071
 6114SOL    HW229802   4.261   3.673   8.950 -1.7943 -0.5400 -0.5178
 6115SOL     OW29803   1.955   1.607   0.983  0.1809  0.0263 -0.3793
 6115SOL    HW129804   1.937   1.694   1.019 -0.2547 -0.6096  0.9471
 6115SOL    HW229805   2.050   1.610   0.985  0.2166 -1.4672  0.2433
 6116SOL     OW29806   0.352   2.750   1.159  0.1356 -0.0330 -0.1076
 6116SOL    HW129807   0.396   2.723   1.240 -1.7121  0.4974  1.0807
 6116SOL    HW229808   0.373   2.843   1.154 -1.3640  0.3003 -0.0788
 6117SOL     OW29809   0.096   1.871   0.160 -0.9465 -0.0068 -0.2674
 6117SOL    HW129810   0.173   1.833   0.203  0.4995  1.3769 -1.6221
 6117SOL    HW229811   0.077   1.944   0.218 -1.1811 -0.7901  0.6393
 6118SOL     OW29812   1.539   0.926  10.315  0.1203  0.4875  0.3295
 6118SOL    HW129813   1.452   0.965  10.303 -0.2306 -0.5590 -0.5581
 6118SOL    HW229814   1.514   0.836  10.290  1.7438  0.0352  0.3656
 6119SOL     OW29815   4.633   1.090   3.532 -0.1604  0.0931 -0.1922
 6119SOL    HW129816   4.676   1.073   3.616  1.5232  3.9182 -0.2735
 6119SOL    HW229817   4.707   1.086   3.471 -0.4303  1.3671 -0.6125
 6120SOL     OW29818   0.003   0.534   8.669  0.0498  0.3981  0.0134
 6120SOL    HW129819   0.058   0.576   8.735 -0.4258  1.1278 -0.0524
 6120SOL    HW229820   0.056   0.556   8.593  1.5919 -1.7854  0.4470
 6121SOL     OW29821   1.519   0.580   1.373 -0.1009  0.4283 -0.1926
 6121SOL    HW129822   1.605   0.621   1.376  1.5394 -2.9461 -0.6303
 6121SOL    HW229823   1.466   0.648   1.414 -1.1713 -0.0661 -0.7670
 6122SOL     OW29824   3.299   3.037  12.178  0.4600 -0.8386 -0.2241
 6122SOL    HW129825   3.287   2.960  12.235 -2.3670 -1.2514 -1.3657
 6122SOL    HW229826   3.306   3.008  12.088  1.2245  0.1637 -0.4868
 6123SOL     OW29827   4.020   2.148   1.296 -0.0523  0.2130  0.2099
 6123SOL    HW129828   3.989   2.059   1.314  0.6847  0.2398  1.6314
 6123SOL    HW229829   3.936   2.194   1.291  0.9980  2.2261  1.2096
 6124SOL     OW29830   3.541   4.466  15.531  0.2282  0.5811 -0.0849
 6124SOL    HW129831   3.604   4.423  15.589  0.4944 -0.1807 -0.9392
 6124SOL    HW229832   3.597   4.475  15.454  0.2180  0.6399 -0.0856
 6125SOL     OW29833   2.981   4.469   6.317 -0.2684  0.0853 -0.2232
 6125SOL    HW129834   2.910   4.468   6.381 -1.4487  2.5803 -1.4890
 6125SOL    HW229835   2.994   4.563   6.301  3.0469 -0.3230  0.0718
 6126SOL     OW29836   0.507   3.217   8.495 -0.0328  0.1752  0.2018
 6126SOL    HW129837   0.496   3.208   8.590 -1.0029 -0.7124 -0.0001
 6126SOL    HW229838   0.523   3.125   8.473  2.4037  0.6183  0.1500
 6127SOL     OW29839   2.656   3.997   9.034  0.1446 -0.3158 -0.0937
 6127SOL    HW129840   2.569   4.037   9.023  0.4357 -0.1519 -1.7694
 6127SOL    HW229841   2.676   3.974   8.943  0.1695  1.2257 -0.4733
 6128SOL     OW29842   1.522   1.761   0.922 -0.0861 -0.6006  0.1514
 6128SOL    HW129843   1.514   1.780   1.015 -1.4198  0.7191 -0.2380
 6128SOL    HW229844   1.589   1.827   0.904 -1.4297  0.8900  0.6635
 6129SOL     OW29845   2.455   2.956  12.340 -0.5672 -0.9368  0.2838
 6129SOL    HW129846   2.484   2.886  12.281  2.6992  0.2960  0.4200
 6129SOL    HW229847   2.535   3.005  12.359 -0.3534  0.0867 -3.1397
 6130SOL     OW29848   3.217   2.819  13.397  0.0803 -0.6664  0.4895
 6130SOL    HW129849   3.266   2.811  13.315 -0.9448 -1.0213 -0.0897
 6130SOL    HW229850   3.256   2.893  13.444 -1.2320  0.6070 -0.4019
 6131SOL     OW29851   4.282   2.466   6.804  0.6084 -0.4190 -0.0096
 6131SOL    HW129852   4.248   2.378   6.787 -2.2370  0.8311 -0.7486
 6131SOL    HW229853   4.210   2.517   6.841  1.4320  0.2899  0.6165
 6132SOL     OW29854   1.356   0.771   2.505  1.1748 -0.0392 -0.2445
 6132SOL    HW129855   1.311   0.713   2.567 -0.2675  2.2077  0.8120
 6132SOL    HW229856   1.285   0.831   2.484 -1.7939 -2.3230  3.1598
 6133SOL     OW29857   3.639   3.185  11.166 -0.3129 -0.5144 -0.2373
 6133SOL    HW129858   3.604   3.256  11.220 -2.1036 -3.0941  2.0019
 6133SOL    HW229859   3.734   3.199  11.168 -0.2517 -0.9315 -0.1745
 6134SOL     OW29860   3.666   1.761  17.235 -0.2124 -0.3591  0.5713
 6134SOL    HW129861   3.713   1.679  17.247 -0.1292 -0.6117 -1.3870
 6134SOL    HW229862   3.711   1.800  17.160 -1.0415  1.8563  1.2328
 6135SOL     OW29863   0.241   0.123   4.629 -0.2856  0.1171 -0.1292
 6135SOL    HW129864   0.187   0.129   4.708 -0.8858  1.4758 -0.6403
 6135SOL    HW229865   0.227   0.037   4.591 -4.8996 -0.1947  2.2851
 6136SOL     OW29866   0.275   3.963   8.916  0.5838 -0.5030  0.7300
 6136SOL    HW129867   0.313   3.985   8.831 -0.0741  0.5348  0.7093
 6136SOL    HW229868   0.287   4.046   8.962  0.7989 -0.8568  1.3268
 6137SOL     OW29869   0.642   3.403   1.808  0.0299  0.4221  0.4709
 6137SOL    HW129870   0.663   3.474   1.748 -2.5635  1.3332  0.6358
 6137SOL    HW229871   0.591   3.454   1.871 -0.2925  1.5288 -0.6856
 6138SOL     OW29872   1.367   0.103  17.373  0.3800  0.3733 -0.5389
 6138SOL    HW129873   1.441   0.074  17.426 -0.8006 -0.0287  0.9161
 6138SOL    HW229874   1.308   0.027  17.376  0.5926  0.3213  2.3122
 6139SOL     OW29875   0.297   1.221   6.710  0.2040  0.2307 -0.0444
 6139SOL    HW129876   0.266   1.169   6.784  1.0969 -2.2893 -1.4137
 6139SOL    HW229877   0.322   1.303   6.752  1.9133  0.4347 -1.4718
 6140SOL     OW29878   1.069   3.434   5.252  0.0482 -0.1438  0.1057
 6140SOL    HW129879   1.040   3.474   5.334  1.3555  0.4173  0.2802
 6140SOL    HW229880   1.095   3.349   5.287 -2.0409 -0.0322  1.9442
 6141SOL     OW29881   3.980   3.066   8.258  0.0663 -0.1418  0.4830
 6141SOL    HW129882   3.902   3.034   8.304  1.2029 -1.4803  1.4574
 6141SOL    HW229883   3.980   3.010   8.180 -0.3555 -2.4425  2.1469
 6142SOL     OW29884   4.521   3.391   7.526 -0.1244 -0.8614 -0.6130
 6142SOL    HW129885   4.562   3.354   7.448  0.7170 -1.1531 -0.0268
 6142SOL    HW229886   4.458   3.318   7.532 -1.9292  0.6011 -1.6902
 6143SOL     OW29887   2.118   4.643  10.073  0.2805 -0.5900  0.7963
 6143SOL    HW129888   2.160   4.683   9.996 -0.8136 -1.5330 -0.2866
 6143SOL    HW229889   2.199   4.619  10.117  0.1750  1.5170  2.1094
 6144SOL     OW29890   3.380   2.366   2.862  0.0242 -0.1066  0.0156
 6144SOL    HW129891   3.348   2.432   2.924  0.0585 -1.6157  1.6414
 6144SOL    HW229892   3.352   2.287   2.909  0.0173 -0.3101 -0.3350
 6145SOL     OW29893   3.244   0.669  15.680  0.2242  0.4140  0.8491
 6145SOL    HW129894   3.234   0.643  15.588  0.3853 -2.1806  1.5783
 6145SOL    HW229895   3.331   0.710  15.676 -0.5334  2.0303  1.0293
 6146SOL     OW29896   4.274   2.993   7.942 -0.0860  0.5186 -0.3379
 6146SOL    HW129897   4.295   2.934   7.869  2.3237  1.1495 -0.1769
 6146SOL    HW229898   4.185   3.015   7.914 -0.1025  0.3225 -0.4372
 6147SOL     OW29899   2.546   2.542   2.996  0.1651  0.3544  0.3667
 6147SOL    HW129900   2.627   2.492   2.982 -1.2681 -1.5782 -1.0125
 6147SOL    HW229901   2.580   2.608   3.057  2.5060 -0.5526  0.0660
 6148SOL     OW29902   3.843   2.888  10.389  0.3589 -0.2087 -0.0381
 6148SOL    HW129903   3.795   2.805  10.398  1.5487 -0.8802  0.1928
 6148SOL    HW229904   3.926   2.862  10.431  0.4171 -1.7281 -1.0761
 6149SOL     OW29905   1.537   2.345   5.076 -0.0753  0.2541 -0.3060
 6149SOL    HW129906   1.483   2.291   5.133 -1.1967 -2.1243 -3.5834
 6149SOL    HW229907   1.484   2.425   5.077  0.5933  0.6973  0.0538
 6150SOL     OW29908   2.893   1.656   4.430  0.0672 -0.0218 -0.2703
 6150SOL    HW129909   2.817   1.624   4.478 -0.3549  0.1758 -0.7945
 6150SOL    HW229910   2.882   1.593   4.359 -0.8247 -0.9040  0.6605
 6151SOL     OW29911   2.156   3.146   2.577  0.4245 -0.1634 -0.2161
 6151SOL    HW129912   2.200   3.171   2.496  1.1635  0.7906  0.4844
 6151SOL    HW229913   2.215   3.073   2.593  0.3142 -0.7092 -2.2422
 6152SOL     OW29914   2.695   0.813   7.768  0.5788  0.0280 -0.0769
 6152SOL    HW129915   2.600   0.799   7.768  0.5999 -0.1243 -0.6866
 6152SOL    HW229916   2.710   0.848   7.856  0.2073  0.2182 -0.0857
 6153SOL     OW29917   3.691   4.130   2.682 -0.2999 -0.3007  0.5796
 6153SOL    HW129918   3.649   4.174   2.608  0.4216  2.0528  1.5899
 6153SOL    HW229919   3.781   4.119   2.652  0.5004  4.3478  1.2857
 6154SOL     OW29920   0.367   1.420  10.239 -0.0747 -0.5102  0.0687
 6154SOL    HW129921   0.378   1.479  10.165  0.0681  3.8087  3.5503
 6154SOL    HW229922   0.291   1.458  10.282  0.8667  2.7878 -1.2388
 6155SOL     OW29923   3.319   1.900  11.069 -0.1310 -0.1483  0.1859
 6155SOL    HW129924   3.269   1.827  11.105  0.7153 -1.4101 -1.1935
 6155SOL    HW229925   3.377   1.922  11.142 -0.4621  0.7892  0.1555
 6156SOL     OW29926   0.865   4.339  11.069 -0.0630  0.3848 -0.3935
 6156SOL    HW129927   0.780   4.383  11.066 -0.2900 -0.0708 -0.6293
 6156SOL    HW229928   0.851   4.269  11.005 -3.0208  0.3866  0.2759
 6157SOL     OW29929   0.036   3.650   6.770 -0.0180  0.3720 -0.3826
 6157SOL    HW129930   0.115   3.598   6.787 -0.7418 -0.0678  1.5654
 6157SOL    HW229931   0.040   3.712   6.843  1.4949 -0.6468  0.3913
 6158SOL     OW29932   4.553   3.911   3.779 -0.5437  0.1804  0.5315
 6158SOL    HW129933   4.623   3.851   3.754 -3.1293 -2.0609 -1.3707
 6158SOL    HW229934   4.482   3.847   3.775 -0.9026  0.6473 -0.6869
 6159SOL     OW29935   3.643   1.395   5.504 -0.1546  0.0158  0.0427
 6159SOL    HW129936   3.558   1.439   5.505  1.2261  2.6396  1.1453
 6159SOL    HW229937   3.626   1.303   5.524 -0.8791  0.1427  0.0302
 6160SOL     OW29938   4.003   2.765  12.328  0.2167 -0.0877 -0.2369
 6160SOL    HW129939   3.925   2.774  12.383 -0.2061 -0.3811 -0.7838
 6160SOL    HW229940   3.965   2.704  12.265  1.3022  2.0551 -2.9745
 6161SOL     OW29941   3.295   0.806  16.116 -0.1799 -0.3074 -0.0608
 6161SOL    HW129942   3.243   0.752  16.057 -0.7746  0.0036  0.1770
 6161SOL    HW229943   3.301   0.881  16.055  0.4505 -1.4811 -1.4393
 6162SOL     OW29944   3.231   0.925   6.625 -0.0718 -0.1291  0.3705
 6162SOL    HW129945   3.301   0.860   6.632  0.1292  0.2788  2.2294
 6162SOL    HW229946   3.169   0.886   6.563  2.2052 -2.6103 -0.3391
 6163SOL     OW29947   4.105   4.559   1.834  0.6705  0.5273  0.2858
 6163SOL    HW129948   4.157   4.620   1.886  0.4630 -0.6625  1.8562
 6163SOL    HW229949   4.081   4.630   1.774  1.1112 -0.0752 -0.6176
 6164SOL     OW29950   2.046   0.238  15.153  0.0520 -0.5009  0.4328
 6164SOL    HW129951   2.081   0.295  15.085  2.2322 -1.2106  0.9585
 6164SOL    HW229952   2.108   0.258  15.223 -1.9212  1.7076  1.5120
 6165SOL     OW29953   3.696   3.562   4.737  0.2960 -0.2370 -0.2499
 6165SOL    HW129954   3.694   3.482   4.684  1.9142  0.3944 -1.2225
 6165SOL    HW229955   3.775   3.601   4.702  1.1312 -2.3716 -0.7748
 6166SOL     OW29956   2.998   1.613  12.645 -0.1235 -0.3318 -0.5009
 6166SOL    HW129957   3.002   1.547  12.714 -0.9530 -0.5670 -0.6733
 6166SOL    HW229958   2.910   1.645  12.667  0.0754  0.1211 -0.3658
 6167SOL     OW29959   4.062   0.455   6.260 -0.3728 -0.0187  0.0408
 6167SOL    HW129960   4.020   0.388   6.313  1.0644  0.2376  1.5106
 6167SOL    HW229961   4.156   0.443   6.272 -0.3147  1.8957  1.6058
 6168SOL     OW29962   0.218   3.556   7.828  0.2385  0.2177 -0.0278
 6168SOL    HW129963   0.311   3.563   7.808  0.3791 -1.5232 -0.0147
 6168SOL    HW229964   0.209   3.479   7.884 -1.0283 -0.1815 -0.7803
 6169SOL     OW29965   2.896   2.588   5.806 -0.2672  0.0522  0.4427
 6169SOL    HW129966   2.988   2.596   5.831 -0.3572  0.4068  0.6655
 6169SOL    HW229967   2.852   2.638   5.874  0.1550  1.2942 -0.2007
 6170SOL     OW29968   3.587   0.304   2.700 -0.4328 -0.2863 -0.0298
 6170SOL    HW129969   3.661   0.246   2.715  0.3661  0.9072  0.6951
 6170SOL    HW229970   3.601   0.368   2.771 -1.6545 -0.6169  0.5140
 6171SOL     OW29971   1.234   4.317   5.450 -0.3985 -0.7180  0.3497
 6171SOL    HW129972   1.153   4.360   5.425 -0.7920 -1.7824 -0.1777
 6171SOL    HW229973   1.295   4.338   5.379 -1.1605  0.7532  0.1287
 6172SOL     OW29974   1.831   0.270  11.343 -0.6100  0.3622  0.0398
 6172SOL    HW129975   1.815   0.326  11.266 -1.8665  0.1726  0.1630
 6172SOL    HW229976   1.887   0.333  11.388  0.4405  0.6540 -1.6702
 6173SOL     OW29977   1.105   4.708   2.504  0.2398 -0.1469  0.0815
 6173SOL    HW129978   1.086   0.078   2.511  1.8927  0.0297  2.3815
 6173SOL    HW229979   1.197   4.711   2.531  0.1739  0.4120  0.2535
 6174SOL     OW29980   3.295   1.220   4.751  0.0178  0.6736 -0.0987
 6174SOL    HW129981   3.314   1.311   4.730  0.6609  0.2516 -1.4005
 6174SOL    HW229982   3.259   1.224   4.839  0.4002  2.3656 -0.0357
 6175SOL     OW29983   2.140   0.382   8.290  0.3300 -0.0989  0.4085
 6175SOL    HW129984   2.184   0.396   8.374  1.1350 -1.7130  0.2581
 6175SOL    HW229985   2.050   0.411   8.302  0.4913  1.1626 -1.4029
 6176SOL     OW29986   4.187   4.083   4.592 -0.6411 -0.0691 -0.1991
 6176SOL    HW129987   4.189   4.103   4.499  1.8830  0.0222 -0.1335
 6176SOL    HW229988   4.176   4.169   4.633  2.3885 -0.0585  0.6396
 6177SOL     OW29989   3.306   3.267   2.759  0.2478 -0.0852  0.4031
 6177SOL    HW129990   3.329   3.218   2.680  1.5158  0.6585  0.3100
 6177SOL    HW229991   3.334   3.202   2.823  0.5327  0.4939  0.8669
 6178SOL     OW29992   0.859   2.033  12.211  0.2409 -0.2890  0.4752
 6178SOL    HW129993   0.946   2.023  12.174  0.2510 -1.1853  0.7376
 6178SOL    HW229994   0.829   2.109  12.162 -0.0449  0.1387  1.3213
 6179SOL     OW29995   1.303   1.781   0.458 -0.2337 -0.0470 -0.3491
 6179SOL    HW129996   1.261   1.789   0.544  0.2210 -0.7201 -0.0650
 6179SOL    HW229997   1.276   1.854   0.402 -2.2862  0.7106  1.6487
 6180SOL     OW29998   0.849   3.928   0.643 -0.0213 -0.1059  0.1843
 6180SOL    HW129999   0.801   4.003   0.678 -0.6226 -0.0267 -0.8093
 6180SOL    HW230000   0.832   3.948   0.551 -1.9532  0.5350  0.6918
 6181SOL     OW30001   2.482   2.569   4.158  0.3491 -0.2003  0.8084
 6181SOL    HW130002   2.539   2.511   4.108 -0.1836  0.1208 -0.1583
 6181SOL    HW230003   2.540   2.576   4.235 -0.3095 -2.3183  1.4953
 6182SOL     OW30004   0.289   1.761   6.007 -0.1614 -0.3122 -0.3949
 6182SOL    HW130005   0.282   1.848   6.047  0.4281  0.4406 -1.9175
 6182SOL    HW230006   0.378   1.757   5.972  0.4059 -0.9316  1.1174
 6183SOL     OW30007   2.484   2.103   7.482  0.1447 -0.2322  0.3082
 6183SOL    HW130008   2.411   2.062   7.529 -0.7562  0.4779 -0.4541
 6183SOL    HW230009   2.489   2.190   7.522 -0.5252 -0.5545  1.1124
 6184SOL     OW30010   2.906   0.017   4.001  0.1638  0.7826 -0.3615
 6184SOL    HW130011   2.946   0.104   3.997  2.8501 -0.3608  1.3760
 6184SOL    HW230012   2.953   4.713   4.080 -0.9747 -1.4114 -0.4444
 6185SOL     OW30013   4.098   0.824  11.049  0.2653  0.1445  0.5346
 6185SOL    HW130014   4.184   0.832  11.008  0.1996 -0.4403  0.2880
 6185SOL    HW230015   4.038   0.857  10.982 -0.3487 -0.8356  0.5979
 6186SOL     OW30016   1.577   4.036   5.539  0.0504  0.4323 -0.0299
 6186SOL    HW130017   1.487   4.037   5.506  0.1206 -0.4315 -0.2301
 6186SOL    HW230018   1.605   4.117   5.495  0.6736 -0.8219 -1.9251
 6187SOL     OW30019   1.721   4.219   7.723 -0.5289 -0.8967  0.5507
 6187SOL    HW130020   1.656   4.227   7.792 -0.0452  2.1158  0.6789
 6187SOL    HW230021   1.677   4.236   7.640  0.3818  0.7516  0.4081
 6188SOL     OW30022   3.557   3.784   9.033 -0.2889 -0.0822 -0.0606
 6188SOL    HW130023   3.481   3.839   9.050 -0.5588 -0.3793 -0.2964
 6188SOL    HW230024   3.527   3.705   8.989 -0.8008  0.0499  0.0591
 6189SOL     OW30025   3.284   3.652   2.578 -0.1768  0.0120  0.2072
 6189SOL    HW130026   3.205   3.638   2.526  0.7380 -0.4857 -1.0477
 6189SOL    HW230027   3.284   3.742   2.608 -1.0443  0.4256 -1.0210
 6190SOL     OW30028   0.648   3.981   3.858  0.1592  0.3285  0.1552
 6190SOL    HW130029   0.592   4.035   3.802 -0.3337 -1.0095 -0.6490
 6190SOL    HW230030   0.617   3.898   3.821 -2.0878  0.3423  2.0106
 6191SOL     OW30031   0.804   0.573  16.624 -0.9933  0.2604 -0.0344
 6191SOL    HW130032   0.713   0.587  16.647 -0.2898  0.6913  2.4946
 6191SOL    HW230033   0.834   0.663  16.610 -0.1870  0.5918  3.6400
 6192SOL     OW30034   3.936   2.789   4.718 -0.0596  0.0466 -0.6417
 6192SOL    HW130035   3.932   2.884   4.705 -1.4205  0.0387 -0.2910
 6192SOL    HW230036   4.007   2.759   4.661  1.0755 -0.5067  1.0791
 6193SOL     OW30037   1.893   1.704   5.759 -0.2471  0.4913 -0.2410
 6193SOL    HW130038   1.826   1.643   5.789  1.3414 -0.5844  1.1066
 6193SOL    HW230039   1.836   1.766   5.713 -1.1337  1.2250  1.7952
 6194SOL     OW30040   3.980   1.977   5.122 -0.0826  0.1133  0.7342
 6194SOL    HW130041   3.927   1.915   5.171 -1.3473 -0.3862 -1.2747
 6194SOL    HW230042   4.060   1.982   5.175  1.0858 -1.9020 -0.8270
 6195SOL     OW30043   4.684   1.362  10.785  0.1122 -0.1375  0.6145
 6195SOL    HW130044   0.021   1.292  10.808 -1.0164 -1.3493 -0.0277
 6195SOL    HW230045   4.625   1.367  10.860 -2.8198  1.5981 -1.8092
 6196SOL     OW30046   2.466   3.050  13.031 -0.4104 -0.0365  0.2202
 6196SOL    HW130047   2.549   3.001  13.027 -0.3305  0.1480 -0.3810
 6196SOL    HW230048   2.516   3.128  13.055 -0.1523  0.3420 -1.5399
 6197SOL     OW30049   4.196   1.768   6.819  0.2707  0.3051 -0.6278
 6197SOL    HW130050   4.121   1.795   6.765  0.5665 -0.9866 -1.6985
 6197SOL    HW230051   4.203   1.688   6.766  1.3462 -0.4072  0.5905
 6198SOL     OW30052   0.062   0.644   6.255  0.4231  0.4749  0.1703
 6198SOL    HW130053   0.091   0.695   6.331 -1.2810  2.2087 -0.3394
 6198SOL    HW230054   0.137   0.587   6.240 -0.3997  0.1870 -2.8400
 6199SOL     OW30055   4.468   2.483   0.109 -0.7495 -0.0118 -0.3101
 6199SOL    HW130056   4.400   2.475   0.042  1.0186  1.5106 -2.2803
 6199SOL    HW230057   4.425   2.488   0.194 -0.1176  0.8140 -0.0378
 6200SOL     OW30058   3.589   3.660   2.912 -0.0919 -0.3500  0.8171
 6200SOL    HW130059   3.631   3.680   2.828  1.4660 -0.3768  1.5861
 6200SOL    HW230060   3.507   3.616   2.889 -0.6901  0.6236  1.0774
 6201SOL     OW30061   0.077   2.768   4.048  0.1823 -0.0667  0.1624
 6201SOL    HW130062   0.144   2.710   4.084  0.1227 -0.3498 -0.1786
 6201SOL    HW230063   0.085   2.839   4.111 -2.3484  1.2417 -0.9730
 6202SOL     OW30064   0.096   4.631   0.158 -0.3381 -0.0301  0.0082
 6202SOL    HW130065   0.092   4.536   0.172 -2.4066  0.1388  0.6292
 6202SOL    HW230066   0.112   4.644   0.065  0.9769 -1.8968 -0.0264
 6203SOL     OW30067   0.501   0.165   4.568 -0.5349  0.1101 -0.0678
 6203SOL    HW130068   0.425   0.175   4.625 -0.5876  0.2386 -0.1584
 6203SOL    HW230069   0.452   0.147   4.487 -1.0100  0.7881  0.0614
 6204SOL     OW30070   3.812   0.704  13.346  0.5221  0.2132 -0.8338
 6204SOL    HW130071   3.895   0.730  13.304  0.9115  1.9018  0.9800
 6204SOL    HW230072   3.840   0.631  13.400 -1.8180 -2.1771 -2.8363
 6205SOL     OW30073   4.263   0.742   2.223  0.4051  0.0935 -0.0430
 6205SOL    HW130074   4.268   0.769   2.132  1.3441 -1.1384 -0.3628
 6205SOL    HW230075   4.353   0.720   2.247 -0.1565  0.6048  2.5297
 6206SOL     OW30076   2.360   4.523   6.885 -0.0921 -0.5428  0.4224
 6206SOL    HW130077   2.373   4.616   6.865  1.1170 -0.4223  1.7051
 6206SOL    HW230078   2.323   4.476   6.810 -0.5432 -0.6128  0.6903
 6207SOL     OW30079   0.744   4.452   6.565 -0.0112  0.3433  0.4259
 6207SOL    HW130080   0.652   4.437   6.586 -0.3393 -0.2307 -1.4449
 6207SOL    HW230081   0.783   4.380   6.614 -1.3854  0.2340  1.3797
 6208SOL     OW30082   0.188   1.639   3.918  0.5325  0.3787  0.1099
 6208SOL    HW130083   0.111   1.696   3.908 -1.2871 -2.2894 -1.0210
 6208SOL    HW230084   0.234   1.688   3.986  0.3028  0.6488  0.0718
 6209SOL     OW30085   2.585   4.326   4.338 -0.4584 -0.2739 -0.0449
 6209SOL    HW130086   2.622   4.260   4.279  0.9710  0.6803 -0.2154
 6209SOL    HW230087   2.510   4.352   4.284  0.9636 -2.3148 -3.0578
 6210SOL     OW30088   1.598   4.193   9.720 -0.2054  0.1015 -0.1519
 6210SOL    HW130089   1.545   4.159   9.792  2.4920  1.5506  2.4770
 6210SOL    HW230090   1.686   4.177   9.753 -0.2812  0.1934  0.0901
 6211SOL     OW30091   4.316   0.669   3.389  0.7267 -0.3391 -0.5136
 6211SOL    HW130092   4.268   0.715   3.320  1.9911  0.3057 -0.9570
 6211SOL    HW230093   4.405   0.688   3.362 -0.1846  1.1539 -2.4725
 6212SOL     OW30094   4.454   3.844   4.771  0.1249 -0.2771  0.2001
 6212SOL    HW130095   4.374   3.792   4.780  0.2779 -0.5399  0.0160
 6212SOL    HW230096   4.518   3.773   4.765  0.1882 -0.0798 -1.3911
 6213SOL     OW30097   4.039   2.354   9.026 -0.1631  0.1850  0.4983
 6213SOL    HW130098   4.013   2.285   8.965  0.4389  1.5733 -1.3404
 6213SOL    HW230099   4.042   2.429   8.966  1.2433 -0.1660  0.1215
 6214SOL     OW30100   2.759   1.485   8.641 -0.0610  0.2882  0.0712
 6214SOL    HW130101   2.725   1.404   8.678 -0.4898  0.5141  0.1613
 6214SOL    HW230102   2.683   1.541   8.627 -0.9175 -0.6629  0.9613
 6215SOL     OW30103   1.735   1.675  16.494  0.1768  0.4395 -0.1149
 6215SOL    HW130104   1.820   1.697  16.531 -0.3864  0.4292  1.1914
 6215SOL    HW230105   1.691   1.652  16.575 -0.7646  1.5457 -0.3031
 6216SOL     OW30106   3.667   1.442  13.808  0.1492 -0.4475  0.4201
 6216SOL    HW130107   3.624   1.524  13.781 -0.4112 -0.9369 -0.1662
 6216SOL    HW230108   3.758   1.473  13.808  0.7553 -2.2436  1.3272
 6217SOL     OW30109   3.619   4.278   2.385  0.0167  0.3179 -0.1968
 6217SOL    HW130110   3.684   4.231   2.332 -1.8481 -1.0135 -1.3280
 6217SOL    HW230111   3.575   4.343   2.331 -0.5994 -0.6025 -0.8128
 6218SOL     OW30112   1.939   0.033  11.421 -0.8665  0.5138 -0.2405
 6218SOL    HW130113   2.028   0.061  11.445 -0.1114 -1.0656 -1.2461
 6218SOL    HW230114   1.906   0.115  11.385  2.0133  1.5342 -0.5344
 6219SOL     OW30115   1.405   0.183  10.225  0.2088  0.0109 -0.2624
 6219SOL    HW130116   1.309   0.186  10.226  0.2954  2.1986  1.2520
 6219SOL    HW230117   1.412   0.104  10.171 -0.2359 -1.9229  2.5215
 6220SOL     OW30118   0.688   1.393   3.543 -0.0563 -1.1230  0.3185
 6220SOL    HW130119   0.764   1.359   3.590  0.4681 -0.8806 -0.3522
 6220SOL    HW230120   0.726   1.402   3.455  0.9857  1.3833  1.0236
 6221SOL     OW30121   1.499   0.637   2.164 -0.7299 -0.4078  0.3507
 6221SOL    HW130122   1.538   0.551   2.179  1.0050  0.1868 -0.8402
 6221SOL    HW230123   1.499   0.641   2.069 -0.4844  2.3228  0.4575
 6222SOL     OW30124   4.168   1.081   2.873 -0.2270  0.3868 -0.3543
 6222SOL    HW130125   4.164   1.146   2.943  1.4394  0.1160  0.0035
 6222SOL    HW230126   4.107   1.120   2.810  0.7660  0.3101 -1.3798
 6223SOL     OW30127   2.737   4.246  11.615  0.0829  0.1428 -0.1460
 6223SOL    HW130128   2.645   4.221  11.608  0.6365 -1.7842 -0.5077
 6223SOL    HW230129   2.777   4.162  11.592 -0.8353 -0.6149  1.0342
 6224SOL     OW30130   1.428   0.088   3.745  0.2128 -0.0399  0.0645
 6224SOL    HW130131   1.398   4.721   3.740  1.1842 -0.3508 -0.0889
 6224SOL    HW230132   1.344   0.120   3.778 -0.1639 -2.4911  1.4653
 6225SOL     OW30133   3.384   3.623   8.893  0.3461 -0.4332  0.0252
 6225SOL    HW130134   3.290   3.638   8.893  0.2200 -1.2251 -1.7461
 6225SOL    HW230135   3.410   3.698   8.839 -0.0102  1.6365  2.7216
 6226SOL     OW30136   0.683   1.478   8.513  0.0332 -0.3231 -0.3953
 6226SOL    HW130137   0.750   1.417   8.544  1.7225  0.8295 -1.8311
 6226SOL    HW230138   0.737   1.544   8.469 -0.7232  0.8810  0.4899
 6227SOL     OW30139   1.648   3.901  17.157 -0.5112 -0.4530 -0.2303
 6227SOL    HW130140   1.559   3.915  17.127 -0.8077 -2.2351 -0.1723
 6227SOL    HW230141   1.663   3.990  17.187 -1.4645 -0.4217  0.1559
 6228SOL     OW30142   3.826   1.540   3.519 -0.2852  0.5259  0.2202
 6228SOL    HW130143   3.806   1.447   3.521  1.8365  0.0686  0.0113
 6228SOL    HW230144   3.862   1.541   3.430 -0.1685 -0.4956  0.2636
 6229SOL     OW30145   3.664   1.777   4.545  0.0779  0.3759 -0.2535
 6229SOL    HW130146   3.637   1.799   4.456 -0.1452 -0.4800 -0.4021
 6229SOL    HW230147   3.759   1.775   4.528  0.0399 -1.9106 -0.2788
 6230SOL     OW30148   0.692   3.338   8.102  0.2975 -0.0218 -0.0863
 6230SOL    HW130149   0.678   3.429   8.130 -1.4257 -0.1312 -0.6365
 6230SOL    HW230150   0.775   3.321   8.147  0.5606 -0.0955 -0.5871
 6231SOL     OW30151   4.538   0.820  10.772 -0.0357  0.1351  0.4009
 6231SOL    HW130152   4.511   0.792  10.860 -1.0466  1.0714  0.4030
 6231SOL    HW230153   4.488   0.767  10.710 -0.7721  2.1040 -0.7025
 6232SOL     OW30154   0.627   3.879   1.836  0.4982  0.0355 -0.0991
 6232SOL    HW130155   0.561   3.918   1.778 -0.9557 -0.0005  1.5280
 6232SOL    HW230156   0.604   3.922   1.918 -0.9364 -0.5848 -0.1694
 6233SOL     OW30157   1.465   0.891   3.744  0.0614 -0.4054  0.1817
 6233SOL    HW130158   1.467   0.962   3.809 -4.5336  0.2970 -0.4219
 6233SOL    HW230159   1.392   0.921   3.691 -0.3250 -1.4627  0.1271
 6234SOL     OW30160   2.749   3.076   9.166  0.1244  0.0695 -0.0456
 6234SOL    HW130161   2.791   2.991   9.175 -0.8082 -0.1624  2.2247
 6234SOL    HW230162   2.694   3.060   9.090  0.4691 -1.4299  0.0331
 6235SOL     OW30163   1.096   2.949   2.005  0.1778  0.2906 -0.2527
 6235SOL    HW130164   1.053   2.900   1.936  2.5178 -1.2200 -0.6429
 6235SOL    HW230165   1.058   3.036   1.993 -0.7680 -0.1419 -0.3842
 6236SOL     OW30166   1.909   0.659   4.252 -0.2669 -0.3418 -0.0268
 6236SOL    HW130167   2.002   0.680   4.263 -0.3274 -0.5725  0.9853
 6236SOL    HW230168   1.898   0.679   4.159 -0.8127  4.0277  0.9715
 6237SOL     OW30169   2.014   4.677   4.564 -0.3228 -0.1612 -0.3355
 6237SOL    HW130170   2.027   0.046   4.581 -0.2391  0.3492 -3.1993
 6237SOL    HW230171   2.061   4.647   4.641  0.1812  1.4579 -0.0220
 6238SOL     OW30172   0.808   3.958   8.884  0.8302 -0.3683 -0.8211
 6238SOL    HW130173   0.769   3.872   8.867 -1.7196  0.2652  1.6878
 6238SOL    HW230174   0.892   3.956   8.838  1.8693 -1.8471  1.0932
 6239SOL     OW30175   2.508   3.612   5.970  0.2776 -0.0257 -0.0044
 6239SOL    HW130176   2.577   3.568   6.019  1.3520  2.3305  0.6242
 6239SOL    HW230177   2.558   3.690   5.946  0.5348 -0.2458 -0.1812
 6240SOL     OW30178   4.168   3.588   7.389 -0.9719 -0.4184 -0.6882
 6240SOL    HW130179   4.146   3.558   7.301 -0.8894 -1.8093 -0.2380
 6240SOL    HW230180   4.140   3.680   7.391 -1.1591 -0.5279  1.4799
 6241SOL     OW30181   1.176   4.695   7.470  0.3986  0.3386 -0.2554
 6241SOL    HW130182   1.179   0.029   7.394  1.4219  0.1762 -0.3288
 6241SOL    HW230183   1.080   4.687   7.472  0.4810  0.0629  2.7116
 6242SOL     OW30184   4.183   1.138  14.501 -0.5894  0.5989 -0.0916
 6242SOL    HW130185   4.247   1.071  14.476 -0.6406  0.1183  1.0651
 6242SOL    HW230186   4.187   1.180  14.415  2.5764 -1.2390 -0.8178
 6243SOL     OW30187   1.770   0.659   1.435 -0.1847  0.1054  0.6252
 6243SOL    HW130188   1.825   0.583   1.449  1.9856  2.0304  2.3863
 6243SOL    HW230189   1.762   0.690   1.525 -1.1269 -2.0250  1.2759
 6244SOL     OW30190   0.882   0.628   3.110  0.6193  0.3365  0.3773
 6244SOL    HW130191   0.877   0.663   3.022  0.8588 -1.6912 -0.4490
 6244SOL    HW230192   0.804   0.662   3.153  0.4826  0.5741 -0.0692
 6245SOL     OW30193   3.761   4.190   6.634 -0.0499  0.2037  0.7427
 6245SOL    HW130194   3.719   4.135   6.567 -0.7922 -0.3398  1.6572
 6245SOL    HW230195   3.705   4.180   6.711 -0.2241  2.0965  0.8649
 6246SOL     OW30196   1.722   1.636  14.773  0.1785 -0.4632  0.2662
 6246SOL    HW130197   1.651   1.689  14.810  1.9707  1.4780  0.9720
 6246SOL    HW230198   1.680   1.561  14.732  0.6240  0.0073 -1.0621
 6247SOL     OW30199   0.291   2.715  12.718  0.2703 -0.3265 -0.1121
 6247SOL    HW130200   0.264   2.688  12.630 -0.7585 -1.3691  0.5202
 6247SOL    HW230201   0.204   2.729  12.754 -0.8861 -3.2732 -1.7100
 6248SOL     OW30202   4.025   3.000  16.840  0.4914  0.6579  0.1790
 6248SOL    HW130203   3.932   2.979  16.845  0.7926 -0.4036  1.2122
 6248SOL    HW230204   4.043   2.939  16.769  0.7218  0.4350  0.4300
 6249SOL     OW30205   0.249   3.855   5.280 -0.5075  0.0390  0.1554
 6249SOL    HW130206   0.214   3.942   5.260 -1.0915  0.0469  1.1771
 6249SOL    HW230207   0.297   3.873   5.361 -1.5886 -0.8674  0.9945
 6250SOL     OW30208   2.519   3.463  15.545  0.1180 -0.0644 -0.4221
 6250SOL    HW130209   2.550   3.513  15.470 -2.1754 -0.1783 -1.4704
 6250SOL    HW230210   2.520   3.373  15.511 -2.1776  0.5060 -2.0644
 6251SOL     OW30211   1.068   3.024  10.304 -0.0377 -0.2836 -0.4078
 6251SOL    HW130212   1.027   3.024  10.217  0.0650  0.4908 -0.4624
 6251SOL    HW230213   1.024   3.095  10.352  0.9030  0.5007 -0.7048
 6252SOL     OW30214   1.095   3.740   6.201  1.0572  0.1137 -0.6378
 6252SOL    HW130215   1.147   3.818   6.220 -0.6854  1.0589  0.2133
 6252SOL    HW230216   1.160   3.671   6.187  1.4014  0.3694 -0.2932
 6253SOL     OW30217   2.940   3.977   8.740 -0.4523  0.0438 -0.4023
 6253SOL    HW130218   3.020   3.992   8.791 -0.5235  0.2985 -0.3687
 6253SOL    HW230219   2.874   4.007   8.802 -0.5448 -1.1520  0.0736
 6254SOL     OW30220   4.609   1.437   7.595  0.4899 -0.0345 -0.0038
 6254SOL    HW130221   4.596   1.532   7.598 -1.8357 -0.3616  0.1994
 6254SOL    HW230222   4.627   1.419   7.688 -1.5819  1.1233  0.6118
 6255SOL     OW30223   0.609   1.909   3.794  0.0930 -0.5662  0.3228
 6255SOL    HW130224   0.669   1.835   3.782  0.7588 -0.3196  2.1385
 6255SOL    HW230225   0.542   1.871   3.851 -0.8963  1.4597  0.4849
 6256SOL     OW30226   1.975   3.484  10.337 -0.0860  0.1439 -0.0133
 6256SOL    HW130227   1.886   3.467  10.306  0.2700 -1.4809 -0.1160
 6256SOL    HW230228   1.967   3.491  10.432 -0.2334  0.3590 -0.0393
 6257SOL     OW30229   4.288   2.780   1.947 -0.3360 -0.0574  0.7932
 6257SOL    HW130230   4.349   2.819   1.883 -0.0554 -0.6719  0.6837
 6257SOL    HW230231   4.323   2.793   2.035 -1.2736  1.4301  0.9478
 6258SOL     OW30232   1.203   4.364   3.214 -0.2131  0.2540 -0.6070
 6258SOL    HW130233   1.145   4.378   3.288  1.5479 -1.3501  1.0799
 6258SOL    HW230234   1.211   4.454   3.183  0.3609  0.8991  1.4401
 6259SOL     OW30235   3.865   0.719   6.220  0.5076 -0.4671 -0.2442
 6259SOL    HW130236   3.936   0.656   6.203 -0.2585 -1.4663  0.2400
 6259SOL    HW230237   3.865   0.724   6.315 -2.4138 -2.0813 -0.1499
 6260SOL     OW30238   4.149   2.748  11.400 -0.1393  0.1803 -0.0631
 6260SOL    HW130239   4.147   2.717  11.309 -0.4815 -0.7236  0.2511
 6260SOL    HW230240   4.181   2.670  11.445  0.7260  1.3778  1.3932
 6261SOL     OW30241   0.895   2.385   7.011 -0.6554  0.2397  0.0879
 6261SOL    HW130242   0.910   2.399   7.105  1.2077 -0.4891 -0.0938
 6261SOL    HW230243   0.919   2.471   6.975 -0.8762 -0.5420 -1.9425
 6262SOL     OW30244   1.481   1.421   4.048  0.3146 -0.3176 -0.2281
 6262SOL    HW130245   1.529   1.502   4.064 -0.7809  0.0966  0.9697
 6262SOL    HW230246   1.540   1.370   3.992 -0.1796  1.1409 -2.0891
 6263SOL     OW30247   1.284   0.695   7.785 -0.1493  0.4732  0.7321
 6263SOL    HW130248   1.234   0.777   7.789  0.3944  0.6696  3.3299
 6263SOL    HW230249   1.370   0.719   7.819  1.2872 -0.9998 -1.8372
 6264SOL     OW30250   2.998   3.247   7.117 -0.3201  0.0828 -0.4271
 6264SOL    HW130251   3.031   3.187   7.184  1.9196 -1.8353 -3.2370
 6264SOL    HW230252   3.038   3.200   7.044 -1.3524 -0.0232 -0.9342
 6265SOL     OW30253   3.688   2.944   1.192  0.0832  0.0596  0.3491
 6265SOL    HW130254   3.614   2.891   1.163  0.0344 -0.6434  1.7453
 6265SOL    HW230255   3.719   3.009   1.128  1.2967 -1.4572 -0.5972
 6266SOL     OW30256   4.563   0.876   7.056  0.7867  0.1042  0.1885
 6266SOL    HW130257   4.503   0.846   7.124  3.0548 -0.0696  2.1373
 6266SOL    HW230258   4.601   0.950   7.103  2.3799 -1.9600  2.2043
 6267SOL     OW30259   1.124   0.488   0.914 -0.5400 -0.6233  0.2143
 6267SOL    HW130260   1.147   0.581   0.915  0.2935 -0.8156 -0.7589
 6267SOL    HW230261   1.149   0.463   1.003 -0.3494 -0.7028  0.1386
 6268SOL     OW30262   1.578   2.308   2.768  0.0230  0.4263  0.1993
 6268SOL    HW130263   1.530   2.383   2.804  1.0063  0.4723  1.4190
 6268SOL    HW230264   1.597   2.339   2.679 -0.0571  1.3630  0.5069
 6269SOL     OW30265   3.153   0.301   0.161  0.2268 -0.3606 -0.4358
 6269SOL    HW130266   3.077   0.294   0.218  2.1199 -0.7413  2.0204
 6269SOL    HW230267   3.128   0.237   0.094 -0.2535 -1.5127  0.8449
 6270SOL     OW30268   3.404   3.894  17.078 -0.0076  0.2237  0.1076
 6270SOL    HW130269   3.314   3.908  17.106 -0.9292 -2.8942 -1.1966
 6270SOL    HW230270   3.430   3.831  17.146 -0.9397  2.5711  2.6333
 6271SOL     OW30271   2.571   2.242  14.834  0.4102  0.2028  0.1967
 6271SOL    HW130272   2.635   2.244  14.763 -1.1759  0.0404 -1.2315
 6271SOL    HW230273   2.500   2.192  14.794 -0.9673  0.4685  2.2774
 6272SOL     OW30274   3.165   3.999  16.708  0.0065 -0.8266 -0.0636
 6272SOL    HW130275   3.166   4.042  16.623  0.6992  3.4609  2.0699
 6272SOL    HW230276   3.260   4.000  16.722 -0.1619 -0.7051  1.1182
 6273SOL     OW30277   0.452   4.613  12.729  0.8300 -0.1668 -0.1575
 6273SOL    HW130278   0.511   4.659  12.670  1.3029  0.7867  1.0587
 6273SOL    HW230279   0.379   4.676  12.726  0.4085 -0.6184  0.4176
 6274SOL     OW30280   1.782   1.980   5.478  0.3293 -0.1154 -0.2689
 6274SOL    HW130281   1.763   1.971   5.384  1.9258 -1.0415 -0.5157
 6274SOL    HW230282   1.824   2.065   5.471 -0.5355  0.2814 -0.6748
 6275SOL     OW30283   3.579   4.363  10.153 -0.0320  0.1762 -0.0095
 6275SOL    HW130284   3.588   4.269  10.138  2.7481  0.4771 -0.3143
 6275SOL    HW230285   3.532   4.358  10.236  0.0798  1.2048  0.1201
 6276SOL     OW30286   1.027   2.491   8.898 -0.1521 -0.0395 -0.5276
 6276SOL    HW130287   1.055   2.416   8.951  0.5644 -0.1044 -1.0017
 6276SOL    HW230288   1.058   2.564   8.951  0.4644 -0.1046 -0.8088
 6277SOL     OW30289   1.397   1.257   2.226 -0.0893 -0.2124  0.3870
 6277SOL    HW130290   1.348   1.332   2.193  2.4929  0.4888 -1.8072
 6277SOL    HW230291   1.344   1.188   2.186  1.5560 -0.7457 -0.8704
 6278SOL     OW30292   3.363   3.892   8.738 -0.1353 -0.0196  0.0467
 6278SOL    HW130293   3.394   3.944   8.664  1.5217 -0.9447  0.0857
 6278SOL    HW230294   3.308   3.838   8.681 -0.2407  0.3823 -0.2258
 6279SOL     OW30295   0.817   2.449  10.024  0.4581 -0.1126 -0.3778
 6279SOL    HW130296   0.834   2.358  10.048  0.8229 -0.5248 -2.2104
 6279SOL    HW230297   0.812   2.484  10.113 -0.1258 -0.4155 -0.2944
 6280SOL     OW30298   0.594   2.170   7.449 -0.6860 -0.3173  0.8188
 6280SOL    HW130299   0.531   2.118   7.400  0.8362  0.4367 -1.9543
 6280SOL    HW230300   0.623   2.232   7.382  0.5752 -0.3987  1.2824
 6281SOL     OW30301   3.848   3.620   8.056 -0.2275 -0.1381  0.1536
 6281SOL    HW130302   3.814   3.687   8.116  0.2956  2.3023 -2.2485
 6281SOL    HW230303   3.939   3.645   8.041 -0.6042 -0.0924 -2.0650
 6282SOL     OW30304   0.669   4.476   0.494  0.0711  0.3431  0.2214
 6282SOL    HW130305   0.660   4.395   0.544 -1.4647  0.8525  0.7830
 6282SOL    HW230306   0.748   4.469   0.440 -2.0936  0.9519 -3.0547
 6283SOL     OW30307   1.308   4.038   0.282 -0.0502 -0.0165 -0.8782
 6283SOL    HW130308   1.218   4.042   0.313 -0.1067  1.5150 -1.2430
 6283SOL    HW230309   1.354   4.022   0.365  0.2570  0.8786 -0.8749
 6284SOL     OW30310   2.130   3.610   7.247 -0.0129 -0.0884  0.3947
 6284SOL    HW130311   2.081   3.693   7.248  1.7660  0.9427  1.3629
 6284SOL    HW230312   2.219   3.643   7.240 -0.1171  0.1315  0.1184
 6285SOL     OW30313   4.387   1.407   4.265  0.0267 -0.3948 -0.1739
 6285SOL    HW130314   4.482   1.419   4.271  0.4535 -3.1423 -1.0851
 6285SOL    HW230315   4.383   1.366   4.179  0.6831  0.8760 -0.8055
 6286SOL     OW30316   2.680   1.571  13.585  0.0319  0.1701 -0.6153
 6286SOL    HW130317   2.648   1.485  13.613  0.5667 -0.3393 -1.5895
 6286SOL    HW230318   2.598   1.618  13.571 -0.6455 -1.2013 -1.2056
 6287SOL     OW30319   0.483   1.275   9.737  0.2941 -0.1194  0.2236
 6287SOL    HW130320   0.517   1.362   9.758  0.9329 -0.4692  0.6600
 6287SOL    HW230321   0.421   1.252   9.806  0.0802 -0.7219 -0.1705
 6288SOL     OW30322   0.224   1.813  16.094  0.1358 -0.2826  0.2426
 6288SOL    HW130323   0.306   1.860  16.076 -0.5967  0.6914 -0.5591
 6288SOL    HW230324   0.230   1.782  16.184  0.8260 -0.1019  0.2615
 6289SOL     OW30325   0.921   2.068   2.407  0.0268  0.2914  0.4601
 6289SOL    HW130326   1.001   2.029   2.372 -0.7026 -0.8145  0.0232
 6289SOL    HW230327   0.876   2.087   2.324 -0.6962  1.8247  1.2074
 6290SOL     OW30328   2.808   0.079   6.202  0.1745  0.0858 -1.1437
 6290SOL    HW130329   2.735   0.066   6.263  2.5764 -0.7651  1.5050
 6290SOL    HW230330   2.883   0.050   6.254 -1.0667 -0.5049  0.3379
 6291SOL     OW30331   4.243   0.390   3.485  0.3412 -0.1036  0.3236
 6291SOL    HW130332   4.270   0.480   3.506  2.8042 -0.9147  0.6382
 6291SOL    HW230333   4.285   0.374   3.400  1.4368 -1.2280  1.0765
 6292SOL     OW30334   3.567   4.389  10.635 -0.2562  0.2320  0.1160
 6292SOL    HW130335   3.536   4.388  10.726  2.7901  2.0361  1.1900
 6292SOL    HW230336   3.628   4.316  10.627 -0.2862  0.4161 -1.8439
 6293SOL     OW30337   0.804   0.793   0.250 -0.3324 -0.6705 -0.2694
 6293SOL    HW130338   0.751   0.859   0.207  2.8269  1.6721 -0.5564
 6293SOL    HW230339   0.791   0.820   0.341 -0.2972 -0.7176 -0.2501
 6294SOL     OW30340   1.289   1.919   3.650 -0.2900  0.2980  0.2872
 6294SOL    HW130341   1.343   1.969   3.711 -0.4536 -0.8314  1.3669
 6294SOL    HW230342   1.240   1.852   3.699  0.1670 -1.6504 -1.8982
 6295SOL     OW30343   2.782   1.171   3.731 -0.5927 -0.4496  0.2124
 6295SOL    HW130344   2.796   1.229   3.805 -0.0262 -0.9043  0.4676
 6295SOL    HW230345   2.788   1.241   3.666 -2.9383 -0.4358  0.0107
 6296SOL     OW30346   1.160   1.274   1.863 -0.0734 -0.1080 -0.0872
 6296SOL    HW130347   1.222   1.225   1.808  0.1516 -0.7155  0.7028
 6296SOL    HW230348   1.225   1.296   1.930 -0.2407 -1.0992  0.4005
 6297SOL     OW30349   2.908   3.115   8.314 -0.6738  0.5024  0.0075
 6297SOL    HW130350   2.827   3.074   8.286  0.3804 -1.2877 -0.3822
 6297SOL    HW230351   2.965   3.060   8.261 -1.6259  0.5260 -1.0445
 6298SOL     OW30352   3.129   4.276   7.837  0.0063 -0.5040  0.1694
 6298SOL    HW130353   3.205   4.333   7.840  0.7120 -1.2503 -3.2456
 6298SOL    HW230354   3.053   4.333   7.823 -1.1285 -2.2462 -0.8566
 6299SOL     OW30355   1.751   4.692   0.348  0.4021 -0.6824 -0.2708
 6299SOL    HW130356   1.678   0.023   0.319  0.6098 -0.9922 -1.3663
 6299SOL    HW230357   1.746   4.617   0.289 -2.9754 -0.5374 -0.1939
 6300SOL     OW30358   0.771   0.488   8.028  0.4155  0.3282  0.2300
 6300SOL    HW130359   0.725   0.448   7.954  0.1559 -0.1695  0.6631
 6300SOL    HW230360   0.727   0.436   8.094  0.4341  0.4003  0.2987
 6301SOL     OW30361   0.744   3.177   6.269 -0.0887  0.5948  0.0813
 6301SOL    HW130362   0.838   3.188   6.258 -0.1402  0.0819 -0.8894
 6301SOL    HW230363   0.721   3.270   6.271 -1.3480  0.2934 -0.3705
 6302SOL     OW30364   3.653   4.189   5.228  0.2214 -0.5391 -0.1358
 6302SOL    HW130365   3.682   4.248   5.157 -0.8038 -0.4829 -0.5015
 6302SOL    HW230366   3.656   4.248   5.304  0.0076 -0.2207 -0.3721
 6303SOL     OW30367   1.419   0.895   2.235 -0.4725 -0.4204  0.3056
 6303SOL    HW130368   1.456   0.823   2.183 -0.0861  1.7495 -2.4496
 6303SOL    HW230369   1.384   0.840   2.305 -1.4459  0.4075  0.4653
 6304SOL     OW30370   2.956   4.065  11.833 -0.0175 -0.2193  0.1836
 6304SOL    HW130371   2.865   4.062  11.860 -0.1871 -0.2534 -0.3937
 6304SOL    HW230372   2.971   4.158  11.851 -1.3159 -0.5121  2.7074
 6305SOL     OW30373   0.569   3.458   8.807 -0.0259 -0.0411 -0.1131
 6305SOL    HW130374   0.485   3.417   8.824  0.0498  0.1801  0.7890
 6305SOL    HW230375   0.556   3.487   8.717 -0.1793 -0.3981 -0.2038
 6306SOL     OW30376   3.777   4.585   1.821  0.3842 -0.3051  0.6785
 6306SOL    HW130377   3.728   4.642   1.762  0.2892 -1.0179  0.0527
 6306SOL    HW230378   3.865   4.604   1.788 -0.8910 -0.7119 -2.9310
 6307SOL     OW30379   2.318   4.249   6.452  0.3851 -0.4532 -0.0401
 6307SOL    HW130380   2.317   4.185   6.523  0.2718  0.6389  0.9370
 6307SOL    HW230381   2.274   4.330   6.478 -2.7850 -1.4179 -2.4016
 6308SOL     OW30382   0.145   4.427   1.893 -0.2629 -0.5193 -0.5308
 6308SOL    HW130383   0.202   4.448   1.819  1.3474 -0.4394  0.7453
 6308SOL    HW230384   0.140   4.517   1.926  1.3999 -0.4721 -0.4272
 6309SOL     OW30385   2.365   3.894   6.014 -0.2851  0.1743  0.4489
 6309SOL    HW130386   2.340   3.986   6.005 -0.3946  0.1420  0.4195
 6309SOL    HW230387   2.315   3.862   5.938 -0.7540  0.1743  0.7609
 6310SOL     OW30388   2.408   1.071   8.724  0.0035  0.6976 -0.0284
 6310SOL    HW130389   2.364   0.988   8.745  0.6455  0.3099 -0.2238
 6310SOL    HW230390   2.359   1.140   8.769  1.3924  3.0590 -2.1892
 6311SOL     OW30391   2.679   4.304  12.286  1.5002  0.5062  0.4054
 6311SOL    HW130392   2.680   4.370  12.217  0.0081 -0.1400 -0.2514
 6311SOL    HW230393   2.591   4.266  12.281  2.3523 -1.0976 -2.4293
 6312SOL     OW30394   3.026   0.324   5.950 -0.1548 -0.2188 -0.8712
 6312SOL    HW130395   2.992   0.235   5.944  0.3113 -0.6459  2.6061
 6312SOL    HW230396   3.110   0.321   5.904 -0.8265  2.7048 -2.2890
 6313SOL     OW30397   1.766   4.544  11.399  0.2456  0.3387  0.0746
 6313SOL    HW130398   1.831   4.481  11.367  0.4907 -0.0748  1.4159
 6313SOL    HW230399   1.817   4.625  11.393 -0.1366  0.5529 -0.3077
 6314SOL     OW30400   3.775   2.011   0.653  0.6421 -0.0753 -0.8977
 6314SOL    HW130401   3.828   1.989   0.577  0.6100 -1.6844 -0.4651
 6314SOL    HW230402   3.782   1.929   0.703 -1.0434  1.9610  2.7500
 6315SOL     OW30403   4.106   3.995  11.548 -0.4404 -0.5416 -0.6254
 6315SOL    HW130404   4.061   4.005  11.464 -0.1546 -0.8928 -0.8207
 6315SOL    HW230405   4.058   3.918  11.579  1.2864 -1.4197 -0.1342
 6316SOL     OW30406   4.606   2.310   3.342  0.1683  0.2376 -0.3652
 6316SOL    HW130407   4.600   2.241   3.408  3.8161  1.1088  0.8548
 6316SOL    HW230408   4.657   2.266   3.274 -2.0662 -1.3758 -1.0122
 6317SOL     OW30409   1.644   4.238   2.983  0.9458  0.6673  0.0230
 6317SOL    HW130410   1.570   4.259   3.040 -0.0780 -0.9500 -0.7043
 6317SOL    HW230411   1.697   4.177   3.033 -1.6324 -3.0161 -1.7321
 6318SOL     OW30412   3.576   3.042  16.519 -0.0583 -0.1488 -0.2663
 6318SOL    HW130413   3.670   3.021  16.525 -0.1813 -0.7093 -0.3356
 6318SOL    HW230414   3.565   3.137  16.524 -0.3955 -0.2991  1.8663
 6319SOL     OW30415   2.797   0.362   4.114 -0.5824  0.5933  0.0374
 6319SOL    HW130416   2.850   0.434   4.149 -1.0775  1.0609 -0.1669
 6319SOL    HW230417   2.857   0.307   4.064 -0.8730  0.9076 -0.6626
 6320SOL     OW30418   0.745   0.300  14.374  0.2030 -0.4158  0.4891
 6320SOL    HW130419   0.723   0.220  14.326  1.1245  1.8087 -3.6642
 6320SOL    HW230420   0.793   0.265  14.448  1.9593 -0.3480 -0.6204
 6321SOL     OW30421   2.812   0.528  11.553 -0.1086  0.1050 -0.0163
 6321SOL    HW130422   2.742   0.564  11.497  1.1560 -0.3083 -1.8476
 6321SOL    HW230423   2.802   0.433  11.551 -0.7141  0.1973 -1.3062
 6322SOL     OW30424   3.129   3.532   2.150 -0.0729 -0.4392 -0.2638
 6322SOL    HW130425   3.143   3.439   2.130  1.5462 -0.5368  1.2515
 6322SOL    HW230426   3.059   3.523   2.215  2.1235  0.1323  2.1825
 6323SOL     OW30427   1.957   0.136   8.071  0.2171  0.2858  0.1084
 6323SOL    HW130428   2.050   0.132   8.092  0.2579  0.3618 -0.0567
 6323SOL    HW230429   1.959   0.227   8.041 -0.6499  0.1080 -0.5072
 6324SOL     OW30430   3.998   2.543   1.247 -0.3674  0.3291 -0.4499
 6324SOL    HW130431   3.913   2.509   1.276 -0.2982 -0.5320 -1.2209
 6324SOL    HW230432   3.980   2.635   1.267 -2.6848 -0.2206  0.0221
 6325SOL     OW30433   0.482   0.525   4.189 -0.4062 -0.0398 -0.4773
 6325SOL    HW130434   0.413   0.578   4.228 -1.7030 -1.1080 -1.3310
 6325SOL    HW230435   0.560   0.559   4.233 -0.7304  1.3401 -0.9682
 6326SOL     OW30436   2.197   3.909   4.143 -0.7388 -0.2488 -0.0511
 6326SOL    HW130437   2.112   3.948   4.161 -0.2742  0.3106  0.9759
 6326SOL    HW230438   2.230   3.957   4.067  1.2513 -0.8625  0.4160
 6327SOL     OW30439   4.477   2.777   9.176 -0.2638 -0.1278  0.0816
 6327SOL    HW130440   4.402   2.760   9.234  1.2116 -1.2865  1.6424
 6327SOL    HW230441   4.529   2.697   9.180 -0.9466 -0.6104 -0.5846
 6328SOL     OW30442   1.170   2.865  11.674 -0.5050  0.2931  0.3441
 6328SOL    HW130443   1.183   2.937  11.612  0.2492 -0.3626 -0.2527
 6328SOL    HW230444   1.193   2.902  11.759  2.5159 -0.4139 -0.1643
 6329SOL     OW30445   1.877   3.787   1.469 -0.2810 -0.1189  0.1141
 6329SOL    HW130446   1.912   3.706   1.430  4.3574  1.9221  0.1610
 6329SOL    HW230447   1.906   3.788   1.560  0.3524 -0.6523 -0.0843
 6330SOL     OW30448   0.300   3.103   1.980  0.0947  0.1251 -0.2677
 6330SOL    HW130449   0.393   3.094   1.958 -0.2870 -0.9663 -1.4341
 6330SOL    HW230450   0.280   3.023   2.029  1.7668  1.0798  1.9708
 6331SOL     OW30451   4.566   4.301  11.818 -0.5825  0.8249 -0.2002
 6331SOL    HW130452   4.565   4.212  11.782  0.4474  0.9594 -0.5512
 6331SOL    HW230453   4.487   4.339  11.781 -0.0461 -0.6120 -2.8439
 6332SOL     OW30454   0.030   2.280   5.037  0.2252  0.1842 -0.0189
 6332SOL    HW130455   0.044   2.374   5.048  0.0013  0.4654 -2.1842
 6332SOL    HW230456   0.019   2.285   4.942  3.0591  1.5213 -0.2530
 6333SOL     OW30457   3.176   4.055   8.299 -0.4421  0.2912  0.2854
 6333SOL    HW130458   3.128   3.978   8.329  0.8032 -0.6076 -0.0084
 6333SOL    HW230459   3.142   4.061   8.210  0.9301 -2.7781 -0.4458
 6334SOL     OW30460   0.606   0.088   9.109 -0.5304 -0.3414  0.4578
 6334SOL    HW130461   0.631   0.178   9.087 -3.0908 -0.1411 -1.6614
 6334SOL    HW230462   0.601   0.097   9.204  0.2442  0.0563  0.4628
 6335SOL     OW30463   4.113   4.272   3.207  0.2270  0.2561 -0.2319
 6335SOL    HW130464   4.159   4.245   3.127  1.9967  1.8518  0.2506
 6335SOL    HW230465   4.190   4.293   3.260  0.4402 -0.4309 -0.2681
 6336SOL     OW30466   3.657   4.633   2.451 -0.6265  0.1441 -0.7112
 6336SOL    HW130467   3.683   4.724   2.438  2.3700 -0.4844  0.7151
 6336SOL    HW230468   3.742   4.589   2.458 -1.2109 -0.8482  0.1133
 6337SOL     OW30469   2.601   2.224  13.325 -0.0288 -0.2550  0.0291
 6337SOL    HW130470   2.689   2.189  13.337  0.6866  1.4026 -0.3721
 6337SOL    HW230471   2.580   2.253  13.414 -0.5376 -0.3483 -0.0590
 6338SOL     OW30472   3.828   1.533  17.344 -0.2410  1.0187 -0.4467
 6338SOL    HW130473   3.920   1.510  17.346 -1.2699 -3.0989 -0.4809
 6338SOL    HW230474   3.783   1.479  17.409  3.1057 -1.9930 -0.6807
 6339SOL     OW30475   2.896   3.951  12.454 -0.6059  0.7483 -0.3260
 6339SOL    HW130476   2.882   4.010  12.379 -1.5081  1.7475  0.6249
 6339SOL    HW230477   2.807   3.963  12.488  0.3503  2.6277  1.5249
 6340SOL     OW30478   2.138   2.814   2.896 -0.1034  0.2068 -0.6014
 6340SOL    HW130479   2.049   2.798   2.928  0.0488  2.0891  0.7286
 6340SOL    HW230480   2.128   2.870   2.819 -1.0065  2.6328  1.2841
 6341SOL     OW30481   0.940   0.228   5.570 -0.1176  0.0353 -0.3493
 6341SOL    HW130482   0.921   0.303   5.514  1.6457  1.3021  0.7360
 6341SOL    HW230483   0.880   0.162   5.536 -0.3750  0.3495 -0.4980
 6342SOL     OW30484   3.853   2.080   7.667 -0.5871  0.2693 -0.6801
 6342SOL    HW130485   3.934   2.083   7.717  0.4995  0.1997 -2.4573
 6342SOL    HW230486   3.824   1.990   7.684  1.2676  0.3418  2.8370
 6343SOL     OW30487   3.738   2.758   1.873  0.1442  0.6186 -0.3371
 6343SOL    HW130488   3.825   2.760   1.832  0.1212 -1.0470 -0.4685
 6343SOL    HW230489   3.710   2.671   1.846  1.4226 -0.3392  1.3806
 6344SOL     OW30490   1.016   1.655  14.559  0.4847  0.1416  0.9447
 6344SOL    HW130491   0.966   1.578  14.589 -1.0879  1.1316  0.8584
 6344SOL    HW230492   1.087   1.605  14.519 -0.1687  0.1164 -0.1864
 6345SOL     OW30493   4.586   3.684  16.703  0.2381 -0.2913  0.3787
 6345SOL    HW130494   4.515   3.634  16.666 -0.4770 -0.2142  1.6412
 6345SOL    HW230495   4.569   3.662  16.794  0.7452 -1.5290  0.1688
 6346SOL     OW30496   1.460   0.415   9.147 -0.0195 -0.1303 -0.3479
 6346SOL    HW130497   1.401   0.477   9.103 -0.4772 -0.1093  0.2983
 6346SOL    HW230498   1.426   0.413   9.236  1.5502 -0.5253  0.2465
 6347SOL     OW30499   2.711   2.980  15.271  0.1266  0.1492  0.4336
 6347SOL    HW130500   2.649   2.967  15.343 -0.4722 -4.3121 -0.9304
 6347SOL    HW230501   2.656   2.987  15.193  1.6156 -0.4037 -0.6564
 6348SOL     OW30502   2.628   3.929  11.199  0.0864  0.1161 -0.9157
 6348SOL    HW130503   2.566   3.856  11.202 -1.0073  1.1019 -0.0194
 6348SOL    HW230504   2.694   3.889  11.141 -1.6843 -0.8994 -2.2100
 6349SOL     OW30505   1.635   3.336  11.800 -0.1861  0.0606 -0.7711
 6349SOL    HW130506   1.731   3.334  11.797 -0.1723 -1.1504  0.1976
 6349SOL    HW230507   1.610   3.338  11.708  0.7794 -0.7064 -1.0563
 6350SOL     OW30508   2.496   3.817  13.346  0.1207 -0.1268 -0.0678
 6350SOL    HW130509   2.501   3.776  13.260 -2.2413  1.3135 -0.9065
 6350SOL    HW230510   2.403   3.820  13.369 -0.3766  0.0042 -2.0851
 6351SOL     OW30511   0.233   3.234   7.213  0.3721 -0.2130  0.3106
 6351SOL    HW130512   0.245   3.313   7.160  0.0116 -0.2929  0.1128
 6351SOL    HW230513   0.314   3.229   7.263  0.3546  0.0638  0.3632
 6352SOL     OW30514   1.936   2.775  13.185 -0.5785  0.8496 -0.4797
 6352SOL    HW130515   1.991   2.699  13.164 -0.6620  0.5954  0.2349
 6352SOL    HW230516   1.983   2.841  13.134  1.6752 -0.1966  0.2421
 6353SOL     OW30517   1.719   1.677   5.217 -0.5624 -1.2613  0.0642
 6353SOL    HW130518   1.737   1.770   5.204 -0.8711 -1.1183  0.6632
 6353SOL    HW230519   1.624   1.675   5.233 -0.6854  0.0344 -0.4945
 6354SOL     OW30520   3.611   1.103   5.578  0.0727  0.2959  0.5032
 6354SOL    HW130521   3.580   1.042   5.512  1.8569 -0.3333  0.2449
 6354SOL    HW230522   3.533   1.128   5.628 -0.0011 -0.6025  0.8311
 6355SOL     OW30523   4.133   1.717   8.247  0.6674 -0.3976 -0.0872
 6355SOL    HW130524   4.080   1.688   8.322 -0.1524  0.4225 -0.3476
 6355SOL    HW230525   4.202   1.761   8.296  2.5838 -1.0003 -2.2890
 6356SOL     OW30526   2.797   0.898   4.888 -0.3509 -0.0874 -0.2957
 6356SOL    HW130527   2.821   0.902   4.980 -0.8323  1.2483 -0.2211
 6356SOL    HW230528   2.723   0.958   4.884  0.2923  0.7328  0.0712
 6357SOL     OW30529   2.326   1.264   7.263 -0.1718  0.0790 -0.1989
 6357SOL    HW130530   2.355   1.263   7.355 -1.3034 -0.4071  0.1531
 6357SOL    HW230531   2.403   1.290   7.212  0.2444  1.9266  1.3757
 6358SOL     OW30532   3.705   3.404  12.281  0.2240  0.2868  0.1669
 6358SOL    HW130533   3.773   3.426  12.344  0.8964 -0.2757 -0.3605
 6358SOL    HW230534   3.736   3.316  12.261 -1.9560 -0.4018 -0.0825
 6359SOL     OW30535   0.675   1.372   3.937 -0.2628 -0.1520 -0.2104
 6359SOL    HW130536   0.662   1.290   3.986 -0.5159 -0.0103 -0.0378
 6359SOL    HW230537   0.760   1.353   3.899  0.4815 -0.5170  1.6152
 6360SOL     OW30538   0.489   1.585   9.098  0.3212  0.4631 -0.2138
 6360SOL    HW130539   0.532   1.503   9.119  2.0608  1.6954  0.9875
 6360SOL    HW230540   0.517   1.604   9.008  0.9546 -0.2161 -0.1564
 6361SOL     OW30541   3.630   4.034  12.053 -0.4962  0.1831 -0.0673
 6361SOL    HW130542   3.594   3.956  12.011 -0.2558 -1.6431  3.1742
 6361SOL    HW230543   3.722   4.026  12.025 -0.0928 -0.5975  1.4771
 6362SOL     OW30544   3.098   3.565   5.421  0.1167 -0.2033  0.0088
 6362SOL    HW130545   3.019   3.614   5.400  1.5638  2.5119  0.8781
 6362SOL    HW230546   3.151   3.604   5.351 -1.7613  0.7929 -0.8606
 6363SOL     OW30547   0.834   1.078   5.577  0.1429 -0.0325 -0.1693
 6363SOL    HW130548   0.749   1.043   5.605  0.5695 -1.0458 -0.1155
 6363SOL    HW230549   0.814   1.170   5.563 -2.6706 -0.5595  0.3501
 6364SOL     OW30550   3.256   3.972   0.843 -0.5167  0.7198 -0.7139
 6364SOL    HW130551   3.221   3.904   0.786 -2.8746 -0.8542  2.6028
 6364SOL    HW230552   3.329   3.934   0.892 -1.0654  2.0319  1.1461
 6365SOL     OW30553   3.859   1.808   4.857 -0.2271  0.5765  0.2861
 6365SOL    HW130554   3.930   1.770   4.909 -2.1736 -2.3929  0.7662
 6365SOL    HW230555   3.886   1.898   4.838  0.0045  0.6796  1.1067
 6366SOL     OW30556   3.247   2.653   3.352 -0.2899  0.2643  0.7118
 6366SOL    HW130557   3.313   2.718   3.376  0.7102 -0.7199  0.6486
 6366SOL    HW230558   3.299   2.581   3.316  0.8096  0.4739  1.8399
 6367SOL     OW30559   0.338   0.318   9.139  0.6939  0.0666 -0.3456
 6367SOL    HW130560   0.378   0.406   9.144  0.8704 -0.0099 -0.4048
 6367SOL    HW230561   0.247   0.343   9.153  1.1516  0.1959  2.5780
 6368SOL     OW30562   3.183   2.091   5.989  0.4101  0.8771  0.3845
 6368SOL    HW130563   3.168   2.087   6.084  0.0707  0.6088  0.3182
 6368SOL    HW230564   3.229   2.174   5.982 -0.3734  1.3893  1.2842
 6369SOL     OW30565   3.412   2.336  13.062  0.2873 -0.4104  0.1135
 6369SOL    HW130566   3.418   2.427  13.092  1.3083 -0.0665 -1.1147
 6369SOL    HW230567   3.320   2.323  13.041  0.4858  0.5472 -1.4213
 6370SOL     OW30568   4.032   2.734   9.410  0.0919  0.2483  0.0003
 6370SOL    HW130569   3.980   2.755   9.333 -0.7109 -0.6897  0.2887
 6370SOL    HW230570   3.999   2.803   9.467 -1.1226 -2.5927  2.7354
 6371SOL     OW30571   0.230   2.786  13.684  0.0933 -0.4492 -0.4222
 6371SOL    HW130572   0.300   2.850  13.681  1.2291 -1.6313  0.6317
 6371SOL    HW230573   0.151   2.840  13.682 -0.0955 -0.6783  0.8876
 6372SOL     OW30574   0.756   4.682   2.014  0.3668  0.4855  0.0577
 6372SOL    HW130575   0.673   4.693   1.968  0.0668 -3.1768 -0.2800
 6372SOL    HW230576   0.787   4.604   1.967 -0.1139  0.7710 -0.7298
 6373SOL     OW30577   3.906   3.677   4.603  0.2299 -0.2447  0.5570
 6373SOL    HW130578   3.919   3.769   4.624 -0.3877 -0.4672  1.9457
 6373SOL    HW230579   3.993   3.645   4.578  0.3471  1.1256 -0.7441
 6374SOL     OW30580   4.413   1.217   4.056 -0.0624  0.6135 -0.5302
 6374SOL    HW130581   4.480   1.191   3.992  0.3953 -0.7572  0.5258
 6374SOL    HW230582   4.449   1.174   4.133  0.1439 -0.0970 -1.0234
 6375SOL     OW30583   4.226   0.927   7.209  0.0008 -0.3338 -0.3896
 6375SOL    HW130584   4.292   0.871   7.249  1.8016  1.2981 -1.0318
 6375SOL    HW230585   4.266   1.014   7.219  0.1910 -0.8259  2.9964
 6376SOL     OW30586   1.822   4.718   3.697 -0.1155 -0.2251 -0.1591
 6376SOL    HW130587   1.835   0.071   3.642  1.6853 -1.6500 -1.7235
 6376SOL    HW230588   1.735   0.003   3.736  0.4131  1.9148  0.5002
 6377SOL     OW30589   2.809   2.031   6.037 -0.7440 -0.2019 -0.4090
 6377SOL    HW130590   2.776   1.993   5.955 -0.3355 -2.9465  0.6746
 6377SOL    HW230591   2.732   2.000   6.087  0.8393 -1.5610  1.1918
 6378SOL     OW30592   3.309   1.339  16.543 -0.0894 -0.3984  0.6500
 6378SOL    HW130593   3.332   1.262  16.491  0.7278 -0.5660  1.2522
 6378SOL    HW230594   3.215   1.337  16.527  0.0083  1.2766 -0.1291
 6379SOL     OW30595   0.081   1.171   2.962  0.0135 -0.3363 -0.1561
 6379SOL    HW130596   0.108   1.088   3.000  0.8003  0.1561  0.3523
 6379SOL    HW230597   0.130   1.166   2.880 -0.3845  1.6117 -0.5141
 6380SOL     OW30598   0.560   4.534   5.074 -0.3357  0.4723  0.7720
 6380SOL    HW130599   0.627   4.603   5.074 -1.6010  1.6874 -2.2009
 6380SOL    HW230600   0.522   4.564   4.992 -0.5937 -0.3172  0.6021
 6381SOL     OW30601   2.893   4.623  15.638 -0.2066 -0.5141  0.1823
 6381SOL    HW130602   2.970   4.679  15.633 -1.0854  0.6820 -0.0819
 6381SOL    HW230603   2.911   4.574  15.718  0.5086  2.1808  1.6845
 6382SOL     OW30604   2.730   3.137   6.956  0.4268  0.0220 -0.2669
 6382SOL    HW130605   2.695   3.099   6.875 -0.2792  0.2676 -0.0744
 6382SOL    HW230606   2.775   3.217   6.931 -2.4037  1.6799 -0.0774
 6383SOL     OW30607   2.786   1.114   4.181 -0.0492 -0.3857 -0.3981
 6383SOL    HW130608   2.792   1.066   4.099  3.8774  0.3616 -0.5201
 6383SOL    HW230609   2.797   1.042   4.242 -3.4163 -0.0263  0.6577
 6384SOL     OW30610   4.065   3.981   6.774 -0.4243 -0.2177  0.1472
 6384SOL    HW130611   4.011   4.022   6.706 -0.1281  2.1025  1.2984
 6384SOL    HW230612   3.999   3.974   6.842  0.2370 -0.4161  0.7661
 6385SOL     OW30613   4.287   4.014   2.458  0.6346  0.2819 -0.1312
 6385SOL    HW130614   4.244   3.928   2.453  2.1004 -0.4084 -0.8103
 6385SOL    HW230615   4.333   4.022   2.375 -0.0844  0.9380 -0.4640
 6386SOL     OW30616   4.716   2.297   4.782  0.3509 -0.0991  0.0868
 6386SOL    HW130617   0.082   2.329   4.772 -0.4494  0.7077 -4.6389
 6386SOL    HW230618   4.678   2.320   4.697  1.1002 -0.4790 -0.3559
 6387SOL     OW30619   0.814   0.488   0.987  0.0060  0.1557  0.1651
 6387SOL    HW130620   0.902   0.516   0.963 -0.2104  0.9677  0.3185
 6387SOL    HW230621   0.830   0.445   1.071 -1.5009  2.1159  1.4802
 6388SOL     OW30622   2.065   0.687   7.343 -0.4250 -0.0651 -0.3624
 6388SOL    HW130623   1.996   0.709   7.280 -2.0190  1.8090  2.0176
 6388SOL    HW230624   2.122   0.764   7.331 -0.6399 -0.0203 -1.0994
 6389SOL     OW30625   3.238   0.570   8.588  0.1506  0.1555 -0.2169
 6389SOL    HW130626   3.297   0.497   8.609 -1.1522 -0.7157  0.3901
 6389SOL    HW230627   3.290   0.624   8.528 -1.0162  0.0998 -1.2785
 6390SOL     OW30628   4.230   1.620   8.018  0.2544 -0.2874 -0.1953
 6390SOL    HW130629   4.249   1.687   7.952 -1.4836  2.0767  1.6807
 6390SOL    HW230630   4.198   1.667   8.096  1.9695 -2.1969  1.6511
 6391SOL     OW30631   1.898   3.725  17.624  0.2117  0.2457  1.0510
 6391SOL    HW130632   1.809   3.696  17.605  0.8143 -0.1447 -1.1814
 6391SOL    HW230633   1.952   3.646  17.613 -1.9846 -1.5030  2.9294
 6392SOL     OW30634   3.118   3.974  15.787 -0.7911  0.0805 -0.2417
 6392SOL    HW130635   3.134   3.911  15.857  0.1760 -0.9659 -1.3834
 6392SOL    HW230636   3.038   4.017  15.816 -0.9314 -0.6877  0.5255
 6393SOL     OW30637   3.410   3.292   1.949  0.0030  0.5052  1.0140
 6393SOL    HW130638   3.415   3.328   2.038 -0.4174  0.6131  0.9936
 6393SOL    HW230639   3.383   3.201   1.959 -1.0294  0.7424  0.3828
 6394SOL     OW30640   1.808   1.193   7.139  0.0307  0.1164  0.2902
 6394SOL    HW130641   1.885   1.249   7.133 -1.3683  2.0008 -0.0827
 6394SOL    HW230642   1.811   1.157   7.228 -1.7574 -0.2592  0.2096
 6395SOL     OW30643   1.056   0.908   6.627  0.2693 -0.1212  0.0802
 6395SOL    HW130644   1.068   1.000   6.602  1.6926 -0.3143  0.0734
 6395SOL    HW230645   0.984   0.919   6.690 -1.4415 -0.3698 -1.8186
 6396SOL     OW30646   3.211   0.421   8.201  0.0852 -0.0693 -0.2119
 6396SOL    HW130647   3.301   0.393   8.185  0.7422  1.8359  0.1033
 6396SOL    HW230648   3.208   0.507   8.157 -0.3286 -0.6596 -1.3554
 6397SOL     OW30649   3.533   3.426   5.568  0.0699  0.3754  0.1196
 6397SOL    HW130650   3.534   3.505   5.514 -0.5322  1.0702  1.1160
 6397SOL    HW230651   3.456   3.388   5.524 -0.0691 -0.7240  1.3016
 6398SOL     OW30652   4.654   4.346   2.070  0.7140  0.3703  0.3010
 6398SOL    HW130653   4.713   4.366   1.998  1.9802 -1.7300  0.7422
 6398SOL    HW230654   4.631   4.256   2.048  1.2069  0.3778 -0.2210
 6399SOL     OW30655   2.319   4.558   2.048 -0.6951  0.7532 -0.0369
 6399SOL    HW130656   2.402   4.600   2.024  0.2733 -0.2355  1.5210
 6399SOL    HW230657   2.343   4.466   2.036 -0.0406  1.1465 -1.7404
 6400SOL     OW30658   3.016   1.393  11.538  0.2103  1.1477  0.1879
 6400SOL    HW130659   3.094   1.428  11.580 -0.3885  2.1127  0.4786
 6400SOL    HW230660   2.943   1.448  11.566 -0.7692  0.5297 -1.1066
 6401SOL     OW30661   0.665   4.345  15.850  0.0558  0.3798 -0.5645
 6401SOL    HW130662   0.655   4.268  15.907  1.8540 -1.5801 -2.8549
 6401SOL    HW230663   0.701   4.415  15.904 -0.1854 -1.0849  1.4750
 6402SOL     OW30664   4.283   2.962  15.964  0.1215  0.9929  0.7643
 6402SOL    HW130665   4.257   2.988  15.875 -0.9643  1.4637  1.2278
 6402SOL    HW230666   4.232   3.030  16.008  1.6272  1.3049  2.0260
 6403SOL     OW30667   3.690   2.762   3.337 -0.1127 -0.2467 -0.0021
 6403SOL    HW130668   3.697   2.849   3.295 -0.0016 -0.2636 -0.0186
 6403SOL    HW230669   3.710   2.713   3.257 -0.6631  0.1167 -0.3612
 6404SOL     OW30670   1.671   3.612   2.087 -0.5444 -0.6792 -0.4916
 6404SOL    HW130671   1.595   3.561   2.115 -0.9441  0.1428 -0.0711
 6404SOL    HW230672   1.690   3.586   1.997 -1.3465  0.6920 -1.0646
 6405SOL     OW30673   2.371   0.792  15.301 -0.0679  0.1963  0.5642
 6405SOL    HW130674   2.347   0.871  15.350  0.3020  0.6134  0.0640
 6405SOL    HW230675   2.404   0.842  15.226 -0.0157  1.4090  1.3898
 6406SOL     OW30676   1.936   2.967   2.672  0.3915  0.5858  0.3934
 6406SOL    HW130677   1.879   3.035   2.636  1.0730  0.8632 -0.1535
 6406SOL    HW230678   2.023   2.996   2.644  0.6496 -1.6018 -1.0491
 6407SOL     OW30679   2.154   2.435   0.506  0.1976 -0.3864 -0.4380
 6407SOL    HW130680   2.059   2.440   0.494  0.2209  0.0942 -0.4257
 6407SOL    HW230681   2.181   2.522   0.480 -0.8521  0.3768  0.9955
 6408SOL     OW30682   4.394   1.281   2.191  0.2152 -0.4060  0.1247
 6408SOL    HW130683   4.409   1.270   2.097 -0.6367 -2.6796  0.2498
 6408SOL    HW230684   4.470   1.246   2.237 -0.2681  1.1282  2.1133
 6409SOL     OW30685   4.142   0.857  12.974 -0.0078  0.4306  0.0338
 6409SOL    HW130686   4.121   0.889  12.886 -0.4284 -1.3601 -0.4979
 6409SOL    HW230687   4.183   0.772  12.959  2.7451  1.5209  1.2583
 6410SOL     OW30688   2.580   0.222   5.143  0.0255 -0.6289  0.0647
 6410SOL    HW130689   2.584   0.304   5.093  0.9769 -1.8273 -1.7996
 6410SOL    HW230690   2.639   0.257   5.210 -0.0118 -1.2824  0.4369
 6411SOL     OW30691   2.581   1.998   6.831 -0.0256  0.5149  0.5186
 6411SOL    HW130692   2.600   2.088   6.804  3.1649 -0.0673  0.8464
 6411SOL    HW230693   2.666   1.965   6.859 -0.1304 -1.6690 -1.7659
 6412SOL     OW30694   2.900   4.349   8.103  0.5923 -0.0662  0.1316
 6412SOL    HW130695   2.933   4.376   8.017  2.8247 -0.3917  0.8752
 6412SOL    HW230696   2.957   4.397   8.164 -1.0887  2.6038 -0.4072
 6413SOL     OW30697   4.068   2.573   6.897 -0.1015  0.1963 -0.2134
 6413SOL    HW130698   4.042   2.589   6.987 -0.0755 -2.2396  0.2033
 6413SOL    HW230699   4.049   2.663   6.868  2.4710  0.2688 -1.6952
 6414SOL     OW30700   1.896   1.862   8.428  0.1599  0.2750 -0.5418
 6414SOL    HW130701   1.991   1.857   8.414  0.2199 -0.4986  0.1528
 6414SOL    HW230702   1.890   1.827   8.516  0.0644  0.2123 -0.5736
 6415SOL     OW30703   3.370   3.783   4.740 -0.6906  0.5105  0.4127
 6415SOL    HW130704   3.283   3.743   4.733 -0.9165  0.9818  0.5038
 6415SOL    HW230705   3.342   3.858   4.794 -0.5234  2.0188 -1.5929
 6416SOL     OW30706   4.124   1.368   3.802 -0.6307 -0.0133 -0.0224
 6416SOL    HW130707   4.177   1.377   3.723 -0.4682  1.0445  0.2000
 6416SOL    HW230708   4.124   1.272   3.804 -2.1541 -0.0399 -1.2518
 6417SOL     OW30709   1.143   0.953  16.448 -0.1388 -0.2383 -0.7043
 6417SOL    HW130710   1.101   1.038  16.431 -0.6142 -0.2102  0.6392
 6417SOL    HW230711   1.235   0.979  16.453 -0.3049  0.2958 -0.3597
 6418SOL     OW30712   2.233   2.655   5.844 -0.5246 -0.0114  0.0152
 6418SOL    HW130713   2.291   2.605   5.901 -0.6602 -0.6550 -0.4065
 6418SOL    HW230714   2.166   2.674   5.910 -1.9906  0.1337 -1.5203
 6419SOL     OW30715   2.579   2.290  16.368 -0.3741 -0.1445  0.4532
 6419SOL    HW130716   2.547   2.366  16.320  0.5195  0.0287  0.1260
 6419SOL    HW230717   2.662   2.265  16.326 -1.8757 -0.7889 -2.1452
 6420SOL     OW30718   0.569   2.859  13.285  0.7977  0.4745  0.6911
 6420SOL    HW130719   0.475   2.877  13.290  0.4230 -1.6652  1.4763
 6420SOL    HW230720   0.574   2.768  13.255  0.0458  0.5844  0.2271
 6421SOL     OW30721   4.392   1.227   1.933 -0.1891  0.4724 -0.3928
 6421SOL    HW130722   4.324   1.191   1.876 -2.5462  0.1227  2.6256
 6421SOL    HW230723   4.447   1.258   1.861  1.0580  1.1010  0.8333
 6422SOL     OW30724   1.846   4.594   4.816  0.2909 -0.2157  0.3219
 6422SOL    HW130725   1.843   4.504   4.850  2.1399 -0.7681 -0.9572
 6422SOL    HW230726   1.938   4.608   4.796 -0.0040 -0.2993 -1.0782
 6423SOL     OW30727   0.344   0.856   6.912 -0.2361  0.0362 -0.4635
 6423SOL    HW130728   0.426   0.883   6.955 -1.1664  0.7808  0.8590
 6423SOL    HW230729   0.289   0.932   6.931 -0.1172  0.1172 -0.4396
 6424SOL     OW30730   2.091   4.641  13.076  0.2836  0.1619  0.2022
 6424SOL    HW130731   2.152   4.655  13.148  0.3804 -0.4271  0.2323
 6424SOL    HW230732   2.010   4.606  13.113  0.8134 -0.5263  0.7009
 6425SOL     OW30733   4.068   0.849   4.980 -1.1186  0.0673 -0.1815
 6425SOL    HW130734   4.041   0.929   5.025 -1.6036  1.1732 -2.3979
 6425SOL    HW230735   4.021   0.779   5.025 -0.9717 -0.0275 -0.1762
 6426SOL     OW30736   2.556   3.549   7.421  0.1277  0.3471  0.3639
 6426SOL    HW130737   2.562   3.454   7.418  0.5276  0.4048 -0.7979
 6426SOL    HW230738   2.500   3.568   7.496 -1.5507  2.1141 -1.3434
 6427SOL     OW30739   1.866   0.166   5.755  0.7391  0.3191  0.0961
 6427SOL    HW130740   1.788   0.111   5.742  0.8460 -0.0165  0.8569
 6427SOL    HW230741   1.887   0.171   5.662 -0.3734 -0.3563 -0.1956
 6428SOL     OW30742   0.765   0.140  12.036 -0.0444  0.4468 -0.0671
 6428SOL    HW130743   0.774   0.125  11.942  2.2092 -0.7140  0.3444
 6428SOL    HW230744   0.850   0.101  12.056 -0.1760  0.6214  0.8352
 6429SOL     OW30745   3.151   3.411  12.079 -0.2110  0.0294  0.3423
 6429SOL    HW130746   3.132   3.323  12.112 -0.6632  1.3296  3.5567
 6429SOL    HW230747   3.154   3.468  12.156  2.0748  1.1217 -0.5721
 6430SOL     OW30748   2.846   1.240   7.719  0.4960 -0.2183  0.0181
 6430SOL    HW130749   2.824   1.243   7.812  1.0230 -1.6233  0.1906
 6430SOL    HW230750   2.879   1.150   7.716  0.4191 -0.3404  2.7268
 6431SOL     OW30751   4.280   1.208  17.211  0.4144  0.0077 -0.0468
 6431SOL    HW130752   4.322   1.189  17.127  0.9355  0.6553  0.0619
 6431SOL    HW230753   4.221   1.276  17.179 -0.3808 -1.3829 -1.5229
 6432SOL     OW30754   3.696   4.514   9.154  0.1786 -0.1864 -0.1588
 6432SOL    HW130755   3.633   4.544   9.219 -0.7321  1.1233 -1.6320
 6432SOL    HW230756   3.656   4.535   9.070 -0.0427 -0.7581 -0.1935
 6433SOL     OW30757   0.506   1.412   8.719  0.3785 -0.7663  0.3750
 6433SOL    HW130758   0.548   1.463   8.651  0.3432 -1.9129 -0.5057
 6433SOL    HW230759   0.474   1.475   8.784 -1.2698 -0.3297 -0.8825
 6434SOL     OW30760   2.518   3.031   8.673  0.1408  1.1963 -0.3271
 6434SOL    HW130761   2.601   3.025   8.626  0.5514 -0.6979  0.6302
 6434SOL    HW230762   2.465   3.070   8.604  0.8830  0.0600 -1.5316
 6435SOL     OW30763   2.893   0.933   5.123 -0.4715  0.4096  0.7800
 6435SOL    HW130764   2.944   0.854   5.105 -0.7035  0.4675 -0.1108
 6435SOL    HW230765   2.941   0.968   5.198 -0.1855  0.4198  0.5916
 6436SOL     OW30766   4.076   2.302  13.261 -0.3632  0.3681 -0.4288
 6436SOL    HW130767   4.162   2.274  13.293 -0.3967  3.0828  2.0219
 6436SOL    HW230768   4.094   2.394  13.245 -2.5036  1.4928  3.7253
 6437SOL     OW30769   3.297   2.834   7.978  0.1777  0.6720  0.7841
 6437SOL    HW130770   3.315   2.890   8.053 -0.6826  0.9846  0.7627
 6437SOL    HW230771   3.213   2.791   7.993 -1.0146  2.5756 -0.4283
 6438SOL     OW30772   0.964   1.155  10.572  0.3746  0.4752  0.4585
 6438SOL    HW130773   0.953   1.072  10.618  0.2407  0.2870  0.0855
 6438SOL    HW230774   0.872   1.178  10.586 -0.8019 -2.2408 -2.7188
 6439SOL     OW30775   1.397   0.206   0.638  0.3532  0.6475 -0.2806
 6439SOL    HW130776   1.485   0.190   0.603  0.4695 -0.0846  0.3369
 6439SOL    HW230777   1.413   0.189   0.731 -2.8180 -0.8666 -0.0160
 6440SOL     OW30778   1.910   3.851   1.733 -0.5287  0.1690 -0.2793
 6440SOL    HW130779   1.996   3.864   1.772 -0.5944  2.6283 -0.9656
 6440SOL    HW230780   1.856   3.914   1.781 -0.3244  1.3230 -1.5780
 6441SOL     OW30781   4.551   1.530  11.707  0.3803  0.2022 -0.0496
 6441SOL    HW130782   4.481   1.581  11.667  0.9333  0.8661 -0.1811
 6441SOL    HW230783   4.623   1.538  11.644  1.2467 -0.5130  0.8441
 6442SOL     OW30784   0.515   1.481  14.414 -0.4862 -0.0936  0.5730
 6442SOL    HW130785   0.455   1.517  14.480  0.8123 -2.1567  2.8542
 6442SOL    HW230786   0.467   1.492  14.331  1.3854  3.0389 -0.1249
 6443SOL     OW30787   1.858   1.787  11.560  0.2985  0.3084 -0.4211
 6443SOL    HW130788   1.786   1.835  11.601  1.7590  1.2886  0.9710
 6443SOL    HW230789   1.865   1.843  11.482 -1.5421  0.4711 -0.4783
 6444SOL     OW30790   1.257   1.292  13.251  0.6670 -0.4183  0.0120
 6444SOL    HW130791   1.248   1.220  13.188  1.4240  0.9830 -1.6985
 6444SOL    HW230792   1.170   1.287  13.289  1.1694 -0.1663  1.2014
 6445SOL     OW30793   0.257   2.087   1.593  0.4646  0.0239  0.6309
 6445SOL    HW130794   0.277   2.137   1.514 -3.5373 -2.9463 -2.2317
 6445SOL    HW230795   0.280   2.154   1.657 -1.9437  1.8880 -0.4581
 6446SOL     OW30796   4.411   0.284   5.713  0.7950 -0.3308  0.7105
 6446SOL    HW130797   4.427   0.335   5.634  0.1941 -1.1615  0.0510
 6446SOL    HW230798   4.456   0.201   5.697  2.8588  0.8299  0.5893
 6447SOL     OW30799   2.732   1.804   5.876 -0.2805 -0.1968 -0.3654
 6447SOL    HW130800   2.663   1.744   5.848 -2.1663  1.6463  0.2561
 6447SOL    HW230801   2.724   1.786   5.969  1.0950 -0.9074 -0.3901
 6448SOL     OW30802   1.725   3.968  12.480  0.4990  0.0487 -0.3092
 6448SOL    HW130803   1.660   3.912  12.437  0.8090  0.5817 -1.4794
 6448SOL    HW230804   1.686   4.055  12.476  0.3706  0.1164  2.5751
 6449SOL     OW30805   2.121   2.195   4.298 -0.1236 -0.1100 -0.2906
 6449SOL    HW130806   2.172   2.125   4.259  0.2924 -0.8467  1.5891
 6449SOL    HW230807   2.181   2.270   4.294 -0.5445  0.1715 -1.4618
 6450SOL     OW30808   2.003   2.698   4.497  0.3207 -0.3962 -0.1997
 6450SOL    HW130809   1.972   2.655   4.417  0.6803  0.8848 -1.0368
 6450SOL    HW230810   2.074   2.640   4.525  0.1020 -1.1320 -1.1854
 6451SOL     OW30811   4.658   1.951   2.021  0.1000  0.7658 -0.1337
 6451SOL    HW130812   4.590   2.008   2.056 -1.9226 -2.1884  0.6846
 6451SOL    HW230813   0.004   2.014   2.005 -0.6163  1.8516  1.0622
 6452SOL     OW30814   3.929   2.931  15.765 -0.3191  0.2590 -0.7331
 6452SOL    HW130815   3.930   2.867  15.836 -1.4142  0.7320 -0.2887
 6452SOL    HW230816   3.967   2.885  15.690  3.8224 -0.1220  1.5761
 6453SOL     OW30817   2.971   1.167   2.028 -0.2733  0.1676 -0.0769
 6453SOL    HW130818   2.893   1.119   2.000 -1.4364  3.1096 -2.0012
 6453SOL    HW230819   2.950   1.256   1.997 -0.8132 -0.0918 -0.4489
 6454SOL     OW30820   2.823   3.200   5.106 -0.3390 -0.4318  1.5144
 6454SOL    HW130821   2.800   3.192   5.014  0.1437  0.6653  1.2987
 6454SOL    HW230822   2.762   3.137   5.144 -0.1999 -1.5628 -0.1417
 6455SOL     OW30823   1.945   2.220   2.842 -0.2342  0.0117  0.0701
 6455SOL    HW130824   1.867   2.228   2.897 -1.8495  0.7342 -2.2920
 6455SOL    HW230825   1.957   2.127   2.861  1.9283  0.0612 -0.9822
 6456SOL     OW30826   4.127   2.666   1.051 -0.0431 -0.0388  0.5497
 6456SOL    HW130827   4.075   2.600   1.097 -0.0782 -2.3475 -2.7386
 6456SOL    HW230828   4.184   2.695   1.122 -0.0507  4.2249 -1.2021
 6457SOL     OW30829   0.081   1.028   5.830  0.1491  0.0133  0.7160
 6457SOL    HW130830   4.716   1.004   5.857 -0.0320  0.8295  0.8283
 6457SOL    HW230831   0.087   1.106   5.884 -1.8699  1.5003 -1.2279
 6458SOL     OW30832   3.866   3.359   7.274 -0.2495  0.1146 -0.3965
 6458SOL    HW130833   3.834   3.324   7.190 -0.9200  0.2181 -0.1846
 6458SOL    HW230834   3.912   3.436   7.243  0.5711 -0.1941  0.0791
 6459SOL     OW30835   1.606   3.282  11.538  0.1639  0.5144  0.5543
 6459SOL    HW130836   1.701   3.266  11.539 -0.3051 -2.3367 -0.8495
 6459SOL    HW230837   1.578   3.293  11.447 -0.6636  0.5446  0.8124
 6460SOL     OW30838   0.614   3.819   9.989  0.3937 -0.0266  0.1528
 6460SOL    HW130839   0.696   3.868   9.991  0.0194  0.6629 -1.0753
 6460SOL    HW230840   0.559   3.884  10.032 -0.3157 -0.2530 -0.4129
 6461SOL     OW30841   3.179   2.613   4.510 -0.2651 -0.2307  0.4253
 6461SOL    HW130842   3.169   2.665   4.590 -0.6932 -0.9300  0.8218
 6461SOL    HW230843   3.202   2.673   4.440 -0.6286 -1.5069 -0.7886
 6462SOL     OW30844   4.089   2.787  15.984 -0.2668 -0.5551 -0.2382
 6462SOL    HW130845   4.084   2.799  16.078  0.7755 -2.6758  0.0877
 6462SOL    HW230846   4.161   2.844  15.958 -1.9291  1.9277  0.7065
 6463SOL     OW30847   3.114   1.078   7.490  0.2537 -0.2547  0.0834
 6463SOL    HW130848   3.098   1.167   7.460  1.7349 -0.2327 -0.6445
 6463SOL    HW230849   3.103   1.095   7.583  1.4721  0.1089  0.1548
 6464SOL     OW30850   4.228   1.178   5.508  0.3916  0.4990 -0.1274
 6464SOL    HW130851   4.172   1.114   5.462  2.3003 -0.8987 -0.4890
 6464SOL    HW230852   4.208   1.152   5.598 -2.1867  2.1756 -0.2109
 6465SOL     OW30853   0.118   1.846   1.662 -0.1050 -0.2955  0.0913
 6465SOL    HW130854   0.099   1.812   1.574 -2.6217 -0.5894  0.7449
 6465SOL    HW230855   0.140   1.939   1.652  1.9524 -1.0940 -2.7758
 6466SOL     OW30856   0.811   0.628   4.929 -0.1949 -0.1533 -0.4844
 6466SOL    HW130857   0.761   0.690   4.982 -3.4645 -1.0518 -2.4925
 6466SOL    HW230858   0.765   0.545   4.943 -0.0006 -0.4965 -1.8578
 6467SOL     OW30859   3.140   4.098   8.861 -0.1450 -0.4123 -0.0013
 6467SOL    HW130860   3.138   4.181   8.813  0.4274  0.6124  1.7771
 6467SOL    HW230861   3.215   4.047   8.831 -0.8070 -0.6780 -1.2515
 6468SOL     OW30862   4.608   1.386  13.100 -0.0667  0.4908 -0.1462
 6468SOL    HW130863   4.521   1.426  13.099 -0.3698 -0.1717 -0.8564
 6468SOL    HW230864   4.624   1.373  13.193  2.9526 -1.8346 -0.9835
 6469SOL     OW30865   4.649   1.610   9.669 -0.1203 -0.0022  0.2253
 6469SOL    HW130866   4.695   1.676   9.616  0.0096 -1.3340 -1.3176
 6469SOL    HW230867   4.606   1.558   9.601  0.4430  1.4336 -1.2542
 6470SOL     OW30868   3.383   1.425   4.055  0.0135 -0.1596 -0.4488
 6470SOL    HW130869   3.366   1.447   3.964 -0.0483  0.1575 -0.3607
 6470SOL    HW230870   3.315   1.361   4.074  0.3980 -0.4581 -0.0762
 6471SOL     OW30871   3.213   2.329  15.498 -0.2144  0.7227  0.0602
 6471SOL    HW130872   3.156   2.285  15.561 -1.5632  0.9762 -0.9899
 6471SOL    HW230873   3.300   2.296  15.519  0.1758  1.7473  0.0421
 6472SOL     OW30874   3.036   0.759   2.233 -0.0002 -0.5868 -0.3499
 6472SOL    HW130875   3.061   0.722   2.149  0.3851 -0.1511 -0.4314
 6472SOL    HW230876   2.943   0.768   2.216 -0.0879 -1.1979 -0.1749
 6473SOL     OW30877   4.328   0.150   6.560 -0.1805  0.5199 -0.4558
 6473SOL    HW130878   4.287   0.103   6.488 -0.6302  1.4328 -0.7896
 6473SOL    HW230879   4.326   0.086   6.631 -1.4576 -0.0142 -0.9778
 6474SOL     OW30880   2.424   1.470   4.814  1.2324  0.1179  0.0045
 6474SOL    HW130881   2.433   1.539   4.748 -1.2884 -0.4219 -0.9221
 6474SOL    HW230882   2.483   1.492   4.886 -1.6584  0.4650  2.3084
 6475SOL     OW30883   1.328   1.534   9.008  0.0557 -0.0110 -0.0598
 6475SOL    HW130884   1.252   1.539   9.066  0.8018  0.2843  0.8888
 6475SOL    HW230885   1.328   1.625   8.979 -1.7059 -0.2712 -0.8638
 6476SOL     OW30886   0.940   2.812   8.861  0.1290  0.3102 -0.5640
 6476SOL    HW130887   0.873   2.862   8.813  2.4726  1.4289 -2.7093
 6476SOL    HW230888   0.902   2.726   8.849 -0.6864  0.7860 -1.4274
 6477SOL     OW30889   3.996   0.870  11.296 -0.1453 -0.8827  0.4154
 6477SOL    HW130890   4.007   0.780  11.325 -2.2516 -0.7442  1.6239
 6477SOL    HW230891   4.043   0.869  11.213 -0.3130 -1.7735  0.3345
 6478SOL     OW30892   1.320   0.060   9.712  0.6090  0.5037  0.5986
 6478SOL    HW130893   1.345   0.047   9.620  0.0622 -2.6872  0.8876
 6478SOL    HW230894   1.392   0.118   9.736  0.8550  0.2096  0.5727
 6479SOL     OW30895   3.303   1.082   3.767  0.1118 -0.0183  0.4452
 6479SOL    HW130896   3.221   1.042   3.797 -0.0267 -1.1157 -1.4432
 6479SOL    HW230897   3.340   1.101   3.854  0.3624  3.0813 -0.3412
 6480SOL     OW30898   3.060   3.473   8.058 -0.0178  0.3994  0.0198
 6480SOL    HW130899   3.054   3.537   7.987  0.3109 -1.0181 -1.2651
 6480SOL    HW230900   3.006   3.402   8.024  0.8091 -1.1163  1.8498
 6481SOL     OW30901   1.367   3.444   0.729 -0.2865  0.0859  0.4376
 6481SOL    HW130902   1.351   3.458   0.635  0.9250 -0.9134  0.0806
 6481SOL    HW230903   1.299   3.506   0.754  0.1474  0.7503 -0.0107
 6482SOL     OW30904   4.466   2.757   2.238  0.1418  0.9609  0.4507
 6482SOL    HW130905   4.406   2.702   2.288  0.2417  1.2960  0.9334
 6482SOL    HW230906   4.522   2.691   2.197 -2.7871 -1.0437 -0.3673
 6483SOL     OW30907   3.710   3.629   4.421  0.2987 -0.1353  0.1457
 6483SOL    HW130908   3.742   3.553   4.373 -0.1052 -1.4876  2.0381
 6483SOL    HW230909   3.793   3.654   4.462  1.5553 -0.8190 -1.9704
 6484SOL     OW30910   2.842   2.269  12.358 -0.2136  0.0909  0.4028
 6484SOL    HW130911   2.845   2.329  12.433  1.8354  0.2931  0.1846
 6484SOL    HW230912   2.750   2.275  12.335 -0.0564 -1.3907 -0.5584
 6485SOL     OW30913   3.342   3.251   3.703 -0.0416 -0.1571  0.2006
 6485SOL    HW130914   3.255   3.259   3.741  0.3387 -0.6481  1.1780
 6485SOL    HW230915   3.386   3.197   3.768 -0.5152  0.0393  0.6794
 6486SOL     OW30916   0.458   4.316   8.447  0.0755  0.2175  0.6332
 6486SOL    HW130917   0.511   4.352   8.376  0.0833 -2.0439 -0.5154
 6486SOL    HW230918   0.375   4.362   8.452  0.6222  1.3849 -1.0673
 6487SOL     OW30919   1.065   3.847  17.134 -0.4796  0.5413  0.1648
 6487SOL    HW130920   1.030   3.936  17.124  1.2291  0.8904 -2.6080
 6487SOL    HW230921   0.992   3.804  17.180 -0.3665  1.0947  0.8753
 6488SOL     OW30922   3.428   1.148   5.786  0.5015 -0.1372  0.2417
 6488SOL    HW130923   3.372   1.119   5.859 -1.4343  3.3675  0.1856
 6488SOL    HW230924   3.374   1.213   5.740  0.5583  0.1244  0.5416
 6489SOL     OW30925   1.275   0.661   6.884  0.2783  0.1834  0.3797
 6489SOL    HW130926   1.349   0.648   6.824 -1.3321 -1.0783 -1.3267
 6489SOL    HW230927   1.297   0.609   6.961  0.8035  0.8820  0.7004
 6490SOL     OW30928   2.544   2.200   9.454  0.8443  0.2883 -0.6628
 6490SOL    HW130929   2.508   2.266   9.513  2.4153  1.6040 -1.1914
 6490SOL    HW230930   2.547   2.126   9.514  3.5383  0.2874 -0.8068
 6491SOL     OW30931   3.651   1.396   4.856  0.6516 -0.1861  0.0604
 6491SOL    HW130932   3.735   1.400   4.901  0.2024  0.9440  0.8232
 6491SOL    HW230933   3.633   1.489   4.843 -0.1548 -0.9027 -3.8086
 6492SOL     OW30934   4.003   0.158   2.172 -0.0969  0.4659 -0.0692
 6492SOL    HW130935   4.067   0.113   2.226 -1.4706  0.7873  1.8257
 6492SOL    HW230936   4.028   0.249   2.186 -1.2260  0.9562 -1.2089
 6493SOL     OW30937   0.835   3.325   4.851 -0.3805 -0.5641  0.0786
 6493SOL    HW130938   0.801   3.237   4.835 -1.5545 -0.0929  0.0163
 6493SOL    HW230939   0.928   3.305   4.865 -0.7096 -1.3618  1.1356
 6494SOL     OW30940   1.103   0.866  14.827  0.6524 -0.0035 -0.1308
 6494SOL    HW130941   1.075   0.831  14.911  0.7013  0.0045 -0.1110
 6494SOL    HW230942   1.150   0.788  14.798 -0.8066 -1.3978  1.2392
 6495SOL     OW30943   2.748   2.828  13.630 -0.6733  0.0264  0.0611
 6495SOL    HW130944   2.652   2.833  13.628 -0.6497  1.1188  2.0529
 6495SOL    HW230945   2.771   2.744  13.670 -2.5207 -1.0338 -1.0939
 6496SOL     OW30946   0.769   1.150  11.635 -0.3180  0.9217 -0.2182
 6496SOL    HW130947   0.813   1.187  11.711  2.9857 -2.0495 -0.7099
 6496SOL    HW230948   0.813   1.206  11.572  1.6567  0.3134  0.6226
 6497SOL     OW30949   1.639   3.479   6.826 -0.3441  0.2447 -0.3557
 6497SOL    HW130950   1.588   3.446   6.752  0.8188 -1.6119 -0.3308
 6497SOL    HW230951   1.665   3.564   6.790 -2.8528  1.4518  0.7067
 6498SOL     OW30952   0.027   1.991   7.078 -0.3997 -0.1961 -0.1022
 6498SOL    HW130953   0.025   1.925   7.009 -1.1354  0.4209 -0.6711
 6498SOL    HW230954   4.722   2.071   7.032  1.0458  1.2768  1.5353
 6499SOL     OW30955   1.073   2.736   1.793  0.0309 -0.1540  0.1251
 6499SOL    HW130956   1.044   2.811   1.740  0.2868 -0.4111 -0.3878
 6499SOL    HW230957   1.001   2.675   1.776  0.1915 -1.3789  3.8666
 6500SOL     OW30958   2.990   1.412  17.679 -0.0292 -0.0501  0.5620
 6500SOL    HW130959   2.975   1.472  17.606  0.4305  0.0051  0.5127
 6500SOL    HW230960   2.904   1.399   0.021 -0.9021  2.7390 -0.3873
 6501SOL     OW30961   1.173   0.534   8.429  0.0326 -0.0854  0.1802
 6501SOL    HW130962   1.091   0.580   8.411  0.1190 -0.1852 -0.4440
 6501SOL    HW230963   1.141   0.444   8.434  0.3676 -0.3638 -2.8934
 6502SOL     OW30964   0.676   1.933  16.818  0.0969  0.0365  0.3968
 6502SOL    HW130965   0.615   1.987  16.767 -1.3990  0.0426  2.2002
 6502SOL    HW230966   0.720   2.001  16.870  1.9027  1.5695 -3.1475
 6503SOL     OW30967   0.535   3.762   2.358 -0.3761 -0.4775 -0.4425
 6503SOL    HW130968   0.533   3.746   2.452 -3.2161  0.3314 -0.3587
 6503SOL    HW230969   0.466   3.828   2.355  0.0607 -0.0566 -1.3722
 6504SOL     OW30970   2.067   0.106   6.819  0.1295  0.2802 -0.4935
 6504SOL    HW130971   2.077   0.029   6.874  1.9320 -0.4144 -1.7648
 6504SOL    HW230972   2.011   0.163   6.872  0.9065  1.2133 -0.6615
 6505SOL     OW30973   3.599   3.835   4.029 -0.0821 -0.2252  0.1951
 6505SOL    HW130974   3.627   3.871   3.944 -0.8257  1.4688  0.6482
 6505SOL    HW230975   3.511   3.798   4.017 -0.1955 -0.7960  2.8439
 6506SOL     OW30976   3.634   3.477  15.601 -0.0265  0.7878  0.4772
 6506SOL    HW130977   3.729   3.467  15.592  0.2381  1.7555  2.2677
 6506SOL    HW230978   3.606   3.393  15.564  0.1599  1.1364 -0.4690
 6507SOL     OW30979   1.909   0.649   2.276 -0.1215  0.0808 -0.4755
 6507SOL    HW130980   1.911   0.593   2.354 -0.9418  1.6044  0.6136
 6507SOL    HW230981   1.868   0.586   2.217  0.7023 -1.0020  0.1063
 6508SOL     OW30982   2.767   4.715   3.482  0.6101  0.0557 -0.0805
 6508SOL    HW130983   2.718   4.715   3.564  0.5713  1.2556 -0.0931
 6508SOL    HW230984   2.763   4.623   3.458 -1.4128 -0.0575  0.7277
 6509SOL     OW30985   2.202   3.347  10.250  0.0234  0.0685 -0.4021
 6509SOL    HW130986   2.137   3.405  10.291  0.6289  1.6589 -1.7222
 6509SOL    HW230987   2.170   3.326  10.163 -3.7970  0.4362  0.9159
 6510SOL     OW30988   0.854   0.417  13.086 -0.3171 -0.1623 -0.3159
 6510SOL    HW130989   0.823   0.492  13.036 -1.7537 -0.0248  0.7755
 6510SOL    HW230990   0.946   0.407  13.062  0.3381  0.4341  1.8995
 6511SOL     OW30991   2.777   3.177   4.170  0.1414  0.0767 -0.5120
 6511SOL    HW130992   2.800   3.251   4.226 -1.7925 -0.4156  0.9291
 6511SOL    HW230993   2.736   3.213   4.092 -0.0334 -0.3467 -0.6125
 6512SOL     OW30994   2.750   1.350   6.819  0.3410 -0.0195 -0.4555
 6512SOL    HW130995   2.807   1.380   6.890  1.7589 -0.2354 -1.5066
 6512SOL    HW230996   2.755   1.254   6.816 -0.0452 -0.0648  0.4347
 6513SOL     OW30997   4.724   1.903   4.937  0.5377  0.0805  0.3139
 6513SOL    HW130998   0.082   1.871   4.973 -0.2040 -0.4486  1.5383
 6513SOL    HW230999   0.036   1.963   4.872  1.4449 -2.0595 -1.1364
 6514SOL     OW31000   0.636   2.121   6.106 -0.1731 -0.0264  0.0046
 6514SOL    HW131001   0.718   2.166   6.084  0.0806 -1.1358 -1.3293
 6514SOL    HW231002   0.608   2.192   6.164  0.0752 -0.8411  1.1100
 6515SOL     OW31003   3.909   1.813   5.596 -0.7305 -0.1994 -0.1917
 6515SOL    HW131004   3.906   1.719   5.581 -0.5418 -0.1408 -0.5855
 6515SOL    HW231005   3.862   1.820   5.679 -1.1631 -1.8076 -0.3079
 6516SOL     OW31006   2.037   1.830   5.996  0.1368  0.3370  0.2052
 6516SOL    HW131007   1.996   1.768   6.055  2.4084 -2.5712 -1.2433
 6516SOL    HW231008   1.978   1.827   5.920  0.0588 -0.1326  0.2845
 6517SOL     OW31009   1.113   3.292   0.935  0.2130 -0.4506  0.2746
 6517SOL    HW131010   1.166   3.326   1.007 -1.3926 -0.1837  1.3307
 6517SOL    HW231011   1.077   3.378   0.912  0.2267 -0.2179  1.1236
 6518SOL     OW31012   1.014   2.913   5.261 -0.1547 -0.2522 -0.0412
 6518SOL    HW131013   1.005   2.834   5.207 -1.0779 -1.3557  1.7154
 6518SOL    HW231014   0.921   2.930   5.278 -0.7992 -3.2274 -0.5280
 6519SOL     OW31015   1.118   3.139   4.023 -0.3654 -0.4124  0.2685
 6519SOL    HW131016   1.151   3.084   4.094  1.9638 -1.3719 -1.5440
 6519SOL    HW231017   1.065   3.196   4.078 -0.5262  2.2316 -2.6179
 6520SOL     OW31018   3.974   4.493   8.691  0.5055 -0.1707  0.4876
 6520SOL    HW131019   4.014   4.421   8.740  0.0609  0.9384  2.4550
 6520SOL    HW231020   4.048   4.532   8.643  1.0525 -1.2702  0.4312
 6521SOL     OW31021   0.462   4.139   2.975  0.4456  0.2115 -0.8619
 6521SOL    HW131022   0.436   4.063   3.027 -0.4548  0.9645 -0.2170
 6521SOL    HW231023   0.538   4.167   3.024  0.8261  0.8152 -1.7937
 6522SOL     OW31024   1.103   1.889  10.898  0.3591 -0.0951 -0.7084
 6522SOL    HW131025   1.087   1.979  10.929 -1.4273 -0.8045  0.4458
 6522SOL    HW231026   1.198   1.894  10.909  0.3854  0.3207 -1.1359
 6523SOL     OW31027   2.617   3.663   5.495  0.0791  0.3015  0.0409
 6523SOL    HW131028   2.690   3.699   5.545  1.3278 -0.1620 -1.4741
 6523SOL    HW231029   2.670   3.594   5.456 -0.0320  1.2128 -1.6959
 6524SOL     OW31030   0.068   2.661   1.439  0.5163  0.1818 -0.8177
 6524SOL    HW131031   0.075   2.579   1.390  0.3518 -0.1973 -0.2057
 6524SOL    HW231032   0.143   2.713   1.409 -0.2482  1.1330 -1.0731
 6525SOL     OW31033   3.222   3.315  13.688 -0.1317  0.1723 -0.2288
 6525SOL    HW131034   3.202   3.257  13.761  0.8587 -0.6732 -0.6263
 6525SOL    HW231035   3.141   3.324  13.637 -1.1349  0.2149  1.3787
 6526SOL     OW31036   4.189   3.015   4.591 -0.5789 -0.6784  0.5813
 6526SOL    HW131037   4.175   2.922   4.577 -0.0005 -0.7731  0.6338
 6526SOL    HW231038   4.243   3.021   4.670  2.3643  0.4617 -1.5479
 6527SOL     OW31039   0.151   3.577   8.403 -0.0878  0.5623 -0.0363
 6527SOL    HW131040   0.223   3.516   8.390  0.3372  1.1124 -0.2179
 6527SOL    HW231041   0.072   3.528   8.377 -0.6203  1.1165  0.5336
 6528SOL     OW31042   0.583   2.931   3.221  0.0583 -0.2651  0.3066
 6528SOL    HW131043   0.575   2.847   3.175  2.2645 -0.6614  0.6501
 6528SOL    HW231044   0.650   2.921   3.288 -1.7946  1.9439  2.4858
 6529SOL     OW31045   2.074   1.310   5.852  0.1043 -0.0234 -0.4680
 6529SOL    HW131046   2.087   1.343   5.941  0.4225  0.0745 -0.5505
 6529SOL    HW231047   1.993   1.261   5.862  0.0286  0.3148  0.5262
 6530SOL     OW31048   4.428   3.770   5.271 -0.2601  0.5684  0.2000
 6530SOL    HW131049   4.494   3.837   5.256  1.5352 -1.0949  0.5258
 6530SOL    HW231050   4.481   3.690   5.268 -0.5637  0.3961 -0.4963
 6531SOL     OW31051   4.662   4.118  12.041  0.1922 -0.8309  0.2182
 6531SOL    HW131052   4.620   4.188  11.991  1.2534  0.4952  1.2229
 6531SOL    HW231053   4.702   4.164  12.114  0.6712 -0.4668 -0.2662
 6532SOL     OW31054   0.840   2.868   7.978  0.2662  0.0701 -0.1394
 6532SOL    HW131055   0.913   2.806   7.979 -0.5308 -0.8766  0.0874
 6532SOL    HW231056   0.882   2.953   7.975 -1.9960  1.2667  1.5512
 6533SOL     OW31057   3.806   3.619   6.928  0.4129 -0.2157  0.4268
 6533SOL    HW131058   3.763   3.704   6.921  0.9037 -0.0142 -0.1610
 6533SOL    HW231059   3.769   3.574   6.852 -0.8498  0.6608  0.5230
 6534SOL     OW31060   4.553   0.170   7.482 -0.4220  0.1859  0.1024
 6534SOL    HW131061   4.509   0.092   7.515  0.8902  0.1496  1.7458
 6534SOL    HW231062   4.482   0.232   7.461 -0.9751 -0.4565  0.0851
 6535SOL     OW31063   1.729   4.339   2.431 -0.0143  0.0746  0.7589
 6535SOL    HW131064   1.821   4.348   2.454  0.7195  1.5674 -2.7924
 6535SOL    HW231065   1.711   4.428   2.401  2.3491 -0.0960 -1.1732
 6536SOL     OW31066   0.007   3.842   0.338  0.5432  0.5201  0.8688
 6536SOL    HW131067   0.090   3.885   0.358  2.0137 -1.8826 -0.1257
 6536SOL    HW231068   0.022   3.774   0.403 -0.1970 -3.2743 -2.9594
 6537SOL     OW31069   0.920   3.123   3.774 -0.0392 -0.3442  0.0878
 6537SOL    HW131070   0.987   3.191   3.777  0.0565 -0.3083 -2.7500
 6537SOL    HW231071   0.874   3.144   3.693  1.3338  1.1444 -0.3073
 6538SOL     OW31072   1.823   1.388   1.986  0.0288 -0.5147 -0.3478
 6538SOL    HW131073   1.834   1.331   2.062  0.0504 -1.7169 -1.2613
 6538SOL    HW231074   1.740   1.431   2.007  0.0521  0.1498 -1.5569
 6539SOL     OW31075   3.671   4.529  15.275  0.1144  0.2471 -0.7471
 6539SOL    HW131076   3.617   4.514  15.197 -0.1575 -3.4003  0.1295
 6539SOL    HW231077   3.746   4.486  15.234  1.6198  0.7347  1.4899
 6540SOL     OW31078   3.885   3.718   8.732  0.3548 -0.4873  0.8552
 6540SOL    HW131079   3.808   3.765   8.763 -0.0365  0.5871 -1.7696
 6540SOL    HW231080   3.860   3.629   8.759 -1.2225 -0.7845 -1.5682
 6541SOL     OW31081   2.197   1.009   0.043 -0.0297  0.0466  0.1853
 6541SOL    HW131082   2.147   1.048  17.670 -0.0439  2.3625  1.4849
 6541SOL    HW231083   2.148   0.927   0.059 -0.9689  0.5597 -0.0458
 6542SOL     OW31084   3.715   3.250  15.970 -0.1415 -0.2174  0.3086
 6542SOL    HW131085   3.750   3.196  15.899 -0.7318 -0.5681  0.2857
 6542SOL    HW231086   3.632   3.203  15.983 -0.4577  0.3114  0.2172
 6543SOL     OW31087   3.587   1.668   6.710  0.1032  0.4202 -0.1837
 6543SOL    HW131088   3.595   1.731   6.781 -1.9958  0.4450  0.0435
 6543SOL    HW231089   3.515   1.616   6.748 -0.3919  2.2850  1.4132
 6544SOL     OW31090   1.000   1.547   2.179 -0.2980  0.2466  0.3515
 6544SOL    HW131091   0.914   1.511   2.154 -0.5196  0.2916  1.0488
 6544SOL    HW231092   0.993   1.634   2.140  4.2228  0.5041  0.1108
 6545SOL     OW31093   1.805   4.391   2.838 -0.0652 -0.3145 -0.0230
 6545SOL    HW131094   1.856   4.313   2.815 -1.6781 -1.2855 -0.2892
 6545SOL    HW231095   1.740   4.346   2.892 -1.3261  1.2143 -0.2658
 6546SOL     OW31096   2.923   3.763  14.590 -0.0368  0.1163 -0.2099
 6546SOL    HW131097   2.885   3.675  14.586 -0.2304  0.2648 -1.5473
 6546SOL    HW231098   2.995   3.760  14.528  0.8017  1.4518  0.7005
 6547SOL     OW31099   0.192   1.154   9.128  0.3653  0.1554  0.1127
 6547SOL    HW131100   0.147   1.229   9.169  0.2134  0.2925 -0.3043
 6547SOL    HW231101   0.120   1.091   9.134 -0.0182  0.6706  0.8683
 6548SOL     OW31102   2.739   1.076  14.750 -0.0011 -0.7913  0.5633
 6548SOL    HW131103   2.745   1.121  14.666  1.0519 -0.8205  0.6275
 6548SOL    HW231104   2.704   0.994  14.716  0.5166  0.0308 -1.9458
 6549SOL     OW31105   1.005   2.694   2.695  0.1388  0.6024 -0.2520
 6549SOL    HW131106   1.000   2.645   2.614  2.5360 -2.2015  1.2730
 6549SOL    HW231107   1.087   2.742   2.678  0.4001  0.8324  1.5950
 6550SOL     OW31108   1.111   4.224   7.979 -0.5191  0.0231 -0.1303
 6550SOL    HW131109   1.119   4.188   7.891  0.3433 -1.8555  0.7261
 6550SOL    HW231110   1.176   4.294   7.988 -0.5381 -0.1613  1.3734
 6551SOL     OW31111   3.507   1.415  11.076  0.1535  0.1279  0.0379
 6551SOL    HW131112   3.599   1.442  11.072  0.1733 -0.0453 -0.6495
 6551SOL    HW231113   3.486   1.430  11.169 -0.9384  2.1253 -0.5330
 6552SOL     OW31114   2.205   4.491   7.107 -0.2600  0.1302  0.1348
 6552SOL    HW131115   2.162   4.521   7.027 -0.1782  0.1541  0.0998
 6552SOL    HW231116   2.295   4.479   7.076 -0.0231 -0.8150  1.1987
 6553SOL     OW31117   3.960   1.865  13.572 -0.0706 -0.4283  0.1293
 6553SOL    HW131118   3.878   1.816  13.570 -0.1879 -0.2762  1.1170
 6553SOL    HW231119   4.012   1.806  13.517  0.1939  0.6762 -0.8057
 6554SOL     OW31120   3.873   2.909   9.248 -0.2964  0.5800  0.2611
 6554SOL    HW131121   3.840   2.985   9.200 -3.8962 -2.1375 -1.6107
 6554SOL    HW231122   3.860   2.840   9.183  1.0598 -0.2119  0.8418
 6555SOL     OW31123   4.422   2.460   2.696  0.3225 -0.1582  0.3741
 6555SOL    HW131124   4.463   2.427   2.776 -0.8647 -0.9613  0.6571
 6555SOL    HW231125   4.405   2.385   2.638  1.4656 -0.4858  0.4670
 6556SOL     OW31126   4.538   4.162  16.322 -0.2000  0.1988 -0.0007
 6556SOL    HW131127   4.587   4.193  16.245 -0.1905  0.3042  0.0475
 6556SOL    HW231128   4.539   4.070  16.297 -2.4212 -0.0136  0.7116
 6557SOL     OW31129   1.215   1.849   8.023 -0.6437  0.3031  0.3184
 6557SOL    HW131130   1.202   1.851   8.118  0.3649 -0.5210  0.4735
 6557SOL    HW231131   1.303   1.884   8.011 -0.1099 -1.4858 -0.9744
 6558SOL     OW31132   1.021   4.045  10.243 -0.1823  0.0358 -0.0387
 6558SOL    HW131133   1.058   3.969  10.199  0.2091 -0.6339  1.4308
 6558SOL    HW231134   0.945   4.003  10.282  0.8432 -1.3207  0.5153
 6559SOL     OW31135   0.305   1.250   0.149 -0.1715 -0.5926  0.2144
 6559SOL    HW131136   0.238   1.187   0.124  0.3687 -0.5658 -1.2725
 6559SOL    HW231137   0.278   1.334   0.113 -0.2630  0.7898  3.4598
 6560SOL     OW31138   0.582   0.626   2.744  0.8829 -0.0402 -0.1802
 6560SOL    HW131139   0.544   0.589   2.823 -0.4750  0.5736 -0.5511
 6560SOL    HW231140   0.543   0.575   2.673  0.9761  0.1161 -0.3429
 6561SOL     OW31141   0.308   3.668   4.553 -0.5903 -0.4984 -0.3208
 6561SOL    HW131142   0.336   3.589   4.509 -0.9851 -1.0388  0.3952
 6561SOL    HW231143   0.213   3.657   4.566 -1.1397  1.6668 -2.5087
 6562SOL     OW31144   3.748   0.503  13.079 -0.4530 -0.0905 -0.3299
 6562SOL    HW131145   3.751   0.570  13.147 -2.1732 -0.6117  0.2555
 6562SOL    HW231146   3.654   0.486  13.073 -0.8897  1.8997  0.8458
 6563SOL     OW31147   2.696   3.252  10.804  0.5385  0.2648  0.8601
 6563SOL    HW131148   2.639   3.240  10.880  1.8334  0.0083  1.7776
 6563SOL    HW231149   2.757   3.179  10.803 -0.9447 -0.9786  1.2515
 6564SOL     OW31150   3.130   0.437   5.475  0.1279  0.2978  0.3211
 6564SOL    HW131151   3.082   0.489   5.539  0.7684  0.8296  0.3673
 6564SOL    HW231152   3.113   0.351   5.513  0.0312  0.7479  1.2855
 6565SOL     OW31153   4.418   2.532  12.385 -0.5902  0.0165 -0.0689
 6565SOL    HW131154   4.478   2.528  12.459  1.4386 -1.1239 -1.7618
 6565SOL    HW231155   4.464   2.483  12.317  3.1952  0.3154  2.3066
 6566SOL     OW31156   2.182   4.348  12.787  0.5975  0.1972 -0.3066
 6566SOL    HW131157   2.220   4.313  12.706  0.2935  3.0169 -1.6868
 6566SOL    HW231158   2.252   4.347  12.851  0.5598  1.3108 -0.2497
 6567SOL     OW31159   2.977   2.680  13.428  0.2898 -0.3158  0.0701
 6567SOL    HW131160   3.015   2.678  13.516  1.9940  1.6598 -0.6267
 6567SOL    HW231161   3.040   2.732  13.378 -0.4113  1.1188  0.6813
 6568SOL     OW31162   4.688   2.271  17.496 -0.2327  0.3287  0.2335
 6568SOL    HW131163   4.686   2.182  17.530  0.1745  0.8200  1.5577
 6568SOL    HW231164   0.052   2.301  17.517 -0.0930  0.4944 -0.6038
 6569SOL     OW31165   1.333   0.748   8.465  0.1392 -0.3645 -0.3558
 6569SOL    HW131166   1.285   0.667   8.482  1.5429 -1.0771  0.1825
 6569SOL    HW231167   1.268   0.804   8.422  0.2940  0.0493 -0.0514
 6570SOL     OW31168   4.355   0.341   3.242 -0.0444 -0.0795 -0.2114
 6570SOL    HW131169   4.382   0.269   3.185  0.6491  1.6615 -2.0735
 6570SOL    HW231170   4.441   0.376   3.266  0.0722 -0.3106 -0.2885
 6571SOL     OW31171   1.520   2.127   3.532 -0.1646  0.2281  0.3361
 6571SOL    HW131172   1.536   2.078   3.613 -1.3172  1.2522  1.1927
 6571SOL    HW231173   1.425   2.141   3.536 -0.1756  0.2622 -0.1421
 6572SOL     OW31174   3.882   2.281   6.648  0.2922  0.5331  0.0942
 6572SOL    HW131175   3.882   2.201   6.701 -0.0466  1.0918  0.9327
 6572SOL    HW231176   3.787   2.292   6.640  0.3555  0.7284 -0.3680
 6573SOL     OW31177   1.559   2.455   7.714  0.7363 -0.2790  0.5761
 6573SOL    HW131178   1.529   2.391   7.649 -0.4251  0.8580 -0.0094
 6573SOL    HW231179   1.514   2.528   7.672  3.2865  0.8604 -0.1573
 6574SOL     OW31180   1.204   1.258  17.234 -0.4421  0.4543  0.1357
 6574SOL    HW131181   1.179   1.236  17.145 -1.3158 -0.5605  0.6279
 6574SOL    HW231182   1.122   1.242  17.282 -2.2691  1.9187 -2.5086
 6575SOL     OW31183   0.961   0.836  17.593  0.6979 -0.3178  0.7724
 6575SOL    HW131184   1.019   0.873  17.659  2.7822 -0.6926 -0.8507
 6575SOL    HW231185   0.911   0.766  17.635  1.9459 -1.6314  0.0436
 6576SOL     OW31186   3.792   4.684   6.150  0.8225  0.5118  0.3727
 6576SOL    HW131187   3.752   4.666   6.235  0.5871 -2.1561 -0.3021
 6576SOL    HW231188   3.840   0.041   6.165  0.9853  0.0978  2.1546
 6577SOL     OW31189   0.616   2.347   4.015  0.1584  0.4945  0.0130
 6577SOL    HW131190   0.585   2.416   3.957  0.5389  0.4164 -0.2786
 6577SOL    HW231191   0.633   2.272   3.959  1.1937  0.9449 -0.2775
 6578SOL     OW31192   0.120   0.331   8.022 -0.1810 -0.2404  0.2015
 6578SOL    HW131193   0.054   0.314   7.955  0.4757 -1.1395 -0.2189
 6578SOL    HW231194   0.185   0.376   7.968 -1.6278  0.8559 -0.6295
 6579SOL     OW31195   2.230   4.090   1.662  0.0015  0.0152 -0.1003
 6579SOL    HW131196   2.205   4.028   1.731 -0.4548 -0.7894 -0.9736
 6579SOL    HW231197   2.240   4.040   1.581  2.7831  0.3858  0.0306
 6580SOL     OW31198   1.367   1.323   5.524  0.2104 -0.1642 -0.5316
 6580SOL    HW131199   1.440   1.267   5.498  0.6341 -0.0814  0.5176
 6580SOL    HW231200   1.393   1.407   5.485 -0.8279  1.0860  1.5131
 6581SOL     OW31201   3.029   4.163   3.804  0.1479 -0.5678 -0.4704
 6581SOL    HW131202   3.061   4.161   3.894 -2.7142 -2.1038  0.4923
 6581SOL    HW231203   3.032   4.072   3.776  1.8731 -0.1814 -1.5326
 6582SOL     OW31204   1.309   2.973   3.331 -0.0469  0.5879 -0.4055
 6582SOL    HW131205   1.244   2.971   3.262 -1.4854  0.7428  0.9320
 6582SOL    HW231206   1.392   2.994   3.289  0.3526 -0.8128 -0.3132
 6583SOL     OW31207   1.628   3.052   5.560  0.3254 -0.0189 -0.4219
 6583SOL    HW131208   1.547   3.040   5.609 -0.6029  1.0915 -1.6708
 6583SOL    HW231209   1.597   3.111   5.491  2.7477  0.9300 -0.6939
 6584SOL     OW31210   0.268   2.704   4.757 -0.4114  0.5376  0.0313
 6584SOL    HW131211   0.309   2.639   4.814  0.7862  0.0128 -1.4294
 6584SOL    HW231212   0.187   2.728   4.801  0.7880  0.3027  2.3572
 6585SOL     OW31213   2.407   4.156   7.098 -0.2213  0.3922 -0.0317
 6585SOL    HW131214   2.453   4.220   7.153 -1.9544  2.1569 -0.6152
 6585SOL    HW231215   2.326   4.151   7.150  0.6501  2.2561  1.5258
 6586SOL     OW31216   1.965   3.381   4.074  0.6854 -0.1043 -0.4918
 6586SOL    HW131217   1.960   3.471   4.044  2.5094  0.3768  0.6216
 6586SOL    HW231218   1.989   3.399   4.165 -0.8597  1.9411 -0.4919
 6587SOL     OW31219   4.605   0.421  11.384 -0.2660  0.2038  0.2544
 6587SOL    HW131220   4.510   0.423  11.395 -0.4109  0.3371 -1.0166
 6587SOL    HW231221   4.625   0.385  11.471  2.1324 -1.5920 -1.0425
 6588SOL     OW31222   0.215   1.457   2.539 -0.1383 -0.5659  0.2736
 6588SOL    HW131223   0.221   1.490   2.449 -0.9616 -0.9486  0.0838
 6588SOL    HW231224   0.123   1.431   2.541  0.2485 -1.8561  1.3118
 6589SOL     OW31225   1.491   1.409   7.155  0.3198  0.0144  0.1194
 6589SOL    HW131226   1.473   1.501   7.132  0.5753 -0.5210 -2.2716
 6589SOL    HW231227   1.417   1.377   7.104 -0.2351 -0.0022  0.9454
 6590SOL     OW31228   1.529   0.643   4.313 -0.0056 -0.2145 -0.0336
 6590SOL    HW131229   1.525   0.713   4.247 -1.1520  0.3921  0.6829
 6590SOL    HW231230   1.435   0.624   4.310  0.0180 -0.2694 -0.5380
 6591SOL     OW31231   0.273   2.732  11.567 -0.6569  0.0975  0.0140
 6591SOL    HW131232   0.188   2.773  11.551  0.3261  1.1232 -2.6550
 6591SOL    HW231233   0.267   2.655  11.511 -1.0225  0.1609 -0.0313
 6592SOL     OW31234   2.398   0.880   7.821  0.2345 -0.1450  0.6618
 6592SOL    HW131235   2.349   0.806   7.786  1.8411 -2.2484  2.9040
 6592SOL    HW231236   2.394   0.861   7.915  1.5544 -0.0081  0.7458
 6593SOL     OW31237   4.258   2.953   3.349  0.2934  0.6680  0.1014
 6593SOL    HW131238   4.339   2.920   3.388 -0.0053 -1.5100 -1.1237
 6593SOL    HW231239   4.205   2.923   3.424  0.8818  1.3544  0.7865
 6594SOL     OW31240   2.028   4.294  16.665  0.5441  0.4135  0.1964
 6594SOL    HW131241   2.089   4.220  16.670 -0.2474 -0.1614  1.2256
 6594SOL    HW231242   2.029   4.328  16.754  1.2810  1.4764 -0.2186
 6595SOL     OW31243   0.466   2.690  15.533 -0.3595  0.5402  0.2244
 6595SOL    HW131244   0.432   2.778  15.552  1.8630  1.1206  1.4479
 6595SOL    HW231245   0.433   2.688  15.443 -2.4165  0.2743  0.9915
 6596SOL     OW31246   0.420   2.512   2.453 -0.0673 -0.2241 -0.1708
 6596SOL    HW131247   0.348   2.573   2.469  0.5821  0.2706  0.8725
 6596SOL    HW231248   0.493   2.570   2.473 -0.6171  0.2263  0.5425
 6597SOL     OW31249   0.049   3.874  16.730  0.1865 -0.1464  0.4595
 6597SOL    HW131250   4.694   3.820  16.735 -0.4175  0.5248 -1.7579
 6597SOL    HW231251   0.087   3.856  16.816  1.1791  0.0605  0.0660
 6598SOL     OW31252   4.089   0.193   3.577 -0.7331 -0.1927 -0.1785
 6598SOL    HW131253   4.102   0.124   3.512  1.4861  1.2615 -1.3109
 6598SOL    HW231254   4.161   0.255   3.563  0.9569 -1.5917  2.3552
 6599SOL     OW31255   1.840   1.094   4.182  0.5950 -0.1736 -0.5538
 6599SOL    HW131256   1.919   1.068   4.229  0.9542 -0.2116 -1.1718
 6599SOL    HW231257   1.833   1.189   4.183  3.1635  0.0174 -1.5003
 6600SOL     OW31258   3.239   2.417  11.040  0.1005 -0.2649  0.4624
 6600SOL    HW131259   3.237   2.322  11.029 -0.0976 -0.5157  2.7204
 6600SOL    HW231260   3.250   2.422  11.135 -1.5515 -3.8920  0.8401
 6601SOL     OW31261   1.132   2.713  16.452  0.4116  0.0013 -0.4419
 6601SOL    HW131262   1.036   2.721  16.458  0.3978 -0.7787  0.3924
 6601SOL    HW231263   1.152   2.806  16.450 -0.7724  0.2763  0.0073
 6602SOL     OW31264   0.649   2.879   1.406  0.2029 -0.0852  0.1350
 6602SOL    HW131265   0.561   2.899   1.371  0.2323 -2.4264 -1.2801
 6602SOL    HW231266   0.699   2.956   1.378  1.7519 -0.9770  0.4859
 6603SOL     OW31267   1.893   3.381  11.767  0.1273 -0.3170 -0.0382
 6603SOL    HW131268   1.980   3.343  11.769 -0.1426 -1.0095 -1.6409
 6603SOL    HW231269   1.900   3.456  11.826 -1.3478  1.3426 -1.9678
 6604SOL     OW31270   0.115   2.074   4.159  0.6424  0.5937  0.2644
 6604SOL    HW131271   0.062   2.013   4.108  0.1760  1.9159 -0.8318
 6604SOL    HW231272   0.117   2.145   4.095 -0.4917  0.9702  0.6414
 6605SOL     OW31273   0.204   3.662   6.010 -0.6160  0.7192  0.0397
 6605SOL    HW131274   0.197   3.636   6.102  1.0299 -2.6762 -0.8085
 6605SOL    HW231275   0.130   3.610   5.977  0.2693 -0.4196 -0.1706
 6606SOL     OW31276   2.499   1.244   3.750 -0.5731  0.0906 -0.1952
 6606SOL    HW131277   2.575   1.191   3.772  0.0041  0.9604 -0.0833
 6606SOL    HW231278   2.524   1.263   3.659  1.8236  0.3499  0.5297
 6607SOL     OW31279   0.648   3.640   1.582 -0.1375 -0.0128 -0.1656
 6607SOL    HW131280   0.731   3.609   1.617 -0.2196 -0.6199 -0.5139
 6607SOL    HW231281   0.673   3.725   1.546 -2.8595  1.3628  1.1442
 6608SOL     OW31282   2.591   4.125   4.733  0.4726 -0.2550  0.2737
 6608SOL    HW131283   2.575   4.045   4.683 -1.1134 -0.3050  0.8530
 6608SOL    HW231284   2.563   4.199   4.679 -1.8051  1.3524  3.6429
 6609SOL     OW31285   2.910   1.039  12.253 -0.0316  0.2517 -0.3547
 6609SOL    HW131286   2.992   1.088  12.262  2.2006 -3.2684 -1.5841
 6609SOL    HW231287   2.837   1.095  12.280  0.0471 -0.7142  1.9022
 6610SOL     OW31288   0.829   1.918  12.972  0.3660 -0.5029 -0.0986
 6610SOL    HW131289   0.784   1.833  12.964 -0.8285  0.1768 -0.5602
 6610SOL    HW231290   0.833   1.944  12.881 -2.0526  0.3752  0.0562
 6611SOL     OW31291   2.454   3.161   1.967  0.0203 -0.0510 -0.2903
 6611SOL    HW131292   2.466   3.222   2.040  2.2259 -0.8146 -0.0158
 6611SOL    HW231293   2.442   3.081   2.019  2.7900 -0.3201 -0.0764
 6612SOL     OW31294   1.034   0.240   7.655  0.2951 -0.2934 -0.4321
 6612SOL    HW131295   1.038   0.160   7.708  0.5965 -1.3078 -2.0018
 6612SOL    HW231296   1.008   0.304   7.721  0.3919  1.1049 -1.7647
 6613SOL     OW31297   3.657   3.925  10.273 -0.2771 -0.0279  1.0048
 6613SOL    HW131298   3.731   3.928  10.334 -0.0771 -2.1342  0.8745
 6613SOL    HW231299   3.584   3.939  10.334 -1.6692  0.6300 -0.8145
 6614SOL     OW31300   0.787   0.233  16.894  0.0251  0.6840  0.0954
 6614SOL    HW131301   0.799   0.172  16.967 -3.0506 -1.6847 -1.3879
 6614SOL    HW231302   0.694   0.220  16.876  0.1443 -0.1920  0.1007
 6615SOL     OW31303   3.451   3.767   3.277 -0.1102  0.5518  0.1978
 6615SOL    HW131304   3.366   3.731   3.304 -0.8472  1.6941 -0.6157
 6615SOL    HW231305   3.429   3.787   3.186 -1.0111  2.1121  0.7506
 6616SOL     OW31306   3.345   3.743   6.617 -1.0403  0.1936 -0.2396
 6616SOL    HW131307   3.290   3.763   6.692  2.2575  0.7888  2.0062
 6616SOL    HW231308   3.370   3.650   6.619  0.5817  0.6455  0.0516
 6617SOL     OW31309   0.908   3.615   8.118  0.1222  0.4798 -0.5635
 6617SOL    HW131310   0.966   3.658   8.055  1.8078  0.1433  0.7631
 6617SOL    HW231311   0.853   3.692   8.134 -5.5708 -3.6532  0.0450
 6618SOL     OW31312   2.389   1.331  14.441 -0.4410 -0.0389 -0.8051
 6618SOL    HW131313   2.484   1.330  14.452 -0.3748 -0.2725 -1.4290
 6618SOL    HW231314   2.377   1.298  14.352 -1.2305 -0.2436 -0.6215
 6619SOL     OW31315   0.931   1.521   0.307  0.1410  0.3353  0.0090
 6619SOL    HW131316   1.017   1.550   0.278  0.7685 -1.9598 -0.4311
 6619SOL    HW231317   0.899   1.482   0.226 -0.8353 -0.5539  0.8209
 6620SOL     OW31318   1.152   0.996  11.697 -0.4409 -0.3694  0.1019
 6620SOL    HW131319   1.155   0.919  11.640  2.4316 -0.8890  0.9213
 6620SOL    HW231320   1.160   1.067  11.634  1.6246 -0.3563  0.3668
 6621SOL     OW31321   4.724   2.934  13.617  0.2614  0.1151  0.1159
 6621SOL    HW131322   4.673   2.997  13.667  0.9965  0.2524  0.6865
 6621SOL    HW231323   4.645   2.912  13.567  1.0201  4.7695 -3.2117
 6622SOL     OW31324   4.186   4.624   8.874 -0.3702  0.1306 -0.6669
 6622SOL    HW131325   4.122   4.553   8.881 -1.2414  1.0887  1.1468
 6622SOL    HW231326   4.234   4.599   8.953 -1.2491  0.8194  0.0892
 6623SOL     OW31327   2.926   1.003   7.799 -0.0124  0.0402 -0.2554
 6623SOL    HW131328   2.942   0.911   7.779 -1.0445 -0.5121  1.3770
 6623SOL    HW231329   2.884   0.985   7.884 -0.1012  2.9686  0.3210
 6624SOL     OW31330   1.893   0.339   4.294 -0.1610  0.4160  0.0946
 6624SOL    HW131331   1.866   0.257   4.336  0.6128 -0.2072 -0.6034
 6624SOL    HW231332   1.985   0.320   4.279 -0.2813 -1.9216  2.1787
 6625SOL     OW31333   1.316   2.178   6.073  0.5977  0.4728  0.1349
 6625SOL    HW131334   1.229   2.170   6.034  0.7262 -0.2820  0.0089
 6625SOL    HW231335   1.344   2.091   6.099 -1.7673 -0.4885 -0.5287
 6626SOL     OW31336   0.016   2.099   5.410  0.5511  1.1796 -0.5209
 6626SOL    HW131337   4.664   2.064   5.456  0.6061  2.7128  0.7305
 6626SOL    HW231338   4.692   2.101   5.327  1.4658  1.5062 -1.0467
 6627SOL     OW31339   1.863   3.717   4.312  0.0715 -0.2111 -0.2024
 6627SOL    HW131340   1.940   3.666   4.288  1.5342  1.9035 -0.0105
 6627SOL    HW231341   1.885   3.793   4.258 -0.8199  0.3296  0.1814
 6628SOL     OW31342   0.637   3.883   6.973  0.5475  0.1810 -0.0299
 6628SOL    HW131343   0.711   3.841   6.929  0.7799  0.4148  0.1422
 6628SOL    HW231344   0.571   3.867   6.905  2.0154 -0.3068 -1.3242
 6629SOL     OW31345   2.947   3.916   2.618 -0.0078 -0.2167 -0.0918
 6629SOL    HW131346   2.997   3.995   2.597  0.3906 -0.1944  0.9235
 6629SOL    HW231347   2.971   3.894   2.708 -1.3219 -0.8600  0.1062
 6630SOL     OW31348   4.683   3.229   1.412 -0.1684  0.0991  0.1557
 6630SOL    HW131349   4.716   3.313   1.380  0.4108 -0.1915 -0.0247
 6630SOL    HW231350   4.632   3.198   1.337  2.1340 -0.7507 -1.0670
 6631SOL     OW31351   3.090   3.597  16.423  0.3698  0.4057 -0.1131
 6631SOL    HW131352   3.119   3.586  16.514 -0.9395 -0.3779  0.1989
 6631SOL    HW231353   3.130   3.681  16.400  0.2848  0.3834 -0.3429
 6632SOL     OW31354   2.899   2.103   0.688  0.2991  0.2715  0.5607
 6632SOL    HW131355   2.967   2.038   0.706 -0.7253 -0.6371  1.0510
 6632SOL    HW231356   2.846   2.095   0.767  0.0073 -0.7032  0.2596
 6633SOL     OW31357   1.579   1.145   4.421  0.1261 -0.7653  0.7802
 6633SOL    HW131358   1.556   1.150   4.329 -0.6409 -0.9933  0.9600
 6633SOL    HW231359   1.544   1.062   4.453  0.3624 -0.6142  1.4486
 6634SOL     OW31360   3.881   3.338   8.106  0.4477 -0.2540  0.2220
 6634SOL    HW131361   3.846   3.259   8.148  0.2233 -0.4791 -0.3941
 6634SOL    HW231362   3.845   3.412   8.155  4.1751  0.6688  1.6101
 6635SOL     OW31363   1.227   2.856   2.630 -0.1557 -0.8415 -0.8526
 6635SOL    HW131364   1.222   2.835   2.537  0.5942  2.1474 -1.5397
 6635SOL    HW231365   1.295   2.922   2.622  0.0628 -0.8135  1.2122
 6636SOL     OW31366   1.488   1.225   2.542  0.0767  0.0087 -0.1274
 6636SOL    HW131367   1.501   1.174   2.462  0.8978  0.8487 -0.5328
 6636SOL    HW231368   1.512   1.159   2.607  0.5687  0.0714 -0.2446
 6637SOL     OW31369   1.132   1.198   5.965  0.0906 -0.2270  0.3804
 6637SOL    HW131370   1.135   1.238   5.878 -1.1459 -2.6259 -0.7614
 6637SOL    HW231371   1.221   1.169   5.986  0.6318  2.0650  1.2584
 6638SOL     OW31372   1.338   3.698   0.227 -0.1544  0.1574 -0.1373
 6638SOL    HW131373   1.327   3.736   0.140  0.4384 -0.6619 -0.5727
 6638SOL    HW231374   1.393   3.757   0.279  0.0493 -0.8301  0.7670
 6639SOL     OW31375   3.327   1.679   8.392 -0.2459  0.4415  0.0096
 6639SOL    HW131376   3.344   1.773   8.396 -0.2140  0.4052  0.7359
 6639SOL    HW231377   3.391   1.634   8.447  1.0166  1.4866 -0.6289
 6640SOL     OW31378   2.720   2.603   7.590 -1.0846 -1.0122 -0.5286
 6640SOL    HW131379   2.645   2.630   7.537 -1.0658  0.4626  0.1807
 6640SOL    HW231380   2.679   2.599   7.676 -2.3122 -0.1765 -1.0662
 6641SOL     OW31381   0.156   1.733   9.796  0.2388  0.7222 -0.2876
 6641SOL    HW131382   0.073   1.777   9.816 -0.5836 -1.2726  0.6678
 6641SOL    HW231383   0.129   1.654   9.750  0.7052  0.9506 -0.9609
 6642SOL     OW31384   1.022   2.737  13.928  0.2974  0.5430  0.2760
 6642SOL    HW131385   1.081   2.674  13.887  1.2389  0.3773  1.8671
 6642SOL    HW231386   1.046   2.822  13.890 -1.7765  0.1396 -1.8735
 6643SOL     OW31387   0.872   2.361  10.359  0.4912 -0.0484 -0.3975
 6643SOL    HW131388   0.912   2.446  10.381 -1.4665  0.4309  1.3209
 6643SOL    HW231389   0.793   2.368  10.412  1.3208 -1.7517  1.0643
 6644SOL     OW31390   1.498   0.284   7.648  0.0570 -0.4749  0.3667
 6644SOL    HW131391   1.590   0.256   7.652  0.5973  1.4070  1.2619
 6644SOL    HW231392   1.454   0.201   7.667 -2.3557  0.6568 -0.3481
 6645SOL     OW31393   0.363   3.406   8.346  0.8087 -0.2287  0.1341
 6645SOL    HW131394   0.394   3.370   8.263 -0.3830 -1.2045  0.1100
 6645SOL    HW231395   0.370   3.331   8.404 -1.9122 -1.0525 -0.5944
 6646SOL     OW31396   2.063   3.519   9.911 -0.0770  0.2180 -0.4391
 6646SOL    HW131397   2.086   3.488   9.824 -2.0662 -2.6336  0.0660
 6646SOL    HW231398   2.099   3.448   9.964 -0.5821  0.0265 -0.3578
 6647SOL     OW31399   3.533   0.041   7.354 -0.2026  0.4557 -0.0495
 6647SOL    HW131400   3.549   0.102   7.283  1.0660 -0.6343 -0.7023
 6647SOL    HW231401   3.468   0.089   7.407  0.0217 -0.9650  1.5369
 6648SOL     OW31402   2.173   2.524  14.670  0.1354 -0.1761 -0.2164
 6648SOL    HW131403   2.167   2.606  14.622  1.8691 -0.8898 -1.6474
 6648SOL    HW231404   2.087   2.535  14.713  0.2087  0.8561 -0.3406
 6649SOL     OW31405   2.625   3.561  11.791  0.3107  0.0084  0.2651
 6649SOL    HW131406   2.620   3.489  11.729 -1.8229 -0.3042  0.7842
 6649SOL    HW231407   2.597   3.636  11.738 -0.1756  1.5690  2.7163
 6650SOL     OW31408   1.612   2.623   6.842  0.6597  0.6158 -0.1397
 6650SOL    HW131409   1.612   2.676   6.763 -2.2134 -0.1356 -0.6385
 6650SOL    HW231410   1.584   2.542   6.800  0.9158 -0.3648  1.5570
 6651SOL     OW31411   0.886   0.398   6.946  0.5371 -0.2689 -0.6514
 6651SOL    HW131412   0.882   0.303   6.958  0.3300 -0.1272  0.4279
 6651SOL    HW231413   0.932   0.428   7.024 -1.5054  0.4232  0.2782
 6652SOL     OW31414   3.766   2.131   7.059 -0.4181 -0.1250  0.2674
 6652SOL    HW131415   3.816   2.058   7.095 -0.8980 -1.2158 -1.2797
 6652SOL    HW231416   3.803   2.138   6.971 -0.7686 -1.6697  0.0030
 6653SOL     OW31417   1.040   2.632  14.205  0.3094 -0.5219 -0.0491
 6653SOL    HW131418   1.123   2.637  14.253 -0.0903 -0.5223  0.6520
 6653SOL    HW231419   0.984   2.686  14.262  0.1753  0.4425 -1.1020
 6654SOL     OW31420   0.089   4.677   3.078 -0.1265 -0.3232  0.0015
 6654SOL    HW131421   0.168   4.658   3.027 -0.1620  0.0406 -0.1886
 6654SOL    HW231422   0.044   4.594   3.063  1.1245 -1.0154  0.1140
 6655SOL     OW31423   1.107   3.996   6.006 -0.4973 -0.5842 -0.7840
 6655SOL    HW131424   1.120   4.085   6.038 -1.8478 -0.8202  0.4303
 6655SOL    HW231425   1.182   3.950   6.044  0.1184  1.4230  0.4400
 6656SOL     OW31426   2.380   1.665   3.168  0.8388 -0.0201  0.3022
 6656SOL    HW131427   2.294   1.664   3.126 -0.5639 -3.7462  3.2086
 6656SOL    HW231428   2.430   1.609   3.110  1.7231  2.1844 -1.0673
 6657SOL     OW31429   0.226   4.606  12.984 -0.0311  0.3875 -0.1191
 6657SOL    HW131430   0.253   4.675  13.044  1.7618  0.4732 -1.0188
 6657SOL    HW231431   0.283   4.615  12.907  1.4687 -0.5052  0.8661
 6658SOL     OW31432   4.336   2.019   8.844  0.2468 -0.5200  0.4732
 6658SOL    HW131433   4.407   2.029   8.908 -0.8075 -0.4907  1.6226
 6658SOL    HW231434   4.363   1.935   8.806  0.8231 -1.1056  2.1533
 6659SOL     OW31435   2.494   4.197   8.555 -0.1723  0.1710 -0.4650
 6659SOL    HW131436   2.538   4.277   8.586  0.8157  0.3267 -2.2645
 6659SOL    HW231437   2.459   4.229   8.472 -2.0670  0.7425  0.5578
 6660SOL     OW31438   3.883   2.057   6.823 -0.1434  0.3512  0.4593
 6660SOL    HW131439   3.906   1.975   6.779  1.3019  0.8834  0.2119
 6660SOL    HW231440   3.972   2.072   6.856 -0.1155 -0.0567  0.5710
 6661SOL     OW31441   1.817   0.334   3.916 -0.1821  0.3449 -0.3105
 6661SOL    HW131442   1.835   0.408   3.858 -1.1651  1.2767  0.5801
 6661SOL    HW231443   1.732   0.309   3.881 -1.1218  1.3529  1.2913
 6662SOL     OW31444   2.764   0.139   4.466 -0.2311 -0.3410  0.0273
 6662SOL    HW131445   2.672   0.164   4.474  0.3211  1.8582 -0.5199
 6662SOL    HW231446   2.757   0.054   4.423  2.1031  0.1907 -1.4541
 6663SOL     OW31447   3.105   1.462   2.380  0.8881  0.1216 -0.1504
 6663SOL    HW131448   3.025   1.429   2.339 -1.1698  0.8026  3.2943
 6663SOL    HW231449   3.069   1.518   2.449 -1.8729 -1.0125 -0.6895
 6664SOL     OW31450   0.925   4.354  12.957  0.4938  0.6559  0.6216
 6664SOL    HW131451   0.956   4.418  12.892 -0.8858  1.7154  1.0055
 6664SOL    HW231452   0.896   4.413  13.027  0.2538  1.0729  0.1781
 6665SOL     OW31453   4.098   3.786   4.117  0.1351 -0.1017  0.2940
 6665SOL    HW131454   4.003   3.794   4.124 -0.0759 -1.6424 -1.0329
 6665SOL    HW231455   4.112   3.812   4.026  3.4888  0.4452  0.9601
 6666SOL     OW31456   1.119   2.365   5.801  0.1348  0.6483 -0.0413
 6666SOL    HW131457   1.189   2.355   5.737  1.7172  0.4720  1.7322
 6666SOL    HW231458   1.065   2.420   5.743 -0.0663  0.0166 -0.4539
 6667SOL     OW31459   2.100   3.237   5.052  0.1285  0.4366 -0.0381
 6667SOL    HW131460   2.190   3.232   5.083 -0.6821 -0.7644  2.1123
 6667SOL    HW231461   2.120   3.210   4.962  0.1732  2.8566 -0.7705
 6668SOL     OW31462   0.282   0.680   9.212 -0.4427 -0.2784 -0.1845
 6668SOL    HW131463   0.216   0.716   9.154 -0.2414  1.0822  0.4298
 6668SOL    HW231464   0.254   0.720   9.294  0.5521 -0.6295  0.3348
 6669SOL     OW31465   0.213   0.429  11.107 -0.0272  0.0325  0.0257
 6669SOL    HW131466   0.236   0.420  11.014  0.4364 -2.1985  0.3812
 6669SOL    HW231467   0.292   0.436  11.160 -1.3038  0.8431  1.8279
 6670SOL     OW31468   1.930   3.413   4.776  0.0934 -0.3324 -0.3250
 6670SOL    HW131469   1.935   3.426   4.871  2.5941 -0.3706 -0.4387
 6670SOL    HW231470   1.838   3.393   4.762 -0.8489  1.8181  2.8406
 6671SOL     OW31471   4.327   2.338   3.370 -0.1948 -0.4223 -0.1246
 6671SOL    HW131472   4.417   2.320   3.342  1.3730  3.0302  2.7738
 6671SOL    HW231473   4.318   2.433   3.371  0.2371 -0.4032  1.3471
 6672SOL     OW31474   3.892   4.722   4.425 -0.1792  0.4759 -0.5314
 6672SOL    HW131475   3.872   4.692   4.513 -1.4497 -1.8227 -1.5977
 6672SOL    HW231476   3.914   4.642   4.376  2.5056  0.9065 -0.0205
 6673SOL     OW31477   2.655   3.679   7.944 -0.2343  0.1179 -0.1696
 6673SOL    HW131478   2.702   3.670   8.027 -0.9016 -1.0970  0.0781
 6673SOL    HW231479   2.723   3.723   7.893 -1.2582 -1.4412 -2.8866
 6674SOL     OW31480   1.110   4.698   0.607  0.3423  0.0807 -0.4538
 6674SOL    HW131481   1.037   0.029   0.635 -2.3963 -4.1851  0.6882
 6674SOL    HW231482   1.082   4.607   0.618  0.1765  0.1594 -0.2218
 6675SOL     OW31483   3.934   3.773   2.224 -0.4255  0.2751  0.0428
 6675SOL    HW131484   4.026   3.749   2.216 -0.5316  0.1471 -0.8732
 6675SOL    HW231485   3.920   3.813   2.138 -1.9683  1.1665  0.7046
 6676SOL     OW31486   3.113   4.454  14.154  0.1178  0.0692 -0.3393
 6676SOL    HW131487   3.164   4.392  14.102 -1.5573 -1.0515 -0.6685
 6676SOL    HW231488   3.144   4.541  14.131 -0.0422  0.4103  0.7490
 6677SOL     OW31489   2.058   1.261   4.694  0.5678  0.1138 -0.1291
 6677SOL    HW131490   2.107   1.206   4.633  0.2957  2.0541 -2.1192
 6677SOL    HW231491   1.983   1.208   4.719  1.0788  0.5844  2.4603
 6678SOL     OW31492   3.367   0.655   2.332  0.2338  0.2258 -0.1995
 6678SOL    HW131493   3.356   0.721   2.400 -1.6161 -0.2284 -0.0579
 6678SOL    HW231494   3.359   0.715   2.258  1.7677  2.3422  1.3522
 6679SOL     OW31495   4.216   0.020  13.009  0.0881 -0.4074  0.3233
 6679SOL    HW131496   4.306   4.710  13.009 -0.4957 -1.9332  0.9704
 6679SOL    HW231497   4.158   4.669  13.020 -1.8059  0.9870 -0.2003
 6680SOL     OW31498   3.510   3.816   8.292 -0.1855  0.2067  0.2167
 6680SOL    HW131499   3.439   3.777   8.241 -0.2209  1.8554 -0.9937
 6680SOL    HW231500   3.531   3.898   8.247 -1.2837 -0.7745 -2.0790
 6681SOL     OW31501   2.253   4.170  11.315  0.6557  0.4190 -0.0685
 6681SOL    HW131502   2.194   4.155  11.389  0.8682  0.4718  0.1133
 6681SOL    HW231503   2.304   4.089  11.322 -0.9423 -0.5179  0.6736
 6682SOL     OW31504   2.076   2.943  16.097  0.4348 -0.2572  0.3504
 6682SOL    HW131505   2.144   2.983  16.151  2.1716 -0.9654 -1.2837
 6682SOL    HW231506   2.128   2.868  16.066  0.2845  0.1875 -0.9822
 6683SOL     OW31507   1.798   4.123   3.976 -0.4882 -0.1308  0.4312
 6683SOL    HW131508   1.801   4.213   3.945  0.9035 -1.0818 -2.2904
 6683SOL    HW231509   1.704   4.108   3.982 -0.4624 -0.2654  0.5167
 6684SOL     OW31510   0.588   1.720   6.525  0.2425 -0.3070  0.0006
 6684SOL    HW131511   0.582   1.808   6.561 -1.3885  0.1035 -1.2946
 6684SOL    HW231512   0.581   1.738   6.432  1.6558 -0.9697 -0.2320
 6685SOL     OW31513   2.630   3.794   4.764 -0.5374 -0.1000 -0.3309
 6685SOL    HW131514   2.586   3.719   4.804  0.0121  0.3312  1.0879
 6685SOL    HW231515   2.554   3.824   4.715 -0.8450 -1.6790 -0.8120
 6686SOL     OW31516   2.401   1.372   3.975  0.0246 -0.2105 -0.0958
 6686SOL    HW131517   2.433   1.315   3.906  1.6877  2.1512 -1.2561
 6686SOL    HW231518   2.463   1.444   3.963  1.7006 -1.7046 -0.2880
 6687SOL     OW31519   1.540   3.794   3.300 -0.4807  1.0787  0.5530
 6687SOL    HW131520   1.620   3.755   3.335 -0.0833  1.5938  0.2184
 6687SOL    HW231521   1.504   3.824   3.384 -0.0225  0.5948  0.9208
 6688SOL     OW31522   1.841   1.061  15.061  0.3289  0.1178  0.3200
 6688SOL    HW131523   1.770   1.048  15.124 -0.5188  3.5758  0.0394
 6688SOL    HW231524   1.857   0.972  15.029 -1.9976 -0.4010  0.5728
 6689SOL     OW31525   1.997   1.638   7.464  0.6792 -0.1529  0.0048
 6689SOL    HW131526   2.039   1.554   7.482 -0.8543 -1.3073 -1.7933
 6689SOL    HW231527   1.946   1.646   7.545  0.1618 -1.2267 -0.2154
 6690SOL     OW31528   1.855   3.319   1.950  0.1162  0.1483  0.3217
 6690SOL    HW131529   1.847   3.267   1.870 -0.2576  2.1074 -0.9326
 6690SOL    HW231530   1.830   3.409   1.927 -0.2695 -0.0366  0.0320
 6691SOL     OW31531   4.605   3.747   4.302  0.8181  0.3544  0.1685
 6691SOL    HW131532   4.599   3.826   4.250  2.1158 -0.9103 -1.9148
 6691SOL    HW231533   4.528   3.769   4.354  1.2334 -0.0497  0.9683
 6692SOL     OW31534   1.291   0.987   7.642 -0.2759  0.7484  0.3096
 6692SOL    HW131535   1.229   1.008   7.711 -0.8206  0.5033 -0.1024
 6692SOL    HW231536   1.363   1.040   7.676  0.4756  0.2401 -0.4723
 6693SOL     OW31537   3.761   2.072   5.906 -0.5537 -0.0091  0.0356
 6693SOL    HW131538   3.777   2.148   5.962 -0.1870  0.0799 -0.1917
 6693SOL    HW231539   3.831   2.089   5.844  1.8537 -2.8029  1.9531
 6694SOL     OW31540   4.212   4.153  15.663  0.2137  0.2951 -0.2895
 6694SOL    HW131541   4.175   4.239  15.641 -0.7271 -0.0296  0.0014
 6694SOL    HW231542   4.140   4.120  15.717 -0.6567  1.4091 -0.7518
 6695SOL     OW31543   2.982   3.945   5.020  0.3040 -0.5844 -0.4303
 6695SOL    HW131544   2.941   4.031   5.030 -6.8053 -4.0771  0.2281
 6695SOL    HW231545   2.977   3.905   5.107  0.4673  1.4669  0.5394
 6696SOL     OW31546   3.322   2.191  12.554 -0.1444  0.5347  0.1604
 6696SOL    HW131547   3.354   2.144  12.631 -1.7559 -2.2885 -0.9133
 6696SOL    HW231548   3.354   2.279  12.577 -1.5660  0.5410  2.1762
 6697SOL     OW31549   1.406   2.565   5.065 -0.3994  0.0318  0.1125
 6697SOL    HW131550   1.385   2.597   5.153  0.1960  4.6112 -1.4063
 6697SOL    HW231551   1.408   2.647   5.015 -2.1385  0.6448  1.0424
 6698SOL     OW31552   0.698   1.553   4.278 -0.0241  0.3912 -0.2457
 6698SOL    HW131553   0.738   1.538   4.364 -0.4210 -1.6028 -0.4113
 6698SOL    HW231554   0.617   1.589   4.316  1.7549  1.7189  2.2879
 6699SOL     OW31555   3.513   0.436   8.265  0.4857  0.4222  0.6157
 6699SOL    HW131556   3.467   0.479   8.337  0.5388  0.5342  0.5823
 6699SOL    HW231557   3.555   0.355   8.295 -0.4232 -0.7804 -1.3546
 6700SOL     OW31558   0.996   0.918   9.213 -0.1386 -0.2233  0.2053
 6700SOL    HW131559   0.952   0.961   9.140 -3.5697 -2.5487  0.8617
 6700SOL    HW231560   1.084   0.951   9.196  0.0367 -0.4614  0.6726
 6701SOL     OW31561   1.389   1.490   5.927 -0.0083  0.4588  0.2217
 6701SOL    HW131562   1.439   1.426   5.877 -0.6357 -1.2628  1.7890
 6701SOL    HW231563   1.297   1.489   5.898 -0.1680 -0.2628  0.7618
 6702SOL     OW31564   1.398   1.901   1.583 -0.1854  0.1361 -0.1242
 6702SOL    HW131565   1.364   1.965   1.645  1.5815  2.2760 -1.3568
 6702SOL    HW231566   1.319   1.855   1.555 -0.2917  0.6400 -0.6570
 6703SOL     OW31567   2.321   3.466   4.323 -0.3869  0.4157 -0.5698
 6703SOL    HW131568   2.232   3.440   4.299 -1.2783  0.8155  2.1921
 6703SOL    HW231569   2.365   3.421   4.251  0.8044  2.1171 -0.8934
 6704SOL     OW31570   2.526   0.055   2.253  0.5408 -0.1417 -0.6972
 6704SOL    HW131571   2.563   0.035   2.339 -1.0729 -0.9680 -0.2163
 6704SOL    HW231572   2.583   0.014   2.188  0.6979 -2.3861  0.8541
 6705SOL     OW31573   2.813   3.725   6.780  0.4403 -0.0878  0.0167
 6705SOL    HW131574   2.880   3.749   6.715 -3.7852  0.4384 -4.1083
 6705SOL    HW231575   2.866   3.666   6.834  0.0322  0.4780  1.0353
 6706SOL     OW31576   0.955   0.446   2.054  0.3748 -0.0854 -0.2356
 6706SOL    HW131577   1.045   0.476   2.042  0.5895  0.5636  3.1695
 6706SOL    HW231578   0.974   0.352   2.044  0.1012  0.2036 -3.5216
 6707SOL     OW31579   1.223   3.730   2.027 -0.0511  0.2128 -0.7284
 6707SOL    HW131580   1.246   3.729   2.120 -2.6147 -0.0465 -0.0831
 6707SOL    HW231581   1.235   3.822   2.004 -0.7099  0.2581 -0.8810
 6708SOL     OW31582   4.612   3.092  13.240  0.7582 -0.0803 -0.1893
 6708SOL    HW131583   4.682   3.157  13.241  0.1430  0.5441  2.4934
 6708SOL    HW231584   4.548   3.130  13.300  0.0745  1.4840 -1.9160
 6709SOL     OW31585   3.446   0.786  10.505 -0.0293 -0.0126  0.2559
 6709SOL    HW131586   3.456   0.797  10.410 -0.0264 -1.2960  0.1121
 6709SOL    HW231587   3.424   0.877  10.525 -0.2016  0.4145 -1.8823
 6710SOL     OW31588   1.459   3.205   1.530  0.2554 -0.3572  0.2313
 6710SOL    HW131589   1.433   3.186   1.620  0.5956  0.0649  0.4146
 6710SOL    HW231590   1.552   3.209   1.551  0.5326  2.6189 -1.6134
 6711SOL     OW31591   1.081   0.707   6.292  0.4045 -0.5550  0.0688
 6711SOL    HW131592   1.058   0.684   6.382 -0.4799  1.3791  0.3363
 6711SOL    HW231593   1.004   0.751   6.256 -0.2043 -0.3294  1.6680
 6712SOL     OW31594   0.336   0.347   8.646  0.0654  0.1748 -0.1099
 6712SOL    HW131595   0.284   0.315   8.720 -0.9858 -0.7581 -1.2471
 6712SOL    HW231596   0.296   0.433   8.637  0.5528  0.4490  0.3655
 6713SOL     OW31597   1.554   0.533  16.489 -0.4142 -0.0804  0.0774
 6713SOL    HW131598   1.618   0.462  16.481 -0.4276 -0.1395  0.5162
 6713SOL    HW231599   1.489   0.519  16.420 -0.1243 -0.4196 -0.1250
 6714SOL     OW31600   4.661   3.963   5.336 -0.2712 -0.0503  0.4345
 6714SOL    HW131601   0.018   3.995   5.299 -0.5916 -0.8830 -0.9764
 6714SOL    HW231602   4.640   4.031   5.400  0.9650 -1.3410  2.2364
 6715SOL     OW31603   4.185   4.672   6.420  0.1369 -0.6237 -0.1755
 6715SOL    HW131604   4.098   4.658   6.457 -0.1501  2.3617  0.2667
 6715SOL    HW231605   4.230   4.593   6.449  0.5417  0.3350  1.7981
 6716SOL     OW31606   3.059   2.309   4.111 -0.0326  0.2589  0.2300
 6716SOL    HW131607   3.018   2.258   4.181  0.8488 -0.5424  0.1613
 6716SOL    HW231608   3.147   2.324   4.145  0.4870  1.8191 -1.8417
 6717SOL     OW31609   2.638   1.365   5.282  0.0581 -0.6919 -0.6100
 6717SOL    HW131610   2.622   1.270   5.285 -0.4668 -0.5216  1.9612
 6717SOL    HW231611   2.551   1.399   5.264 -1.6782 -3.3679  2.6454
 6718SOL     OW31612   3.084   4.665   5.374 -0.1434  0.4039 -0.0118
 6718SOL    HW131613   3.043   4.604   5.313  1.5794 -0.6814 -0.0914
 6718SOL    HW231614   3.047   4.635   5.457  1.7486 -1.1874  0.2666
 6719SOL     OW31615   2.017   1.319   8.565  0.1170  0.3894 -0.0565
 6719SOL    HW131616   1.927   1.329   8.533  0.1453  2.1788  0.4400
 6719SOL    HW231617   2.035   1.410   8.585  1.7517  0.1040 -0.2565
 6720SOL     OW31618   1.236   2.530   3.216  0.0120  0.0486  0.6416
 6720SOL    HW131619   1.141   2.523   3.203  0.0260  2.4097 -0.6832
 6720SOL    HW231620   1.266   2.541   3.126 -0.4988 -0.4827  0.4113
 6721SOL     OW31621   2.925   0.593   4.261 -0.1899  0.0030  0.1801
 6721SOL    HW131622   3.004   0.579   4.208  0.3083  0.6038  0.7577
 6721SOL    HW231623   2.955   0.655   4.328 -2.0653  0.1783  0.8628
 6722SOL     OW31624   2.920   0.650   4.745 -0.4013 -0.2490 -0.0275
 6722SOL    HW131625   2.872   0.731   4.728 -1.9355 -1.2072 -0.2826
 6722SOL    HW231626   3.014   0.671   4.743 -0.1739 -1.2010  0.7239
 6723SOL     OW31627   4.651   1.502   8.521 -0.6618  0.5531 -0.3377
 6723SOL    HW131628   4.712   1.472   8.588 -0.4637 -0.1415 -0.8288
 6723SOL    HW231629   4.649   1.597   8.528 -0.1254  0.7009 -1.9653
 6724SOL     OW31630   0.195   0.598   8.182  0.4740  1.0169  0.0969
 6724SOL    HW131631   0.243   0.548   8.116  1.3663 -0.2318  1.7337
 6724SOL    HW231632   0.209   0.688   8.151 -1.4292  1.2614 -0.1040
 6725SOL     OW31633   3.128   0.078   8.293  0.2487  0.3829  0.4747
 6725SOL    HW131634   3.097   0.004   8.345  2.9837 -2.4574 -1.9337
 6725SOL    HW231635   3.173   0.124   8.364 -2.6721  1.6950  1.4774
 6726SOL     OW31636   2.998   2.529   6.205 -0.1294  0.1631  0.2091
 6726SOL    HW131637   3.049   2.481   6.270 -1.3888 -1.4715 -0.0119
 6726SOL    HW231638   2.953   2.453   6.167 -0.5503  0.3611  0.3148
 6727SOL     OW31639   1.327   2.442   6.165 -0.0487 -0.1829  0.8821
 6727SOL    HW131640   1.243   2.467   6.127  1.0369 -0.3794 -1.6165
 6727SOL    HW231641   1.329   2.351   6.136  2.1086  0.5080 -1.2139
 6728SOL     OW31642   3.856   1.772   8.957 -0.8392  0.3484  0.1198
 6728SOL    HW131643   3.928   1.710   8.961  0.0073  1.4837  2.5097
 6728SOL    HW231644   3.849   1.808   9.045  0.7114 -0.2264  0.4700
 6729SOL     OW31645   1.946   3.572  15.203  0.2619 -0.1019  0.3025
 6729SOL    HW131646   2.031   3.614  15.189  0.4699 -0.6110  0.0252
 6729SOL    HW231647   1.969   3.481  15.221 -2.1692 -0.8150 -0.1539
 6730SOL     OW31648   0.518   3.196   7.028  0.0798  0.0274 -0.2206
 6730SOL    HW131649   0.574   3.227   6.956 -0.0924  1.5564  0.2977
 6730SOL    HW231650   0.428   3.193   6.995 -0.3246  1.7099  0.7387
 6731SOL     OW31651   2.097   4.276   5.380  0.2374  0.1142  0.6992
 6731SOL    HW131652   2.071   4.252   5.291 -1.0555 -0.1890  1.1635
 6731SOL    HW231653   2.050   4.359   5.390 -2.0494 -1.0645 -0.4036
 6732SOL     OW31654   0.277   1.811   4.993  0.7231  0.0503 -1.0650
 6732SOL    HW131655   0.357   1.797   4.943  1.3229  1.0140 -0.3732
 6732SOL    HW231656   0.298   1.777   5.080 -1.5098 -0.1937 -0.6256
 6733SOL     OW31657   3.146   0.562  11.787 -0.0704  0.0308 -0.2282
 6733SOL    HW131658   3.075   0.625  11.781  0.0408  0.2895  1.1915
 6733SOL    HW231659   3.101   0.490  11.744 -0.4291 -0.4042  0.8883
 6734SOL     OW31660   0.153   3.854   1.042  0.0559 -0.1257  0.3157
 6734SOL    HW131661   0.226   3.852   0.981 -2.9648  0.5442 -3.3609
 6734SOL    HW231662   0.171   3.933   1.094  1.2266  1.4497 -2.5268
 6735SOL     OW31663   2.684   1.604   2.766  0.1101 -0.3039  0.6355
 6735SOL    HW131664   2.728   1.570   2.688  1.0411  0.3744  0.8752
 6735SOL    HW231665   2.629   1.665   2.716  0.6683  0.9318  1.5577
 6736SOL     OW31666   4.562   0.180   3.539  0.2829 -0.1453 -0.0973
 6736SOL    HW131667   4.564   0.228   3.456  1.0928  0.9023  0.5344
 6736SOL    HW231668   4.551   0.252   3.600  0.3697  0.3408 -0.6590
 6737SOL     OW31669   0.487   0.663   5.393  0.2530 -0.1073  0.2917
 6737SOL    HW131670   0.536   0.746   5.394  0.5987 -0.3210  1.1812
 6737SOL    HW231671   0.437   0.656   5.474  2.6180 -3.3676  1.4310
 6738SOL     OW31672   2.695   0.547  14.518 -0.2623  0.2114  0.3593
 6738SOL    HW131673   2.721   0.466  14.475  0.3192 -0.7478  2.4897
 6738SOL    HW231674   2.631   0.576  14.454 -0.8383 -1.3274  0.2514
 6739SOL     OW31675   2.801   2.640   9.881 -0.4595 -0.5663 -0.1396
 6739SOL    HW131676   2.744   2.566   9.859 -0.1107 -0.3148 -1.8984
 6739SOL    HW231677   2.805   2.669   9.790 -1.1808  1.2427  0.4164
 6740SOL     OW31678   1.611   0.091   6.713  0.2209 -0.0822  0.1395
 6740SOL    HW131679   1.663   0.164   6.680 -2.8385  2.6580  1.3130
 6740SOL    HW231680   1.530   0.111   6.667  0.4931 -0.2686 -0.4186
 6741SOL     OW31681   4.702   2.865  10.776  0.2702  0.1286  0.5233
 6741SOL    HW131682   0.016   2.851  10.689  2.7812  0.8429  1.5136
 6741SOL    HW231683   4.662   2.949  10.755 -1.2310 -0.3204  1.6393
 6742SOL     OW31684   4.584   2.529   3.623  0.8146 -0.4321  0.1174
 6742SOL    HW131685   4.494   2.555   3.642  1.0236 -0.1026  0.6872
 6742SOL    HW231686   4.627   2.569   3.700 -0.0888  1.4643 -0.3604
 6743SOL     OW31687   2.852   3.995   8.504  0.0800 -0.6178 -0.3835
 6743SOL    HW131688   2.817   3.906   8.508 -0.2694 -0.3140  3.1704
 6743SOL    HW231689   2.894   3.994   8.589 -0.0446  1.4650 -0.2927
 6744SOL     OW31690   3.632   1.885   4.305 -0.2632 -0.1483 -0.2057
 6744SOL    HW131691   3.549   1.932   4.301 -1.1972 -1.7129  0.3493
 6744SOL    HW231692   3.637   1.867   4.211  1.4105 -1.0897  0.0523
 6745SOL     OW31693   0.832   2.105   9.066 -0.7060 -0.6802 -0.7352
 6745SOL    HW131694   0.800   2.044   9.133 -0.0469 -0.2982 -0.0794
 6745SOL    HW231695   0.871   2.168   9.126 -2.1581 -0.1929 -0.2970
 6746SOL     OW31696   4.569   4.668   0.450 -0.2373  0.3688  0.5974
 6746SOL    HW131697   4.623   0.013   0.488  0.2564 -0.5423  1.5724
 6746SOL    HW231698   4.608   4.592   0.494 -1.2231 -0.4638  0.0333
 6747SOL     OW31699   1.392   2.145   2.194  0.0727 -0.2837 -0.5523
 6747SOL    HW131700   1.465   2.201   2.221 -0.9859  2.3920 -3.2433
 6747SOL    HW231701   1.328   2.156   2.265  0.9467  2.3306 -0.1627
 6748SOL     OW31702   3.448   1.258  11.781 -0.5161  0.2819  0.3598
 6748SOL    HW131703   3.431   1.312  11.858  1.0242  0.7864  0.3438
 6748SOL    HW231704   3.356   1.242  11.761 -0.1264 -0.1185 -1.1377
 6749SOL     OW31705   2.206   3.520   8.090 -0.0388  0.1258 -0.0429
 6749SOL    HW131706   2.110   3.525   8.092 -0.0227  0.1282  0.7296
 6749SOL    HW231707   2.227   3.552   8.178  0.3855 -0.5038  0.0856
 6750SOL     OW31708   3.130   0.067   2.505 -0.5533  0.5515 -0.3701
 6750SOL    HW131709   3.206   0.077   2.561  1.0235  1.6116 -2.6836
 6750SOL    HW231710   3.136   0.132   2.435 -0.1198 -1.1655 -1.9656
 6751SOL     OW31711   1.103   2.395   2.743  0.2937 -0.2760  0.4713
 6751SOL    HW131712   1.052   2.471   2.770  0.7507 -0.4174  1.7490
 6751SOL    HW231713   1.054   2.319   2.775  2.3966 -1.7755  0.1442
 6752SOL     OW31714   4.351   3.715   2.768  0.0165  0.2392 -0.5854
 6752SOL    HW131715   4.293   3.652   2.724 -1.7903  1.0760  0.6089
 6752SOL    HW231716   4.368   3.654   2.840 -1.1728  0.5590 -0.0301
 6753SOL     OW31717   3.321   2.975  11.924 -0.2055  0.2817  0.4379
 6753SOL    HW131718   3.259   3.041  11.892 -1.4165 -1.7658 -1.3920
 6753SOL    HW231719   3.350   2.949  11.837  0.9329 -1.2319  1.2751
 6754SOL     OW31720   1.957   0.441  14.784 -0.3809  0.8952 -0.1406
 6754SOL    HW131721   1.964   0.471  14.875 -0.3173 -0.0267  0.1587
 6754SOL    HW231722   2.042   0.469  14.749 -0.0993  2.2582  1.5897
 6755SOL     OW31723   2.224   0.069   4.431  0.0227  0.3844 -0.4902
 6755SOL    HW131724   2.155   0.019   4.475 -1.2730  1.9397 -0.7387
 6755SOL    HW231725   2.182   0.150   4.402 -2.4938 -0.4756  0.7720
 6756SOL     OW31726   2.569   1.420   3.276  0.1643 -0.0068 -0.2926
 6756SOL    HW131727   2.641   1.428   3.214 -0.3918  1.3496 -0.7491
 6756SOL    HW231728   2.589   1.492   3.335 -0.2319 -1.2774  1.4058
 6757SOL     OW31729   2.829   0.708   2.079  1.0113 -0.1275 -0.2167
 6757SOL    HW131730   2.879   0.655   2.016 -0.0626  0.1335 -1.2816
 6757SOL    HW231731   2.836   0.796   2.040  1.1782 -0.3362 -0.6634
 6758SOL     OW31732   2.223   0.617   2.011  0.6816 -0.7299 -0.4454
 6758SOL    HW131733   2.190   0.684   2.070  0.4715 -2.3977  1.3081
 6758SOL    HW231734   2.270   0.669   1.946  2.8850  0.5339  2.1985
 6759SOL     OW31735   4.042   3.152   8.725 -0.5454  0.0833 -0.0718
 6759SOL    HW131736   4.046   3.185   8.815  1.1235 -0.1454 -0.0529
 6759SOL    HW231737   3.950   3.148   8.701 -0.5403 -1.2433  0.1149
 6760SOL     OW31738   3.879   1.139   5.556 -0.1347  0.3498  0.0591
 6760SOL    HW131739   3.787   1.116   5.569 -0.0733  0.0120 -0.1144
 6760SOL    HW231740   3.893   1.204   5.626 -0.7467  0.1690  0.3507
 6761SOL     OW31741   3.229   0.826   0.427  0.0384  0.5098  0.2708
 6761SOL    HW131742   3.155   0.765   0.431  1.3016 -1.0955 -0.8644
 6761SOL    HW231743   3.253   0.832   0.520 -1.3521 -1.4185  0.7622
 6762SOL     OW31744   2.724   2.598  10.906  0.1578  0.2074 -0.6919
 6762SOL    HW131745   2.773   2.590  10.988 -1.6516 -3.7552  0.0027
 6762SOL    HW231746   2.679   2.682  10.915 -0.7206 -0.1004 -2.3122
 6763SOL     OW31747   3.303   0.070   4.520 -0.0702  0.2456 -0.2900
 6763SOL    HW131748   3.230   0.058   4.581  0.4097  1.2230  0.4679
 6763SOL    HW231749   3.368   0.100   4.584  0.7813  1.0254 -1.5285
 6764SOL     OW31750   1.209   0.064   0.075 -0.0845 -0.1651 -0.3949
 6764SOL    HW131751   1.254   0.070   0.160  0.1795  0.7676 -0.5976
 6764SOL    HW231752   1.190   4.696   0.060 -1.0889 -0.0388  0.1051
 6765SOL     OW31753   2.984   0.850   2.896 -0.5888 -0.3794 -0.3266
 6765SOL    HW131754   3.043   0.879   2.827  1.0530 -2.6648  0.1497
 6765SOL    HW231755   3.029   0.891   2.970 -1.7861  0.8968 -0.3049
 6766SOL     OW31756   1.108   2.289   6.437 -0.0771 -0.0929 -0.4074
 6766SOL    HW131757   1.163   2.227   6.389  0.7690 -0.1920  0.6932
 6766SOL    HW231758   1.064   2.235   6.503  0.9380 -0.2907  0.1077
 6767SOL     OW31759   0.484   1.523   4.053 -0.0066  0.2921 -0.5251
 6767SOL    HW131760   0.543   1.449   4.041 -2.3284 -1.5087 -0.7907
 6767SOL    HW231761   0.426   1.503   3.980 -0.0447  1.6018 -0.8657
 6768SOL     OW31762   1.501   0.630   6.199  0.3712  0.1570 -0.1916
 6768SOL    HW131763   1.454   0.568   6.255  0.4035 -0.2662 -0.6283
 6768SOL    HW231764   1.436   0.695   6.173  0.6035  0.0340 -1.1065
 6769SOL     OW31765   1.567   1.183   5.370 -0.2384  0.1056  0.4699
 6769SOL    HW131766   1.560   1.191   5.275  3.7320 -2.3097 -0.0417
 6769SOL    HW231767   1.662   1.193   5.376 -0.5103  0.7884  3.6010
 6770SOL     OW31768   3.643   3.017   3.653 -0.1027  0.5192 -0.6121
 6770SOL    HW131769   3.649   2.964   3.574 -0.8472 -0.6778  0.1327
 6770SOL    HW231770   3.696   3.093   3.629  0.8382  0.1172  0.1670
 6771SOL     OW31771   2.161   0.896   1.332 -0.1789  0.4202  0.0759
 6771SOL    HW131772   2.158   0.897   1.236 -1.4695  1.2989  0.1304
 6771SOL    HW231773   2.167   0.990   1.346  0.1955  0.6518 -1.6469
 6772SOL     OW31774   2.609   0.071   6.374 -0.0051  0.0949 -0.0431
 6772SOL    HW131775   2.588   0.104   6.462  1.8773  0.0590  0.4098
 6772SOL    HW231776   2.520   0.082   6.340  0.6180 -0.5831 -1.8749
 6773SOL     OW31777   4.506   2.239  11.448  0.0506  0.1082 -0.5063
 6773SOL    HW131778   4.537   2.323  11.479 -0.6325  0.2852 -0.3049
 6773SOL    HW231779   4.414   2.236  11.473 -0.5593 -1.1227 -2.8423
 6774SOL     OW31780   4.491   0.630   6.264  0.0070  0.0039 -0.1084
 6774SOL    HW131781   4.584   0.629   6.243  0.2439 -0.5359  0.9890
 6774SOL    HW231782   4.471   0.536   6.260  2.0791 -0.5236  1.9484
 6775SOL     OW31783   2.375   2.457   8.532  0.3206  0.2398  0.0749
 6775SOL    HW131784   2.460   2.499   8.540 -0.1330  1.2411 -0.3387
 6775SOL    HW231785   2.317   2.527   8.503  1.7669  1.5645  0.4267
 6776SOL     OW31786   1.266   4.594  13.811  1.2566 -0.3537  0.2334
 6776SOL    HW131787   1.216   4.616  13.889 -0.7432 -0.0504 -1.1371
 6776SOL    HW231788   1.210   4.634  13.744 -0.2028 -1.0217  1.0718
 6777SOL     OW31789   1.819   2.697   9.321 -0.1336 -0.1738  0.2179
 6777SOL    HW131790   1.885   2.676   9.255 -1.8032  0.1543 -1.5590
 6777SOL    HW231791   1.792   2.606   9.334 -2.1746  0.5105  0.8298
 6778SOL     OW31792   0.154   2.707   1.898 -0.1112  0.1317 -0.0606
 6778SOL    HW131793   0.091   2.691   1.968  0.0749 -0.2252  0.0245
 6778SOL    HW231794   0.240   2.698   1.939  0.1596  1.3129 -0.3799
 6779SOL     OW31795   2.228   2.312   6.857 -0.0456 -0.6590 -0.0889
 6779SOL    HW131796   2.206   2.240   6.917 -0.1816  1.3733  2.2788
 6779SOL    HW231797   2.234   2.257   6.779  0.1062 -0.7059 -0.0437
 6780SOL     OW31798   1.108   0.474  17.605 -0.6375  0.6383  0.2841
 6780SOL    HW131799   1.182   0.414  17.603 -1.8280 -0.9252  2.6440
 6780SOL    HW231800   1.039   0.423  17.647 -1.7710  0.2717 -1.9901
 6781SOL     OW31801   4.254   4.452   9.071  0.0466 -0.8307 -0.5787
 6781SOL    HW131802   4.297   4.368   9.056  1.8640 -0.2785  1.6427
 6781SOL    HW231803   4.167   4.418   9.094 -0.3893  0.7552  0.1000
 6782SOL     OW31804   0.338   1.228   8.549  0.3226 -0.1793  0.2275
 6782SOL    HW131805   0.386   1.308   8.572 -1.2491  0.8963 -0.2332
 6782SOL    HW231806   0.270   1.228   8.617  0.9201 -1.1632  0.8349
 6783SOL     OW31807   2.688   1.399   7.171 -0.2629  0.5706 -0.1369
 6783SOL    HW131808   2.621   1.467   7.173 -0.2937  0.5556 -0.9705
 6783SOL    HW231809   2.631   1.333   7.132 -0.6558  1.3087 -0.7949
 6784SOL     OW31810   1.724   0.784   6.105 -0.6638 -0.0528  0.4893
 6784SOL    HW131811   1.657   0.718   6.125  0.5254 -0.4985  2.9823
 6784SOL    HW231812   1.718   0.770   6.010  0.0793 -3.8170  0.9850
 6785SOL     OW31813   2.812   3.710   1.143  0.1122  0.3777  0.1222
 6785SOL    HW131814   2.902   3.684   1.159  0.1870 -0.6739 -2.0321
 6785SOL    HW231815   2.811   3.683   1.051 -2.4509 -0.1330  0.2930
 6786SOL     OW31816   2.489   0.744  14.910 -0.0838 -0.4474  0.5946
 6786SOL    HW131817   2.448   0.754  14.824  1.1613  0.2592  0.0724
 6786SOL    HW231818   2.507   0.651  14.923 -0.5971 -0.6063  0.1635
 6787SOL     OW31819   3.215   2.108  12.995  0.3338  0.9311  0.7502
 6787SOL    HW131820   3.281   2.085  12.930 -2.2089  0.0744 -1.5431
 6787SOL    HW231821   3.233   2.058  13.074 -0.8231 -1.6290 -0.5955
 6788SOL     OW31822   0.672   0.877   1.333 -0.8857 -0.1709 -0.0109
 6788SOL    HW131823   0.708   0.922   1.409 -0.1022  1.6306 -1.4503
 6788SOL    HW231824   0.628   0.803   1.375 -0.3566 -0.7545 -0.4902
 6789SOL     OW31825   2.980   2.225   5.813  0.1595  0.2751 -0.0132
 6789SOL    HW131826   3.028   2.164   5.868 -0.4091 -1.3118 -1.2769
 6789SOL    HW231827   3.052   2.276   5.777 -0.5995  0.1979 -1.6521
 6790SOL     OW31828   0.575   2.866  12.498  0.1021 -0.0065  0.3581
 6790SOL    HW131829   0.538   2.955  12.502  0.5561  0.1480  1.3164
 6790SOL    HW231830   0.632   2.870  12.575 -0.2672 -2.8221  0.7707
 6791SOL     OW31831   4.447   4.463   5.152 -0.4359  0.6088 -0.2447
 6791SOL    HW131832   4.479   4.454   5.062 -1.5682 -1.8464 -0.3987
 6791SOL    HW231833   4.453   4.370   5.173 -0.5347  0.3998 -1.1067
 6792SOL     OW31834   1.765   0.433   5.732 -0.2480 -0.0501 -0.4389
 6792SOL    HW131835   1.782   0.432   5.638  2.3943  0.6095  0.0217
 6792SOL    HW231836   1.783   0.344   5.761  0.4118 -0.0640 -0.8727
 6793SOL     OW31837   1.200   2.853   8.969  0.3773 -0.1698  0.4799
 6793SOL    HW131838   1.156   2.894   9.044  1.2460  0.2668  0.7495
 6793SOL    HW231839   1.120   2.837   8.918  0.0228  1.8762  0.3753
 6794SOL     OW31840   1.563   2.411   2.497 -0.9241 -0.0461 -0.1363
 6794SOL    HW131841   1.578   2.359   2.418  2.6176 -0.1332  0.5669
 6794SOL    HW231842   1.474   2.390   2.525 -1.3236  0.2814 -1.2000
 6795SOL     OW31843   1.626   2.493  15.726 -0.2137  0.0280 -0.2793
 6795SOL    HW131844   1.655   2.559  15.789  0.3490  0.3957 -0.9248
 6795SOL    HW231845   1.654   2.536  15.645 -2.0416 -0.5759 -1.2258
 6796SOL     OW31846   0.260   2.172   7.335 -0.1237  0.5158 -0.6171
 6796SOL    HW131847   0.170   2.142   7.348  0.3693 -0.6313  0.1274
 6796SOL    HW231848   0.306   2.095   7.369 -0.7794  0.4195  0.0527
 6797SOL     OW31849   1.545   1.064   5.824 -0.4784  0.6919  0.1236
 6797SOL    HW131850   1.482   1.033   5.759  1.6042  2.1204 -2.5929
 6797SOL    HW231851   1.504   1.025   5.901  1.8389  2.6389  2.3156
 6798SOL     OW31852   2.804   2.155   6.538  0.1069  0.2555 -0.0825
 6798SOL    HW131853   2.764   2.125   6.456 -2.4016  0.6761  0.9865
 6798SOL    HW231854   2.845   2.071   6.560  0.4805  0.6582  0.7285
 6799SOL     OW31855   1.194   2.574   7.912 -0.4714  0.1970 -0.0056
 6799SOL    HW131856   1.217   2.658   7.952 -2.0552 -0.0059  1.3205
 6799SOL    HW231857   1.277   2.530   7.930 -0.7028 -1.0560 -2.0151
 6800SOL     OW31858   2.041   3.721   6.092 -0.7377 -0.1901  0.8563
 6800SOL    HW131859   1.987   3.728   6.013  1.0202 -0.1959 -0.3449
 6800SOL    HW231860   2.127   3.704   6.054 -1.2457  0.6280 -0.6653
 6801SOL     OW31861   2.516   4.298   6.261  0.2058  0.0218  0.0775
 6801SOL    HW131862   2.560   4.214   6.271  0.8674  0.2742 -0.6879
 6801SOL    HW231863   2.438   4.285   6.315 -0.3967  0.2360 -0.7216
 6802SOL     OW31864   3.048   4.656   5.037  0.1534 -0.4768 -0.3312
 6802SOL    HW131865   3.106   0.005   5.015 -0.2500 -0.1192 -0.1971
 6802SOL    HW231866   3.111   4.590   5.068  2.2200  1.2274 -0.8986
 6803SOL     OW31867   3.979   1.131   2.692 -0.5410  0.1831 -0.2650
 6803SOL    HW131868   3.972   1.055   2.633  3.3444 -0.4610  0.0905
 6803SOL    HW231869   3.978   1.210   2.638 -1.1403  0.0077 -0.5180
 6804SOL     OW31870   3.120   3.917   4.587 -0.0779 -0.3397  0.5285
 6804SOL    HW131871   3.046   3.956   4.633 -0.6168  0.3523 -0.9059
 6804SOL    HW231872   3.114   3.831   4.629 -0.3190  0.1792  1.5440
 6805SOL     OW31873   4.178   1.600  12.579 -0.6410 -0.1690  0.1462
 6805SOL    HW131874   4.160   1.563  12.492 -1.9367  3.6927 -1.2521
 6805SOL    HW231875   4.242   1.666  12.552  0.7468 -0.7428  2.1226
 6806SOL     OW31876   1.551   4.638   2.024 -0.0039 -0.2754  0.3499
 6806SOL    HW131877   1.630   4.677   2.061 -0.5507 -0.0699  1.2946
 6806SOL    HW231878   1.541   4.681   1.939  0.3992 -0.4122  0.2357
 6807SOL     OW31879   4.528   0.494   4.018  0.6179 -0.6404 -0.0429
 6807SOL    HW131880   4.618   0.463   4.024  0.0943 -2.0680  0.5323
 6807SOL    HW231881   4.542   0.582   3.983  1.0285 -0.7117 -0.0498
 6808SOL     OW31882   0.634   0.618   7.167  0.4475  0.0558  0.1865
 6808SOL    HW131883   0.579   0.563   7.111 -0.2309  0.2659  0.6571
 6808SOL    HW231884   0.670   0.551   7.225 -1.7671 -1.1039  0.1923
 6809SOL     OW31885   0.878   4.084  12.918  0.2038 -0.3250 -0.6518
 6809SOL    HW131886   0.901   4.176  12.932 -1.8766  0.0956  0.0343
 6809SOL    HW231887   0.958   4.042  12.948  0.6820  1.9699  1.3012
 6810SOL     OW31888   2.536   0.554   1.147  0.2125  0.4628  0.3821
 6810SOL    HW131889   2.522   0.648   1.146 -2.4978  0.0391 -2.6333
 6810SOL    HW231890   2.576   0.540   1.232  0.6347  1.6411  0.3736
 6811SOL     OW31891   3.293   1.614   4.247  0.3415  0.4860 -0.0583
 6811SOL    HW131892   3.353   1.583   4.179 -0.4086 -2.0933  0.4560
 6811SOL    HW231893   3.219   1.643   4.194 -0.6536  0.2788  1.2225
 6812SOL     OW31894   1.821   2.597   5.438 -0.2403 -0.1942 -0.2250
 6812SOL    HW131895   1.771   2.678   5.443 -2.3626 -1.5249  0.4069
 6812SOL    HW231896   1.785   2.554   5.361 -1.0001  1.2195 -0.6576
 6813SOL     OW31897   0.818   3.771   7.798 -0.1917 -0.4120 -0.5181
 6813SOL    HW131898   0.790   3.680   7.811  1.2043 -0.9546 -1.3467
 6813SOL    HW231899   0.893   3.779   7.857 -0.5035 -1.3609  0.0109
 6814SOL     OW31900   0.049   0.134   7.074 -0.0326  0.0381  0.0435
 6814SOL    HW131901   4.714   0.091   7.136 -0.4818 -0.4696 -0.7442
 6814SOL    HW231902   0.134   0.114   7.114 -1.5124 -2.7565  1.7888
 6815SOL     OW31903   3.031   1.496   9.653 -0.2570 -0.0248  0.1204
 6815SOL    HW131904   2.968   1.425   9.668 -0.5586  0.0734 -0.7029
 6815SOL    HW231905   2.995   1.568   9.705 -0.4602 -1.2511  1.6826
 6816SOL     OW31906   2.104   2.068   3.597  0.0379 -0.2084  0.4170
 6816SOL    HW131907   2.154   1.988   3.611  0.5845 -0.1270 -1.0558
 6816SOL    HW231908   2.117   2.075   3.502 -2.9900 -1.2028 -0.0706
 6817SOL     OW31909   1.996   2.196   5.539 -0.0252 -0.2306 -0.5329
 6817SOL    HW131910   2.047   2.117   5.557  1.2048  0.8796  0.9085
 6817SOL    HW231911   2.037   2.262   5.596  0.5881 -1.9445  1.0017
 6818SOL     OW31912   1.178   4.576   2.831  0.0236  0.1070  0.1518
 6818SOL    HW131913   1.233   4.521   2.887 -1.9404 -1.4302  0.5517
 6818SOL    HW231914   1.150   4.513   2.765 -1.3406 -1.9909  2.7026
 6819SOL     OW31915   3.972   0.446   9.324  0.0184  0.5151 -0.4952
 6819SOL    HW131916   4.049   0.501   9.314 -2.0048  3.3187 -0.5460
 6819SOL    HW231917   3.967   0.443   9.420 -1.9417  0.7287 -0.5826
 6820SOL     OW31918   4.678   3.894   3.183  0.3532 -0.3738  0.4917
 6820SOL    HW131919   0.031   3.839   3.172  0.6606  1.0123 -4.4975
 6820SOL    HW231920   4.648   3.885   3.093  0.0274 -0.0723  0.5686
 6821SOL     OW31921   3.622   2.898   7.005  0.5026 -0.1076 -0.4798
 6821SOL    HW131922   3.607   2.863   6.916  1.4308 -0.5123 -0.4784
 6821SOL    HW231923   3.533   2.924   7.026  0.9002  0.9395 -0.1337
 6822SOL     OW31924   3.211   1.309   1.965  0.1540 -0.0065  0.1380
 6822SOL    HW131925   3.127   1.273   1.993 -0.4364 -0.3622 -2.0829
 6822SOL    HW231926   3.275   1.239   1.971  0.8809  0.7370  1.1118
 6823SOL     OW31927   3.952   1.988   8.615 -0.0284  0.5284 -0.1738
 6823SOL    HW131928   4.016   1.922   8.642  0.3659  0.6327 -0.8386
 6823SOL    HW231929   3.871   1.942   8.592 -0.0875 -0.3532  1.8408
 6824SOL     OW31930   0.698   4.307  12.632  0.4976 -0.1271 -0.1476
 6824SOL    HW131931   0.629   4.373  12.638  0.8830  0.6439 -4.4700
 6824SOL    HW231932   0.661   4.246  12.697 -1.2158  0.2361 -0.7823
 6825SOL     OW31933   1.995   4.128   4.754  0.7651 -0.6702 -0.2116
 6825SOL    HW131934   2.071   4.164   4.707  1.8151 -1.4864  0.8553
 6825SOL    HW231935   1.933   4.112   4.683  0.4476 -1.7633  0.3186
 6826SOL     OW31936   4.258   3.604  13.036  0.2499 -0.2592 -0.2479
 6826SOL    HW131937   4.340   3.648  13.059 -0.1532  0.0404  0.6213
 6826SOL    HW231938   4.196   3.636  13.102 -0.0047 -1.8857  0.2830
 6827SOL     OW31939   2.917   0.709   8.108  0.0608  0.1128 -0.1406
 6827SOL    HW131940   3.010   0.730   8.100  0.7399 -3.0476 -0.6250
 6827SOL    HW231941   2.923   0.644   8.179  1.8963  2.5681  1.9303
 6828SOL     OW31942   3.103   2.907   2.829  0.2224 -0.1016  0.3269
 6828SOL    HW131943   3.141   2.859   2.755  2.1999  0.9305  0.6890
 6828SOL    HW231944   3.185   2.933   2.869  0.3258 -0.4501  0.3461
 6829SOL     OW31945   0.613   1.202   8.889  0.3066 -0.4482 -0.2044
 6829SOL    HW131946   0.537   1.144   8.884 -0.0302  0.0844 -1.4017
 6829SOL    HW231947   0.578   1.283   8.852  0.1809 -1.3217 -1.9745
 6830SOL     OW31948   1.249   0.881   5.374 -0.4347  0.1368 -0.0794
 6830SOL    HW131949   1.262   0.869   5.280  1.8049 -0.5229  0.3231
 6830SOL    HW231950   1.162   0.921   5.384 -0.2593  0.8610 -1.4718
 6831SOL     OW31951   1.753   2.449   5.222  0.3916 -0.2753  0.5093
 6831SOL    HW131952   1.686   2.445   5.153  0.2697  0.4611  0.5912
 6831SOL    HW231953   1.792   2.361   5.223  0.5107 -0.2194  0.9352
 6832SOL     OW31954   0.323   1.316  12.596  0.0965  0.0694  0.4864
 6832SOL    HW131955   0.342   1.372  12.522  0.9469 -2.2871 -1.0659
 6832SOL    HW231956   0.230   1.337  12.605 -0.2140 -1.1464  0.1197
 6833SOL     OW31957   2.138   1.022   7.113 -0.5445 -0.3536  0.2549
 6833SOL    HW131958   2.042   1.022   7.110 -0.4755 -1.4065 -1.7123
 6833SOL    HW231959   2.150   0.972   7.193 -0.8432  0.4377  0.8001
 6834SOL     OW31960   2.371   4.350  10.152 -0.3678  0.0302 -0.2112
 6834SOL    HW131961   2.372   4.443  10.176  0.7743 -0.7418  2.7434
 6834SOL    HW231962   2.439   4.339  10.086  0.8392 -0.6907  1.1437
 6835SOL     OW31963   1.930   1.533   7.920  0.8710 -0.3953 -0.9531
 6835SOL    HW131964   1.888   1.548   7.835  0.2705 -0.5847 -0.6914
 6835SOL    HW231965   1.967   1.448   7.894 -0.5547 -0.6031 -2.3281
 6836SOL     OW31966   3.747   1.134   4.244  0.1107  0.9001  0.2707
 6836SOL    HW131967   3.707   1.066   4.189 -0.6098  0.3353  1.4893
 6836SOL    HW231968   3.679   1.132   4.311 -2.3590  1.2124 -2.2034
 6837SOL     OW31969   3.985   3.126   1.542  0.7950  0.7030  0.0903
 6837SOL    HW131970   4.006   3.052   1.599 -2.0932  0.6767  1.0981
 6837SOL    HW231971   3.960   3.077   1.463  3.0904  0.7587 -0.6703
 6838SOL     OW31972   2.379   1.761   4.452 -0.0242 -0.0563  0.1052
 6838SOL    HW131973   2.368   1.855   4.435  0.1647  0.3780  2.3241
 6838SOL    HW231974   2.362   1.715   4.370 -0.6383 -0.9133  0.7156
 6839SOL     OW31975   3.442   3.659   4.368 -0.0265 -0.5878  0.5979
 6839SOL    HW131976   3.535   3.638   4.375  0.3609  0.4369 -1.3333
 6839SOL    HW231977   3.436   3.754   4.380 -1.0836 -0.4676 -0.8944
 6840SOL     OW31978   2.366   2.681   1.203  0.1581 -0.1308 -0.1533
 6840SOL    HW131979   2.399   2.722   1.283  1.8200  0.2717 -1.0513
 6840SOL    HW231980   2.322   2.761   1.176 -0.5698 -0.2013  0.8440
 6841SOL     OW31981   1.406   3.181   4.808 -0.2036  0.0514  0.4788
 6841SOL    HW131982   1.414   3.225   4.892 -2.7991 -0.6349  1.0807
 6841SOL    HW231983   1.342   3.229   4.755 -2.4639 -1.7738  1.6014
 6842SOL     OW31984   3.148   1.953   0.674  0.0542 -0.5391  0.2195
 6842SOL    HW131985   3.233   1.939   0.716  0.4938 -2.8483 -1.4305
 6842SOL    HW231986   3.177   1.977   0.586  0.0017  1.3590  0.7118
 6843SOL     OW31987   1.013   3.579   3.860  0.3508  0.3229  0.2356
 6843SOL    HW131988   0.965   3.551   3.782  0.5242  0.2273  0.1638
 6843SOL    HW231989   0.988   3.671   3.864 -1.1300  0.0043 -1.7083
 6844SOL     OW31990   3.520   1.432   8.203  0.5863 -0.0974  0.6436
 6844SOL    HW131991   3.491   1.418   8.294 -1.7030 -2.9860 -0.5046
 6844SOL    HW231992   3.501   1.349   8.159 -0.9054  1.2116 -1.1833
 6845SOL     OW31993   1.360   1.222  14.438  0.6267 -0.1870  0.0533
 6845SOL    HW131994   1.440   1.221  14.384  0.9834 -1.4234  0.6048
 6845SOL    HW231995   1.346   1.131  14.462  0.6867 -0.0768  0.5128
 6846SOL     OW31996   1.420   1.748   2.896 -0.6876 -0.1480  0.0115
 6846SOL    HW131997   1.370   1.671   2.869 -1.0235  1.0829 -2.8237
 6846SOL    HW231998   1.476   1.760   2.820 -1.3848  0.2392 -0.4379
 6847SOL     OW31999   3.456   2.945   4.776  0.1640 -0.3554  0.2746
 6847SOL    HW132000   3.529   2.949   4.713  1.8106  1.7401  2.3209
 6847SOL    HW232001   3.497   2.957   4.862  1.1279  1.8059 -0.4657
 6848SOL     OW32002   2.971   4.569   2.934 -0.2240  0.4455  0.1649
 6848SOL    HW132003   2.954   4.549   2.842  0.5963 -2.1335  0.5637
 6848SOL    HW232004   3.064   4.591   2.923  0.3311 -1.7605  0.4390
 6849SOL     OW32005   2.619   4.366   2.447  0.0024 -0.2012  0.1209
 6849SOL    HW132006   2.665   4.282   2.446  2.4952  1.1299  1.6130
 6849SOL    HW232007   2.679   4.410   2.387  0.7083 -0.0507  0.9221
 6850SOL     OW32008   1.982   0.587   5.994  0.4912 -0.1231 -0.9170
 6850SOL    HW132009   1.939   0.647   6.055 -0.9298 -1.7094 -0.3503
 6850SOL    HW232010   1.911   0.524   5.978 -0.1876  0.5520 -0.5934
 6851SOL     OW32011   3.671   2.749  17.060  1.0583  0.5033  0.1871
 6851SOL    HW132012   3.683   2.682  17.128 -0.1760 -0.8512 -0.9110
 6851SOL    HW232013   3.627   2.805  17.124  0.0167 -0.1241  0.0229
 6852SOL     OW32014   1.354   3.566   0.476 -0.0649  0.2441 -0.0081
 6852SOL    HW132015   1.351   3.573   0.380  2.2049 -1.2872 -0.1650
 6852SOL    HW232016   1.280   3.622   0.500  0.7067  2.0349 -1.7343
 6853SOL     OW32017   0.313   1.381   9.510 -0.5221 -0.5766  0.0782
 6853SOL    HW132018   0.281   1.467   9.482 -0.8524 -0.4393  0.8732
 6853SOL    HW232019   0.288   1.377   9.602 -0.5590 -3.4946 -0.0661
 6854SOL     OW32020   3.439   2.697   7.366  0.0649  0.1286 -0.2438
 6854SOL    HW132021   3.472   2.607   7.373 -2.9218 -0.9753 -0.3989
 6854SOL    HW232022   3.378   2.688   7.293 -0.2239 -3.1599  0.3948
 6855SOL     OW32023   0.321   0.718  17.474 -0.3204  0.0139 -0.4753
 6855SOL    HW132024   0.269   0.714  17.393 -1.3665 -1.3891  0.2555
 6855SOL    HW232025   0.261   0.749  17.542 -0.8855 -0.9001 -0.5553
 6856SOL     OW32026   1.721   2.224   2.990  0.1076 -0.7170 -0.2703
 6856SOL    HW132027   1.653   2.266   2.937  0.1080  1.3326  1.3575
 6856SOL    HW232028   1.674   2.150   3.029 -1.8816  0.9841  0.5855
 6857SOL     OW32029   3.772   0.200   3.731  0.1227  0.0792 -0.0936
 6857SOL    HW132030   3.739   0.290   3.730  2.5919  0.9540 -2.6151
 6857SOL    HW232031   3.694   0.149   3.712 -1.1926  1.5263  1.4648
 6858SOL     OW32032   3.254   4.332   4.406 -0.0137  0.1312 -0.0426
 6858SOL    HW132033   3.313   4.347   4.480  0.2185 -1.4432  0.1057
 6858SOL    HW232034   3.270   4.413   4.358  0.5672 -0.0576 -0.1738
 6859SOL     OW32035   1.513   1.129  16.253  0.2692  0.1581  0.2450
 6859SOL    HW132036   1.521   1.039  16.222  1.0282  0.8460 -1.5311
 6859SOL    HW232037   1.596   1.171  16.230 -1.1450  2.8502  0.0326
 6860SOL     OW32038   0.779   4.612   8.777 -0.0349 -0.1733 -0.0567
 6860SOL    HW132039   0.787   4.613   8.872 -2.9665 -0.2451  0.1872
 6860SOL    HW232040   0.738   4.698   8.777  0.6128  0.1365 -0.0148
 6861SOL     OW32041   2.492   2.229   7.136 -0.1471  0.9407 -0.3442
 6861SOL    HW132042   2.450   2.313   7.116 -0.4513  1.3141  1.8129
 6861SOL    HW232043   2.436   2.170   7.087 -0.8393 -0.4662  2.1723
 6862SOL     OW32044   1.115   4.633   2.176  0.7828 -0.4132  0.5433
 6862SOL    HW132045   1.160   4.666   2.255 -0.3366 -0.5086  1.2143
 6862SOL    HW232046   1.042   4.588   2.218  0.1733 -0.4456 -0.5701
 6863SOL     OW32047   4.499   1.724   7.043 -0.4220  0.6421 -0.1165
 6863SOL    HW132048   4.472   1.688   7.127  1.5824 -0.0793  0.2021
 6863SOL    HW232049   4.491   1.648   6.986  0.6813  1.2817 -1.1310
 6864SOL     OW32050   0.092   3.502  15.337  0.2431 -0.1119 -0.8036
 6864SOL    HW132051   0.147   3.443  15.285 -1.7149 -1.5292 -1.2707
 6864SOL    HW232052   0.009   3.491  15.291 -2.0283 -1.4769  3.7067
 6865SOL     OW32053   2.574   3.204  12.140  0.5954 -0.1425 -0.0680
 6865SOL    HW132054   2.563   3.224  12.233 -0.0636 -0.2442 -0.1231
 6865SOL    HW232055   2.519   3.264  12.089 -1.5714 -0.1711  2.2884
 6866SOL     OW32056   0.717   0.648   9.207 -0.1921 -0.1067 -0.0847
 6866SOL    HW132057   0.708   0.659   9.302 -0.7219  0.1052 -0.1609
 6866SOL    HW232058   0.812   0.636   9.199 -0.4364 -2.3054  0.1999
 6867SOL     OW32059   3.170   1.680   6.575 -1.0957  0.4933  0.1547
 6867SOL    HW132060   3.114   1.698   6.651 -3.4262  1.0451 -1.6742
 6867SOL    HW232061   3.099   1.654   6.517 -0.9295 -1.1168  0.6658
 6868SOL     OW32062   4.687   3.579   3.342  0.8259 -0.1766  0.4165
 6868SOL    HW132063   4.686   3.489   3.373 -1.2065 -1.0484 -2.1977
 6868SOL    HW232064   4.608   3.608   3.387  1.6448  2.0745  0.4409
 6869SOL     OW32065   3.828   2.230   3.553 -0.4415  0.7127 -0.4074
 6869SOL    HW132066   3.922   2.213   3.543 -0.5801  0.3975 -1.1914
 6869SOL    HW232067   3.808   2.205   3.644 -0.3019 -3.3094 -1.5048
 6870SOL     OW32068   0.116   0.134   0.312  0.2148 -0.1520  0.2520
 6870SOL    HW132069   0.089   0.050   0.274  2.8538 -0.0406 -1.8650
 6870SOL    HW232070   0.104   0.195   0.239 -2.1011  0.9210  1.5193
 6871SOL     OW32071   0.177   3.022  17.626 -0.1294 -0.1897 -0.4986
 6871SOL    HW132072   0.249   3.052  17.681  0.7451 -1.3546 -1.0073
 6871SOL    HW232073   0.228   2.980  17.557 -0.5360 -0.6112 -0.5505
 6872SOL     OW32074   1.978   1.017   6.038  0.1197  0.5639  0.1115
 6872SOL    HW132075   1.937   1.099   6.011  0.5571  1.5177  2.2769
 6872SOL    HW232076   1.921   0.990   6.110 -1.4766  0.1291 -1.3191
 6873SOL     OW32077   1.534   3.966   1.546 -0.1445 -0.0580  0.4339
 6873SOL    HW132078   1.622   3.989   1.577 -0.3216 -0.0451  0.9367
 6873SOL    HW232079   1.543   3.986   1.453 -1.0690  3.3036  1.0546
 6874SOL     OW32080   2.311   2.978   9.171  0.5052 -0.4591 -0.0259
 6874SOL    HW132081   2.237   3.016   9.122 -0.4675 -0.7622  1.1944
 6874SOL    HW232082   2.280   2.993   9.260  2.1834 -0.0573  0.4879
 6875SOL     OW32083   0.404   4.538   0.949 -0.5218  0.1806  0.1793
 6875SOL    HW132084   0.483   4.591   0.939 -0.8981  0.3121 -1.9647
 6875SOL    HW232085   0.391   4.551   1.043 -0.0896  0.2103  0.2389
 6876SOL     OW32086   2.969   0.179   2.060 -0.1500  0.2206  0.1057
 6876SOL    HW132087   2.939   0.256   2.108 -0.2364  0.4260 -0.2798
 6876SOL    HW232088   2.915   0.112   2.101 -0.8275  1.1033  0.6477
 6877SOL     OW32089   0.518   3.154   8.741  0.6558 -0.2641 -0.1101
 6877SOL    HW132090   0.460   3.139   8.815  0.3745  2.4795  0.2450
 6877SOL    HW232091   0.607   3.155   8.774 -0.1690 -1.0557  2.1351
 6878SOL     OW32092   2.266   3.555   3.995 -0.4495 -0.4194 -0.0088
 6878SOL    HW132093   2.265   3.471   4.041  1.6638  0.4461  1.6164
 6878SOL    HW232094   2.261   3.516   3.907 -1.3614 -0.2258 -0.0427
 6879SOL     OW32095   1.285   2.528   4.803 -0.4177 -0.6377  0.0218
 6879SOL    HW132096   1.268   2.622   4.805 -0.2891 -0.6210  0.4059
 6879SOL    HW232097   1.218   2.500   4.741  0.9394 -0.1314 -1.6700
 6880SOL     OW32098   0.306   0.733   7.829  0.4655 -0.6060 -0.4316
 6880SOL    HW132099   0.310   0.827   7.808  1.6318  0.2017  3.3983
 6880SOL    HW232100   0.267   0.700   7.748  1.8470 -0.9319 -0.9551
 6881SOL     OW32101   1.026   4.057   8.741  0.0871 -0.3162 -0.0219
 6881SOL    HW132102   1.052   4.105   8.662  2.1428 -1.0538  0.2025
 6881SOL    HW232103   0.975   4.125   8.784 -1.1626  0.1205 -2.2537
 6882SOL     OW32104   0.837   3.863   2.688  0.1544  0.1389 -1.0595
 6882SOL    HW132105   0.779   3.814   2.746  0.9490 -0.2123 -0.5651
 6882SOL    HW232106   0.805   3.855   2.598  0.0924  2.0906 -1.2131
 6883SOL     OW32107   3.862   2.175  15.939 -0.6540  0.4852 -0.1224
 6883SOL    HW132108   3.920   2.222  15.879  0.4443  0.3221  0.8082
 6883SOL    HW232109   3.922   2.173  16.014 -1.2839  1.0204  0.3992
 6884SOL     OW32110   2.187   0.381   1.089 -0.2850  0.3730  0.4757
 6884SOL    HW132111   2.238   0.317   1.140 -1.2681 -0.3037  0.6115
 6884SOL    HW232112   2.141   0.434   1.154  0.0529 -1.0214  1.8491
 6885SOL     OW32113   0.704   3.844   9.336  0.4278  0.1059  0.1543
 6885SOL    HW132114   0.700   3.754   9.369 -0.7038 -0.3538 -1.1984
 6885SOL    HW232115   0.768   3.832   9.266  1.2196 -0.6178  1.0124
 6886SOL     OW32116   3.706   2.957   7.319 -0.0348 -0.2034  0.1969
 6886SOL    HW132117   3.641   2.999   7.263  1.1311  1.5146  0.1342
 6886SOL    HW232118   3.687   2.864   7.309 -0.1408 -0.1803  0.1837
 6887SOL     OW32119   1.762   1.808   3.629  0.0932 -0.1835  0.6832
 6887SOL    HW132120   1.760   1.716   3.604 -1.2071 -0.7019  2.6889
 6887SOL    HW232121   1.817   1.844   3.559  0.8211 -1.0392  0.8174
 6888SOL     OW32122   4.047   1.032  10.289  0.5569 -0.0929 -0.2058
 6888SOL    HW132123   4.036   0.937  10.294  0.8861 -0.0995  0.4181
 6888SOL    HW232124   4.024   1.046  10.198  0.1997  2.3284  0.2564
 6889SOL     OW32125   1.143   1.488   7.345  0.3017  0.8625 -0.6179
 6889SOL    HW132126   1.236   1.509   7.354  0.3112  0.3778  0.3419
 6889SOL    HW232127   1.126   1.562   7.286  1.2164  0.1388 -1.7885
 6890SOL     OW32128   3.020   3.007   2.067 -0.5898  0.1173 -0.3038
 6890SOL    HW132129   3.112   3.003   2.039 -0.2585  0.0653  0.8085
 6890SOL    HW232130   2.989   2.917   2.066 -0.0229 -0.0857  0.3079
 6891SOL     OW32131   3.354   4.155   6.775  0.1725 -0.3068  0.0973
 6891SOL    HW132132   3.269   4.132   6.736  0.4011  0.8589 -1.1016
 6891SOL    HW232133   3.319   4.197   6.854 -0.6404  0.6079 -0.7447
 6892SOL     OW32134   3.663   3.895   1.711  0.3221  0.0605 -0.4049
 6892SOL    HW132135   3.661   3.799   1.708 -1.3301  0.1002 -0.7463
 6892SOL    HW232136   3.602   3.924   1.642  2.1062  0.7268 -1.6973
 6893SOL     OW32137   1.624   3.964   4.357 -0.2676 -0.1024 -0.1208
 6893SOL    HW132138   1.653   3.881   4.393 -1.9030 -1.1983 -1.3235
 6893SOL    HW232139   1.565   3.941   4.285 -0.4041  1.1816 -0.4316
 6894SOL     OW32140   2.729   1.780   6.174  0.4812 -0.0792  0.6902
 6894SOL    HW132141   2.633   1.782   6.170  0.4591  1.1338  1.9703
 6894SOL    HW232142   2.737   1.712   6.241 -1.7594 -1.8537 -0.8493
 6895SOL     OW32143   0.034   0.882   7.902  0.0281 -0.1565  0.0399
 6895SOL    HW132144   4.665   0.896   7.918  0.0517 -0.8200  0.7472
 6895SOL    HW232145   0.065   0.885   7.992  0.0938  0.2961 -0.0021
 6896SOL     OW32146   3.034   0.916   6.858 -0.0950  0.2181  0.3327
 6896SOL    HW132147   3.093   0.895   6.931 -0.5083  0.2089  0.6629
 6896SOL    HW232148   3.091   0.940   6.785  1.8280 -0.3154  1.6552
 6897SOL     OW32149   2.862   2.371  10.208 -0.3060 -0.8734  1.3275
 6897SOL    HW132150   2.868   2.286  10.164 -2.7621  0.2339 -1.1317
 6897SOL    HW232151   2.835   2.359  10.299 -1.1154 -3.9931  0.6794
 6898SOL     OW32152   2.559   0.593   3.360  0.1646  0.6153 -0.7898
 6898SOL    HW132153   2.635   0.542   3.333 -0.5001 -0.2907 -0.9713
 6898SOL    HW232154   2.490   0.527   3.359 -0.3695  1.1839 -1.4377
 6899SOL     OW32155   4.107   1.715   7.073 -0.6075 -0.3039  0.1880
 6899SOL    HW132156   4.021   1.688   7.040 -0.3097 -0.5813 -0.3481
 6899SOL    HW232157   4.144   1.733   6.987  0.4297  0.4539  0.7881
 6900SOL     OW32158   0.129   3.028  11.257 -0.0482  0.0981 -0.0716
 6900SOL    HW132159   0.202   3.060  11.204 -0.7099  1.5617 -0.0800
 6900SOL    HW232160   0.185   2.977  11.315  0.3042  2.3880  1.5627
 6901SOL     OW32161   0.169   4.245   2.142  0.5740 -0.3328 -0.4092
 6901SOL    HW132162   0.085   4.266   2.181  0.9401 -1.0996  0.7856
 6901SOL    HW232163   0.183   4.307   2.071  0.0474  0.7061  0.3951
 6902SOL     OW32164   2.566   0.197   8.561 -0.3722  0.1716 -0.1078
 6902SOL    HW132165   2.650   0.240   8.546  0.8488 -1.1485  2.9633
 6902SOL    HW232166   2.588   0.104   8.569 -0.3116  0.3350  1.7041
 6903SOL     OW32167   3.693   2.937  15.488  0.0214 -0.2111  0.5685
 6903SOL    HW132168   3.638   3.008  15.455  0.3136  0.3418  1.2807
 6903SOL    HW232169   3.772   2.964  15.442 -0.8788  0.8150 -0.3754
 6904SOL     OW32170   4.691   2.256   7.508 -0.0041  0.2335  0.3943
 6904SOL    HW132171   4.716   2.164   7.516 -1.8675 -0.2986  0.1547
 6904SOL    HW232172   4.603   2.256   7.546 -0.3093 -0.7844 -0.3200
 6905SOL     OW32173   1.129   1.837   1.451 -0.1489 -0.1870 -0.0483
 6905SOL    HW132174   1.051   1.823   1.398 -1.2080  0.8869  1.2250
 6905SOL    HW232175   1.129   1.933   1.457 -2.1288 -0.0917 -1.7757
 6906SOL     OW32176   0.808   0.608  17.689  0.1299 -0.5627 -0.1272
 6906SOL    HW132177   0.824   0.641   0.079  2.5700  1.0123 -1.1450
 6906SOL    HW232178   0.848   0.521   0.001 -0.2519 -1.0824 -2.9553
 6907SOL     OW32179   4.561   2.710  14.858  0.3056 -0.0435  0.0846
 6907SOL    HW132180   4.570   2.805  14.852  0.4969 -0.0010  0.9955
 6907SOL    HW232181   4.471   2.714  14.825  0.4550  2.0004 -0.0604
 6908SOL     OW32182   0.134   3.263  13.171  0.7421  0.2315  0.0535
 6908SOL    HW132183   0.086   3.340  13.201 -1.3552 -1.0780  0.0547
 6908SOL    HW232184   0.147   3.217  13.254  2.5623 -0.8075 -0.8061
 6909SOL     OW32185   1.806   3.488   7.522 -0.3355 -0.1267 -0.3154
 6909SOL    HW132186   1.881   3.435   7.494 -0.5378 -0.1593 -0.7990
 6909SOL    HW232187   1.781   3.430   7.594  1.2554  0.3654  0.6252
 6910SOL     OW32188   2.561   1.582   3.934 -0.2576  0.5635  0.2128
 6910SOL    HW132189   2.571   1.654   3.872 -0.8700 -0.8215 -1.5080
 6910SOL    HW232190   2.564   1.629   4.017  0.7488 -0.8130  0.9537
 6911SOL     OW32191   3.690   3.720   5.891  0.1282 -0.2853  0.5461
 6911SOL    HW132192   3.752   3.689   5.957  0.6676  1.6512  0.9751
 6911SOL    HW232193   3.612   3.748   5.940  0.1468  2.6088 -1.0622
 6912SOL     OW32194   3.966   1.032   0.453  0.0228 -0.1225 -0.5273
 6912SOL    HW132195   3.884   0.989   0.478  0.9244 -1.1982  0.5688
 6912SOL    HW232196   3.947   1.060   0.363  1.3136 -2.2094 -1.4506
 6913SOL     OW32197   1.463   1.081   7.036  0.0909 -0.2762 -0.2304
 6913SOL    HW132198   1.469   1.055   7.128 -1.2295  2.3577  0.5855
 6913SOL    HW232199   1.377   1.042   7.017 -0.0975 -1.1391  2.3412
 6914SOL     OW32200   1.168   0.944   7.877  0.4005 -0.0597 -0.2812
 6914SOL    HW132201   1.092   1.002   7.874  0.8092  0.4142 -1.3059
 6914SOL    HW232202   1.170   0.924   7.971 -0.9550  2.5134  0.2849
 6915SOL     OW32203   3.165   4.292   3.623 -0.2279 -0.0965 -0.2907
 6915SOL    HW132204   3.096   4.252   3.676  1.8561  0.1049  2.5190
 6915SOL    HW232205   3.225   4.306   3.696 -0.0183 -0.5725 -0.3756
 6916SOL     OW32206   1.516   2.849   7.003  0.4062  0.3905  0.4319
 6916SOL    HW132207   1.546   2.774   6.952  1.3041  1.0301  0.0204
 6916SOL    HW232208   1.563   2.914   6.952  0.7068  1.1621  1.6830
 6917SOL     OW32209   0.400   1.509   4.319 -0.5439 -0.6924  0.1916
 6917SOL    HW132210   0.364   1.597   4.316 -0.5237 -0.7272 -1.0141
 6917SOL    HW232211   0.441   1.502   4.232  1.3217  0.8261  0.9376
 6918SOL     OW32212   1.855   0.165  12.928  0.2921  0.0567  0.0634
 6918SOL    HW132213   1.851   0.101  12.857 -0.3023 -0.0785  0.2123
 6918SOL    HW232214   1.761   0.173  12.945  0.1016 -1.6902 -0.1015
 6919SOL     OW32215   1.203   3.939   3.576 -0.0304 -0.4877  0.2233
 6919SOL    HW132216   1.172   3.931   3.666  0.7585 -1.4289  0.4211
 6919SOL    HW232217   1.132   3.978   3.525  0.6870  0.4868 -0.0291
 6920SOL     OW32218   0.540   4.717   1.837 -0.1071 -0.0794  0.1075
 6920SOL    HW132219   0.453   0.032   1.832 -0.2728 -0.5584 -0.6881
 6920SOL    HW232220   0.600   0.058   1.801  0.7482 -2.0161 -1.9304
 6921SOL     OW32221   4.347   1.337   4.771 -0.2887 -0.4498  0.0885
 6921SOL    HW132222   4.403   1.339   4.849  0.0203 -0.7084 -0.1245
 6921SOL    HW232223   4.354   1.429   4.744  0.9849 -0.4596  0.3762
 6922SOL     OW32224   0.221   4.002   6.605 -0.5334  0.2061 -0.0271
 6922SOL    HW132225   0.219   3.989   6.510  0.1156 -0.9552  0.1162
 6922SOL    HW232226   0.134   3.970   6.628 -0.8197  1.2971  0.3864
 6923SOL     OW32227   2.051   0.243   3.012  0.2631 -0.6877 -0.0463
 6923SOL    HW132228   2.080   0.201   2.931  0.3345  0.3125 -0.5397
 6923SOL    HW232229   2.074   0.335   2.998 -1.1169 -0.0175  2.0935
 6924SOL     OW32230   0.762   2.114   5.519  0.1124  0.5668 -0.7546
 6924SOL    HW132231   0.756   2.197   5.566 -0.1183 -1.2637  2.4123
 6924SOL    HW232232   0.675   2.078   5.536  0.1247  0.1417 -1.5702
 6925SOL     OW32233   2.779   4.590   4.973  0.4964 -0.0755  0.1623
 6925SOL    HW132234   2.755   4.675   4.936  1.3733 -0.1971 -0.6881
 6925SOL    HW232235   2.874   4.603   4.979  0.6090 -0.7163 -0.2480
 6926SOL     OW32236   0.389   4.099  12.670 -0.0805 -0.9695 -0.0269
 6926SOL    HW132237   0.395   4.182  12.623 -2.6899 -0.4995  0.4552
 6926SOL    HW232238   0.440   4.116  12.749 -1.4621 -0.2352  0.7102
 6927SOL     OW32239   1.938   0.111   6.318  0.1275 -0.0052  0.1201
 6927SOL    HW132240   1.945   0.081   6.227  1.4051  1.3422 -0.2237
 6927SOL    HW232241   1.857   0.163   6.322  0.8233  1.4286 -4.8615
 6928SOL     OW32242   3.158   1.627   5.420 -0.4052  0.3048  0.4078
 6928SOL    HW132243   3.132   1.716   5.398 -0.6220 -0.0302 -0.6979
 6928SOL    HW232244   3.195   1.658   5.503 -0.0876  1.1528 -0.0592
 6929SOL     OW32245   0.771   0.576   1.345 -0.4662  0.0291  0.0852
 6929SOL    HW132246   0.707   0.608   1.408 -0.7293  1.8590 -1.1250
 6929SOL    HW232247   0.848   0.624   1.373 -0.5501  1.6204 -2.4097
 6930SOL     OW32248   1.678   4.676   7.101 -0.3385 -0.1193 -0.2859
 6930SOL    HW132249   1.583   4.666   7.107 -0.5333  2.5229  0.8621
 6930SOL    HW232250   1.695   4.612   7.031  1.3030  0.7777 -0.6986
 6931SOL     OW32251   0.222   2.443   0.539 -0.6118  0.1509 -0.2378
 6931SOL    HW132252   0.194   2.371   0.595  0.1690 -0.7344 -1.0005
 6931SOL    HW232253   0.309   2.412   0.516 -0.5034  0.8743 -0.8351
 6932SOL     OW32254   2.912   4.032   5.641  0.5045 -0.3660  0.2950
 6932SOL    HW132255   3.003   4.035   5.669  1.4709  1.6132 -3.0988
 6932SOL    HW232256   2.872   4.078   5.715  1.7767 -0.6506  1.1547
 6933SOL     OW32257   2.603   2.510  17.054  0.0461 -0.2797 -0.2232
 6933SOL    HW132258   2.551   2.488  16.977 -0.3379 -1.6593  0.4172
 6933SOL    HW232259   2.540   2.483  17.121 -0.0924  1.4939  0.3533
 6934SOL     OW32260   3.107   4.474   4.680  0.7763  0.0049  0.1851
 6934SOL    HW132261   3.022   4.464   4.638  0.8720 -1.7726  0.4121
 6934SOL    HW232262   3.106   4.569   4.688  3.1454  0.2493 -2.0872
 6935SOL     OW32263   4.297   0.338   4.309 -0.5968  0.3208  0.1154
 6935SOL    HW132264   4.260   0.408   4.255 -2.4768 -1.5363 -0.9955
 6935SOL    HW232265   4.294   0.378   4.396 -1.1672  0.1922  0.1512
 6936SOL     OW32266   3.102   4.161   3.086 -0.1431 -0.3899 -0.0949
 6936SOL    HW132267   3.127   4.073   3.113 -0.7875 -0.3549  0.6504
 6936SOL    HW232268   3.145   4.211   3.156  0.2270  1.3695 -1.5880
 6937SOL     OW32269   3.617   3.862   5.481 -0.0441  0.1584  0.3223
 6937SOL    HW132270   3.553   3.928   5.508 -1.8251 -2.0755  1.5703
 6937SOL    HW232271   3.676   3.917   5.429 -1.1759 -1.8417 -3.0688
 6938SOL     OW32272   1.852   2.748   6.420 -0.0397  0.3720  0.4886
 6938SOL    HW132273   1.942   2.778   6.431 -0.3149  0.4522  2.6804
 6938SOL    HW232274   1.805   2.829   6.399  1.0307  0.8045 -0.1898
 6939SOL     OW32275   4.597   1.976   9.348  0.2776 -0.0522  1.0459
 6939SOL    HW132276   4.518   2.028   9.363  0.2493  0.3015 -0.3120
 6939SOL    HW232277   4.649   2.043   9.303  1.0760 -1.6660 -0.4582
 6940SOL     OW32278   2.383   0.635  13.202 -1.1390  0.0265  0.5089
 6940SOL    HW132279   2.296   0.610  13.233 -1.1848 -1.1762 -0.5806
 6940SOL    HW232280   2.427   0.664  13.282 -0.4454 -1.2555  0.5925
 6941SOL     OW32281   2.241   4.004  10.907 -0.3263 -0.0709  0.1720
 6941SOL    HW132282   2.156   4.030  10.874  0.1844 -0.0619 -1.1307
 6941SOL    HW232283   2.216   3.954  10.985 -1.2302  1.4556  0.8784
 6942SOL     OW32284   0.800   1.568   2.449  0.0632 -0.2832  0.9024
 6942SOL    HW132285   0.776   1.571   2.357 -0.5198 -0.5957  1.0450
 6942SOL    HW232286   0.867   1.637   2.450  0.8056 -1.0017  0.5629
 6943SOL     OW32287   1.192   1.715   6.668  0.2365  0.1850  0.3207
 6943SOL    HW132288   1.236   1.635   6.698 -0.0367  0.2310  0.8496
 6943SOL    HW232289   1.245   1.731   6.591  0.7395  3.1193  1.2795
 6944SOL     OW32290   4.434   3.867  12.901 -0.1411 -0.1149  0.0926
 6944SOL    HW132291   4.470   3.881  12.988  1.6530 -0.8317 -0.5281
 6944SOL    HW232292   4.394   3.951  12.880 -0.9929 -0.6521 -0.4577
 6945SOL     OW32293   0.996   1.028  12.589 -0.2520  0.4137 -0.2011
 6945SOL    HW132294   1.009   1.116  12.624 -1.2353 -0.3377  2.0503
 6945SOL    HW232295   1.034   1.030  12.501 -1.0213 -0.2706 -0.5468
 6946SOL     OW32296   1.733   3.473  17.163  0.1092  0.1838  0.0784
 6946SOL    HW132297   1.724   3.487  17.069  0.9472  0.3017  0.0108
 6946SOL    HW232298   1.649   3.448  17.200  0.7098 -0.8462  0.7601
 6947SOL     OW32299   2.538   0.585   0.784  0.0454 -0.0764 -0.3401
 6947SOL    HW132300   2.462   0.603   0.839 -0.2024 -2.5589  0.1106
 6947SOL    HW232301   2.558   0.501   0.824  0.7866  0.0211 -0.5062
 6948SOL     OW32302   4.196   1.886   2.528 -0.4687 -0.0180 -0.1872
 6948SOL    HW132303   4.103   1.878   2.506 -0.7586 -1.2924  1.5107
 6948SOL    HW232304   4.222   1.794   2.518  2.7112  0.9633 -0.8095
 6949SOL     OW32305   2.421   0.626   7.651  0.6439  0.9544 -0.0449
 6949SOL    HW132306   2.476   0.600   7.577 -0.2406  2.0172 -1.0646
 6949SOL    HW232307   2.437   0.561   7.719  0.4529 -2.2766 -3.0873
 6950SOL     OW32308   1.632   3.820  17.654 -0.5978  0.8125 -0.8047
 6950SOL    HW132309   1.573   3.876   0.005 -1.5755  1.8348 -3.1406
 6950SOL    HW232310   1.680   3.891  17.611  0.9377 -0.1024 -0.6087
 6951SOL     OW32311   0.887   0.356   6.466 -0.2935  0.6660 -0.4037
 6951SOL    HW132312   0.962   0.296   6.463 -1.7890 -1.1317 -2.0436
 6951SOL    HW232313   0.930   0.434   6.501  2.1061  0.6564 -3.4140
 6952SOL     OW32314   3.899   4.702  17.258 -0.5496  0.0589 -0.1162
 6952SOL    HW132315   3.840   0.015  17.323 -1.2317 -0.0393 -0.6766
 6952SOL    HW232316   3.886   4.609  17.278  1.1238 -0.3907 -1.1018
 6953SOL     OW32317   1.530   2.518  17.064  0.1489  0.2471  0.3736
 6953SOL    HW132318   1.453   2.462  17.072  0.3651 -0.0655  0.2764
 6953SOL    HW232319   1.486   2.603  17.054  0.7517  0.5041 -0.0726
 6954SOL     OW32320   0.630   3.249   4.105  0.1621  0.4233 -0.0129
 6954SOL    HW132321   0.579   3.326   4.129 -1.6517 -0.2704 -1.6332
 6954SOL    HW232322   0.700   3.288   4.052 -0.4271 -2.0818 -2.6237
 6955SOL     OW32323   1.781   2.619   3.054  0.2459 -0.1200 -0.0442
 6955SOL    HW132324   1.786   2.688   2.988 -0.8550  1.5380  1.6078
 6955SOL    HW232325   1.853   2.561   3.028  0.7398  1.1408 -1.5307
 6956SOL     OW32326   0.662   1.767   5.384 -0.2049 -0.2116  0.1177
 6956SOL    HW132327   0.640   1.846   5.333 -0.3601 -1.1695 -1.3038
 6956SOL    HW232328   0.735   1.800   5.436  1.0062 -3.0878  0.2667
 6957SOL     OW32329   3.651   0.774   9.475 -0.0505 -0.5483 -0.1487
 6957SOL    HW132330   3.700   0.775   9.557 -1.1967  0.2154  0.5199
 6957SOL    HW232331   3.712   0.732   9.415  2.2728 -0.9371  2.4780
 6958SOL     OW32332   2.987   2.437   3.203 -0.4801 -0.3559  0.4121
 6958SOL    HW132333   2.963   2.529   3.190 -0.7379 -0.2897  1.3892
 6958SOL    HW232334   2.931   2.399   3.135  1.4669  0.3058 -1.5521
 6959SOL     OW32335   3.132   3.169   7.484  0.2889 -0.1119  0.0156
 6959SOL    HW132336   3.073   3.242   7.502  0.3125 -0.2471  0.6414
 6959SOL    HW232337   3.212   3.210   7.517 -0.9295  0.0723  2.7240
 6960SOL     OW32338   2.290   4.598   5.570 -0.2728 -0.7391  0.5806
 6960SOL    HW132339   2.247   4.595   5.485 -2.1494 -4.2018  1.6621
 6960SOL    HW232340   2.363   4.539   5.551  2.1222  1.6413  2.3147
 6961SOL     OW32341   2.519   2.990  13.940 -0.3259 -0.1963  0.2285
 6961SOL    HW132342   2.587   2.959  13.880  0.4762  2.2610 -0.1276
 6961SOL    HW232343   2.433   2.977  13.900  0.3569  0.1601 -1.3657
 6962SOL     OW32344   3.796   2.184   5.259 -0.2691  0.1516  0.0457
 6962SOL    HW132345   3.850   2.121   5.306 -1.0885 -0.3247  0.3369
 6962SOL    HW232346   3.706   2.165   5.286  0.4195 -0.8258  1.6312
 6963SOL     OW32347   1.437   1.933  16.828  0.5463 -0.3793 -0.4197
 6963SOL    HW132348   1.488   1.957  16.750  0.4209  0.9293 -0.0991
 6963SOL    HW232349   1.370   1.885  16.780  0.0330 -0.1595  0.0815
 6964SOL     OW32350   1.320   1.490   3.805 -0.1608  0.6016  0.0645
 6964SOL    HW132351   1.397   1.499   3.749 -0.6447  1.0821 -0.5339
 6964SOL    HW232352   1.364   1.489   3.889  0.2296  0.1893 -0.1486
 6965SOL     OW32353   3.509   1.290   3.766  0.1093  0.1964 -0.9135
 6965SOL    HW132354   3.444   1.357   3.746 -1.0725 -0.5611  0.3068
 6965SOL    HW232355   3.455   1.211   3.754 -1.7594  1.3202  0.0498
 6966SOL     OW32356   0.817   4.548   6.148  0.1330 -0.1639  0.3222
 6966SOL    HW132357   0.799   4.504   6.065  1.4090  1.1064 -0.6254
 6966SOL    HW232358   0.869   4.483   6.195  0.5735  1.1767  1.6815
 6967SOL     OW32359   4.404   2.246   4.910  0.0783  0.2007  0.0677
 6967SOL    HW132360   4.491   2.268   4.942  0.1679 -0.9216  0.5981
 6967SOL    HW232361   4.417   2.165   4.861 -2.0431  0.9783 -1.7866
 6968SOL     OW32362   4.021   2.098   4.834 -0.3053  0.4949  0.5439
 6968SOL    HW132363   4.013   2.194   4.838  2.1796  0.7359 -0.1644
 6968SOL    HW232364   4.015   2.075   4.926  1.4408 -1.3484  0.2032
 6969SOL     OW32365   3.609   0.364   9.388 -0.1735  0.1577  0.0190
 6969SOL    HW132366   3.577   0.274   9.387 -1.0235  0.4077  2.8305
 6969SOL    HW232367   3.590   0.392   9.478 -1.4290  2.3721 -0.9413
 6970SOL     OW32368   1.274   1.447   2.104 -0.1046  0.0187 -0.2586
 6970SOL    HW132369   1.187   1.473   2.133 -1.0419 -0.4421 -2.6421
 6970SOL    HW232370   1.286   1.482   2.016 -3.0945  0.0686 -0.6558
 6971SOL     OW32371   3.956   4.451   8.121 -0.7710  0.2657  0.0929
 6971SOL    HW132372   3.976   4.418   8.209  1.4511 -1.0780 -0.9464
 6971SOL    HW232373   3.886   4.390   8.098  1.0647 -0.8731 -2.2991
 6972SOL     OW32374   4.224   2.701   6.512 -0.0823  0.2473  0.0246
 6972SOL    HW132375   4.298   2.644   6.534 -0.4973 -0.0676  0.5894
 6972SOL    HW232376   4.151   2.640   6.520 -0.5135  0.8892  0.9553
 6973SOL     OW32377   3.212   3.528  12.583 -0.4233 -0.6802 -0.5834
 6973SOL    HW132378   3.304   3.552  12.577 -1.0997  2.1928  0.4453
 6973SOL    HW232379   3.161   3.601  12.548  0.8467  0.2163 -0.5617
 6974SOL     OW32380   3.039   3.724  12.480  0.6516  0.8938  0.1383
 6974SOL    HW132381   2.981   3.783  12.528  2.0075  2.1146  0.2648
 6974SOL    HW232382   2.991   3.725  12.397 -1.6645  0.0993  1.4546
 6975SOL     OW32383   3.082   0.517  13.295  0.4318 -0.1686  0.1256
 6975SOL    HW132384   3.018   0.584  13.320 -1.0557 -1.9204  0.9885
 6975SOL    HW232385   3.071   0.473  13.379  2.6779 -1.4142 -0.2503
 6976SOL     OW32386   1.353   3.731   4.486  0.4580  0.4547  0.2145
 6976SOL    HW132387   1.416   3.704   4.418 -3.0648 -0.4585 -2.6797
 6976SOL    HW232388   1.279   3.746   4.428  0.6085 -0.3747 -0.2025
 6977SOL     OW32389   0.517   0.058   5.474  0.0114  0.6683 -0.0835
 6977SOL    HW132390   0.462   0.012   5.411  2.1291 -2.3125  0.2601
 6977SOL    HW232391   0.480   0.144   5.493  2.0204  1.5882 -0.3731
 6978SOL     OW32392   0.917   2.661   7.008 -0.0862  0.2331 -0.5799
 6978SOL    HW132393   0.988   2.662   7.073 -0.9317 -0.1095  0.3454
 6978SOL    HW232394   0.856   2.727   7.042 -2.2537 -0.3048 -3.4118
 6979SOL     OW32395   4.634   0.059   4.401  0.0007  0.2578  0.1452
 6979SOL    HW132396   4.597   0.075   4.488  2.7997 -0.5629  1.4948
 6979SOL    HW232397   4.627   0.142   4.353  2.0139 -0.1010 -0.7789
 6980SOL     OW32398   4.194   0.482   9.022  0.1692  0.3231 -0.1468
 6980SOL    HW132399   4.237   0.446   8.944  2.9079  1.0080  1.0441
 6980SOL    HW232400   4.268   0.538   9.045  0.3629 -0.5378  1.3340
 6981SOL     OW32401   3.245   2.268   6.826  0.1863  0.4364 -0.3702
 6981SOL    HW132402   3.278   2.243   6.740 -2.8650 -0.2655 -1.3388
 6981SOL    HW232403   3.320   2.235   6.876 -0.1356  0.6195  0.2257
 6982SOL     OW32404   4.312   2.665   7.695  0.2773 -0.4810  0.0895
 6982SOL    HW132405   4.312   2.586   7.640  0.8162 -0.0524 -0.5323
 6982SOL    HW232406   4.219   2.682   7.709  0.7907 -0.3679  3.2577
 6983SOL     OW32407   1.053   3.462   7.815 -0.2400 -0.3606  0.0041
 6983SOL    HW132408   1.142   3.438   7.842 -0.8292 -1.5391  0.9655
 6983SOL    HW232409   1.071   3.537   7.759 -2.3289  0.1610  0.0327
 6984SOL     OW32410   4.021   2.407   3.952  0.1071  0.2474 -0.2536
 6984SOL    HW132411   3.991   2.492   3.983  0.2393 -0.0090  0.5967
 6984SOL    HW232412   4.113   2.420   3.932 -0.0509  1.2997 -0.3110
 6985SOL     OW32413   2.168   2.135   3.327  0.3624  0.5126 -0.2499
 6985SOL    HW132414   2.186   2.229   3.336 -2.2791  0.8755  1.2084
 6985SOL    HW232415   2.081   2.147   3.290  0.7012  4.5524  0.2669
 6986SOL     OW32416   0.070   0.171  13.177  0.1099 -0.1406  0.4719
 6986SOL    HW132417   0.097   0.209  13.260  1.1172  0.0925  0.0316
 6986SOL    HW232418   0.149   0.123  13.152 -0.1095  0.3405 -1.1405
 6987SOL     OW32419   1.472   0.574   4.581 -0.4351  0.6457  0.4085
 6987SOL    HW132420   1.492   0.600   4.491  2.9474 -1.4028  0.5799
 6987SOL    HW232421   1.532   0.624   4.636  3.4564 -2.1622 -1.2562
 6988SOL     OW32422   1.837   3.996  13.818 -0.5365  0.1122  0.0163
 6988SOL    HW132423   1.864   4.015  13.908 -1.9937 -0.3818  0.5727
 6988SOL    HW232424   1.810   3.904  13.821 -0.4984  0.0991 -0.0591
 6989SOL     OW32425   1.762   1.388   8.453  0.2395 -0.6356  0.1139
 6989SOL    HW132426   1.690   1.393   8.516  1.0164 -1.0025  1.0357
 6989SOL    HW232427   1.712   1.420   8.378 -1.2171  0.1538  1.4212
 6990SOL     OW32428   2.572   3.030   8.981 -0.0252 -0.1711 -0.1832
 6990SOL    HW132429   2.489   2.997   9.014  0.0862  1.1099  1.3648
 6990SOL    HW232430   2.569   2.981   8.899  1.5429 -0.0616 -0.3061
 6991SOL     OW32431   0.023   3.978   8.810 -0.4299 -0.6706  0.3420
 6991SOL    HW132432   0.099   3.967   8.867 -2.4251 -1.9686  2.7189
 6991SOL    HW232433   4.723   4.070   8.825  1.6987 -0.0117 -0.1627
 6992SOL     OW32434   0.002   2.736  14.033 -0.0281  0.4160  0.0016
 6992SOL    HW132435   4.717   2.680  14.110  0.8463  0.2427 -0.0203
 6992SOL    HW232436   0.093   2.764  14.029  0.6539 -1.9143 -1.1450
 6993SOL     OW32437   3.898   4.405   5.996  0.1232 -0.2455 -0.7932
 6993SOL    HW132438   3.924   4.402   6.088 -1.0474 -2.5384 -0.5296
 6993SOL    HW232439   3.951   4.330   5.968  2.6171  0.5467  1.7426
 6994SOL     OW32440   2.433   4.606   4.740  0.0985 -0.1110  0.1654
 6994SOL    HW132441   2.460   4.665   4.670 -1.3696 -0.9284 -1.0701
 6994SOL    HW232442   2.455   4.655   4.820  2.1672  0.0674 -0.5104
 6995SOL     OW32443   3.813   2.582   0.028  0.0410  0.0308  0.8004
 6995SOL    HW132444   3.786   2.566   0.119  1.7534 -1.2764  1.0961
 6995SOL    HW232445   3.908   2.568   0.032 -0.0284 -0.8969 -0.9866
 6996SOL     OW32446   4.551   4.354   4.903 -0.2190  0.0495  0.0763
 6996SOL    HW132447   4.560   4.259   4.912  0.4678  0.0490 -0.6596
 6996SOL    HW232448   4.593   4.371   4.818 -1.4406  0.4603 -0.4429
 6997SOL     OW32449   2.903   4.418   7.795 -0.5555 -0.5375 -0.1663
 6997SOL    HW132450   2.810   4.443   7.793 -0.6079 -0.9005 -4.0131
 6997SOL    HW232451   2.940   4.506   7.801  0.5622 -1.0823  0.9635
 6998SOL     OW32452   0.777   2.841   6.362  0.0022  0.1878  0.3906
 6998SOL    HW132453   0.762   2.763   6.415 -0.6228 -0.6253 -0.9588
 6998SOL    HW232454   0.836   2.884   6.423 -2.4804  0.8546  2.3149
 6999SOL     OW32455   0.415   4.575  15.542 -0.4571  0.0400 -0.0879
 6999SOL    HW132456   0.502   4.537  15.531  0.7300  2.6227  0.2739
 6999SOL    HW232457   0.373   4.514  15.602 -0.4902 -0.4556 -0.6187
 7000SOL     OW32458   0.489   0.562   9.106 -0.0973 -0.5164 -0.3478
 7000SOL    HW132459   0.422   0.628   9.122 -0.1935 -0.3560 -1.3848
 7000SOL    HW232460   0.571   0.584   9.151  1.0376  0.1587 -2.7300
 7001SOL     OW32461   4.362   0.369   6.273 -0.0330  0.2921  0.2059
 7001SOL    HW132462   4.355   0.285   6.318 -0.7594 -0.9097 -2.1116
 7001SOL    HW232463   4.409   0.341   6.194  0.1973  1.1877  0.0229
 7002SOL     OW32464   1.839   0.483  14.005  0.0607 -0.3590 -0.4436
 7002SOL    HW132465   1.890   0.484  13.924 -1.0554  3.1438 -1.1366
 7002SOL    HW232466   1.882   0.420  14.062 -0.1031 -1.0570 -1.1019
 7003SOL     OW32467   4.238   1.063   2.410  0.5237  0.0357  0.1870
 7003SOL    HW132468   4.192   1.127   2.357  0.9677  0.5087  0.3823
 7003SOL    HW232469   4.159   1.016   2.439  0.4541  0.2516  0.3448
 7004SOL     OW32470   1.435   2.702   7.704 -0.1257  0.2254 -0.4567
 7004SOL    HW132471   1.353   2.746   7.726 -0.4417  1.2921 -3.7475
 7004SOL    HW232472   1.480   2.781   7.675  1.1676 -0.4804 -0.3632
 7005SOL     OW32473   0.667   0.242   3.257 -0.4122 -0.6830  0.4486
 7005SOL    HW132474   0.619   0.197   3.187  0.6722  1.9034 -1.9703
 7005SOL    HW232475   0.690   0.174   3.320  0.0318 -0.1588  0.8490
 7006SOL     OW32476   4.587   2.213   6.988 -0.4405  0.3887  0.0599
 7006SOL    HW132477   4.608   2.205   6.895  2.7671  1.7578  0.6998
 7006SOL    HW232478   4.539   2.296   6.986 -0.1661  0.6261  4.0578
 7007SOL     OW32479   1.652   2.255  13.555  0.2992  0.2434 -0.4149
 7007SOL    HW132480   1.596   2.328  13.584  1.7199  0.9807  0.5181
 7007SOL    HW232481   1.611   2.184  13.604 -2.1700  1.9259  0.0091
 7008SOL     OW32482   3.167   2.501  12.120  0.0141 -0.6633 -0.1154
 7008SOL    HW132483   3.159   2.583  12.072 -1.0438 -1.1423 -0.7293
 7008SOL    HW232484   3.261   2.485  12.111 -0.1261 -1.0364 -0.8879
 7009SOL     OW32485   3.556   4.216  13.942 -0.1285  0.3814  0.9538
 7009SOL    HW132486   3.633   4.270  13.955  1.4145 -1.2424 -1.4253
 7009SOL    HW232487   3.584   4.191  13.854  0.8338  0.8844  1.1221
 7010SOL     OW32488   1.804   1.171   5.884  0.4680 -0.4456 -0.0415
 7010SOL    HW132489   1.726   1.131   5.847 -0.3997 -0.0745  1.4005
 7010SOL    HW232490   1.760   1.255   5.896  1.8879  0.1172  1.2253
 7011SOL     OW32491   1.632   4.305  10.968 -0.7516  0.3685 -0.7050
 7011SOL    HW132492   1.567   4.306  11.038 -0.1234  1.2428 -0.1336
 7011SOL    HW232493   1.680   4.226  10.994 -1.4292 -0.1205 -0.9315
 7012SOL     OW32494   4.387   0.102   8.240 -0.2295  0.2747 -0.3195
 7012SOL    HW132495   4.381   0.196   8.254  0.0559  0.7046 -3.0191
 7012SOL    HW232496   4.342   0.099   8.155  0.3298 -0.1887 -0.6013
 7013SOL     OW32497   2.216   1.526   7.093 -0.2215  0.2140 -0.4436
 7013SOL    HW132498   2.160   1.503   7.167 -1.1302  1.6451 -0.6779
 7013SOL    HW232499   2.208   1.440   7.052  0.2582  1.9226 -4.1030
 7014SOL     OW32500   0.727   3.843   4.356 -0.5814  0.0850  0.4289
 7014SOL    HW132501   0.642   3.852   4.313 -1.7898 -0.7934  2.5781
 7014SOL    HW232502   0.736   3.911   4.423  1.3651 -0.2520  0.4969
 7015SOL     OW32503   2.530   0.928  16.124 -0.8989 -0.3987 -0.1451
 7015SOL    HW132504   2.525   0.836  16.147  1.1935 -0.2623  0.8487
 7015SOL    HW232505   2.546   0.966  16.210 -0.5226  0.0259 -0.4026
 7016SOL     OW32506   3.942   2.660   4.058 -0.1572  0.0984 -0.2003
 7016SOL    HW132507   3.870   2.650   4.120  0.0346 -1.9997 -0.3148
 7016SOL    HW232508   4.010   2.663   4.126 -0.5557  1.7736  0.1251
 7017SOL     OW32509   3.057   4.289   8.656 -0.4484 -0.3747 -0.3474
 7017SOL    HW132510   3.056   4.383   8.641 -2.1603 -0.5269 -1.2790
 7017SOL    HW232511   3.023   4.250   8.575  0.5362 -0.0483 -0.9078
 7018SOL     OW32512   3.854   3.436   5.972 -0.0095  0.5586  0.3323
 7018SOL    HW132513   3.911   3.462   6.043  2.1637 -0.4779 -1.0436
 7018SOL    HW232514   3.770   3.458   6.012  0.2166  1.8788  0.0759
 7019SOL     OW32515   0.971   1.798  16.538  0.0167  0.5349 -0.4333
 7019SOL    HW132516   0.924   1.759  16.612  1.6088 -0.3448  0.1205
 7019SOL    HW232517   0.919   1.878  16.531  0.1720  0.7231  0.5317
 7020SOL     OW32518   0.168   2.028   9.491  0.0977  0.2807 -0.7353
 7020SOL    HW132519   0.134   2.102   9.441 -0.5472 -0.8654 -1.9894
 7020SOL    HW232520   0.258   2.059   9.503 -0.2229  0.8845  0.1110
 7021SOL     OW32521   1.635   3.500   8.965  0.1887  0.1221 -0.0759
 7021SOL    HW132522   1.550   3.460   8.981  0.4256 -0.5595 -0.5730
 7021SOL    HW232523   1.633   3.554   9.045 -1.8726  0.1273 -0.1339
 7022SOL     OW32524   2.256   1.321  16.648 -0.0769  0.2819 -0.0331
 7022SOL    HW132525   2.343   1.282  16.642 -0.1396  0.4338 -1.9786
 7022SOL    HW232526   2.261   1.398  16.704 -0.5021  0.0380  0.3493
 7023SOL     OW32527   0.790   0.359  10.589  0.9339  0.1115  0.7950
 7023SOL    HW132528   0.761   0.311  10.667  1.1764 -0.8698  0.2858
 7023SOL    HW232529   0.719   0.423  10.581  0.7430 -0.2048 -0.1347
 7024SOL     OW32530   2.489   2.084   3.728 -0.1100  0.0191 -0.2116
 7024SOL    HW132531   2.459   2.081   3.637 -0.7758  1.9829 -0.0547
 7024SOL    HW232532   2.407   2.052   3.765 -0.7058 -1.2502 -2.6292
 7025SOL     OW32533   2.959   3.401  13.521 -0.5835  0.9627  0.3563
 7025SOL    HW132534   2.865   3.413  13.534 -1.1522 -2.0064 -0.9849
 7025SOL    HW232535   3.004   3.479  13.553 -1.1127  1.4008  0.0341
 7026SOL     OW32536   0.393   2.540  11.314 -0.9987  0.0769  0.0429
 7026SOL    HW132537   0.337   2.568  11.242  1.4027  1.3851 -1.2936
 7026SOL    HW232538   0.358   2.452  11.330 -0.9702  0.2633  1.1745
 7027SOL     OW32539   2.798   1.079   6.826 -0.4622 -0.2778  0.4652
 7027SOL    HW132540   2.739   1.004   6.828 -1.7989  0.7563 -1.2673
 7027SOL    HW232541   2.887   1.042   6.829 -0.6430 -0.7069  0.5388
 7028SOL     OW32542   3.937   3.183   7.469 -0.8976 -0.4881 -0.2624
 7028SOL    HW132543   4.009   3.232   7.509 -1.1778 -0.5441  0.3062
 7028SOL    HW232544   3.915   3.234   7.391 -1.4981  0.4896  0.5373
 7029SOL     OW32545   2.728   3.048   5.643  0.2114  0.7722  0.1220
 7029SOL    HW132546   2.717   3.141   5.626 -0.9072  0.8784  1.4470
 7029SOL    HW232547   2.756   3.005   5.562  1.2617  0.7654  0.4910
 7030SOL     OW32548   0.718   4.651   7.592 -0.1046  0.0961  0.3975
 7030SOL    HW132549   0.654   4.618   7.530 -0.4381  0.3797  0.5852
 7030SOL    HW232550   0.761   4.568   7.611 -1.8075 -0.3456  2.3938
 7031SOL     OW32551   3.052   1.326   7.504  0.4365 -0.4468  0.4911
 7031SOL    HW132552   2.971   1.308   7.552 -0.5213  2.2680 -0.1060
 7031SOL    HW232553   3.016   1.358   7.422 -0.1535  3.3963  2.2095
 7032SOL     OW32554   2.093   3.678   5.566  0.0259  0.2889 -0.4326
 7032SOL    HW132555   2.145   3.698   5.488  1.5523  1.8327  0.9667
 7032SOL    HW232556   2.127   3.595   5.599 -1.1795  0.5000  1.3517
 7033SOL     OW32557   3.845   3.163  16.204  1.3681 -0.3398 -0.1336
 7033SOL    HW132558   3.779   3.192  16.141  0.3348 -1.7731  0.2927
 7033SOL    HW232559   3.931   3.175  16.163  1.0848 -0.2709 -0.7125
 7034SOL     OW32560   0.669   2.674   4.356 -0.4517 -0.3664 -0.0017
 7034SOL    HW132561   0.705   2.610   4.295 -1.4959  0.4361 -1.4586
 7034SOL    HW232562   0.605   2.715   4.297 -0.7478  1.4224  1.5651
 7035SOL     OW32563   1.973   2.636   8.648  0.8352  0.4710  0.1752
 7035SOL    HW132564   2.004   2.718   8.610 -1.3799  0.7963 -0.9465
 7035SOL    HW232565   2.016   2.642   8.733  0.1956  1.5857  0.4165
 7036SOL     OW32566   1.149   3.662   7.667 -0.1116 -0.2817  0.6119
 7036SOL    HW132567   1.140   3.757   7.680  0.2354  0.1434 -2.3202
 7036SOL    HW232568   1.238   3.648   7.700  0.3008  0.0689 -0.3556
 7037SOL     OW32569   3.682   1.625   2.187  0.1893  0.0153  0.4850
 7037SOL    HW132570   3.669   1.703   2.240 -0.0461  1.0138 -1.0333
 7037SOL    HW232571   3.593   1.601   2.162 -0.7843  1.1459  2.8563
 7038SOL     OW32572   3.369   3.875  17.398 -0.1114 -0.3791 -0.1353
 7038SOL    HW132573   3.391   3.791  17.357  1.6627 -0.1161  0.2496
 7038SOL    HW232574   3.451   3.925  17.391 -0.1916 -0.1762  0.4241
 7039SOL     OW32575   1.543   4.535   7.657  0.2404  0.6077 -0.2157
 7039SOL    HW132576   1.594   4.530   7.738  0.1582  0.0939 -0.1959
 7039SOL    HW232577   1.502   4.621   7.655  2.1566  1.4864 -1.2989
 7040SOL     OW32578   4.688   2.237   3.094  0.3824 -0.8731 -0.0464
 7040SOL    HW132579   0.020   2.199   3.026 -0.4978 -1.2252 -0.5872
 7040SOL    HW232580   4.609   2.233   3.040 -0.1867 -3.1107  0.9347
 7041SOL     OW32581   3.647   0.834   6.083  0.0580  0.3956 -0.2015
 7041SOL    HW132582   3.639   0.765   6.018  2.1800  0.8761 -0.9807
 7041SOL    HW232583   3.710   0.793   6.144 -0.3132  1.5809  0.9844
 7042SOL     OW32584   2.416   3.484  15.109 -0.5229 -0.2309  0.3526
 7042SOL    HW132585   2.480   3.511  15.043 -1.3237 -0.0693 -0.3681
 7042SOL    HW232586   2.355   3.557  15.096 -1.2874 -0.4982  2.5540
 7043SOL     OW32587   3.362   1.277   6.168  0.3447  0.3211  0.1687
 7043SOL    HW132588   3.376   1.184   6.150  1.7619  0.2940  1.4185
 7043SOL    HW232589   3.454   1.301   6.175  1.3580 -3.1365 -1.4257
 7044SOL     OW32590   4.382   2.210   2.337 -0.4528  0.5173  0.3029
 7044SOL    HW132591   4.457   2.269   2.347  1.2787 -1.7439  0.6712
 7044SOL    HW232592   4.418   2.138   2.285  0.4037  0.1817  1.3441
 7045SOL     OW32593   2.567   0.271  14.802 -0.0939 -0.3668  0.0256
 7045SOL    HW132594   2.542   0.257  14.711  2.2383  0.0309 -0.6576
 7045SOL    HW232595   2.661   0.260  14.788 -0.4130 -0.1269 -2.2042
 7046SOL     OW32596   0.677   3.124   7.653 -0.7770 -0.2549  0.7394
 7046SOL    HW132597   0.748   3.114   7.589 -0.9631 -2.0989  0.8322
 7046SOL    HW232598   0.738   3.151   7.721  0.6919 -0.4235 -0.5117
 7047SOL     OW32599   3.985   2.060   3.320 -0.2888 -0.0934  0.5586
 7047SOL    HW132600   3.985   2.154   3.333  0.4847 -0.0361  0.0943
 7047SOL    HW232601   3.899   2.058   3.278  0.4297  0.2187 -0.9176
 7048SOL     OW32602   2.740   2.784  17.096 -0.2514  0.5722 -0.0064
 7048SOL    HW132603   2.681   2.808  17.167 -1.9803  0.3224 -1.3503
 7048SOL    HW232604   2.710   2.695  17.077 -0.3364  1.0510 -2.1165
 7049SOL     OW32605   1.463   0.863   1.577  0.1646  0.8069  0.2712
 7049SOL    HW132606   1.405   0.788   1.592  2.0558 -0.9840 -1.4224
 7049SOL    HW232607   1.509   0.866   1.661 -1.3187 -1.9735  1.1934
 7050SOL     OW32608   1.357   1.906   6.088  0.8231  0.0113 -0.7216
 7050SOL    HW132609   1.440   1.913   6.042  1.0477 -1.8245 -0.5651
 7050SOL    HW232610   1.308   1.863   6.018  0.4135 -1.7738  0.6515
 7051SOL     OW32611   4.145   1.054   5.778 -0.5607 -0.3664 -0.4143
 7051SOL    HW132612   4.176   0.971   5.814 -0.5571 -0.0980  0.2063
 7051SOL    HW232613   4.211   1.105   5.823  1.0162 -1.1350 -1.8634
 7052SOL     OW32614   1.566   1.740  11.459 -0.5310 -0.3037  0.0820
 7052SOL    HW132615   1.581   1.801  11.532  5.2541 -2.4634  0.6797
 7052SOL    HW232616   1.615   1.785  11.391  0.4462 -1.0327  0.3013
 7053SOL     OW32617   2.099   2.123  10.649 -0.4846  0.1420  0.1437
 7053SOL    HW132618   2.031   2.110  10.583 -2.5501  0.7766  2.1871
 7053SOL    HW232619   2.173   2.110  10.589 -0.3019 -0.3161  0.4640
 7054SOL     OW32620   4.556   4.508   4.594 -0.4595  0.0099  0.1097
 7054SOL    HW132621   4.630   4.461   4.556 -0.1204  0.9172 -0.3562
 7054SOL    HW232622   4.477   4.468   4.559  0.4083 -2.5770  1.1591
 7055SOL     OW32623   0.971   3.155   5.446  0.2360 -0.1349 -0.2197
 7055SOL    HW132624   0.936   3.191   5.527  0.2612 -0.9825  0.1700
 7055SOL    HW232625   0.898   3.133   5.388  0.2385 -0.5921 -0.0510
 7056SOL     OW32626   1.299   4.450   6.981 -0.4283  0.2646  0.4028
 7056SOL    HW132627   1.334   4.466   7.068  2.7484 -2.4349 -0.3614
 7056SOL    HW232628   1.368   4.391   6.951 -0.0969  0.8373  0.0375
 7057SOL     OW32629   1.936   1.263  10.982 -0.0268  0.0199  0.0714
 7057SOL    HW132630   1.992   1.318  10.926 -1.5574  1.7169  0.2269
 7057SOL    HW232631   1.981   1.178  10.986 -0.5749 -0.1454  2.7299
 7058SOL     OW32632   1.889   2.027   7.169 -0.1510 -0.0739  0.0127
 7058SOL    HW132633   1.853   2.074   7.244  1.4733  0.5492  0.3922
 7058SOL    HW232634   1.820   1.964   7.148  1.6297 -1.7026 -0.9708
 7059SOL     OW32635   3.641   1.937   8.494  0.3044 -0.1000 -0.1954
 7059SOL    HW132636   3.628   2.032   8.484 -0.6226 -0.2547 -0.4460
 7059SOL    HW232637   3.568   1.899   8.444 -0.0784  0.1334  0.1846
 7060SOL     OW32638   1.282   2.225   9.710 -0.4929 -0.3920 -0.2723
 7060SOL    HW132639   1.265   2.274   9.790 -1.0249  1.1950 -1.3480
 7060SOL    HW232640   1.372   2.194   9.724 -0.3031  1.1583  1.8973
 7061SOL     OW32641   3.533   0.709   4.749  0.1173 -0.2600  0.1048
 7061SOL    HW132642   3.619   0.675   4.773 -0.0862 -0.1769  0.9670
 7061SOL    HW232643   3.559   0.801   4.754 -1.5186  0.2827 -1.1402
 7062SOL     OW32644   4.132   2.081  11.718 -0.4366  0.9013 -0.4235
 7062SOL    HW132645   4.090   1.996  11.723 -0.6127  0.9921 -0.3461
 7062SOL    HW232646   4.192   2.079  11.792 -0.6930 -2.3609 -0.3158
 7063SOL     OW32647   4.096   4.561   3.180  0.6339 -0.3831  0.5944
 7063SOL    HW132648   4.121   4.581   3.090 -0.5561 -2.2734 -0.1724
 7063SOL    HW232649   4.119   4.468   3.181 -0.4092 -0.6337  1.3806
 7064SOL     OW32650   0.794   4.372   7.494  0.1358 -0.0975 -0.0276
 7064SOL    HW132651   0.875   4.424   7.498 -0.3558  0.5058  2.0485
 7064SOL    HW232652   0.802   4.341   7.404  1.2217  0.9628 -0.3075
 7065SOL     OW32653   1.123   1.144   8.637  0.5084  0.0496  0.1830
 7065SOL    HW132654   1.179   1.217   8.664 -1.8405  1.4297  1.2981
 7065SOL    HW232655   1.115   1.098   8.720  1.9075  0.3773  0.5109
 7066SOL     OW32656   0.618   2.594   8.344 -0.8495 -0.4330 -0.1676
 7066SOL    HW132657   0.667   2.577   8.264  1.3410 -0.7038  1.2437
 7066SOL    HW232658   0.665   2.665   8.387  1.1186 -0.0471 -2.9820
 7067SOL     OW32659   2.354   3.637  12.044 -0.1909  0.1288 -0.2028
 7067SOL    HW132660   2.380   3.726  12.022  1.0251  0.3873  2.3132
 7067SOL    HW232661   2.278   3.626  11.986  1.0188  1.3199 -2.0223
 7068SOL     OW32662   3.740   3.123  15.713 -0.8332 -0.1234  0.4878
 7068SOL    HW132663   3.815   3.068  15.735 -0.2938  0.5588  0.3494
 7068SOL    HW232664   3.689   3.064  15.657 -1.0347  0.8017 -0.3005
 7069SOL     OW32665   3.548   3.233   6.416 -0.0102 -0.0255 -0.1232
 7069SOL    HW132666   3.474   3.180   6.384 -0.4431 -0.6928  2.0322
 7069SOL    HW232667   3.498   3.305   6.454  0.4607 -0.1689  0.7555
 7070SOL     OW32668   3.789   0.765   9.001 -0.0501 -0.2379  0.0203
 7070SOL    HW132669   3.772   0.719   9.083 -0.4528  1.8053  1.0800
 7070SOL    HW232670   3.884   0.771   9.013 -0.0437  1.1432 -0.6959
 7071SOL     OW32671   2.959   3.495   9.677 -0.5102  0.3907 -0.2557
 7071SOL    HW132672   2.952   3.404   9.650  0.3741  0.8503 -2.0024
 7071SOL    HW232673   2.909   3.547   9.615  1.6808  1.0624 -1.4877
 7072SOL     OW32674   4.722   4.139   6.370  0.3930 -0.5286  0.2458
 7072SOL    HW132675   4.639   4.112   6.332  0.8165 -0.2730 -0.8639
 7072SOL    HW232676   0.041   4.055   6.354 -0.9253 -1.1830  0.1930
 7073SOL     OW32677   0.600   3.060  12.708  0.2637 -0.1767  0.3438
 7073SOL    HW132678   0.555   3.085  12.627 -2.7079 -1.9859  1.4074
 7073SOL    HW232679   0.636   3.142  12.742 -0.9491  0.7718 -0.6363
 7074SOL     OW32680   0.213   1.526  11.438  0.3036 -0.2318 -0.1153
 7074SOL    HW132681   0.130   1.499  11.400 -1.1334  1.3986  1.8106
 7074SOL    HW232682   0.198   1.527  11.533 -0.6064 -1.7513 -0.2500
 7075SOL     OW32683   3.910   3.474  15.577 -0.3942  0.0246  0.5770
 7075SOL    HW132684   3.947   3.402  15.528  2.0501  2.2489 -0.8394
 7075SOL    HW232685   3.943   3.466  15.666 -0.1915 -1.2861  0.3770
 7076SOL     OW32686   0.114   0.138   6.433 -0.0875 -0.0534 -0.1890
 7076SOL    HW132687   0.145   0.047   6.434 -0.7383 -0.2696  0.1908
 7076SOL    HW232688   0.050   0.118   6.365  0.2213  0.4846 -0.6303
 7077SOL     OW32689   4.020   1.614   8.492 -0.3229 -0.3860 -0.1690
 7077SOL    HW132690   3.933   1.638   8.525  1.1213  2.7345  1.4218
 7077SOL    HW232691   4.023   1.523   8.521 -0.3738 -0.2606  0.2358
 7078SOL     OW32692   1.483   4.018   7.943 -0.1695 -0.1656 -0.1759
 7078SOL    HW132693   1.556   4.042   8.000  0.0571  0.3596 -0.6951
 7078SOL    HW232694   1.465   3.924   7.942  0.7848 -0.3644  1.0710
 7079SOL     OW32695   3.057   2.837   5.565 -0.2115  0.2917 -0.3438
 7079SOL    HW132696   3.113   2.763   5.541 -0.0264  0.1250  0.6341
 7079SOL    HW232697   2.976   2.786   5.552  0.3424 -0.5270 -0.6368
 7080SOL     OW32698   2.672   0.988   3.218  0.2497 -0.4759 -0.0113
 7080SOL    HW132699   2.665   0.958   3.309  3.7133 -0.0772  0.3698
 7080SOL    HW232700   2.762   1.020   3.213  0.1441 -0.6965 -3.0664
 7081SOL     OW32701   0.512   0.445   5.730  0.1961 -0.1478  0.5519
 7081SOL    HW132702   0.516   0.531   5.773 -0.8227 -0.4567  1.2641
 7081SOL    HW232703   0.522   0.382   5.801  2.6106 -1.2613 -0.8069
 7082SOL     OW32704   2.169   3.950   8.673  0.0325 -0.1193  0.1005
 7082SOL    HW132705   2.086   3.903   8.671  1.3604 -2.4226 -0.6308
 7082SOL    HW232706   2.166   3.973   8.766 -0.1232  0.6682 -0.0923
 7083SOL     OW32707   4.218   3.032  11.333 -0.4672 -0.0970 -0.5602
 7083SOL    HW132708   4.196   2.982  11.412 -3.3897 -0.5362 -1.6715
 7083SOL    HW232709   4.215   3.124  11.361 -2.4655 -0.0683 -0.8975
 7084SOL     OW32710   3.125   4.370   2.249 -0.0487 -0.3795  0.2601
 7084SOL    HW132711   3.163   4.418   2.322  2.2108  0.4965 -1.4737
 7084SOL    HW232712   3.200   4.329   2.205  0.3160 -2.5745  2.9195
 7085SOL     OW32713   3.295   0.128   7.023 -0.0984 -0.2280  0.2046
 7085SOL    HW132714   3.230   0.130   6.954  1.8935 -0.7279 -1.6807
 7085SOL    HW232715   3.340   0.212   7.014  1.2641 -1.0043 -0.1951
 7086SOL     OW32716   4.452   1.485   4.542  0.0625  0.1755  0.3417
 7086SOL    HW132717   4.411   1.454   4.461  1.8657 -1.4540  0.0541
 7086SOL    HW232718   4.543   1.457   4.531 -0.2824 -1.1155  0.8234
 7087SOL     OW32719   4.680   2.995  11.065 -0.3256 -0.3225 -0.9629
 7087SOL    HW132720   0.021   2.991  11.136  0.2425 -0.7349 -1.5020
 7087SOL    HW232721   4.677   3.087  11.041  2.1635 -0.1449 -0.5637
 7088SOL     OW32722   3.464   2.396   7.156  0.0185  0.1207 -0.3832
 7088SOL    HW132723   3.465   2.319   7.099  0.5772 -0.7132  0.7639
 7088SOL    HW232724   3.378   2.432   7.135 -1.2056 -1.5215  1.8599
 7089SOL     OW32725   2.058   3.445   3.007 -0.6572  1.1446 -0.0629
 7089SOL    HW132726   2.018   3.371   3.054  1.6257 -0.3859 -0.5287
 7089SOL    HW232727   2.035   3.521   3.060  0.9201  0.1765  2.0154
 7090SOL     OW32728   0.859   2.197   6.650  0.0014 -0.0550 -0.7532
 7090SOL    HW132729   0.857   2.101   6.647 -1.4194 -0.0500  0.1547
 7090SOL    HW232730   0.920   2.200   6.724  0.2318  0.7040 -0.9821
 7091SOL     OW32731   0.005   0.312   2.060  0.1173 -0.5013 -0.5766
 7091SOL    HW132732   0.090   0.273   2.081  0.0081 -0.0954  0.6051
 7091SOL    HW232733   4.693   0.314   2.149 -0.1069 -0.6842 -0.6619
 7092SOL     OW32734   1.373   0.030   7.681 -0.3192  0.0474 -0.0200
 7092SOL    HW132735   1.316   0.004   7.608 -0.4436  0.6155 -0.1234
 7092SOL    HW232736   1.306   0.036   7.749  1.2766  2.9088  1.2602
 7093SOL     OW32737   0.174   2.665   7.409  0.2920  0.6001  0.1782
 7093SOL    HW132738   0.231   2.741   7.423  1.7327 -0.5280  0.4521
 7093SOL    HW232739   0.117   2.687   7.335 -1.0981 -1.1483  0.7339
 7094SOL     OW32740   3.886   4.190   7.137 -0.4436 -1.1647  0.3902
 7094SOL    HW132741   3.795   4.171   7.160 -1.0449  1.4688  0.2155
 7094SOL    HW232742   3.884   4.114   7.079 -2.8234 -0.3696 -0.5761
 7095SOL     OW32743   1.582   3.088   3.525  0.5808  0.0994  0.3351
 7095SOL    HW132744   1.520   3.017   3.543 -0.7756  1.0426 -0.5979
 7095SOL    HW232745   1.661   3.038   3.504  1.1773  0.7817  0.9876
 7096SOL     OW32746   3.786   1.395   0.269 -0.1576  0.2065 -0.8287
 7096SOL    HW132747   3.842   1.431   0.338 -0.2708 -1.4324  0.1194
 7096SOL    HW232748   3.708   1.363   0.315 -0.5508  0.7671 -1.1085
 7097SOL     OW32749   2.190   1.929   7.416  0.4304 -0.2233 -0.0377
 7097SOL    HW132750   2.139   1.862   7.463 -0.9508  0.3752 -0.7001
 7097SOL    HW232751   2.188   2.004   7.475 -0.6678  0.7894 -1.3506
 7098SOL     OW32752   3.166   1.120   2.257 -0.5425 -0.4742 -0.1436
 7098SOL    HW132753   3.240   1.131   2.197 -0.1733  2.7025  0.8451
 7098SOL    HW232754   3.095   1.089   2.201  1.6340 -2.0017 -2.0497
 7099SOL     OW32755   3.690   0.842  11.331  0.5120 -0.1266 -0.1689
 7099SOL    HW132756   3.761   0.788  11.366 -0.4809  0.8626  3.2673
 7099SOL    HW232757   3.734   0.872  11.251  0.4406  1.2070  0.2997
 7100SOL     OW32758   3.726   1.311  17.497 -0.2878 -0.1625  0.1494
 7100SOL    HW132759   3.631   1.305  17.492 -0.3947  0.9438  0.8105
 7100SOL    HW232760   3.735   1.371  17.572  0.8736 -0.0321 -0.0861
 7101SOL     OW32761   0.612   3.322  12.751 -0.4312 -0.3873  0.3858
 7101SOL    HW132762   0.546   3.358  12.691  2.0868  2.5943 -0.5951
 7101SOL    HW232763   0.566   3.359  12.826  1.0081  1.7681  0.2138
 7102SOL     OW32764   0.477   1.933   1.571  0.2099 -0.5091  0.0036
 7102SOL    HW132765   0.477   1.903   1.480  0.3156  0.6238 -0.3733
 7102SOL    HW232766   0.391   1.972   1.583  0.1305 -0.5179 -0.5248
 7103SOL     OW32767   3.515   1.244   7.993  0.2681  0.6240 -0.5623
 7103SOL    HW132768   3.611   1.248   7.984  0.6349 -2.6030  1.7554
 7103SOL    HW232769   3.506   1.165   7.940  0.1302 -0.6683  1.3550
 7104SOL     OW32770   2.829   2.998  13.888  0.5233 -0.4502 -0.0904
 7104SOL    HW132771   2.782   3.031  13.811 -0.2846  2.3012  1.5576
 7104SOL    HW232772   2.889   3.071  13.900  0.4900 -0.4442  0.0369
 7105SOL     OW32773   3.569   0.753   3.362  0.1309  0.0972  0.3005
 7105SOL    HW132774   3.636   0.806   3.405 -0.2470  0.1831  0.7936
 7105SOL    HW232775   3.616   0.731   3.282  0.0962  0.7081  0.1198
 7106SOL     OW32776   2.455   4.440   3.468 -0.3195  0.4974 -0.6481
 7106SOL    HW132777   2.539   4.446   3.423 -0.6601  0.8655 -1.2380
 7106SOL    HW232778   2.451   4.529   3.504 -0.8084  0.1849  0.0600
 7107SOL     OW32779   0.945   1.115   7.931  0.7031  0.8418 -0.0540
 7107SOL    HW132780   0.992   1.150   8.007  1.0806 -0.7717  0.4535
 7107SOL    HW232781   0.935   1.199   7.886 -2.9306  0.5256  0.1727
 7108SOL     OW32782   3.293   4.570   5.144  0.0473 -0.1084  0.9458
 7108SOL    HW132783   3.375   4.593   5.187  0.3730  0.2333  0.1524
 7108SOL    HW232784   3.294   4.634   5.073  2.0180  0.8883  1.8865
 7109SOL     OW32785   0.993   0.030   8.326  0.4076 -0.3994  0.1087
 7109SOL    HW132786   1.033   4.723   8.245  1.8898  1.0626  0.2727
 7109SOL    HW232787   1.073   0.032   8.378  0.5027 -0.8023 -0.0229
 7110SOL     OW32788   3.521   3.164   9.347 -0.2349  0.1579  0.1369
 7110SOL    HW132789   3.539   3.141   9.256  0.1329  0.3633  0.1582
 7110SOL    HW232790   3.439   3.212   9.336 -0.4254  0.3560  2.4041
 7111SOL     OW32791   3.071   0.631   7.355  0.0641 -0.3172 -0.3826
 7111SOL    HW132792   3.091   0.611   7.446 -0.5577  0.1471 -0.1448
 7111SOL    HW232793   3.115   0.716   7.348 -0.6272  0.1313  0.6325
 7112SOL     OW32794   0.762   1.729   3.224  0.0589  0.4266 -0.4880
 7112SOL    HW132795   0.684   1.741   3.169 -0.2234  1.2399  0.0919
 7112SOL    HW232796   0.823   1.773   3.165  0.6638 -0.2274 -0.3532
 7113SOL     OW32797   1.617   1.221   6.581 -0.0859 -0.6256  0.2717
 7113SOL    HW132798   1.650   1.217   6.671 -0.9376 -1.7363  0.5325
 7113SOL    HW232799   1.523   1.214   6.595 -0.1863 -0.0943 -0.1524
 7114SOL     OW32800   1.940   0.468   7.779  0.1012  0.2153 -0.6095
 7114SOL    HW132801   1.954   0.482   7.685  0.4924  1.6322 -0.3380
 7114SOL    HW232802   1.859   0.417   7.776 -1.0953  2.0245  0.9595
 7115SOL     OW32803   3.418   1.045   7.365 -0.0340  0.0956  0.5245
 7115SOL    HW132804   3.424   1.076   7.275  2.3959 -1.2894  0.1933
 7115SOL    HW232805   3.419   1.121   7.423  0.0384  0.1806  0.4119
 7116SOL     OW32806   0.266   2.908   2.192 -0.3013  0.7113  0.6264
 7116SOL    HW132807   0.322   2.838   2.158 -1.5727 -0.7118  1.4178
 7116SOL    HW232808   0.178   2.871   2.180  0.4765 -1.0348  0.3019
 7117SOL     OW32809   3.264   3.198   6.308 -0.2798  0.2102 -0.5323
 7117SOL    HW132810   3.180   3.229   6.275  0.8920  2.7862 -1.0573
 7117SOL    HW232811   3.312   3.204   6.226 -1.1794 -2.3385 -1.2474
 7118SOL     OW32812   3.085   1.234  12.251 -0.3557  0.2309 -0.1484
 7118SOL    HW132813   3.061   1.267  12.164  1.3503  1.2664 -0.2230
 7118SOL    HW232814   3.079   1.315  12.301  0.8144  1.6404 -2.3214
 7119SOL     OW32815   0.756   4.088   7.095  0.1992  0.1872  0.6188
 7119SOL    HW132816   0.759   4.150   7.022  0.2009 -1.1117 -0.4811
 7119SOL    HW232817   0.717   4.010   7.055 -0.1005  0.5878  0.1366
 7120SOL     OW32818   3.746   2.674   6.659 -0.2529 -0.0437  0.4120
 7120SOL    HW132819   3.703   2.723   6.729 -2.1507 -1.5435  0.2938
 7120SOL    HW232820   3.670   2.662   6.601 -0.5575  4.4408 -0.1198
 7121SOL     OW32821   1.850   1.900   8.717  0.0957  0.1521 -0.3556
 7121SOL    HW132822   1.931   1.941   8.688  1.4441 -2.9380 -0.9979
 7121SOL    HW232823   1.795   1.975   8.738 -1.3540 -1.2998  0.9640
 7122SOL     OW32824   4.633   3.306  13.592  0.2678  0.4845 -0.3890
 7122SOL    HW132825   4.602   3.392  13.618 -1.9091 -0.1053 -1.0482
 7122SOL    HW232826   4.605   3.247  13.661  2.5622  0.3089  0.3956
 7123SOL     OW32827   0.459   3.699   6.587  0.0811  0.2330 -0.0715
 7123SOL    HW132828   0.493   3.630   6.643 -2.0663  0.9128  2.0521
 7123SOL    HW232829   0.464   3.783   6.632  0.8640  0.1471 -0.0019
 7124SOL     OW32830   4.255   0.777   3.697 -0.2934 -0.2037 -0.0934
 7124SOL    HW132831   4.218   0.755   3.611  0.6201  0.6338 -0.6943
 7124SOL    HW232832   4.186   0.835   3.730 -0.2089 -1.0347  1.5494
 7125SOL     OW32833   4.182   3.154   5.705  0.2881  0.6255 -0.0548
 7125SOL    HW132834   4.208   3.246   5.695 -0.3485  1.0608  2.3395
 7125SOL    HW232835   4.136   3.164   5.788  1.0855 -0.0757  0.4594
 7126SOL     OW32836   0.261   1.645   9.484  0.3012 -0.2440 -0.4643
 7126SOL    HW132837   0.268   1.656   9.390 -3.1161  0.5986 -0.6282
 7126SOL    HW232838   0.203   1.717   9.510  0.3034  0.0951 -1.4289
 7127SOL     OW32839   3.037   0.056  16.492 -0.1613  0.3730 -0.0035
 7127SOL    HW132840   2.953   0.093  16.519 -0.4821  0.1569 -0.7128
 7127SOL    HW232841   3.068   0.030  16.579 -1.0283  2.9179  1.0755
 7128SOL     OW32842   3.189   1.373   8.713 -0.3943  0.0992  0.2463
 7128SOL    HW132843   3.181   1.405   8.623 -1.5035 -1.6654 -0.2681
 7128SOL    HW232844   3.131   1.297   8.715 -0.8219  0.4960  2.3893
 7129SOL     OW32845   0.547   2.499  17.260  0.2848 -0.2006  0.4345
 7129SOL    HW132846   0.508   2.520  17.344 -0.7873 -1.4119  0.2413
 7129SOL    HW232847   0.549   2.403  17.265  0.2948 -0.2491 -0.5432
 7130SOL     OW32848   3.208   2.177   5.014  0.1499  0.2278 -0.1779
 7130SOL    HW132849   3.250   2.093   5.033  1.0009  1.3954  3.0414
 7130SOL    HW232850   3.236   2.181   4.923  0.7471 -3.4077 -0.1450
 7131SOL     OW32851   4.663   3.466   7.759 -0.6249 -0.3277  0.1992
 7131SOL    HW132852   4.634   3.437   7.673 -1.2383  1.8750 -0.3442
 7131SOL    HW232853   0.034   3.458   7.751 -1.0041 -2.8934 -1.5378
 7132SOL     OW32854   3.604   1.234   7.209 -0.4867 -0.1589 -0.3271
 7132SOL    HW132855   3.697   1.236   7.231 -0.4510  2.1415 -0.6666
 7132SOL    HW232856   3.565   1.285   7.281 -0.0113 -3.7020  2.4385
 7133SOL     OW32857   3.046   2.374   2.775 -0.2713  0.1558 -0.3648
 7133SOL    HW132858   2.977   2.357   2.712 -0.5755 -0.4333  0.1233
 7133SOL    HW232859   3.081   2.290   2.806 -0.7842  0.5125  1.2278
 7134SOL     OW32860   0.186   2.387   6.695  0.1124 -0.0080 -0.0925
 7134SOL    HW132861   0.251   2.354   6.756 -0.1807 -2.2851 -1.0117
 7134SOL    HW232862   0.123   2.314   6.695 -0.2177  0.2675 -1.0787
 7135SOL     OW32863   1.748   3.122  10.883 -0.1689  0.4849 -0.6791
 7135SOL    HW132864   1.695   3.144  10.807 -2.2159  0.0062  0.6196
 7135SOL    HW232865   1.831   3.097  10.842  0.3287 -0.3627  0.8274
 7136SOL     OW32866   3.396   2.591   8.115 -0.2477  0.9515 -0.5400
 7136SOL    HW132867   3.479   2.544   8.105 -1.7818 -2.1933  1.3275
 7136SOL    HW232868   3.420   2.665   8.060 -1.0356  0.8559 -1.0082
 7137SOL     OW32869   1.865   4.123   2.659  0.5797 -0.2490 -0.2049
 7137SOL    HW132870   1.884   4.035   2.627 -0.3788 -1.0640  1.4542
 7137SOL    HW232871   1.875   4.179   2.582 -0.7805 -1.1294 -1.0291
 7138SOL     OW32872   4.222   0.747   7.703  0.3037 -0.0067 -0.1320
 7138SOL    HW132873   4.286   0.695   7.751  1.1242  0.1867 -1.0298
 7138SOL    HW232874   4.250   0.727   7.614 -0.6824 -1.5039 -0.1080
 7139SOL     OW32875   0.823   1.396   0.077  0.0374 -0.1068  0.2734
 7139SOL    HW132876   0.768   1.428   0.005  0.4508  0.4486  0.1969
 7139SOL    HW232877   0.756   1.384   0.144 -0.0883 -0.5608  0.0622
 7140SOL     OW32878   2.614   4.042   6.328 -0.3127  0.2323 -0.0910
 7140SOL    HW132879   2.559   3.970   6.299 -1.6487  0.5908  1.5544
 7140SOL    HW232880   2.614   4.034   6.423  1.5218 -0.8075 -0.1724
 7141SOL     OW32881   1.413   2.262   9.222 -0.3033  0.0639 -0.5850
 7141SOL    HW132882   1.356   2.201   9.177  0.9824 -0.4737 -1.4962
 7141SOL    HW232883   1.470   2.287   9.149  1.3543 -0.6839  0.4667
 7142SOL     OW32884   2.358   1.245   5.735 -0.3149  0.0135 -0.2668
 7142SOL    HW132885   2.389   1.188   5.665  2.1981  3.4440 -1.9508
 7142SOL    HW232886   2.277   1.198   5.757  0.3761 -0.5734  1.0154
 7143SOL     OW32887   0.477   2.891   8.621  0.0379 -0.6702  0.5572
 7143SOL    HW132888   0.504   2.980   8.646  1.3412 -0.2332 -2.3837
 7143SOL    HW232889   0.492   2.887   8.527 -2.0748  1.9959  0.0916
 7144SOL     OW32890   2.664   2.085   8.334  0.4742 -0.1419  0.0387
 7144SOL    HW132891   2.586   2.141   8.344  0.2848 -0.0665 -1.8456
 7144SOL    HW232892   2.710   2.095   8.417 -1.5935 -0.9566  1.3050
 7145SOL     OW32893   4.501   3.478   6.362 -0.4168 -0.0201  0.5969
 7145SOL    HW132894   4.585   3.468   6.407  0.8115 -0.1370 -1.7486
 7145SOL    HW232895   4.518   3.535   6.288  3.0230  1.7737  2.7747
 7146SOL     OW32896   1.903   1.647   6.218  0.2512 -0.5355 -0.5913
 7146SOL    HW132897   1.964   1.622   6.288  0.0735  1.2999  0.2216
 7146SOL    HW232898   1.865   1.730   6.248 -1.4508 -1.5592  0.0624
 7147SOL     OW32899   3.597   2.526  13.496 -0.0929  0.5965  0.2096
 7147SOL    HW132900   3.618   2.498  13.585 -0.4344 -0.0038  0.1018
 7147SOL    HW232901   3.504   2.543  13.510 -0.0124 -0.0780  1.6806
 7148SOL     OW32902   1.439   3.511   4.628 -0.3819  0.3934  0.2879
 7148SOL    HW132903   1.361   3.560   4.655  0.0531  1.5084 -0.4717
 7148SOL    HW232904   1.442   3.556   4.544  0.5748 -1.0945 -0.4579
 7149SOL     OW32905   4.720   3.205   5.449  0.1743  0.2502 -0.3187
 7149SOL    HW132906   4.717   3.291   5.408 -0.7566  0.9195  1.1911
 7149SOL    HW232907   0.027   3.228   5.536  0.6344 -1.5812  0.0117
 7150SOL     OW32908   0.059   4.259   8.320 -0.0448 -0.0064 -0.4096
 7150SOL    HW132909   0.123   4.251   8.249  1.4460  1.0411  0.8207
 7150SOL    HW232910   4.702   4.224   8.282  0.3716 -1.2754 -0.1313
 7151SOL     OW32911   2.063   3.318   2.754  0.0277 -0.3269  0.6362
 7151SOL    HW132912   2.118   3.249   2.717  0.0476  0.1274 -0.1754
 7151SOL    HW232913   2.115   3.336   2.833 -1.0207  1.0470  1.0146
 7152SOL     OW32914   2.167   4.712  10.438  0.0471  0.0677 -0.6947
 7152SOL    HW132915   2.129   0.001  10.525  1.9812 -0.2158  0.2079
 7152SOL    HW232916   2.262   4.706  10.450  0.0118  0.7122 -0.0939
 7153SOL     OW32917   3.366   0.730   0.224  0.0986  0.5325 -0.2627
 7153SOL    HW132918   3.319   0.761   0.301  1.3469 -0.0058  0.7129
 7153SOL    HW232919   3.294   0.682   0.182 -0.9082  1.5417  0.2968
 7154SOL     OW32920   0.748   3.973   4.622 -0.2822  0.2900  0.1833
 7154SOL    HW132921   0.731   3.920   4.699 -0.4589  2.7254  1.8222
 7154SOL    HW232922   0.827   4.018   4.651 -0.0676  0.1703 -0.2079
 7155SOL     OW32923   2.088   0.834   6.853  0.0034  0.0468 -0.4825
 7155SOL    HW132924   2.143   0.758   6.836 -1.1200 -0.8082 -0.3279
 7155SOL    HW232925   2.164   0.874   6.894  0.3545  0.2816 -1.3589
 7156SOL     OW32926   0.614   3.218   6.792  0.2754 -0.5040 -0.0212
 7156SOL    HW132927   0.597   3.207   6.699 -2.2973  0.2340  0.3443
 7156SOL    HW232928   0.706   3.191   6.791  0.9535  1.7746  0.8172
 7157SOL     OW32929   1.356   3.249   6.123  0.1719 -0.2661 -0.0332
 7157SOL    HW132930   1.348   3.282   6.034 -0.1737  1.8317  0.7692
 7157SOL    HW232931   1.450   3.252   6.136  0.1287 -0.7970  0.4055
 7158SOL     OW32932   3.953   2.075   2.972 -0.2232  0.0169 -0.6931
 7158SOL    HW132933   3.937   2.039   2.885 -0.7942 -3.7087  0.9552
 7158SOL    HW232934   3.955   1.994   3.022 -2.6004  0.2792 -0.1548
 7159SOL     OW32935   0.557   1.724   7.607 -0.0444 -0.6439  0.8240
 7159SOL    HW132936   0.510   1.763   7.680  0.9698 -0.6442  1.4736
 7159SOL    HW232937   0.621   1.790   7.579  0.4757 -1.6160 -0.3223
 7160SOL     OW32938   4.651   3.241   4.540 -0.1980  0.5899 -0.4779
 7160SOL    HW132939   4.581   3.258   4.603 -0.7897 -0.1594 -0.9255
 7160SOL    HW232940   4.651   3.318   4.483 -2.4714  1.1052  0.1980
 7161SOL     OW32941   3.594   2.488   6.919  0.1914 -0.0802  0.0450
 7161SOL    HW132942   3.515   2.478   6.971 -1.3395 -0.2582 -2.3480
 7161SOL    HW232943   3.569   2.569   6.875 -0.0616 -0.2859 -0.1823
 7162SOL     OW32944   0.486   2.285   6.274  0.2569  0.2139 -0.1327
 7162SOL    HW132945   0.515   2.375   6.283  1.8610 -0.2859 -0.1779
 7162SOL    HW232946   0.442   2.287   6.189  0.5621  2.7597 -0.2142
 7163SOL     OW32947   2.296   2.644   4.986  0.5097 -0.3559 -0.2402
 7163SOL    HW132948   2.288   2.726   4.936 -2.7303 -1.1425 -1.0207
 7163SOL    HW232949   2.350   2.668   5.061  0.7102 -3.2371  0.5303
 7164SOL     OW32950   4.378   1.905   2.314  0.1059 -0.4668 -0.4644
 7164SOL    HW132951   4.333   1.851   2.249 -0.4182 -0.3002 -0.2395
 7164SOL    HW232952   4.304   1.915   2.374 -0.9386 -1.8372 -1.5240
 7165SOL     OW32953   3.804   0.697  16.749  0.2093 -0.3898 -0.0418
 7165SOL    HW132954   3.861   0.628  16.714 -0.7241 -1.1837  0.0226
 7165SOL    HW232955   3.718   0.656  16.752 -0.1479  0.3369 -0.3760
 7166SOL     OW32956   3.540   3.644  11.716  0.5067 -0.1379  0.5211
 7166SOL    HW132957   3.539   3.559  11.759 -1.5425  0.2099  1.1415
 7166SOL    HW232958   3.631   3.641  11.685  0.1904  1.1348 -0.5114
 7167SOL     OW32959   1.400   1.689   5.601 -0.2898 -0.4857  0.7996
 7167SOL    HW132960   1.405   1.785   5.607 -0.3278 -0.4215 -0.1701
 7167SOL    HW232961   1.308   1.666   5.609 -0.5969 -0.3663 -2.2066
 7168SOL     OW32962   4.559   2.635   9.849 -0.1518 -0.3395  0.1282
 7168SOL    HW132963   4.649   2.620   9.878 -0.1310  0.1427  0.3047
 7168SOL    HW232964   4.524   2.692   9.918  2.9525  0.0891  1.3602
 7169SOL     OW32965   3.757   0.257   5.931 -0.0162 -0.1484  0.0921
 7169SOL    HW132966   3.787   0.196   5.863 -0.8318 -1.7344  1.1379
 7169SOL    HW232967   3.838   0.306   5.944  1.1142 -1.6896 -1.0479
 7170SOL     OW32968   3.720   2.721   5.704  0.2580  0.2446 -0.3789
 7170SOL    HW132969   3.625   2.713   5.704  0.4562 -2.2679  0.0200
 7170SOL    HW232970   3.740   2.703   5.796  0.3837  0.0893 -0.4375
 7171SOL     OW32971   0.329   2.498   1.039  0.0875 -0.1834  0.0586
 7171SOL    HW132972   0.373   2.482   1.123  1.0432 -0.7487 -0.5631
 7171SOL    HW232973   0.304   2.590   1.046 -0.7093 -0.3212 -1.1535
 7172SOL     OW32974   4.361   0.839   5.591  0.3875 -0.7583  0.0222
 7172SOL    HW132975   4.312   0.833   5.509  1.9032  0.4435 -0.9630
 7172SOL    HW232976   4.290   0.836   5.655 -0.5896 -1.0381 -1.0695
 7173SOL     OW32977   1.488   2.384   6.692  0.5617  0.1893 -0.4293
 7173SOL    HW132978   1.477   2.433   6.610  0.1435  0.1885 -0.3748
 7173SOL    HW232979   1.489   2.296   6.653 -0.7592  0.1715 -0.4175
 7174SOL     OW32980   4.057   3.934  16.270 -0.6860  0.8387 -0.1831
 7174SOL    HW132981   4.081   3.934  16.178 -1.2636  1.1154 -0.3320
 7174SOL    HW232982   4.108   4.014  16.286 -3.4119  2.3145  1.1297
 7175SOL     OW32983   1.282   4.370   1.124 -0.2805 -0.4794 -0.5871
 7175SOL    HW132984   1.202   4.338   1.081 -0.5138  1.6199 -1.7187
 7175SOL    HW232985   1.291   4.454   1.078  0.7513 -0.5530 -0.5258
 7176SOL     OW32986   3.950   1.717   6.414 -0.0061  0.1898 -0.1966
 7176SOL    HW132987   3.913   1.805   6.403  0.1086  0.4537  1.5123
 7176SOL    HW232988   3.871   1.664   6.424  0.8875 -1.3169 -1.2083
 7177SOL     OW32989   3.744   2.027   8.006  0.2259  0.0260 -0.6896
 7177SOL    HW132990   3.833   2.013   7.973  0.4818  2.3272 -0.9717
 7177SOL    HW232991   3.709   2.097   7.951  3.1221  1.9305 -0.0989
 7178SOL     OW32992   0.602   2.113   1.724 -0.6691 -0.3551 -0.2861
 7178SOL    HW132993   0.660   2.160   1.664 -0.8245 -1.2129 -1.1066
 7178SOL    HW232994   0.549   2.063   1.662  0.2538 -0.5629 -0.9110
 7179SOL     OW32995   4.069   2.656  15.348  0.3387  0.0933  0.1960
 7179SOL    HW132996   4.006   2.598  15.305  0.3336 -0.9399  1.6216
 7179SOL    HW232997   4.149   2.634  15.300 -0.4371 -0.3603 -0.8975
 7180SOL     OW32998   1.823   3.251   8.686  0.1535  0.4230  0.0165
 7180SOL    HW132999   1.783   3.258   8.772  0.8937 -1.0270  0.4730
 7180SOL    HW233000   1.817   3.156   8.675  0.5789  0.2614  1.2520
 7181SOL     OW33001   3.017   0.842   9.210  0.3221  0.1419 -0.4139
 7181SOL    HW133002   2.933   0.799   9.198  0.7541 -0.9614  0.4638
 7181SOL    HW233003   2.989   0.919   9.259 -0.5962 -0.3279 -0.2007
 7182SOL     OW33004   0.307   2.636   4.388  0.4977  0.9333 -0.4300
 7182SOL    HW133005   0.377   2.634   4.454  0.1964 -0.0472 -0.1523
 7182SOL    HW233006   0.360   2.666   4.314  0.9025  1.1157 -0.0651
 7183SOL     OW33007   4.029   4.566  15.233  0.4172  0.2469 -0.1277
 7183SOL    HW133008   3.956   4.514  15.199  0.6689 -0.2593  0.1124
 7183SOL    HW233009   4.090   4.498  15.260 -0.0353 -0.8272 -1.8484
 7184SOL     OW33010   1.788   2.953   7.501  0.0532 -0.7338 -0.5269
 7184SOL    HW133011   1.796   2.876   7.445 -0.9898 -0.1331 -1.4900
 7184SOL    HW233012   1.823   3.029   7.454 -0.2166  2.3443  4.1655
 7185SOL     OW33013   3.367   0.497   2.574  0.3210 -0.2677 -0.1798
 7185SOL    HW133014   3.386   0.533   2.487 -0.1794 -1.1995 -0.6769
 7185SOL    HW233015   3.445   0.442   2.584 -1.2327 -2.1524  1.4924
 7186SOL     OW33016   1.257   0.231  13.890 -0.5738  0.0715 -0.0416
 7186SOL    HW133017   1.337   0.267  13.852  0.2637 -0.8439  0.8312
 7186SOL    HW233018   1.292   0.184  13.966 -2.4961  1.0513  1.4420
 7187SOL     OW33019   0.571   3.215  13.163  0.1782  0.0005 -0.7481
 7187SOL    HW133020   0.569   3.157  13.086 -0.6552  0.9696 -1.4627
 7187SOL    HW233021   0.525   3.293  13.132 -0.0333 -0.1343 -0.7731
 7188SOL     OW33022   2.445   2.878   6.325  0.2258  0.6358  0.4175
 7188SOL    HW133023   2.505   2.868   6.251 -1.3810  0.6297 -0.8874
 7188SOL    HW233024   2.488   2.825   6.392  2.8561  3.3998  0.9102
 7189SOL     OW33025   3.170   2.630   2.286 -0.2915  0.3201  0.1507
 7189SOL    HW133026   3.108   2.701   2.271 -0.9093  0.2425  2.2137
 7189SOL    HW233027   3.243   2.665   2.337 -1.6030  1.0036  1.5589
 7190SOL     OW33028   3.014   2.032   0.948 -0.2248  0.0655  0.3352
 7190SOL    HW133029   2.935   2.085   0.959 -1.5155 -1.8198  0.1197
 7190SOL    HW233030   3.068   2.080   1.010 -0.6860 -1.0533  1.6098
 7191SOL     OW33031   1.175   2.244   7.464  0.2251 -0.0725  0.3610
 7191SOL    HW133032   1.169   2.152   7.489 -0.7142 -0.3197 -0.7935
 7191SOL    HW233033   1.170   2.281   7.552  0.5099  4.1831 -1.4048
 7192SOL     OW33034   2.674   4.206   9.454 -0.2349  0.3000 -0.5798
 7192SOL    HW133035   2.615   4.232   9.524 -0.4922  0.4874 -0.8663
 7192SOL    HW233036   2.625   4.133   9.416 -0.2407 -0.1634  0.3163
 7193SOL     OW33037   4.609   3.425   6.765 -0.1214  0.0159  0.3675
 7193SOL    HW133038   4.672   3.495   6.780  0.0871 -0.7252  2.9404
 7193SOL    HW233039   4.627   3.414   6.672  3.7619 -3.2552  1.5027
 7194SOL     OW33040   3.470   2.086   7.180 -0.0365 -0.1521 -0.3528
 7194SOL    HW133041   3.554   2.101   7.223 -0.2607  0.2292 -0.0503
 7194SOL    HW233042   3.447   1.996   7.204 -3.0217  0.5299 -0.5898
 7195SOL     OW33043   0.661   0.900  14.033  0.1129 -0.0502  0.0525
 7195SOL    HW133044   0.651   0.995  14.025  0.7990 -0.0736 -0.9077
 7195SOL    HW233045   0.740   0.895  13.980 -0.0613 -1.0242 -0.1076
 7196SOL     OW33046   0.308   3.482   7.101  0.5624 -0.8573 -0.0731
 7196SOL    HW133047   0.296   3.535   7.022  1.6507 -2.8707 -1.6185
 7196SOL    HW233048   0.398   3.497   7.127  0.7027 -1.5873 -0.1281
 7197SOL     OW33049   0.805   1.723   8.460 -0.0862  0.7956 -0.4925
 7197SOL    HW133050   0.825   1.786   8.391  0.9342  0.7531 -0.2400
 7197SOL    HW233051   0.718   1.760   8.474  0.2765  0.5739  2.2468
 7198SOL     OW33052   3.035   2.743   3.871 -0.0595 -0.4042 -0.3437
 7198SOL    HW133053   3.081   2.695   3.803 -1.6745 -1.0174 -1.0151
 7198SOL    HW233054   2.958   2.784   3.830  1.5502 -0.6480 -3.5905
 7199SOL     OW33055   2.687   0.581   2.529 -0.5437 -0.0019  0.0525
 7199SOL    HW133056   2.730   0.503   2.495 -0.4686  0.2339 -0.3820
 7199SOL    HW233057   2.729   0.653   2.483  1.0393 -0.5101  0.6998
 7200SOL     OW33058   4.490   3.071  10.705  0.1795  0.0168 -0.3964
 7200SOL    HW133059   4.489   3.128  10.782 -2.3592 -0.7553  0.1215
 7200SOL    HW233060   4.482   3.137  10.635 -1.4893  1.1051  0.7954
 7201SOL     OW33061   1.329   1.137   9.212  0.1661  0.0350  0.0642
 7201SOL    HW133062   1.365   1.208   9.160 -0.8627  1.5391  1.3878
 7201SOL    HW233063   1.265   1.198   9.249 -0.6132 -2.1417  2.3439
 7202SOL     OW33064   2.963   2.793   6.276 -0.6998 -0.1690  0.2082
 7202SOL    HW133065   2.969   2.711   6.227  0.0873  0.5608 -0.9176
 7202SOL    HW233066   3.039   2.848   6.254 -0.7343  0.3487  1.4059
 7203SOL     OW33067   2.747   2.408   6.950  0.0383 -0.3499 -0.3675
 7203SOL    HW133068   2.669   2.442   6.994  0.1220  2.0135 -2.0359
 7203SOL    HW233069   2.706   2.359   6.879 -1.5090  1.0298 -0.4352
 7204SOL     OW33070   0.880   3.173   5.964  0.1578  0.3785  0.2004
 7204SOL    HW133071   0.922   3.247   6.008 -0.8114  0.0599  1.6914
 7204SOL    HW233072   0.954   3.126   5.925  0.4963  1.1544 -0.0813
 7205SOL     OW33073   2.702   0.255   0.162 -0.2817  0.0003  0.0037
 7205SOL    HW133074   2.768   0.192   0.192 -0.0837  0.5321  0.6967
 7205SOL    HW233075   2.638   0.199   0.119 -3.1297  0.8003  3.1535
 7206SOL     OW33076   4.208   0.724   8.646  0.2320 -0.4109  0.3467
 7206SOL    HW133077   4.242   0.636   8.630 -0.6264 -0.5615 -0.6158
 7206SOL    HW233078   4.127   0.703   8.693  1.2629 -0.2566  2.2144
 7207SOL     OW33079   3.768   2.761   2.888  0.4511  0.2526  0.1873
 7207SOL    HW133080   3.850   2.772   2.935  0.6044  1.1027 -0.2781
 7207SOL    HW233081   3.713   2.740   2.964 -0.0133  1.9536  0.3306
 7208SOL     OW33082   0.362   4.551   7.774 -0.4158 -0.4776 -0.3407
 7208SOL    HW133083   0.268   4.545   7.752 -0.9798 -0.1352  2.0067
 7208SOL    HW233084   0.385   4.458   7.768 -0.6377 -0.6064  0.8634
 7209SOL     OW33085   1.425   1.604   4.510  0.5142  0.3563  0.2099
 7209SOL    HW133086   1.446   1.676   4.570  3.7351 -1.0100  0.7169
 7209SOL    HW233087   1.406   1.656   4.432  1.8264 -0.9789 -1.0218
 7210SOL     OW33088   3.938   0.456   6.002 -0.1245  0.3801  0.2460
 7210SOL    HW133089   4.015   0.432   6.054  0.7796 -0.1837 -1.3261
 7210SOL    HW233090   3.959   0.540   5.962  0.2612  0.2101  0.0909
 7211SOL     OW33091   1.603   4.484   4.373  0.2262 -0.1046  0.0998
 7211SOL    HW133092   1.577   4.397   4.340  0.8676 -0.3820  0.3346
 7211SOL    HW233093   1.697   4.479   4.384  0.1604  0.9604  1.1582
 7212SOL     OW33094   2.743   4.579   8.141  0.7686 -0.0084  0.2414
 7212SOL    HW133095   2.751   4.487   8.116  1.6523 -0.4281  2.0260
 7212SOL    HW233096   2.744   4.617   8.053  1.4931 -0.7868 -0.0878
 7213SOL     OW33097   1.234   3.860   8.286  0.3002  0.6550  0.4863
 7213SOL    HW133098   1.178   3.830   8.357 -0.0261  0.1603  0.0227
 7213SOL    HW233099   1.174   3.908   8.230  1.9993  0.0592 -1.8503
 7214SOL     OW33100   2.478   2.817  16.932  0.5370 -0.6046 -0.0467
 7214SOL    HW133101   2.491   2.773  17.016  2.0852  0.6042  0.3371
 7214SOL    HW233102   2.567   2.809  16.899  0.0016 -0.1862 -1.6001
 7215SOL     OW33103   3.520   3.504   6.179 -0.2777  0.3057  0.1024
 7215SOL    HW133104   3.517   3.414   6.146  3.1470 -0.4050  1.7101
 7215SOL    HW233105   3.487   3.497   6.268  0.5991 -3.3493  0.1610
 7216SOL     OW33106   4.536   4.497   7.758 -0.5522  0.2959  0.0426
 7216SOL    HW133107   4.511   4.526   7.846  2.9031  1.2086  0.7122
 7216SOL    HW233108   4.590   4.419   7.764 -1.6899 -0.2528  3.2272
 7217SOL     OW33109   2.528   4.355   4.611 -0.1404 -0.3048 -0.6538
 7217SOL    HW133110   2.515   4.438   4.657  0.2803 -0.7376  0.2488
 7217SOL    HW233111   2.538   4.371   4.518 -0.2249 -0.4878 -0.6951
 7218SOL     OW33112   4.532   2.329   5.298 -0.1148 -0.0842  0.0208
 7218SOL    HW133113   4.621   2.324   5.264  0.0169  2.2724  0.0225
 7218SOL    HW233114   4.541   2.402   5.359 -1.1769  0.1498 -0.1104
 7219SOL     OW33115   3.287   1.928   4.496  0.3297  0.1337 -0.3336
 7219SOL    HW133116   3.254   1.839   4.510 -0.0406  0.3401  0.1000
 7219SOL    HW233117   3.205   1.971   4.475  0.3739  0.5577  0.3618
 7220SOL     OW33118   0.166   0.392   2.373  0.1724 -0.7083 -0.4758
 7220SOL    HW133119   0.100   0.446   2.330  1.8180  0.0567 -2.0370
 7220SOL    HW233120   0.203   0.332   2.308 -3.1668 -3.0918 -0.1913
 7221SOL     OW33121   0.117   4.266  10.594 -0.4082  0.4421  0.5600
 7221SOL    HW133122   0.176   4.333  10.629  1.5638 -1.3382  0.6292
 7221SOL    HW233123   0.067   4.226  10.665  0.4195 -0.7223  0.4803
 7222SOL     OW33124   2.890   2.588   7.107  0.2595 -0.1342 -0.0907
 7222SOL    HW133125   2.908   2.571   7.200 -1.8996 -0.8872  0.1771
 7222SOL    HW233126   2.864   2.505   7.068  0.1374  0.0479 -0.3961
 7223SOL     OW33127   0.069   4.585   7.697 -0.1029 -0.8401  0.2124
 7223SOL    HW133128   0.070   4.679   7.676  0.6371 -1.0067 -0.4782
 7223SOL    HW233129   4.703   4.573   7.727  0.7004  0.6535  3.3075
 7224SOL     OW33130   2.222   2.014   8.531 -0.4139  0.1476 -0.3097
 7224SOL    HW133131   2.216   1.963   8.450  0.4426 -0.6481  0.1319
 7224SOL    HW233132   2.282   1.959   8.582  0.0983 -0.1142 -1.2030
 7225SOL     OW33133   2.370   3.049  13.534  0.1938 -0.5347 -0.0045
 7225SOL    HW133134   2.453   3.088  13.562 -0.5504  0.9138  0.1830
 7225SOL    HW233135   2.317   3.035  13.613  2.5483 -3.5052  1.0451
 7226SOL     OW33136   4.014   2.586  11.101  0.1345 -0.5929  0.3459
 7226SOL    HW133137   4.022   2.549  11.013 -2.5561 -0.8186  0.1970
 7226SOL    HW233138   4.096   2.634  11.110  0.1583 -0.5712 -0.0072
 7227SOL     OW33139   3.590   1.718  10.473 -0.4009  0.1958 -0.0575
 7227SOL    HW133140   3.669   1.770  10.489 -0.7839  0.2348  1.6459
 7227SOL    HW233141   3.584   1.680  10.560 -0.1149  0.5311  0.1066
 7228SOL     OW33142   0.269   4.318   1.351  0.1454 -0.2922 -0.3688
 7228SOL    HW133143   0.322   4.239   1.359  1.7697  1.0681  1.9598
 7228SOL    HW233144   0.330   4.385   1.381 -2.5709  2.6466 -1.4184
 7229SOL     OW33145   3.346   2.091   9.172 -0.0311 -0.5999  0.0434
 7229SOL    HW133146   3.423   2.035   9.176  1.5971  1.7680  1.9089
 7229SOL    HW233147   3.284   2.030   9.132 -0.7940  1.6182 -2.2120
 7230SOL     OW33148   3.023   2.411  15.277 -0.4812  0.4907 -0.4297
 7230SOL    HW133149   3.025   2.386  15.369  0.3191  0.6852 -0.3979
 7230SOL    HW233150   3.102   2.464  15.268  0.5923 -0.6050  2.6924
 7231SOL     OW33151   1.269   1.068   2.050  0.6634 -0.1302  0.5915
 7231SOL    HW133152   1.252   0.991   1.996  0.3756  1.3642 -1.4486
 7231SOL    HW233153   1.314   1.030   2.125  1.3555 -1.0235 -0.2877
 7232SOL     OW33154   3.096   1.012  11.723 -0.0183  0.3836  0.2529
 7232SOL    HW133155   3.154   0.959  11.778  1.8723  2.4583  0.2409
 7232SOL    HW233156   3.111   1.101  11.755  4.0701 -0.2728  0.1252
 7233SOL     OW33157   4.381   1.513   0.263  0.6349  0.3956  0.7187
 7233SOL    HW133158   4.444   1.441   0.270  1.0899  0.7712  0.5092
 7233SOL    HW233159   4.372   1.509   0.167  1.4495  1.3252  0.5910
 7234SOL     OW33160   3.144   3.110   2.364 -0.4034  0.4286  0.0521
 7234SOL    HW133161   3.144   3.020   2.332 -0.9849  0.4927 -0.1367
 7234SOL    HW233162   3.193   3.152   2.293  0.1751  1.2477  0.9301
 7235SOL     OW33163   4.229   2.978   7.671  0.6658 -0.3388  0.0169
 7235SOL    HW133164   4.254   2.962   7.580 -0.9819  1.2269 -0.7178
 7235SOL    HW233165   4.162   2.913   7.691 -0.1457  0.7451  0.8182
 7236SOL     OW33166   3.437   4.024  16.811  0.3724 -0.3770  0.7001
 7236SOL    HW133167   3.413   3.977  16.891  0.6103  0.5687  1.3251
 7236SOL    HW233168   3.527   3.994  16.797  0.0045 -1.6414  1.0324
 7237SOL     OW33169   4.452   4.250  11.067  0.2150  0.4787  0.1468
 7237SOL    HW133170   4.420   4.340  11.068 -0.9653  0.0738 -0.5054
 7237SOL    HW233171   4.527   4.252  11.126 -0.2138 -1.4917  0.7465
 7238SOL     OW33172   3.320   4.694  12.307 -0.0055 -0.3216 -0.1037
 7238SOL    HW133173   3.414   4.688  12.321  0.2830  1.5744 -1.2280
 7238SOL    HW233174   3.292   0.036  12.371 -0.6155 -0.5267 -0.1615
 7239SOL     OW33175   4.631   0.983   2.719 -0.3858 -0.4730  0.0593
 7239SOL    HW133176   4.571   1.013   2.787 -0.2517 -0.6708  0.2647
 7239SOL    HW233177   4.575   0.959   2.644  0.5544 -0.1974 -0.7357
 7240SOL     OW33178   2.464   3.661  11.482 -0.2816 -0.1156  0.0528
 7240SOL    HW133179   2.541   3.699  11.525 -0.1824  0.6726 -0.8241
 7240SOL    HW233180   2.397   3.703  11.536 -0.0564  1.2691 -0.7337
 7241SOL     OW33181   4.072   3.725   6.882 -0.1178 -0.0452 -0.9090
 7241SOL    HW133182   4.051   3.798   6.823  0.6484  1.6536  0.9276
 7241SOL    HW233183   3.993   3.680   6.913  0.0427 -0.3944 -1.0018
 7242SOL     OW33184   2.251   2.666   8.364 -1.1596 -0.1845  0.2403
 7242SOL    HW133185   2.214   2.611   8.295 -0.1601 -0.8781  0.2567
 7242SOL    HW233186   2.284   2.740   8.312  2.0331 -1.2892  0.6810
 7243SOL     OW33187   4.010   0.858   5.627 -0.5343  0.1287 -0.1479
 7243SOL    HW133188   4.014   0.939   5.677 -1.3280  0.1108 -0.0624
 7243SOL    HW233189   3.915   0.850   5.617 -0.4922 -0.5728 -0.0319
 7244SOL     OW33190   3.977   3.127  16.456 -0.2137  0.4235 -0.0264
 7244SOL    HW133191   3.943   3.060  16.396 -0.8700  0.4996  0.2581
 7244SOL    HW233192   3.969   3.205  16.401 -2.4197 -0.6885 -1.2906
 7245SOL     OW33193   2.979   4.000   6.193 -0.2969  0.0336  0.4696
 7245SOL    HW133194   2.892   4.037   6.184 -0.9542 -1.6054  0.1188
 7245SOL    HW233195   3.014   4.076   6.239  0.2158 -1.2501  2.2004
 7246SOL     OW33196   1.925   4.025  15.381 -0.2332 -0.0424 -0.1300
 7246SOL    HW133197   2.011   3.983  15.386 -1.1740 -2.3489 -3.1598
 7246SOL    HW233198   1.872   3.949  15.406  2.5828 -1.0519  2.6272
 7247SOL     OW33199   3.113   2.146   8.710  0.5917 -0.4124 -0.0434
 7247SOL    HW133200   3.175   2.192   8.768  0.8331 -1.0027  0.1760
 7247SOL    HW233201   3.162   2.075   8.668  0.2754 -0.0245 -1.0685
 7248SOL     OW33202   3.244   2.190   8.431 -0.2943 -0.3143 -0.0677
 7248SOL    HW133203   3.164   2.243   8.435 -0.8218 -1.0370 -1.1012
 7248SOL    HW233204   3.302   2.264   8.416  2.0662 -1.4871  3.1404
 7249SOL     OW33205   0.923   2.034   7.303 -0.1819  0.6441  0.0561
 7249SOL    HW133206   0.882   1.955   7.268  0.0810 -0.3278  1.9143
 7249SOL    HW233207   0.995   1.999   7.355 -0.1499  2.5806  1.3267
 7250SOL     OW33208   1.968   1.590   2.641  0.4175 -0.2567 -0.1279
 7250SOL    HW133209   2.029   1.659   2.613  1.2429 -1.1341 -0.5044
 7250SOL    HW233210   1.991   1.560   2.728 -1.9828 -2.6755 -0.3357
 7251SOL     OW33211   3.112   1.496  14.228 -0.2298 -0.0005 -0.5495
 7251SOL    HW133212   3.105   1.575  14.173  1.0002  1.2087  1.0282
 7251SOL    HW233213   3.160   1.534  14.302 -2.2924 -0.4485  1.0026
 7252SOL     OW33214   2.656   0.605   6.918 -0.0031 -0.1378 -0.5760
 7252SOL    HW133215   2.674   0.696   6.940 -0.3488  0.2809 -2.0072
 7252SOL    HW233216   2.619   0.608   6.830  1.5961  0.7754 -1.2083
 7253SOL     OW33217   1.208   3.683   3.040  0.6376  0.2648 -0.2878
 7253SOL    HW133218   1.237   3.592   3.046 -1.0018 -0.2096  0.2988
 7253SOL    HW233219   1.237   3.701   2.950  0.5102 -0.9815 -0.5852
 7254SOL     OW33220   3.308   0.107   5.589 -0.3082 -0.1471  0.0489
 7254SOL    HW133221   3.228   0.130   5.541 -0.2526 -0.3375 -0.1311
 7254SOL    HW233222   3.353   0.056   5.522  0.7433 -0.1556  0.7689
 7255SOL     OW33223   0.075   4.371  14.553 -0.0554 -0.1138  0.8237
 7255SOL    HW133224   4.714   4.413  14.565 -0.7777 -1.0558 -1.0506
 7255SOL    HW233225   0.137   4.443  14.569  0.1021 -0.2001  0.6047
 7256SOL     OW33226   2.911   0.810   5.519 -0.6847  0.2802 -0.6938
 7256SOL    HW133227   2.956   0.856   5.449 -0.0734  1.3354  0.3941
 7256SOL    HW233228   2.822   0.844   5.520 -0.8399 -0.1674  1.0249
 7257SOL     OW33229   3.045   2.220  12.058  0.8021 -0.1290 -0.3996
 7257SOL    HW133230   3.135   2.227  12.026  1.3345 -0.5989  1.0109
 7257SOL    HW233231   3.014   2.153  11.997  1.1802  1.0368 -1.8638
 7258SOL     OW33232   0.541   0.059   8.243  0.5547  0.5737  0.3703
 7258SOL    HW133233   0.448   0.062   8.264  0.2794  2.9455 -1.1901
 7258SOL    HW233234   0.583   0.030   8.324 -0.5130 -0.3527  0.5956
 7259SOL     OW33235   1.843   2.088   8.296 -0.2337  0.2930  0.0278
 7259SOL    HW133236   1.785   2.118   8.366 -1.2806  0.0432 -0.7334
 7259SOL    HW233237   1.860   2.002   8.333 -0.4734 -0.2415 -1.1126
 7260SOL     OW33238   0.933   0.153   7.071 -0.7244 -0.2616 -0.2084
 7260SOL    HW133239   0.859   0.108   7.111 -0.5107  0.1541  0.6441
 7260SOL    HW233240   1.010   0.148   7.128 -1.9381 -2.8614  1.1667
 7261SOL     OW33241   2.423   1.997   4.849  0.2398 -0.5108  0.5670
 7261SOL    HW133242   2.446   2.054   4.923  1.6621 -0.9598  0.4633
 7261SOL    HW233243   2.328   1.989   4.858  0.2568 -1.2025  0.1457
 7262SOL     OW33244   1.864   2.669   8.237  0.1360  0.0258  0.3336
 7262SOL    HW133245   1.888   2.761   8.230  1.3904 -0.2566  0.8371
 7262SOL    HW233246   1.793   2.681   8.300 -1.1379  0.2778 -1.1623
 7263SOL     OW33247   2.968   4.305   0.105  0.2466 -0.1533 -0.1192
 7263SOL    HW133248   2.910   4.230   0.114 -0.6737  0.5221 -0.4966
 7263SOL    HW233249   3.041   4.254   0.069  0.5259 -1.1013  1.8120
 7264SOL     OW33250   1.000   2.756   6.725  0.1212 -0.5165 -0.2829
 7264SOL    HW133251   0.949   2.740   6.804  0.7502 -0.9496  0.0388
 7264SOL    HW233252   1.034   2.668   6.710 -1.5160 -1.3666  1.0362
 7265SOL     OW33253   0.143   2.789   7.798 -0.2872 -0.7225  0.2031
 7265SOL    HW133254   0.207   2.726   7.764 -0.6719 -0.6798 -0.6063
 7265SOL    HW233255   0.116   2.838   7.720  0.4383  1.0366  1.0411
 7266SOL     OW33256   0.479   1.481   6.729  0.0317 -0.5764 -0.1729
 7266SOL    HW133257   0.433   1.531   6.662  0.6912  0.0853 -0.1400
 7266SOL    HW233258   0.569   1.476   6.695  0.4996 -1.3501  1.1939
 7267SOL     OW33259   0.122   2.517   5.566 -0.5715  0.5064  1.0992
 7267SOL    HW133260   0.120   2.516   5.662  0.5216 -0.5292  1.1262
 7267SOL    HW233261   0.033   2.535   5.538 -0.3800 -2.8654 -1.7165
 7268SOL     OW33262   2.811   4.079  12.182  0.1416  0.1224 -0.7073
 7268SOL    HW133263   2.770   4.072  12.096  0.0531 -0.9036 -0.5723
 7268SOL    HW233264   2.756   4.147  12.222 -1.7458 -2.1157  0.4761
 7269SOL     OW33265   0.511   4.063   7.660 -0.5038  0.3670 -0.1107
 7269SOL    HW133266   0.518   3.972   7.632  0.6150  1.3794 -3.1641
 7269SOL    HW233267   0.417   4.080   7.657 -0.8302 -1.2870  0.5706
 7270SOL     OW33268   2.778   3.042   7.532  0.1445 -0.1820 -0.5500
 7270SOL    HW133269   2.794   3.016   7.623 -0.4868  0.6797 -0.1903
 7270SOL    HW233270   2.866   3.063   7.503 -0.0610  0.0365 -1.0118
 7271SOL     OW33271   4.132   2.560   2.399  0.1162  0.3286 -0.2531
 7271SOL    HW133272   4.058   2.616   2.425  1.4462  0.3742  3.4416
 7271SOL    HW233273   4.092   2.514   2.325 -2.1575 -0.1391  1.2749
 7272SOL     OW33274   2.111   3.530   7.701  0.4603  0.0490  0.6942
 7272SOL    HW133275   2.188   3.578   7.669 -1.5119  0.7274 -3.0517
 7272SOL    HW233276   2.048   3.548   7.631  0.1436 -0.4642  0.8483
 7273SOL     OW33277   0.286   0.273   2.153  0.4602 -0.5599 -0.1197
 7273SOL    HW133278   0.358   0.329   2.122 -0.1899  0.3613  0.0288
 7273SOL    HW233279   0.330   0.189   2.163  0.9078 -0.3856 -0.5973
 7274SOL     OW33280   0.484   0.506  11.215 -0.1139 -0.0897  0.4355
 7274SOL    HW133281   0.467   0.560  11.292  0.3955  1.1754 -0.3462
 7274SOL    HW233282   0.554   0.466  11.266  0.4291  1.4805  0.9214
 7275SOL     OW33283   2.872   2.814   8.864  0.1329 -0.2034 -0.6817
 7275SOL    HW133284   2.817   2.737   8.850  0.6100 -0.6914  0.1644
 7275SOL    HW233285   2.874   2.815   8.959 -0.2089 -2.0744 -0.6501
 7276SOL     OW33286   2.940   3.388   3.618  0.7447  0.0169  0.4679
 7276SOL    HW133287   2.972   3.449   3.552 -1.8897 -1.3392 -2.0592
 7276SOL    HW233288   2.865   3.437   3.654  0.2110 -0.5297  0.1045
 7277SOL     OW33289   0.861   1.539   9.154  0.1607 -0.3593  0.7794
 7277SOL    HW133290   0.876   1.469   9.218  1.1855  0.7702  1.7809
 7277SOL    HW233291   0.895   1.615   9.202 -0.6697 -0.3902  1.4070
 7278SOL     OW33292   2.879   3.535   0.897  0.0626  0.1274  0.4579
 7278SOL    HW133293   2.845   3.545   0.808  1.9270 -1.5204 -0.4261
 7278SOL    HW233294   2.855   3.443   0.909  2.8897 -0.6466  0.3366
 7279SOL     OW33295   0.572   3.037   1.993 -0.3414 -0.1427 -0.6695
 7279SOL    HW133296   0.644   3.066   2.048 -2.2565  0.7105  1.3789
 7279SOL    HW233297   0.586   2.944   2.010  0.3317  0.3950  1.6587
 7280SOL     OW33298   1.196   1.186   4.418  0.4727  0.1201  0.6027
 7280SOL    HW133299   1.230   1.230   4.339 -2.2994 -0.9399 -1.1873
 7280SOL    HW233300   1.124   1.240   4.449  0.1230  0.9341 -1.5838
 7281SOL     OW33301   2.726   3.407  14.937 -0.5571 -0.1774 -0.2010
 7281SOL    HW133302   2.648   3.461  14.921 -0.1005  0.6876  0.5023
 7281SOL    HW233303   2.767   3.462  15.003  0.9708  0.5546 -1.7705
 7282SOL     OW33304   4.324   1.357   8.347  0.5707  0.1726 -0.4624
 7282SOL    HW133305   4.233   1.387   8.349  0.3843 -0.4901  1.0243
 7282SOL    HW233306   4.315   1.262   8.339  1.3265  0.1064 -0.5538
 7283SOL     OW33307   2.693   1.087   8.183  0.4086 -0.7199  0.3926
 7283SOL    HW133308   2.753   1.100   8.256 -1.1316  0.8978  1.3811
 7283SOL    HW233309   2.620   1.138   8.220 -0.6291  0.6589 -3.4511
 7284SOL     OW33310   0.478   0.831  13.390  0.5839  0.5734 -0.1943
 7284SOL    HW133311   0.429   0.823  13.308  2.1504 -0.5007 -1.0291
 7284SOL    HW233312   0.554   0.780  13.361 -1.9614 -2.3769 -1.6671
 7285SOL     OW33313   2.335   2.066   5.145  0.1536 -0.5920 -0.1523
 7285SOL    HW133314   2.344   2.133   5.214  0.8466 -1.9261  1.0430
 7285SOL    HW233315   2.364   1.985   5.187  0.0629 -1.3369 -1.5442
 7286SOL     OW33316   0.751   1.537   8.920  0.4350  0.5381 -0.0348
 7286SOL    HW133317   0.808   1.537   8.997 -0.7595 -0.9392  0.8444
 7286SOL    HW233318   0.809   1.503   8.853 -0.4821  0.1000 -0.6042
 7287SOL     OW33319   0.944   2.672   9.629 -0.6240 -0.1945  0.4303
 7287SOL    HW133320   1.023   2.721   9.605 -0.8241 -0.1944 -0.2239
 7287SOL    HW233321   0.897   2.690   9.548  0.2240 -3.3646 -0.7625
 7288SOL     OW33322   0.056   0.074  13.927 -0.0478  0.2266 -0.4397
 7288SOL    HW133323   0.122   0.114  13.871 -0.3328  2.4965  0.8425
 7288SOL    HW233324   4.699   0.071  13.877 -0.6956 -2.0602  0.7308
 7289SOL     OW33325   0.043   2.976   1.832 -0.0032  0.5684  0.3956
 7289SOL    HW133326   0.129   3.018   1.838 -0.5813  1.9377 -0.7038
 7289SOL    HW233327   0.077   2.887   1.823 -0.0841  0.6161 -0.4163
 7290SOL     OW33328   3.545   0.175   7.906 -0.0547 -0.3066 -0.1617
 7290SOL    HW133329   3.618   0.183   7.844  1.7263 -0.4267  1.9398
 7290SOL    HW233330   3.574   0.109   7.968 -1.2625 -1.2090 -0.5589
 7291SOL     OW33331   3.445   1.354   8.444 -0.2163  0.2082  0.5768
 7291SOL    HW133332   3.475   1.424   8.502  1.9343  1.4488 -1.9930
 7291SOL    HW233333   3.485   1.282   8.492  1.0670 -0.1659 -1.0158
 7292SOL     OW33334   2.676   1.753   9.807  0.6164  0.5981  0.2566
 7292SOL    HW133335   2.619   1.689   9.849  0.2685  0.4987 -0.3685
 7292SOL    HW233336   2.628   1.762   9.725  0.5193 -1.2902  0.1133
 7293SOL     OW33337   1.921   1.311   1.499  0.7539 -0.4505 -0.1285
 7293SOL    HW133338   1.900   1.254   1.426  0.1390  0.6321 -0.7973
 7293SOL    HW233339   1.983   1.374   1.461  2.2413 -1.8632 -0.0493
 7294SOL     OW33340   1.434   2.750   8.567 -0.4406  0.6237 -0.1296
 7294SOL    HW133341   1.343   2.725   8.581 -0.1256 -0.7091 -0.3852
 7294SOL    HW233342   1.424   2.829   8.514  1.3063  0.4031 -0.7903
 7295SOL     OW33343   1.367   4.278   0.170  0.3600 -0.2986 -0.0758
 7295SOL    HW133344   1.417   4.326   0.236 -1.3741 -0.7807  1.6029
 7295SOL    HW233345   1.343   4.198   0.218  0.3071 -0.5983 -0.6023
 7296SOL     OW33346   3.487   1.708   5.400  0.0227 -0.5832 -0.3455
 7296SOL    HW133347   3.431   1.632   5.386 -0.8466  0.7155 -3.8188
 7296SOL    HW233348   3.421   1.776   5.389  1.8345  1.5074  1.5268
 7297SOL     OW33349   1.745   2.411   8.823  0.7663 -0.8219 -0.2411
 7297SOL    HW133350   1.780   2.490   8.863 -0.4262 -0.0494 -0.7204
 7297SOL    HW233351   1.672   2.454   8.778  0.3495  0.3337  1.5316
 7298SOL     OW33352   4.225   2.018   6.192 -0.1077 -0.2404  0.8470
 7298SOL    HW133353   4.231   1.944   6.131 -0.8341  0.4536 -0.0591
 7298SOL    HW233354   4.131   2.031   6.202 -0.1500 -0.6876  1.0357
 7299SOL     OW33355   3.022   0.184   5.496 -0.6654  0.1903 -0.6201
 7299SOL    HW133356   3.014   0.103   5.446 -0.8653 -1.2634  1.7942
 7299SOL    HW233357   2.964   0.157   5.567 -0.4855  0.0848 -0.5140
 7300SOL     OW33358   4.645   0.214   7.859 -0.2710 -0.6505 -0.3062
 7300SOL    HW133359   4.684   0.173   7.782  1.2200  2.3537 -1.1422
 7300SOL    HW233360   4.642   0.134   7.912 -0.4479  0.4064  1.2844
 7301SOL     OW33361   4.305   3.216   2.937 -0.6427  0.6201 -0.3026
 7301SOL    HW133362   4.345   3.132   2.959 -2.4427  0.2789  1.7164
 7301SOL    HW233363   4.221   3.192   2.899  1.0173 -3.2244 -1.5385
 7302SOL     OW33364   4.075   3.344   1.847 -0.1419 -0.4072  0.0249
 7302SOL    HW133365   4.157   3.353   1.895 -1.1264  0.0387  1.6265
 7302SOL    HW233366   4.091   3.265   1.796 -2.6297 -1.4490  0.8616
 7303SOL     OW33367   4.188   2.775   9.716  0.5307 -0.3574 -0.1804
 7303SOL    HW133368   4.115   2.765   9.655  0.6425  1.9610 -0.7047
 7303SOL    HW233369   4.161   2.855   9.761  0.3352  1.2388 -3.1773
 7304SOL     OW33370   4.166   1.479   6.099  0.3024  0.3700  0.1708
 7304SOL    HW133371   4.157   1.476   6.194  1.7296 -0.1453  0.2799
 7304SOL    HW233372   4.103   1.409   6.083  1.5437 -0.3638 -1.4439
 7305SOL     OW33373   4.592   3.901   1.079  0.4530  0.2645  0.4546
 7305SOL    HW133374   4.687   3.887   1.074  0.6185  1.6386 -0.3971
 7305SOL    HW233375   4.584   3.945   0.995  0.9184  0.0757  0.3120
 7306SOL     OW33376   0.048   2.751  12.832  0.7554 -0.5359  0.1914
 7306SOL    HW133377   0.011   2.801  12.905  1.6602  0.9725 -0.3743
 7306SOL    HW233378   0.000   2.669  12.843 -0.7010  0.0231 -1.9687
 7307SOL     OW33379   4.358   0.599   7.880  0.6388  1.0142  0.5698
 7307SOL    HW133380   4.289   0.568   7.938  0.6917  2.5795  1.4915
 7307SOL    HW233381   4.437   0.561   7.918  0.3159 -0.4192 -0.2251
 7308SOL     OW33382   1.677   1.244   8.152 -0.1766 -0.2074  0.0212
 7308SOL    HW133383   1.702   1.253   8.060  0.9555  3.7471  0.7148
 7308SOL    HW233384   1.714   1.159   8.175  0.4163  0.1707  0.4671
 7309SOL     OW33385   1.980   3.523  17.020  0.0637  1.0765  0.3006
 7309SOL    HW133386   1.895   3.510  16.977 -0.7705  2.3200  1.5874
 7309SOL    HW233387   2.018   3.569  16.945 -3.7481  2.7170 -0.6767
 7310SOL     OW33388   2.479   0.385   9.486  0.0790 -1.0450 -0.1980
 7310SOL    HW133389   2.517   0.308   9.528  1.9410  0.6420  1.1891
 7310SOL    HW233390   2.441   0.436   9.558 -0.1022 -1.9071  0.3145
 7311SOL     OW33391   2.101   1.032   3.514  0.0641  0.0676 -0.8282
 7311SOL    HW133392   2.151   0.951   3.513  0.3145  0.2505 -2.9357
 7311SOL    HW233393   2.118   1.067   3.426 -1.0294  0.1441 -1.0096
 7312SOL     OW33394   2.166   4.614   5.299 -0.3652 -0.2769  0.1352
 7312SOL    HW133395   2.169   4.707   5.322  2.4755 -0.1898 -0.5786
 7312SOL    HW233396   2.083   4.591   5.341 -0.0737  0.8536  1.3400
 7313SOL     OW33397   4.667   2.067   6.102 -0.1977 -0.4100 -0.0414
 7313SOL    HW133398   4.668   1.979   6.140 -0.2825  0.8804  2.9267
 7313SOL    HW233399   4.631   2.122   6.172 -0.0921 -0.6198  0.1788
 7314SOL     OW33400   1.120   1.824  10.630 -0.5564 -0.7316 -0.0754
 7314SOL    HW133401   1.205   1.869  10.631 -0.7707 -0.3082 -0.7856
 7314SOL    HW233402   1.082   1.836  10.717 -1.6554 -1.4188 -0.4582
 7315SOL     OW33403   2.082   3.322   6.905  0.0220 -0.2457  0.3355
 7315SOL    HW133404   2.107   3.414   6.910 -0.1628 -0.3035  2.6758
 7315SOL    HW233405   2.169   3.285   6.888  0.9329  0.8855  2.4688
 7316SOL     OW33406   0.660   4.054   9.121  0.6569 -0.3138 -0.1492
 7316SOL    HW133407   0.692   4.027   9.035  0.4679 -0.8179 -0.0623
 7316SOL    HW233408   0.635   3.969   9.158 -0.7508  0.1214 -0.1088
 7317SOL     OW33409   2.126   0.783   0.914 -0.3084  0.0233 -0.1772
 7317SOL    HW133410   2.166   0.820   0.835 -0.2673 -0.8111 -0.5435
 7317SOL    HW233411   2.191   0.716   0.934  1.2392  2.0429  1.5523
 7318SOL     OW33412   1.784   4.493  14.122  0.0608 -0.5116  0.0765
 7318SOL    HW133413   1.867   4.471  14.080  1.7998 -0.3124  3.4087
 7318SOL    HW233414   1.818   4.564  14.177 -0.1466 -0.4046  0.0651
 7319SOL     OW33415   1.520   0.313   6.406 -0.1442  0.1340 -0.3577
 7319SOL    HW133416   1.492   0.258   6.480 -2.2236  0.7417 -0.7037
 7319SOL    HW233417   1.450   0.375   6.386 -0.6123  0.1057  1.1862
 7320SOL     OW33418   0.295   3.473   6.242 -0.1618 -0.0761 -0.0811
 7320SOL    HW133419   0.327   3.414   6.310  0.4937  1.4592  0.9396
 7320SOL    HW233420   0.297   3.556   6.289 -3.1824 -0.0914  0.0983
 7321SOL     OW33421   1.076   0.697   0.712 -0.5494 -0.2019 -0.4171
 7321SOL    HW133422   1.060   0.611   0.674 -1.7336  0.9338 -2.5403
 7321SOL    HW233423   0.986   0.728   0.719  0.3624  1.8369  2.0869
 7322SOL     OW33424   1.570   2.430  12.679  0.2338  0.0766 -0.9423
 7322SOL    HW133425   1.578   2.343  12.718  0.8484  1.1197  1.2579
 7322SOL    HW233426   1.491   2.461  12.722 -1.0612  0.4563 -3.5942
 7323SOL     OW33427   2.722   4.461   3.340  0.3624  0.2129 -0.5335
 7323SOL    HW133428   2.671   4.495   3.267 -1.8740  0.5236  1.1384
 7323SOL    HW233429   2.784   4.410   3.288  1.2303 -0.6288  1.3175
 7324SOL     OW33430   2.596   4.512  10.570  0.1241 -0.2909 -0.2501
 7324SOL    HW133431   2.668   4.561  10.610  0.4846 -1.2278  0.2419
 7324SOL    HW233432   2.653   4.439  10.547  2.9074  1.7540  0.0681
 7325SOL     OW33433   1.543   1.929  16.587  0.7549 -0.6583  0.0151
 7325SOL    HW133434   1.510   1.880  16.512 -1.0826 -0.9512  1.0172
 7325SOL    HW233435   1.631   1.891  16.585  0.9906  0.0206 -1.8147
 7326SOL     OW33436   3.838   2.780   4.415 -0.3207 -0.4248  0.1750
 7326SOL    HW133437   3.864   2.711   4.476  0.3604 -1.6314 -1.4486
 7326SOL    HW233438   3.767   2.736   4.368 -1.9028  0.6609  1.5887
 7327SOL     OW33439   2.557   3.746  16.672  0.2114  0.7647 -0.1508
 7327SOL    HW133440   2.561   3.696  16.590  0.7812  0.0595  0.3142
 7327SOL    HW233441   2.575   3.832  16.633 -1.7052  1.1307 -0.2611
 7328SOL     OW33442   0.385   2.240   6.884  0.1822 -0.3027  0.3198
 7328SOL    HW133443   0.327   2.285   6.946  0.3320 -4.3285  3.4249
 7328SOL    HW233444   0.467   2.283   6.910 -0.1697  1.5258 -1.6266
 7329SOL     OW33445   2.516   0.777   0.599  0.0810  0.1180 -0.7677
 7329SOL    HW133446   2.515   0.699   0.653  0.9743 -0.8095 -2.1005
 7329SOL    HW233447   2.567   0.746   0.524 -0.3809 -1.5367 -0.3954
 7330SOL     OW33448   0.883   1.164   6.950 -0.0532  0.6486  0.3523
 7330SOL    HW133449   0.923   1.186   7.035  1.3078  1.7557 -0.5699
 7330SOL    HW233450   0.790   1.165   6.970 -0.0603  0.9115  0.3099
 7331SOL     OW33451   0.019   2.097   5.837 -0.3212 -0.0575  0.4270
 7331SOL    HW133452   4.702   2.023   5.792 -0.2800  0.7208 -0.8984
 7331SOL    HW233453   4.703   2.099   5.923 -0.4449 -1.9503  0.4289
 7332SOL     OW33454   0.186   0.669   7.072 -0.4323  0.0189  0.3939
 7332SOL    HW133455   0.247   0.716   7.016 -0.4079 -0.2789  0.1751
 7332SOL    HW233456   0.109   0.690   7.020  0.6248  0.6521 -0.9021
 7333SOL     OW33457   3.728   0.856  10.149 -0.2903  0.5564 -0.3554
 7333SOL    HW133458   3.780   0.927  10.112 -2.2742  2.0164 -0.3380
 7333SOL    HW233459   3.804   0.817  10.191  0.1295  2.3027  0.4973
 7334SOL     OW33460   3.948   0.466   4.961  0.6003 -0.2666  0.1010
 7334SOL    HW133461   4.024   0.463   4.902  0.1675 -1.8909 -0.3823
 7334SOL    HW233462   3.975   0.529   5.028  3.4119 -1.2075 -0.1108
 7335SOL     OW33463   0.249   4.118   2.550 -0.2021 -0.2699  0.2386
 7335SOL    HW133464   0.273   4.080   2.466 -0.9191  0.0448 -0.1060
 7335SOL    HW233465   0.313   4.074   2.605  1.3539 -0.1504 -1.4899
 7336SOL     OW33466   3.721   4.538   8.806 -0.1158 -0.4757  0.4333
 7336SOL    HW133467   3.774   4.617   8.798 -0.7821 -0.0269  0.3859
 7336SOL    HW233468   3.793   4.475   8.808 -0.7076 -1.1467  0.5333
 7337SOL     OW33469   0.866   4.674   3.986  0.0300 -0.1113 -0.4264
 7337SOL    HW133470   0.780   4.713   3.995 -0.3836 -0.9426 -0.8181
 7337SOL    HW233471   0.862   4.656   3.892 -0.8644 -0.6905 -0.2788
 7338SOL     OW33472   3.060   4.606  13.077  0.1515 -0.3757  0.7709
 7338SOL    HW133473   2.968   4.600  13.105 -0.4810  0.9763 -1.0576
 7338SOL    HW233474   3.095   4.625  13.164  0.3638  0.5472  0.4877
 7339SOL     OW33475   2.954   1.349   4.146  0.4508  0.3259 -0.9036
 7339SOL    HW133476   3.043   1.327   4.117  0.8663  1.9512 -0.8491
 7339SOL    HW233477   2.910   1.265   4.133  2.4530 -0.5495 -2.0955
 7340SOL     OW33478   4.112   0.791   4.383 -0.2857  0.3456  0.2849
 7340SOL    HW133479   4.040   0.845   4.416 -0.0867 -2.1693  4.8465
 7340SOL    HW233480   4.184   0.810   4.442  0.2918  1.1573 -0.6761
 7341SOL     OW33481   2.894   1.848   9.114  0.4035  0.4002 -0.1960
 7341SOL    HW133482   2.875   1.788   9.042  0.5076  1.1160 -0.8220
 7341SOL    HW233483   2.829   1.818   9.178 -0.8611 -2.0606 -2.6229
 7342SOL     OW33484   2.545   3.838  10.623  0.3088 -0.0265 -0.0745
 7342SOL    HW133485   2.554   3.933  10.627  1.7038 -0.1862  0.5164
 7342SOL    HW233486   2.449   3.832  10.629  0.4600  0.5077  2.6602
 7343SOL     OW33487   2.389   3.523   6.304  0.1771 -0.4992 -0.5270
 7343SOL    HW133488   2.435   3.464   6.244 -0.3758 -0.9036 -0.5631
 7343SOL    HW233489   2.376   3.471   6.384  0.3240 -0.6266 -0.5864
 7344SOL     OW33490   4.092   3.607   9.053 -0.3025 -0.5804  0.1875
 7344SOL    HW133491   4.136   3.543   8.997  1.1515 -0.6864  1.4635
 7344SOL    HW233492   4.005   3.568   9.052 -0.4303 -0.3056  0.8500
 7345SOL     OW33493   1.976   2.978   6.720 -0.5989  0.2435 -0.5382
 7345SOL    HW133494   1.916   3.042   6.757 -1.1266  0.7804 -2.3619
 7345SOL    HW233495   1.988   3.008   6.630 -2.7986  0.7993 -0.6350
 7346SOL     OW33496   2.425   1.880  17.540  0.8341 -0.1583 -0.4136
 7346SOL    HW133497   2.443   1.901  17.448  0.8831 -0.0684 -0.3828
 7346SOL    HW233498   2.466   1.953  17.586  1.0512 -1.9722  2.2466
 7347SOL     OW33499   2.554   0.306  16.729 -0.0315  0.1907  0.6058
 7347SOL    HW133500   2.643   0.324  16.759  0.2630  2.1954 -1.4725
 7347SOL    HW233501   2.517   0.254  16.801  0.2278  0.6008  1.0367
 7348SOL     OW33502   0.264   3.115  13.841  0.0102  0.0363  0.2272
 7348SOL    HW133503   0.358   3.135  13.835  0.0947 -0.3894  0.1586
 7348SOL    HW233504   0.241   3.152  13.756 -0.8005 -2.4438 -0.6034
 7349SOL     OW33505   3.331   2.698  12.885  0.4067  0.1314 -0.1542
 7349SOL    HW133506   3.406   2.748  12.917  0.0345 -0.2341  1.2779
 7349SOL    HW233507   3.371   2.613  12.866 -0.9260 -0.8604  1.5613
 7350SOL     OW33508   0.339   0.367   8.317  0.5728  0.7768  0.2393
 7350SOL    HW133509   0.309   0.310   8.246  0.3804  0.4065  0.6200
 7350SOL    HW233510   0.364   0.301   8.381 -2.3803  0.2160  0.8095
 7351SOL     OW33511   4.241   0.831   2.932  0.0291  0.4058 -0.0654
 7351SOL    HW133512   4.229   0.923   2.912  0.6154  0.5331  0.1579
 7351SOL    HW233513   4.217   0.783   2.852  0.6086  0.0832 -0.0474
 7352SOL     OW33514   2.571   4.040   5.522 -0.1719 -0.1378  0.2129
 7352SOL    HW133515   2.587   3.994   5.440  0.1033  1.0224 -0.3808
 7352SOL    HW233516   2.664   4.037   5.546 -0.4091  1.8609  1.4534
 7353SOL     OW33517   1.138   1.804   4.644  0.5118  0.4037 -0.6342
 7353SOL    HW133518   1.132   1.732   4.581  0.5507  1.5756 -1.9895
 7353SOL    HW233519   1.133   1.877   4.583  0.7971  1.9248  1.1698
 7354SOL     OW33520   1.452   1.778   2.222  0.0477 -0.4550 -0.4987
 7354SOL    HW133521   1.426   1.763   2.312  2.3408 -0.8977  0.1020
 7354SOL    HW233522   1.543   1.749   2.228  0.4214  0.5138 -1.4387
 7355SOL     OW33523   0.362   3.853  15.261  0.0069  0.1089  0.3179
 7355SOL    HW133524   0.328   3.862  15.350 -0.6371  2.5201 -0.1806
 7355SOL    HW233525   0.421   3.779  15.275  1.1068  1.2069  1.3988
 7356SOL     OW33526   0.075   3.600   2.006 -0.3327  0.2923 -0.5045
 7356SOL    HW133527   0.110   3.514   2.030  0.9928  0.9631 -0.0468
 7356SOL    HW233528   4.705   3.588   2.010 -0.0645 -1.2586  1.1450
 7357SOL     OW33529   1.781   2.637  15.912  0.7460 -0.4621 -0.5460
 7357SOL    HW133530   1.784   2.638  16.008 -2.4150  2.4968 -0.4634
 7357SOL    HW233531   1.848   2.702  15.891  1.5686 -2.0808 -2.8463
 7358SOL     OW33532   3.109   4.582   6.002  0.3591  0.3067 -0.1598
 7358SOL    HW133533   3.115   4.509   6.063 -1.8507  0.5700  0.3640
 7358SOL    HW233534   3.183   4.565   5.944  1.2401  1.6716  0.5676
 7359SOL     OW33535   1.344   2.248   3.075  0.4882 -0.4506  0.2328
 7359SOL    HW133536   1.428   2.239   3.120  0.5527 -1.6980 -0.1089
 7359SOL    HW233537   1.290   2.223   3.149  1.0002 -2.2131  0.0176
 7360SOL     OW33538   4.126   0.209   6.037  0.5449  0.3962  0.0393
 7360SOL    HW133539   4.058   0.150   6.006  0.0294  0.1360  1.6854
 7360SOL    HW233540   4.187   0.144   6.071 -0.2493  0.2156  1.1172
 7361SOL     OW33541   3.860   2.307   4.456 -0.1879  0.1836  0.5722
 7361SOL    HW133542   3.884   2.259   4.376 -0.1720 -2.7609  2.3434
 7361SOL    HW233543   3.892   2.244   4.519  1.6417 -1.3898 -1.9310
 7362SOL     OW33544   0.641   0.955   3.001 -0.5549 -0.2326 -0.6055
 7362SOL    HW133545   0.566   0.943   2.943 -0.5597  0.1443 -0.6754
 7362SOL    HW233546   0.706   0.903   2.954  0.1112 -0.2760  0.3687
 7363SOL     OW33547   2.720   2.741   5.933  0.0491 -0.3650  0.6448
 7363SOL    HW133548   2.691   2.714   6.020 -1.0266 -0.9107  0.1168
 7363SOL    HW233549   2.744   2.831   5.955 -1.0667  0.4038 -1.3119
 7364SOL     OW33550   2.731   3.718   4.264  0.1881 -0.6654 -0.3961
 7364SOL    HW133551   2.645   3.751   4.289  1.0618  0.9550  0.4782
 7364SOL    HW233552   2.766   3.722   4.354 -1.2562 -0.8789  0.1702
 7365SOL     OW33553   3.513   3.619   4.914  0.2317  0.2959  0.1732
 7365SOL    HW133554   3.567   3.602   4.837 -1.1267 -2.6302 -0.1082
 7365SOL    HW233555   3.445   3.674   4.875  0.1789 -0.4616 -0.7781
 7366SOL     OW33556   3.986   0.377   5.650  0.0180  0.5008  0.2874
 7366SOL    HW133557   4.054   0.399   5.713 -0.9104  3.0808  0.4029
 7366SOL    HW233558   3.982   0.282   5.655  0.9706  0.4701  0.3829
 7367SOL     OW33559   2.621   0.227   7.874  0.3941  0.7401 -0.0024
 7367SOL    HW133560   2.687   0.286   7.910  1.6772 -0.9381  0.3447
 7367SOL    HW233561   2.668   0.144   7.869 -1.8204 -0.5548  0.5296
 7368SOL     OW33562   1.975   3.823   2.956  0.1186  0.2563  0.4362
 7368SOL    HW133563   2.015   3.851   2.874  0.6876  0.8040  0.8980
 7368SOL    HW233564   1.963   3.905   3.004  0.8093  0.0660  0.9445
 7369SOL     OW33565   1.536   3.848   2.728 -0.1252  0.4026  0.5422
 7369SOL    HW133566   1.521   3.778   2.791  3.1477 -1.4440 -0.7347
 7369SOL    HW233567   1.631   3.838   2.735  0.0952  0.5604 -2.1325
 7370SOL     OW33568   0.668   0.517   3.508 -0.0876 -0.0075  0.4191
 7370SOL    HW133569   0.640   0.581   3.572  2.5354  2.1927 -0.6310
 7370SOL    HW233570   0.708   0.442   3.552  1.2693  0.3631 -0.1801
 7371SOL     OW33571   1.701   3.439   5.422 -0.0198 -0.2483 -0.0166
 7371SOL    HW133572   1.648   3.360   5.427  0.3378 -0.6789 -2.7566
 7371SOL    HW233573   1.629   3.503   5.422  0.4179  0.2470 -0.1045
 7372SOL     OW33574   2.395   3.398  17.383  0.1611  0.3949 -0.5845
 7372SOL    HW133575   2.375   3.470  17.443  0.1545  0.6999 -0.9517
 7372SOL    HW233576   2.430   3.447  17.308  1.6559  0.3523  0.0807
 7373SOL     OW33577   3.586   3.003   5.011 -0.2217 -1.0202  0.7874
 7373SOL    HW133578   3.596   2.946   5.087  0.5802 -0.7183  0.9035
 7373SOL    HW233579   3.652   3.071   5.022 -0.3849 -0.8747  0.8766
 7374SOL     OW33580   2.007   2.489   3.241  0.0134  0.2463  0.3544
 7374SOL    HW133581   2.070   2.455   3.305  1.8401  0.1133 -1.5005
 7374SOL    HW233582   1.919   2.467   3.271 -0.5031 -0.3099 -1.5671
 7375SOL     OW33583   2.412   3.403  10.049  0.4206 -0.3781  0.4322
 7375SOL    HW133584   2.439   3.423   9.960  0.6107 -0.2180  0.5243
 7375SOL    HW233585   2.473   3.331  10.065  0.6334  0.4801  3.6263
 7376SOL     OW33586   2.908   2.540  15.077 -0.6431  0.2608 -0.6412
 7376SOL    HW133587   2.966   2.506  15.009 -1.5135  0.0695 -1.2987
 7376SOL    HW233588   2.958   2.514  15.154 -0.1025  3.2969  0.0284
 7377SOL     OW33589   3.203   4.325   3.286 -0.0848  0.1000 -0.5549
 7377SOL    HW133590   3.276   4.384   3.265  0.7190 -1.1069 -1.1914
 7377SOL    HW233591   3.145   4.386   3.332 -0.9582 -2.4784  1.7394
 7378SOL     OW33592   3.970   1.892   7.927  0.5351 -0.3044 -0.5434
 7378SOL    HW133593   3.983   1.803   7.895 -0.9479 -1.0908  1.0430
 7378SOL    HW233594   4.044   1.946   7.899  0.1600  1.1007  1.2096
 7379SOL     OW33595   3.882   2.747   0.344 -0.2365  0.3004 -0.4959
 7379SOL    HW133596   3.798   2.792   0.356 -0.4632 -0.4123  0.6686
 7379SOL    HW233597   3.845   2.661   0.323 -0.9117  0.5261 -0.2315
 7380SOL     OW33598   2.291   1.259   5.353 -0.1895  0.5836 -0.5744
 7380SOL    HW133599   2.299   1.173   5.395 -2.0087  0.8290  0.2719
 7380SOL    HW233600   2.237   1.306   5.417  2.0032  0.3837  1.4278
 7381SOL     OW33601   2.005   2.908   7.766  0.3501  0.2078  0.1793
 7381SOL    HW133602   2.059   2.863   7.831  1.6670 -1.6691 -2.1836
 7381SOL    HW233603   1.922   2.912   7.813 -0.2395 -0.0654 -0.8281
 7382SOL     OW33604   3.936   3.637  14.217  0.3951  0.1734 -0.0448
 7382SOL    HW133605   3.946   3.545  14.192  1.2287  0.0494  0.7428
 7382SOL    HW233606   3.888   3.677  14.144  0.0361  0.4389  0.3299
 7383SOL     OW33607   3.902   0.260  15.325  0.0442 -0.1535 -0.4767
 7383SOL    HW133608   3.898   0.302  15.239  1.9345  3.1361  1.0556
 7383SOL    HW233609   3.848   0.316  15.382  0.0200 -0.2200 -0.4340
 7384SOL     OW33610   0.433   3.917   6.742 -0.3038  0.3835 -0.5177
 7384SOL    HW133611   0.359   3.962   6.701  1.1859  2.7052 -0.6589
 7384SOL    HW233612   0.500   3.962   6.690 -0.5881  2.3054  0.7654
 7385SOL     OW33613   3.885   4.261   4.664 -0.1360  0.1943 -0.3460
 7385SOL    HW133614   3.800   4.229   4.695  0.0838 -0.3035 -0.2570
 7385SOL    HW233615   3.930   4.300   4.739  2.1108 -2.2934 -0.3837
 7386SOL     OW33616   2.612   0.751   8.332 -0.0446 -0.2722  0.3159
 7386SOL    HW133617   2.697   0.753   8.377 -1.1778 -1.7022  2.5356
 7386SOL    HW233618   2.592   0.842   8.349  0.3475 -0.4924  1.9501
 7387SOL     OW33619   2.355   3.826  17.681  0.1345 -0.2849  0.1490
 7387SOL    HW133620   2.448   3.804  17.673  0.4677  0.7213  1.2997
 7387SOL    HW233621   2.359   3.895   0.048  0.6758 -2.6079  2.5476
 7388SOL     OW33622   3.025   0.965  13.288  0.0354 -0.3556 -0.1668
 7388SOL    HW133623   3.052   0.886  13.241 -0.8440 -0.8871  0.2087
 7388SOL    HW233624   3.050   0.942  13.378 -1.2273 -1.3944 -0.0837
 7389SOL     OW33625   1.085   1.045  12.298  0.3496  0.6265  0.4047
 7389SOL    HW133626   1.126   1.033  12.212 -0.2254  0.5881  0.1345
 7389SOL    HW233627   1.057   0.954  12.302 -0.9043  0.7847 -4.0926
 7390SOL     OW33628   3.633   4.167   4.813  0.4347 -0.2788  0.1048
 7390SOL    HW133629   3.551   4.126   4.786  0.4034  0.5484 -1.0343
 7390SOL    HW233630   3.593   4.246   4.850 -0.1532 -0.6022  0.1627
 7391SOL     OW33631   0.465   1.501   4.619 -0.2309 -0.2357 -0.2506
 7391SOL    HW133632   0.372   1.483   4.603 -0.6478  1.1309  0.7024
 7391SOL    HW233633   0.477   1.584   4.574 -1.1000  0.8267  1.4999
 7392SOL     OW33634   4.571   4.148  14.796 -0.4520  0.1935  0.2274
 7392SOL    HW133635   4.578   4.209  14.869  1.0574 -1.5188  1.5017
 7392SOL    HW233636   4.637   4.192  14.742  0.8532 -1.6127  0.3591
 7393SOL     OW33637   2.030   1.499   0.566 -0.0460  0.3214 -0.6125
 7393SOL    HW133638   2.047   1.496   0.472  0.8042 -0.3968 -0.4317
 7393SOL    HW233639   2.116   1.537   0.584  0.6084  0.1954 -3.4558
 7394SOL     OW33640   0.011   3.579   5.709 -0.0566  0.7152 -0.4635
 7394SOL    HW133641   0.056   3.658   5.680  2.0960 -0.5836 -0.6454
 7394SOL    HW233642   4.649   3.621   5.707 -0.7383 -0.6213  0.9532
 7395SOL     OW33643   4.345   3.578  14.417  0.0228  0.2127  0.8674
 7395SOL    HW133644   4.418   3.629  14.452  0.8592 -0.5771  0.2474
 7395SOL    HW233645   4.274   3.629  14.456 -0.8232 -0.4549  0.2100
 7396SOL     OW33646   2.517   2.941   2.458  0.5903 -0.5402  0.1537
 7396SOL    HW133647   2.494   2.984   2.541 -2.8678  2.2044 -2.2333
 7396SOL    HW233648   2.525   2.851   2.489 -1.1912 -1.0807 -0.9325
 7397SOL     OW33649   1.632   2.947  11.692  0.8544 -0.2783 -0.3406
 7397SOL    HW133650   1.606   3.038  11.678  0.7853 -0.6617 -2.6513
 7397SOL    HW233651   1.563   2.904  11.642 -0.2983  0.5483  0.5326
 7398SOL     OW33652   1.584   1.985   3.763 -0.0900 -0.1933  0.4035
 7398SOL    HW133653   1.559   1.929   3.836 -1.8440 -0.9082 -0.7731
 7398SOL    HW233654   1.655   1.931   3.727 -1.3810 -0.3852 -1.8456
 7399SOL     OW33655   1.046   1.131   1.273  0.4771 -0.4925  0.5372
 7399SOL    HW133656   1.093   1.153   1.354 -0.5836  3.0611  0.1710
 7399SOL    HW233657   0.974   1.193   1.277  0.6414 -0.1431 -2.0814
 7400SOL     OW33658   0.083   2.315   8.206  0.2169 -0.2769 -0.3047
 7400SOL    HW133659   0.145   2.380   8.172 -0.3768 -0.5400 -1.8529
 7400SOL    HW233660   0.014   2.328   8.141  1.1732  2.2755 -0.8227
 7401SOL     OW33661   3.149   3.332  12.388 -0.4415 -0.7159 -0.2152
 7401SOL    HW133662   3.234   3.304  12.354 -0.7254 -0.7379 -0.9146
 7401SOL    HW233663   3.171   3.380  12.468  0.3973 -3.6563  1.3000
 7402SOL     OW33664   4.013   0.041   0.259 -0.0974  0.6156 -0.3838
 7402SOL    HW133665   3.952   0.025   0.187  0.9788 -0.4397 -1.0482
 7402SOL    HW233666   3.959   0.081   0.328 -1.9981  0.1177 -1.5609
 7403SOL     OW33667   2.427   0.189  16.519  0.1890  0.3295 -0.0394
 7403SOL    HW133668   2.466   0.231  16.596 -0.0438 -0.6193  0.5894
 7403SOL    HW233669   2.416   0.098  16.545 -0.9515  0.0032 -1.6596
 7404SOL     OW33670   2.025   0.467  11.789 -0.2566  0.4495 -0.2220
 7404SOL    HW133671   1.952   0.411  11.817  0.8175  0.3221  2.3161
 7404SOL    HW233672   2.072   0.423  11.718 -0.9744  1.8449 -1.5586
 7405SOL     OW33673   3.470   2.375   4.411  0.6856  0.0174  0.0413
 7405SOL    HW133674   3.543   2.411   4.462 -1.0799  2.1862  1.0710
 7405SOL    HW233675   3.401   2.371   4.478  1.4177  2.1705  0.9523
 7406SOL     OW33676   3.824   4.254  16.872 -0.2770 -0.1655 -0.6722
 7406SOL    HW133677   3.900   4.212  16.830  0.0345  0.0392 -0.3159
 7406SOL    HW233678   3.830   4.340  16.831  0.6909  0.4463  0.7361
 7407SOL     OW33679   1.509   4.584   2.925 -0.2115 -0.1146 -0.2729
 7407SOL    HW133680   1.560   4.588   3.005  1.4783 -0.1579 -1.3488
 7407SOL    HW233681   1.578   4.597   2.860  1.4888 -2.3706  1.0722
 7408SOL     OW33682   3.492   1.815   4.029  0.1160 -0.1302  0.6281
 7408SOL    HW133683   3.491   1.811   3.934  1.8875  2.5643  0.5117
 7408SOL    HW233684   3.414   1.855   4.066 -0.6490 -0.2458 -0.8793
 7409SOL     OW33685   1.686   2.502   3.300 -0.9017 -0.1593  0.1196
 7409SOL    HW133686   1.709   2.561   3.229  0.1033 -1.8057 -0.8887
 7409SOL    HW233687   1.668   2.563   3.372  1.7277  0.5261  0.2121
 7410SOL     OW33688   2.872   3.437   9.976  0.3943  0.3889  0.6516
 7410SOL    HW133689   2.820   3.507   9.939  1.4725  0.7739 -0.1393
 7410SOL    HW233690   2.946   3.429   9.916  0.0110 -0.1925  0.2641
 7411SOL     OW33691   1.331   0.204   7.049  0.7100 -0.2367  0.3863
 7411SOL    HW133692   1.426   0.197   7.039  0.5350  0.0153 -1.3195
 7411SOL    HW233693   1.314   0.298   7.049  1.0499 -0.1756 -0.8244
 7412SOL     OW33694   2.736   1.371   3.918  0.2441 -0.0914 -0.0223
 7412SOL    HW133695   2.670   1.350   3.985 -0.5627  0.4490 -0.6512
 7412SOL    HW233696   2.709   1.459   3.893  1.4282 -0.1016 -1.3000
 7413SOL     OW33697   3.435   1.409   6.993  0.1280  0.0632  0.2442
 7413SOL    HW133698   3.390   1.445   6.916 -1.1319  1.2637  1.5617
 7413SOL    HW233699   3.415   1.316   7.006  1.6790 -0.4477 -0.8871
 7414SOL     OW33700   0.491   3.419  12.970 -0.2166 -0.3053 -0.1441
 7414SOL    HW133701   0.458   3.499  13.013 -0.0517 -1.5645  2.3185
 7414SOL    HW233702   0.404   3.384  12.949 -0.9475  0.3562  1.7698
 7415SOL     OW33703   3.059   1.401   6.891 -0.4650  0.3683 -0.0008
 7415SOL    HW133704   3.111   1.370   6.816  0.8580 -0.3154  1.1958
 7415SOL    HW233705   3.005   1.468   6.850  0.8211  1.9996  0.9557
 7416SOL     OW33706   4.694   2.717   4.839  0.8498  0.1496  0.0518
 7416SOL    HW133707   4.634   2.676   4.776  0.2400 -0.4671  1.0424
 7416SOL    HW233708   4.656   2.795   4.877  1.0620 -0.3010  1.1760
 7417SOL     OW33709   4.456   4.168   7.796 -0.2163  0.2801 -0.4934
 7417SOL    HW133710   4.465   4.220   7.717  2.2680 -0.2074 -0.5489
 7417SOL    HW233711   4.542   4.192   7.832  0.7148 -0.1246 -2.4979
 7418SOL     OW33712   2.414   0.010   7.832  0.5935 -0.0735  0.6253
 7418SOL    HW133713   2.418   0.040   7.923  2.3318  1.9523 -0.1104
 7418SOL    HW233714   2.404   0.092   7.783  0.6816 -0.6311 -0.3307
 7419SOL     OW33715   2.303   3.644  17.480  0.4193  0.0651  0.5107
 7419SOL    HW133716   2.238   3.668  17.413 -0.4900  1.9272  2.0429
 7419SOL    HW233717   2.289   3.706  17.553  2.0651  0.9235  0.0978
 7420SOL     OW33718   0.277   3.731   9.054  0.1509 -0.7800  0.3622
 7420SOL    HW133719   0.251   3.772   9.136 -0.4908 -0.7526  0.1430
 7420SOL    HW233720   0.273   3.813   9.003 -1.6089 -0.1511  1.5275
 7421SOL     OW33721   4.396   3.299  11.571 -0.4081 -0.2135  0.0173
 7421SOL    HW133722   4.382   3.232  11.638 -0.9026 -0.7483 -0.6173
 7421SOL    HW233723   4.373   3.382  11.614 -0.8039 -1.3364  1.9844
 7422SOL     OW33724   1.901   3.866   6.746  0.5153 -0.5979 -0.5200
 7422SOL    HW133725   1.924   3.955   6.722 -3.2373  0.4941  0.0452
 7422SOL    HW233726   1.988   3.825   6.750 -0.0538 -1.7150  0.5343
 7423SOL     OW33727   0.872   1.447  14.618  0.0225  0.3615 -1.0667
 7423SOL    HW133728   0.845   1.389  14.547  0.9676  0.9533 -1.9062
 7423SOL    HW233729   0.829   1.412  14.696 -0.4919 -1.3881 -2.1427
 7424SOL     OW33730   3.149   1.896   9.118 -0.4896 -0.0034 -0.0426
 7424SOL    HW133731   3.166   1.852   9.035  0.4106  0.7130 -0.2259
 7424SOL    HW233732   3.059   1.869   9.138 -0.3449 -1.7691 -1.7649
 7425SOL     OW33733   3.488   0.954   1.776 -0.3242  0.3490 -0.0599
 7425SOL    HW133734   3.575   0.982   1.804  0.9079 -1.5403 -1.9752
 7425SOL    HW233735   3.500   0.862   1.798  2.6396  0.3013 -1.8630
 7426SOL     OW33736   3.971   1.439   4.707 -0.1133 -0.2349 -0.5493
 7426SOL    HW133737   3.950   1.387   4.629 -2.2944 -0.0469 -0.0713
 7426SOL    HW233738   4.012   1.511   4.660  1.3893  0.5106  1.8468
 7427SOL     OW33739   2.829   2.297   3.030 -0.3460  0.4020 -0.3371
 7427SOL    HW133740   2.902   2.272   2.975 -0.6471  1.6286 -1.2896
 7427SOL    HW233741   2.785   2.212   3.017 -0.5724  0.5707 -0.6666
 7428SOL     OW33742   3.571   2.192  15.249 -0.2705 -0.0721  0.1939
 7428SOL    HW133743   3.538   2.157  15.167  2.6077  2.1256 -1.9025
 7428SOL    HW233744   3.615   2.274  15.224  2.0603 -1.2010  0.5476
 7429SOL     OW33745   2.099   1.924  11.588 -0.5035  0.5287  0.7534
 7429SOL    HW133746   2.136   1.917  11.676 -1.2250  0.6223  1.0614
 7429SOL    HW233747   2.059   1.838  11.581  0.1806  0.3204 -0.6548
 7430SOL     OW33748   2.147   1.209  13.437 -0.5757 -0.2892  0.2171
 7430SOL    HW133749   2.179   1.241  13.522  0.0707 -0.8841  0.2004
 7430SOL    HW233750   2.209   1.140  13.414 -0.4204 -0.6505  1.6930
 7431SOL     OW33751   3.642   2.662   3.596  0.3742 -0.1969  0.3758
 7431SOL    HW133752   3.666   2.681   3.506  1.5689 -1.8988  0.3451
 7431SOL    HW233753   3.610   2.573   3.584 -2.3352  0.8551 -0.2877
 7432SOL     OW33754   0.360   1.419   6.141  0.7220  0.6256 -0.3534
 7432SOL    HW133755   0.327   1.429   6.231 -1.6678  2.7499 -1.4511
 7432SOL    HW233756   0.283   1.382   6.098  0.3609  0.3544  0.5215
 7433SOL     OW33757   0.919   3.553   6.324  0.0520  0.1044  0.2685
 7433SOL    HW133758   0.896   3.609   6.251 -0.3325 -1.6591 -0.9669
 7433SOL    HW233759   1.014   3.541   6.329  0.3403  2.2459 -0.5227
 7434SOL     OW33760   4.350   4.249   7.143  0.1833 -0.4376 -0.4257
 7434SOL    HW133761   4.348   4.338   7.178  1.6022  0.2529 -2.1264
 7434SOL    HW233762   4.435   4.211   7.167  0.1761 -0.1012  0.1096
 7435SOL     OW33763   1.036   0.476   7.204 -0.2599 -0.2492  0.1199
 7435SOL    HW133764   1.073   0.437   7.283  3.2328  0.8587 -0.9492
 7435SOL    HW233765   0.967   0.530   7.241  0.4154  0.2659  0.6431
 7436SOL     OW33766   2.125   1.460   6.069 -0.0381  0.0845 -0.1338
 7436SOL    HW133767   2.140   1.493   6.158  0.0928  2.2695 -0.9581
 7436SOL    HW233768   2.184   1.508   6.011 -0.4876 -0.8460 -1.3627
 7437SOL     OW33769   1.172   0.351   5.183 -0.3424  0.1309 -0.1624
 7437SOL    HW133770   1.264   0.330   5.166 -0.5552  0.3447 -1.5371
 7437SOL    HW233771   1.118   0.278   5.156  0.2059 -0.7745  1.1738
 7438SOL     OW33772   4.066   4.690  16.406  0.7664 -0.2956 -0.8968
 7438SOL    HW133773   4.017   0.047  16.392  1.2201  0.3386  1.1682
 7438SOL    HW233774   4.039   4.648  16.324  0.5375  0.8857 -1.4408
 7439SOL     OW33775   4.427   1.518   0.668 -0.0318  0.4994 -0.2867
 7439SOL    HW133776   4.468   1.604   0.653 -1.4354  0.9969 -1.1944
 7439SOL    HW233777   4.352   1.524   0.609  1.0238 -1.0057 -1.7728
 7440SOL     OW33778   3.788   2.314  13.453  0.6574  0.1593  0.0761
 7440SOL    HW133779   3.740   2.349  13.378  1.9957  1.5859 -0.0921
 7440SOL    HW233780   3.725   2.323  13.525  1.3128  0.4200  0.6113
 7441SOL     OW33781   3.363   3.995   1.831  0.4822  0.2564 -0.1254
 7441SOL    HW133782   3.277   4.038   1.822  0.8681  1.0749  0.1333
 7441SOL    HW233783   3.390   4.001   1.740  1.3367  1.3131  0.2009
 7442SOL     OW33784   2.762   3.288  13.876 -0.1066 -0.1414 -0.2336
 7442SOL    HW133785   2.853   3.297  13.903 -0.5779 -3.0256  2.3165
 7442SOL    HW233786   2.760   3.334  13.792 -2.3298 -0.3635 -0.3116
 7443SOL     OW33787   3.448   3.136   6.086 -0.4079 -0.0334  0.3858
 7443SOL    HW133788   3.497   3.067   6.041  0.6924  2.6632 -2.5485
 7443SOL    HW233789   3.418   3.184   6.009 -0.4831  0.9538  1.0167
 7444SOL     OW33790   3.193   1.483  10.427  0.0321 -0.5058  0.4023
 7444SOL    HW133791   3.187   1.579  10.421 -3.0948 -0.6897  0.5865
 7444SOL    HW233792   3.118   1.450  10.378 -1.0041 -0.2127  1.7868
 7445SOL     OW33793   0.553   3.906   7.256 -0.1453 -0.0724 -0.6186
 7445SOL    HW133794   0.527   3.998   7.249  1.0157  0.3977  1.3162
 7445SOL    HW233795   0.576   3.888   7.165  0.6312  1.5904 -0.7504
 7446SOL     OW33796   1.701   1.538   2.911 -0.2031  0.0076 -0.4812
 7446SOL    HW133797   1.674   1.537   2.820  1.4338  0.0296 -0.9720
 7446SOL    HW233798   1.629   1.572   2.965 -1.2073 -1.9059 -0.6114
 7447SOL     OW33799   1.277   0.520   7.993  0.4743 -0.4428  0.4532
 7447SOL    HW133800   1.290   0.589   8.058  0.2458 -0.0578  0.0893
 7447SOL    HW233801   1.272   0.581   7.919 -1.5380 -0.7821  0.3185
 7448SOL     OW33802   2.998   2.762   6.541 -0.6950  0.4717  0.0411
 7448SOL    HW133803   2.927   2.810   6.583  0.4179  1.2780  1.0190
 7448SOL    HW233804   2.982   2.772   6.447 -1.2490 -1.9716 -0.1307
 7449SOL     OW33805   2.423   1.997  11.688  0.2230  0.0747 -0.6944
 7449SOL    HW133806   2.373   2.025  11.612 -1.1147 -0.8436 -0.1553
 7449SOL    HW233807   2.358   1.944  11.734  0.3918 -1.3665 -2.1254
 7450SOL     OW33808   1.673   1.957   1.567 -0.4491 -0.0234 -0.3208
 7450SOL    HW133809   1.731   1.944   1.492  0.8207 -1.3557  0.8980
 7450SOL    HW233810   1.592   1.920   1.532 -1.7159  1.6273  0.9062
 7451SOL     OW33811   1.869   4.147   9.319  0.1002 -0.4228 -0.4643
 7451SOL    HW133812   1.864   4.058   9.353 -1.6811 -0.4246 -0.7546
 7451SOL    HW233813   1.803   4.190   9.373  1.2509 -1.8673  2.0949
 7452SOL     OW33814   4.172   3.261   2.661  0.0241  0.1926 -0.2742
 7452SOL    HW133815   4.211   3.174   2.662  0.8658  0.5701 -0.2865
 7452SOL    HW233816   4.244   3.316   2.631  0.0089  0.2294 -0.2436
 7453SOL     OW33817   2.894   0.664  13.372 -0.3778 -0.4055  0.5159
 7453SOL    HW133818   2.857   0.709  13.296  1.4420 -1.7702 -1.1803
 7453SOL    HW233819   2.856   0.716  13.442 -1.4983  1.0213 -1.1424
 7454SOL     OW33820   3.012   4.401  17.464  0.8071  0.2876  0.3265
 7454SOL    HW133821   3.017   4.467  17.395 -1.4937 -1.4485 -1.4899
 7454SOL    HW233822   3.097   4.417  17.506  1.0534 -1.5692  0.5265
 7455SOL     OW33823   3.861   2.330   6.051 -0.1797 -0.1147  0.6143
 7455SOL    HW133824   3.809   2.380   5.988  0.0415  0.8665  1.2082
 7455SOL    HW233825   3.790   2.304   6.109  0.4240 -2.0017  0.5010
 7456SOL     OW33826   0.036   3.048   9.203 -0.1304 -0.4919 -0.5016
 7456SOL    HW133827   0.007   3.008   9.121 -1.6639  2.1769 -1.2712
 7456SOL    HW233828   0.004   3.135   9.179  2.3876  0.2199 -1.3224
 7457SOL     OW33829   1.203   0.810   0.917  0.0116  0.1366  0.6519
 7457SOL    HW133830   1.147   0.777   0.846 -0.7103 -0.3466  1.4503
 7457SOL    HW233831   1.285   0.811   0.868 -1.6093  2.2880 -2.0661
 7458SOL     OW33832   0.500   2.128  12.161 -0.3201 -0.4959  0.1387
 7458SOL    HW133833   0.566   2.197  12.149 -0.6455 -0.2233 -0.0617
 7458SOL    HW233834   0.492   2.082  12.078  1.5270 -0.8271  0.1461
 7459SOL     OW33835   0.602   0.763   8.724  0.0602  0.1716  0.2542
 7459SOL    HW133836   0.589   0.800   8.811 -1.7675 -1.3963  0.6452
 7459SOL    HW233837   0.697   0.753   8.732 -0.0027  0.0587  0.9123
 7460SOL     OW33838   2.622   3.268   7.478  0.3817  0.0371  0.4356
 7460SOL    HW133839   2.671   3.189   7.454  0.5822  0.2284  0.2157
 7460SOL    HW233840   2.655   3.287   7.566  0.8192  1.2696  0.0018
 7461SOL     OW33841   2.053   4.170  11.525  0.3041  0.8253 -0.1197
 7461SOL    HW133842   2.021   4.179  11.615  0.4158 -0.0047 -0.0037
 7461SOL    HW233843   2.037   4.078  11.504 -0.2847  0.2855  2.8151
 7462SOL     OW33844   2.941   4.722  16.091 -0.3679  0.0659 -0.2887
 7462SOL    HW133845   2.958   4.653  16.027 -1.4071 -0.7519  0.3265
 7462SOL    HW233846   2.847   4.713  16.101 -0.2617  0.2781  0.9123
 7463SOL     OW33847   1.936   4.512   5.379 -0.9313  0.5549 -0.0072
 7463SOL    HW133848   1.885   4.586   5.345  0.6622  2.8942  2.7418
 7463SOL    HW233849   1.884   4.491   5.456  0.1343 -0.0018  0.5608
 7464SOL     OW33850   3.505   3.946   9.390 -0.0171 -0.2393  0.2539
 7464SOL    HW133851   3.596   3.919   9.396 -0.0667 -0.4511  0.0567
 7464SOL    HW233852   3.509   4.020   9.450 -2.0426 -1.6785  2.1703
 7465SOL     OW33853   3.225   2.563   1.322 -0.2895  0.0742 -0.5525
 7465SOL    HW133854   3.211   2.652   1.288  2.9658  0.0480 -1.9283
 7465SOL    HW233855   3.292   2.585   1.387  0.3194 -2.8032 -0.2111
 7466SOL     OW33856   1.498   1.815  15.395  0.3840  0.3920 -0.3496
 7466SOL    HW133857   1.528   1.850  15.311  0.7190 -0.2085 -0.4764
 7466SOL    HW233858   1.570   1.765  15.434  1.9543  3.6346  0.9228
 7467SOL     OW33859   4.605   4.219   6.729 -0.1397 -0.0795 -0.1834
 7467SOL    HW133860   4.509   4.214   6.730 -0.1189 -0.1744  1.7188
 7467SOL    HW233861   4.624   4.129   6.704 -0.3110 -0.7237  2.0822
 7468SOL     OW33862   0.746   3.738   5.072 -0.4505 -0.6060  0.1372
 7468SOL    HW133863   0.833   3.717   5.106  0.4883  0.4183 -1.6325
 7468SOL    HW233864   0.708   3.650   5.082 -1.8125 -0.0380 -0.0878
 7469SOL     OW33865   1.543   3.649   1.538 -0.7855 -0.7632  0.7009
 7469SOL    HW133866   1.610   3.682   1.478 -1.6004 -0.1417  0.1431
 7469SOL    HW233867   1.529   3.726   1.593  0.6995  1.8497 -2.6327
 7470SOL     OW33868   2.617   0.313  17.374  0.4193 -0.0760 -0.1158
 7470SOL    HW133869   2.541   0.360  17.339 -1.1753 -1.0052  2.1930
 7470SOL    HW233870   2.590   0.296  17.464  3.5991 -0.3473  0.7846
 7471SOL     OW33871   4.360   1.431  14.074  0.4668 -0.3453 -0.3001
 7471SOL    HW133872   4.305   1.453  13.999 -0.8940  1.3761  1.2166
 7471SOL    HW233873   4.328   1.488  14.144  1.5151 -0.6108  0.3940
 7472SOL     OW33874   0.896   4.230  11.852  0.5207  0.3081  0.1463
 7472SOL    HW133875   0.950   4.157  11.884 -0.1764  0.4545  1.6313
 7472SOL    HW233876   0.956   4.256  11.782  0.0680 -0.4839 -0.5416
 7473SOL     OW33877   3.583   0.765   0.745  0.1281 -0.3502  0.3074
 7473SOL    HW133878   3.577   0.698   0.813 -0.1946 -0.0858  0.5382
 7473SOL    HW233879   3.517   0.746   0.678 -1.2633 -2.0770  2.1782
 7474SOL     OW33880   0.005   4.084   3.624 -0.2193  0.0452  0.2912
 7474SOL    HW133881   4.676   4.126   3.556 -0.5244 -2.5438 -1.0664
 7474SOL    HW233882   4.680   4.002   3.631 -0.7010  0.4403  1.6070
 7475SOL     OW33883   0.879   2.850   3.143  0.4776  0.7888  0.3068
 7475SOL    HW133884   0.829   2.875   3.220  2.7343 -0.6082  2.2477
 7475SOL    HW233885   0.824   2.880   3.072  1.4585  1.0787 -0.3367
 7476SOL     OW33886   4.231   4.242  12.212 -0.2280 -0.2690  0.1923
 7476SOL    HW133887   4.141   4.214  12.196 -0.0402 -1.2643  0.8252
 7476SOL    HW233888   4.279   4.181  12.156  0.3923  1.3127 -1.0010
 7477SOL     OW33889   0.121   4.679  11.910 -0.6458  0.4651 -0.6955
 7477SOL    HW133890   0.101   4.646  11.822 -0.3166 -0.5281 -0.4039
 7477SOL    HW233891   0.211   4.648  11.919 -0.9760 -0.3872 -0.3384
 7478SOL     OW33892   0.113   0.498   5.037  0.0309 -0.4426 -0.5550
 7478SOL    HW133893   0.090   0.581   5.078 -0.8970 -2.0439  2.2010
 7478SOL    HW233894   0.022   0.470   5.031  0.0498 -0.6916  0.2260
 7479SOL     OW33895   3.339   4.244   1.673 -0.2341  0.0662  0.0262
 7479SOL    HW133896   3.429   4.266   1.697 -0.5004  2.9832 -1.5441
 7479SOL    HW233897   3.289   4.250   1.755  3.2828 -0.8858  2.1983
 7480SOL     OW33898   3.020   0.263   7.123  0.0289 -0.1417 -0.1730
 7480SOL    HW133899   3.072   0.329   7.077  0.3772 -0.6421 -0.5030
 7480SOL    HW233900   2.939   0.313   7.130 -1.0364 -1.9189  0.0603
 7481SOL     OW33901   2.309   3.236   3.463 -0.3752  0.0060  0.0677
 7481SOL    HW133902   2.338   3.153   3.500 -0.4690  0.4268  1.0962
 7481SOL    HW233903   2.257   3.200   3.392 -0.3627 -0.4900  0.3124
 7482SOL     OW33904   4.475   1.411   9.068  0.6205  0.2564  0.1848
 7482SOL    HW133905   4.528   1.489   9.050 -1.5068  1.4417 -0.9962
 7482SOL    HW233906   4.431   1.439   9.149  0.7321 -0.6650  0.5612
 7483SOL     OW33907   2.190   4.132   7.280  0.1706 -0.4149 -0.0623
 7483SOL    HW133908   2.112   4.177   7.248 -1.0040 -0.8824  2.1608
 7483SOL    HW233909   2.199   4.171   7.367  1.0903 -1.3571  0.2641
 7484SOL     OW33910   3.650   3.502   8.378  0.3451  0.6378  0.2677
 7484SOL    HW133911   3.604   3.580   8.408  1.4788  1.1653  0.6250
 7484SOL    HW233912   3.733   3.517   8.424  0.3191 -1.3863  0.9729
 7485SOL     OW33913   2.188   4.271  11.845  0.3302 -0.0993  0.1202
 7485SOL    HW133914   2.161   4.288  11.755  1.9884 -0.6779 -0.4715
 7485SOL    HW233915   2.279   4.300  11.839  0.8186 -1.5645  0.4946
 7486SOL     OW33916   4.150   1.276  10.362  0.3557 -0.5350  0.0914
 7486SOL    HW133917   4.113   1.194  10.330  1.2822 -1.4350  1.3383
 7486SOL    HW233918   4.242   1.251  10.372  0.3706  0.1502  1.5626
 7487SOL     OW33919   1.579   2.007  15.651 -0.2527 -0.4157  0.3570
 7487SOL    HW133920   1.521   1.981  15.579 -1.7930  0.6074  1.2191
 7487SOL    HW233921   1.562   1.938  15.715 -2.9440 -0.4165 -0.3621
 7488SOL     OW33922   2.841   4.431   2.266  0.4673 -0.0981  0.1531
 7488SOL    HW133923   2.929   4.404   2.241  0.2932  0.7751 -1.4738
 7488SOL    HW233924   2.847   4.519   2.229  0.8785  0.4066  1.4222
 7489SOL     OW33925   0.099   4.171   2.860  0.3510 -0.4547 -0.1813
 7489SOL    HW133926   0.014   4.146   2.898  1.1354 -3.0364 -0.1405
 7489SOL    HW233927   0.099   4.110   2.786 -2.3292 -1.0740  0.2921
 7490SOL     OW33928   3.233   0.520  12.490  0.2869  0.3915 -0.0560
 7490SOL    HW133929   3.325   0.514  12.465 -0.1110  1.5262 -1.7646
 7490SOL    HW233930   3.195   0.553  12.409 -0.0116  0.0320 -0.0635
 7491SOL     OW33931   1.115   2.534   5.115  0.3386 -0.7911  0.0116
 7491SOL    HW133932   1.045   2.536   5.050 -0.5949 -1.3039  0.9958
 7491SOL    HW233933   1.185   2.550   5.052 -0.4499 -1.5956 -1.0618
 7492SOL     OW33934   1.877   1.536  16.008 -0.8504 -0.0128  0.4793
 7492SOL    HW133935   1.827   1.551  16.088 -1.4773 -0.0264  0.0934
 7492SOL    HW233936   1.800   1.509  15.958 -1.4501  1.7561  0.4338
 7493SOL     OW33937   2.174   2.379   3.465 -0.0316  0.1090 -0.1959
 7493SOL    HW133938   2.094   2.346   3.507 -0.2941 -0.1315 -0.8805
 7493SOL    HW233939   2.215   2.444   3.522 -1.3925  0.4575  0.3767
 7494SOL     OW33940   2.707   2.939   0.185  0.3266  0.6362  0.5961
 7494SOL    HW133941   2.632   2.960   0.241 -1.3886 -2.0852 -0.6729
 7494SOL    HW233942   2.737   2.864   0.235 -0.3503 -0.4093 -0.5484
 7495SOL     OW33943   3.031   2.131   2.556 -0.0711  0.0776  0.0159
 7495SOL    HW133944   3.102   2.192   2.535 -1.1129  1.2585 -0.0638
 7495SOL    HW233945   2.966   2.199   2.571 -1.1242 -1.0984  0.8027
 7496SOL     OW33946   2.327   3.817   7.287 -0.0419 -0.5838  0.2965
 7496SOL    HW133947   2.410   3.786   7.249 -1.2476 -1.7839 -1.3724
 7496SOL    HW233948   2.357   3.878   7.354  0.7828  1.7895 -2.2296
 7497SOL     OW33949   2.632   4.361   7.939 -0.8031  0.3346 -0.0941
 7497SOL    HW133950   2.613   4.412   7.861  0.7532  0.3953 -0.4334
 7497SOL    HW233951   2.691   4.295   7.905  0.0730  1.9729 -1.7420
 7498SOL     OW33952   4.418   1.517   3.992  0.1824 -0.2134 -0.0116
 7498SOL    HW133953   4.395   1.425   3.999 -0.6410  0.2423  2.9795
 7498SOL    HW233954   4.473   1.521   3.914  1.3161 -2.8970  0.6463
 7499SOL     OW33955   4.092   0.055   2.791  0.1216 -0.7748 -1.1508
 7499SOL    HW133956   4.116   0.013   2.708 -1.5619 -0.9948 -1.5227
 7499SOL    HW233957   4.129   0.002   2.861  1.1211  0.4708 -0.7383
 7500SOL     OW33958   0.153   3.461   0.200 -0.0026  0.2756 -0.2917
 7500SOL    HW133959   0.248   3.456   0.196  0.1557  2.8643  0.8143
 7500SOL    HW233960   0.130   3.375   0.235  1.8012  0.2860  0.9234
 7501SOL     OW33961   4.394   2.795  10.710 -0.7310 -0.3289 -0.0027
 7501SOL    HW133962   4.427   2.885  10.707  1.9271 -1.3790 -2.3334
 7501SOL    HW233963   4.418   2.783  10.802  0.1936  0.8730 -0.0788
 7502SOL     OW33964   1.988   1.324   6.828  0.5769  0.2659 -0.0742
 7502SOL    HW133965   2.073   1.327   6.871  1.1684  0.8907 -1.2949
 7502SOL    HW233966   1.943   1.379   6.892 -2.9545 -2.7871  0.0454
 7503SOL     OW33967   2.553   2.705   2.571  0.1779  0.3524 -0.4536
 7503SOL    HW133968   2.486   2.672   2.631 -0.8097 -0.8043 -2.1957
 7503SOL    HW233969   2.611   2.629   2.577  0.9182  0.9766  0.3314
 7504SOL     OW33970   3.947   2.508  14.061 -0.6071  0.4530  0.0229
 7504SOL    HW133971   3.934   2.603  14.061 -0.7992  0.4258 -0.5581
 7504SOL    HW233972   3.935   2.486  14.153  0.7236  1.3775  0.4225
 7505SOL     OW33973   2.092   2.731   0.196 -0.4123 -0.1584 -0.0676
 7505SOL    HW133974   2.174   2.701   0.157 -0.4403 -0.2057 -0.0904
 7505SOL    HW233975   2.115   2.703   0.284 -1.3637  1.0182  0.5531
 7506SOL     OW33976   0.061   0.217   1.794 -0.2470 -0.2033 -0.2779
 7506SOL    HW133977   0.048   0.285   1.859 -1.8144  0.1958 -1.0040
 7506SOL    HW233978   0.020   0.259   1.719  2.1902 -0.1361 -1.5951
 7507SOL     OW33979   1.308   0.044   1.853 -0.5000  0.6203 -0.4801
 7507SOL    HW133980   1.301   4.679   1.887  1.5666 -0.9252 -4.1437
 7507SOL    HW233981   1.270   0.026   1.767  0.2565 -2.5933 -0.1331
 7508SOL     OW33982   4.271   3.477   2.251  0.1674  0.1719  0.0730
 7508SOL    HW133983   4.206   3.433   2.305 -0.2847  1.3602  0.4981
 7508SOL    HW233984   4.310   3.392   2.230  0.7358  0.9090 -1.8627
 7509SOL     OW33985   2.713   3.004  12.000  0.0171 -0.2117 -0.1514
 7509SOL    HW133986   2.662   2.979  11.924  0.0658 -1.3501  0.1866
 7509SOL    HW233987   2.664   3.081  12.030  1.2626  1.2641 -1.8534
 7510SOL     OW33988   2.321   0.580   3.605  0.3508 -0.3304  0.9082
 7510SOL    HW133989   2.324   0.520   3.530  1.1151 -0.3206  0.9295
 7510SOL    HW233990   2.392   0.538   3.654  1.6805 -1.2376 -1.8352
 7511SOL     OW33991   3.295   4.356  13.067  0.0047 -0.4279 -0.0746
 7511SOL    HW133992   3.298   4.348  12.972 -0.3432 -0.4814 -0.0824
 7511SOL    HW233993   3.200   4.371  13.070  0.3895  1.7394  0.7511
 7512SOL     OW33994   3.413   3.517   4.627  0.3538 -0.0925 -0.4359
 7512SOL    HW133995   3.412   3.526   4.531  0.1917 -0.3951 -0.4623
 7512SOL    HW233996   3.397   3.609   4.648  0.9436  0.3814 -2.0522
 7513SOL     OW33997   1.716   3.801   5.188 -0.0097 -0.5062  0.2724
 7513SOL    HW133998   1.759   3.792   5.273 -0.5166  0.9374  0.6787
 7513SOL    HW233999   1.665   3.880   5.206 -0.3758 -0.1275 -2.5000
 7514SOL     OW34000   2.388   1.854   8.703 -0.5080  0.4823 -0.4813
 7514SOL    HW134001   2.422   1.857   8.793  0.6925 -0.2620 -0.9246
 7514SOL    HW234002   2.319   1.790   8.721 -0.5090  0.9955  1.3564
 7515SOL     OW34003   1.071   1.284   9.090  0.4843 -0.6322  0.1080
 7515SOL    HW134004   1.096   1.313   9.178 -0.3903  1.7380 -0.4245
 7515SOL    HW234005   1.003   1.217   9.106 -2.8520  2.7017 -0.0909
 7516SOL     OW34006   2.813   1.498   8.337 -0.3620 -0.4125 -0.5036
 7516SOL    HW134007   2.750   1.456   8.396 -1.2493  2.3469  0.5177
 7516SOL    HW234008   2.861   1.419   8.312 -0.1045 -1.4069  2.9775
 7517SOL     OW34009   2.255   3.273  10.561  0.0594 -0.1319  0.1612
 7517SOL    HW134010   2.271   3.213  10.489 -0.9835  0.7409 -0.7908
 7517SOL    HW234011   2.166   3.298  10.536  0.8446  2.5113  0.0308
 7518SOL     OW34012   2.908   1.177   1.035 -0.0808  0.2577 -0.1115
 7518SOL    HW134013   2.837   1.147   0.977 -0.2169 -0.5609  0.4813
 7518SOL    HW234014   2.987   1.172   0.982 -0.7250 -1.4642 -0.8956
 7519SOL     OW34015   3.698   3.207   7.736  0.5452 -0.1288  0.1610
 7519SOL    HW134016   3.666   3.121   7.764 -1.3840  0.8964  1.1343
 7519SOL    HW234017   3.666   3.198   7.646  1.4212 -1.8795  0.0400
 7520SOL     OW34018   0.483   0.111  13.880 -0.3534 -0.3468  0.3911
 7520SOL    HW134019   0.468   0.016  13.888 -0.1329 -0.6476 -2.5565
 7520SOL    HW234020   0.577   0.103  13.860 -0.6889  1.2337 -1.8287
 7521SOL     OW34021   1.305   3.613   4.042 -0.2981 -0.2524  0.5074
 7521SOL    HW134022   1.268   3.526   4.054  0.7146 -0.9133 -1.0655
 7521SOL    HW234023   1.389   3.591   4.083  1.2466  0.4322 -2.2955
 7522SOL     OW34024   4.478   1.953   2.746 -0.7153 -0.2104  0.0491
 7522SOL    HW134025   4.396   1.976   2.702  0.1635  3.0127  0.0886
 7522SOL    HW234026   4.466   1.998   2.830  0.9407  1.0909 -0.4179
 7523SOL     OW34027   2.348   2.098   7.868  0.1710  0.3997  0.1121
 7523SOL    HW134028   2.395   2.017   7.850  0.9937  0.4748  1.9329
 7523SOL    HW234029   2.265   2.061   7.896  0.1836  0.7545  0.6113
 7524SOL     OW34030   1.621   3.692  12.440 -0.0160  0.3697 -0.9401
 7524SOL    HW134031   1.579   3.687  12.354  0.4374 -0.2191 -1.1264
 7524SOL    HW234032   1.582   3.613  12.477 -1.9689  1.1443 -1.3043
 7525SOL     OW34033   4.077   0.935  15.199 -0.4173  0.2579 -0.0200
 7525SOL    HW134034   4.155   0.943  15.255  1.0321  0.4659 -2.0571
 7525SOL    HW234035   4.017   1.006  15.219 -1.7122 -0.4109 -1.5159
 7526SOL     OW34036   2.677   1.205  12.377 -0.1193 -0.3418 -0.5537
 7526SOL    HW134037   2.608   1.139  12.374 -0.1388 -0.2805 -1.4073
 7526SOL    HW234038   2.664   1.252  12.460 -0.8800 -0.6828 -0.4796
 7527SOL     OW34039   0.405   3.379   4.773 -0.1857 -0.5345 -0.3191
 7527SOL    HW134040   0.395   3.464   4.817  1.0166 -1.8869  2.5678
 7527SOL    HW234041   0.429   3.405   4.684  2.0944 -1.5043  0.0244
 7528SOL     OW34042   4.100   4.322   2.332  0.6256 -0.1928 -0.7620
 7528SOL    HW134043   4.029   4.365   2.284  2.2396  1.3874 -1.7429
 7528SOL    HW234044   4.168   4.303   2.267 -0.6169  0.3035 -2.2148
 7529SOL     OW34045   2.706   3.028   5.930 -0.3470 -0.5397 -0.3304
 7529SOL    HW134046   2.698   3.068   5.843  0.5421  0.1146 -0.1023
 7529SOL    HW234047   2.616   3.036   5.962  0.0003 -0.0405  0.5174
 7530SOL     OW34048   1.247   4.568  17.343 -0.8544  0.4695  0.5986
 7530SOL    HW134049   1.182   4.608  17.286 -1.0228  0.8403  1.0470
 7530SOL    HW234050   1.207   4.490  17.381  0.1864 -1.1550 -1.7225
 7531SOL     OW34051   2.230   2.565  12.490  0.0814 -0.0548 -0.0901
 7531SOL    HW134052   2.260   2.590  12.578 -1.7921  2.1348 -0.0719
 7531SOL    HW234053   2.179   2.641  12.461 -0.3493 -0.0476  0.6778
 7532SOL     OW34054   4.448   0.194   6.984 -0.1568  0.0017 -0.6809
 7532SOL    HW134055   4.478   0.103   6.984 -0.1844 -0.0024 -1.3512
 7532SOL    HW234056   4.359   0.189   7.020  0.0070 -1.2231 -0.4371
 7533SOL     OW34057   0.629   3.622   8.209  0.7805 -0.0224  0.3865
 7533SOL    HW134058   0.679   3.703   8.210  2.1552 -0.8652 -0.1973
 7533SOL    HW234059   0.640   3.604   8.302  0.1384 -0.2447  0.4195
 7534SOL     OW34060   1.727   1.404   4.457  0.7502 -0.1545 -0.1178
 7534SOL    HW134061   1.707   1.429   4.547  0.5873 -0.4858 -0.0609
 7534SOL    HW234062   1.683   1.319   4.462  0.9544 -0.2875 -0.5729
 7535SOL     OW34063   0.513   3.733   0.636  0.5330  0.0154 -1.4008
 7535SOL    HW134064   0.498   3.827   0.639  0.2500 -0.0791  0.0445
 7535SOL    HW234065   0.604   3.708   0.651  0.2954  0.3172  0.4766
 7536SOL     OW34066   2.516   0.755   5.103  0.3397  0.9871  0.3082
 7536SOL    HW134067   2.474   0.797   5.177 -1.9348 -0.3134 -0.2581
 7536SOL    HW234068   2.512   0.817   5.030 -1.8581  0.4284 -0.0455
 7537SOL     OW34069   0.486   3.852   8.578  0.2787  0.3200  0.9595
 7537SOL    HW134070   0.543   3.898   8.516 -1.2186 -0.7634 -1.2058
 7537SOL    HW234071   0.433   3.909   8.635  0.7754 -1.0762  2.8261
 7538SOL     OW34072   0.387   2.538   3.010  0.4127  0.0880 -0.4895
 7538SOL    HW134073   0.391   2.455   2.963 -3.7899 -0.2744 -0.1749
 7538SOL    HW234074   0.379   2.498   3.097  3.3667 -0.5534 -0.4985
 7539SOL     OW34075   4.514   3.654   3.078  0.0252 -0.0533  0.0495
 7539SOL    HW134076   4.497   3.748   3.078  0.9724  0.1125  1.4018
 7539SOL    HW234077   4.425   3.620   3.073 -0.6775  1.8837 -0.6503
 7540SOL     OW34078   3.373   2.257   8.015 -0.1664  0.1279 -0.1305
 7540SOL    HW134079   3.430   2.334   8.007 -0.1697  0.0174 -1.2862
 7540SOL    HW234080   3.297   2.277   7.960  0.3629  0.1504 -0.8583
 7541SOL     OW34081   2.597   4.656   1.410  0.6055  0.1647 -0.2144
 7541SOL    HW134082   2.645   4.624   1.334  0.2435  0.7643 -0.6989
 7541SOL    HW234083   2.587   0.026   1.394 -1.7112 -0.2322 -1.1682
 7542SOL     OW34084   2.491   2.410   6.542  0.3430  0.3368 -0.1526
 7542SOL    HW134085   2.440   2.489   6.525 -1.5975 -1.0518 -0.6997
 7542SOL    HW234086   2.553   2.428   6.472 -1.1835  3.3724 -0.7033
 7543SOL     OW34087   4.127   0.520   8.093 -0.1335  0.2563 -0.5048
 7543SOL    HW134088   4.109   0.427   8.081 -0.7972  0.4889 -1.3233
 7543SOL    HW234089   4.095   0.545   8.180 -1.3932  1.7164 -1.3803
 7544SOL     OW34090   3.273   3.362   1.741 -0.0915 -0.2349  0.3728
 7544SOL    HW134091   3.231   3.276   1.737 -0.0146 -0.3109  1.1406
 7544SOL    HW234092   3.341   3.334   1.802  1.2700  0.0325 -1.0476
 7545SOL     OW34093   0.068   3.599  16.525 -0.7184  0.2211 -0.8074
 7545SOL    HW134094   0.121   3.662  16.476 -0.5218 -1.3162 -2.6036
 7545SOL    HW234095   0.011   3.659  16.572 -0.8626 -0.9584  0.5093
 7546SOL     OW34096   0.254   2.006  13.223 -0.2721 -0.3852  0.2978
 7546SOL    HW134097   0.321   1.995  13.155 -0.5015  2.4218 -0.3794
 7546SOL    HW234098   0.296   2.003  13.309  0.1218  1.4347  0.1828
 7547SOL     OW34099   3.278   1.931   2.048 -0.0308 -0.6596 -0.0390
 7547SOL    HW134100   3.318   1.845   2.058  0.3384 -0.3883  0.8546
 7547SOL    HW234101   3.223   1.943   2.126  1.7701  1.0271  0.9541
 7548SOL     OW34102   1.991   1.033  12.071 -0.4646  0.3776 -0.8164
 7548SOL    HW134103   2.017   1.091  12.142 -1.2478 -1.7807  1.2194
 7548SOL    HW234104   2.047   0.959  12.094 -2.0342 -0.1168  1.3483
 7549SOL     OW34105   4.548   0.137   3.156  0.4869  0.4690  0.4026
 7549SOL    HW134106   4.591   0.085   3.224 -1.0977 -1.1189  0.1764
 7549SOL    HW234107   4.617   0.198   3.128  1.2379 -0.5309  0.0772
 7550SOL     OW34108   0.358   0.994  13.842 -0.0689 -0.2701 -0.7495
 7550SOL    HW134109   0.401   0.939  13.776 -0.9488  1.7292 -2.9911
 7550SOL    HW234110   0.418   0.983  13.916  0.3677  0.3869 -1.0019
 7551SOL     OW34111   0.360   1.286   9.982 -0.1897  0.0890  0.1388
 7551SOL    HW134112   0.267   1.284  10.005 -0.1650 -2.2853  0.0172
 7551SOL    HW234113   0.408   1.307  10.063 -1.7848  1.2069  0.7980
 7552SOL     OW34114   2.928   2.338   5.203  0.0817  0.3780  0.3466
 7552SOL    HW134115   2.882   2.256   5.185  3.0138 -1.0188 -0.7491
 7552SOL    HW234116   2.871   2.367   5.274 -0.3053  0.8480 -0.1544
 7553SOL     OW34117   2.856   4.105   2.016  0.0866  0.1466 -0.2693
 7553SOL    HW134118   2.932   4.048   2.001  0.4525  0.5633 -0.0083
 7553SOL    HW234119   2.824   4.063   2.095  0.7933  0.0595 -0.0224
 7554SOL     OW34120   4.047   1.013   4.557 -0.0567  0.0206  0.1911
 7554SOL    HW134121   4.106   1.089   4.553 -0.7258  0.4255 -2.1002
 7554SOL    HW234122   3.956   1.042   4.552  0.0382  0.2872 -0.0144
 7555SOL     OW34123   3.989   0.662   5.152  0.2005  0.3415  0.0610
 7555SOL    HW134124   4.022   0.587   5.200 -0.0251  0.3455  0.2236
 7555SOL    HW234125   3.899   0.686   5.176  0.9722  3.2327  0.1303
 7556SOL     OW34126   1.723   2.060   6.552 -0.2435 -0.1743 -0.4637
 7556SOL    HW134127   1.774   2.137   6.575 -0.8003 -0.3642  1.3733
 7556SOL    HW234128   1.776   1.996   6.600 -0.6482 -0.6881 -0.6880
 7557SOL     OW34129   3.125   3.001  15.302 -0.7209  0.5803  0.2722
 7557SOL    HW134130   3.105   3.089  15.269 -0.1320  1.6944  2.8262
 7557SOL    HW234131   3.186   2.975  15.234 -0.0611  2.4609  0.1558
 7558SOL     OW34132   3.339   0.402  11.928 -0.3114 -0.2154  0.6496
 7558SOL    HW134133   3.270   0.464  11.905 -1.9178 -2.0060  0.7012
 7558SOL    HW234134   3.283   0.332  11.961 -2.3173  1.8934  1.7196
 7559SOL     OW34135   0.402   4.178   6.156 -0.3214  0.4240 -0.1794
 7559SOL    HW134136   0.375   4.087   6.147 -0.2989  0.3937  0.0640
 7559SOL    HW234137   0.339   4.214   6.217 -0.6722 -0.3472 -0.0912
 7560SOL     OW34138   2.455   0.293   5.981  0.6472 -0.3978 -0.0101
 7560SOL    HW134139   2.362   0.271   5.982  0.7480 -0.7812  0.5188
 7560SOL    HW234140   2.492   0.205   5.987  1.2369 -0.1377  0.1584
 7561SOL     OW34141   4.524   0.827   7.555  0.5621  0.4058 -0.1619
 7561SOL    HW134142   4.534   0.910   7.602 -1.1072  0.8130 -0.5228
 7561SOL    HW234143   4.554   0.768   7.624 -0.9931  0.1325  0.2673
 7562SOL     OW34144   1.755   1.026   1.513  0.0330  0.0666 -0.6719
 7562SOL    HW134145   1.761   1.107   1.564  0.9811  0.2824 -1.1359
 7562SOL    HW234146   1.668   1.030   1.473 -0.2020 -1.5132 -0.3068
 7563SOL     OW34147   4.310   3.053   5.121 -0.0263 -0.1862  0.9315
 7563SOL    HW134148   4.386   2.994   5.125  0.4735  0.3039 -1.6273
 7563SOL    HW234149   4.291   3.064   5.214 -1.9545  0.8777  0.4153
 7564SOL     OW34150   3.458   0.291   3.343 -0.2800  0.0648 -0.3016
 7564SOL    HW134151   3.391   0.281   3.276 -0.8418  1.4288  0.0676
 7564SOL    HW234152   3.453   0.217   3.403  0.4201  0.4025  0.1810
 7565SOL     OW34153   1.166   4.142  13.500 -0.3956 -0.1498  0.0991
 7565SOL    HW134154   1.159   4.226  13.455  1.9595  0.0629  0.0989
 7565SOL    HW234155   1.165   4.172  13.591 -1.7554  3.2534 -1.0276
 7566SOL     OW34156   3.524   0.638   4.212  0.0963 -0.2935 -0.1738
 7566SOL    HW134157   3.486   0.648   4.125  0.3538 -0.2481 -0.2797
 7566SOL    HW234158   3.550   0.546   4.212  0.6185 -0.1396 -1.7802
 7567SOL     OW34159   0.076   2.935   7.576  0.4215 -0.0153 -0.5579
 7567SOL    HW134160   4.716   2.931   7.530  0.7713  0.4134 -1.2473
 7567SOL    HW234161   0.132   2.948   7.499  1.1966 -2.0303 -0.3264
 7568SOL     OW34162   0.354   3.836  13.890 -0.3937  0.1054  0.4459
 7568SOL    HW134163   0.326   3.889  13.815  0.6657 -0.5365 -0.3978
 7568SOL    HW234164   0.444   3.867  13.893 -0.1452 -0.7288  1.5008
 7569SOL     OW34165   0.865   2.955   3.416  0.3509  0.0769  0.3722
 7569SOL    HW134166   0.901   3.029   3.367 -4.4029  1.6271 -0.6888
 7569SOL    HW234167   0.943   2.918   3.459  0.9409  1.1441  0.2239
 7570SOL     OW34168   3.511   2.045  15.039 -0.3337 -0.6471  0.7001
 7570SOL    HW134169   3.449   2.003  15.098 -1.7351 -0.4781 -0.6657
 7570SOL    HW234170   3.538   1.981  14.973 -1.9270 -0.3410 -0.2424
 7571SOL     OW34171   1.046   1.226   7.601  0.3827  0.3925  0.3541
 7571SOL    HW134172   1.135   1.245   7.628 -0.3205  2.1862  1.4347
 7571SOL    HW234173   1.007   1.268   7.678  1.6120  0.8833  0.7027
 7572SOL     OW34174   2.853   1.635  11.256  0.0636 -0.7765 -0.0547
 7572SOL    HW134175   2.910   1.560  11.240 -0.6396 -1.4650  0.6457
 7572SOL    HW234176   2.835   1.622  11.349 -2.0379  0.6590 -0.2702
 7573SOL     OW34177   2.733   1.875   0.109 -0.5444  0.1751 -0.3416
 7573SOL    HW134178   2.753   1.928   0.032 -4.3958 -0.9134 -2.0633
 7573SOL    HW234179   2.721   1.945   0.172 -1.1737  0.9542 -1.3253
 7574SOL     OW34180   2.548   0.359  13.846 -0.1315  0.0933  0.0097
 7574SOL    HW134181   2.579   0.440  13.886  1.6957 -0.0815 -1.0475
 7574SOL    HW234182   2.602   0.361  13.767  2.2497 -0.2341  1.6400
 7575SOL     OW34183   3.561   3.632  12.145 -0.1298 -0.3060 -0.4480
 7575SOL    HW134184   3.491   3.597  12.089 -1.5429  2.7015 -0.6219
 7575SOL    HW234185   3.599   3.561  12.196 -0.0201  0.4154  0.4888
 7576SOL     OW34186   2.307   1.693   6.885 -0.9775 -0.9246  0.1399
 7576SOL    HW134187   2.270   1.653   6.963  0.2695 -1.6596  0.3427
 7576SOL    HW234188   2.382   1.638   6.863  0.0243  0.3338  0.3868
 7577SOL     OW34189   3.148   2.898   3.182 -0.1111  0.1388 -0.0511
 7577SOL    HW134190   3.222   2.846   3.151  0.9718  0.5349  1.9032
 7577SOL    HW234191   3.166   2.885   3.275  0.0193 -0.4227 -0.1579
 7578SOL     OW34192   1.518   0.943  13.612  0.4999 -0.1795  0.6796
 7578SOL    HW134193   1.462   1.020  13.624  0.2376 -0.6338  2.3658
 7578SOL    HW234194   1.604   0.983  13.620  0.8729 -0.6090 -1.3556
 7579SOL     OW34195   0.944   1.369   8.591 -0.3451 -0.4062  0.3795
 7579SOL    HW134196   0.974   1.279   8.578 -1.4673 -0.4785 -1.7932
 7579SOL    HW234197   0.976   1.392   8.678 -0.2496  0.5701  0.0908
 7580SOL     OW34198   1.708   2.024   4.591 -0.2507  0.1363 -0.2763
 7580SOL    HW134199   1.728   2.117   4.597  0.6320 -0.0358 -0.6860
 7580SOL    HW234200   1.774   1.986   4.650 -0.5688 -0.3631 -0.2364
 7581SOL     OW34201   1.791   1.806  13.065 -0.3612  0.7949 -0.4403
 7581SOL    HW134202   1.865   1.867  13.065  0.8014 -0.6189  0.0448
 7581SOL    HW234203   1.811   1.766  12.980  0.2089 -1.5615  0.7948
 7582SOL     OW34204   0.612   4.643   6.278  0.0147  0.0031  0.0382
 7582SOL    HW134205   0.583   4.552   6.284 -0.5653  0.2551  0.9280
 7582SOL    HW234206   0.700   4.630   6.243 -0.2690 -0.0525 -0.6537
 7583SOL     OW34207   2.382   3.326   7.220  0.2949 -0.3684  0.1499
 7583SOL    HW134208   2.355   3.342   7.310 -1.1284 -0.3097 -0.2817
 7583SOL    HW234209   2.359   3.233   7.218  0.5938 -0.4473  0.3039
 7584SOL     OW34210   3.826   0.233   4.054  0.0677 -0.0985  0.2205
 7584SOL    HW134211   3.894   0.228   4.122  0.2395  2.5317  0.2320
 7584SOL    HW234212   3.872   0.292   3.995 -0.8961  1.8522  1.4417
 7585SOL     OW34213   4.160   2.416   3.093  0.6716 -0.0186  0.0472
 7585SOL    HW134214   4.246   2.444   3.123  1.3912  0.5962 -2.6392
 7585SOL    HW234215   4.109   2.398   3.172 -0.2351 -2.2487 -1.0536
 7586SOL     OW34216   0.736   1.104  14.638  0.1757 -0.4264  0.4496
 7586SOL    HW134217   0.737   1.170  14.567 -2.1352  0.1674  0.9758
 7586SOL    HW234218   0.643   1.112  14.657  0.1112  0.8448 -0.3314
 7587SOL     OW34219   2.187   3.281   9.981 -0.7976  0.0697 -0.1160
 7587SOL    HW134220   2.217   3.232   9.904 -0.7575  0.9761 -0.6728
 7587SOL    HW234221   2.265   3.333  10.001 -0.7020 -1.2403  2.8601
 7588SOL     OW34222   0.661   3.029  16.477  0.1405 -0.7652  0.5216
 7588SOL    HW134223   0.604   3.017  16.553  0.7376 -2.0242  0.7704
 7588SOL    HW234224   0.738   3.072  16.512  1.2245 -1.5850 -0.8462
 7589SOL     OW34225   3.444   1.819   3.758 -0.4246  0.6276  0.0149
 7589SOL    HW134226   3.356   1.854   3.748  0.1944  2.2288  0.2462
 7589SOL    HW234227   3.507   1.885   3.729  0.5963 -0.1547  0.4032
 7590SOL     OW34228   3.585   2.609   3.056 -0.2368  0.2227  0.6197
 7590SOL    HW134229   3.550   2.552   3.125 -0.4585 -0.0694  0.2647
 7590SOL    HW234230   3.627   2.547   2.996  0.3922 -0.8855  2.2175
 7591SOL     OW34231   3.491   1.642  10.046 -0.1395 -0.6081  0.3139
 7591SOL    HW134232   3.433   1.566  10.049 -0.3548 -0.4519  0.0407
 7591SOL    HW234233   3.538   1.625   9.965 -0.6953 -1.7202  0.2245
 7592SOL     OW34234   4.233   3.828  10.012 -0.3551 -0.2919  0.2063
 7592SOL    HW134235   4.212   3.921  10.016  0.3067 -0.1629  0.7768
 7592SOL    HW234236   4.319   3.822  10.055  0.0429 -0.0398 -0.5551
 7593SOL     OW34237   1.338   2.882   5.182  0.0807  0.1908 -0.0259
 7593SOL    HW134238   1.319   2.801   5.230 -1.3963 -0.4453 -1.6522
 7593SOL    HW234239   1.431   2.871   5.158 -0.3223  1.0857 -2.0568
 7594SOL     OW34240   3.289   0.434   3.736 -0.0927 -0.4832  0.3266
 7594SOL    HW134241   3.215   0.470   3.785 -0.7095  0.0513 -0.9991
 7594SOL    HW234242   3.295   0.495   3.662  0.1950 -1.2024 -0.2377
 7595SOL     OW34243   1.977   0.318  16.002  0.1237 -0.0466  0.3175
 7595SOL    HW134244   1.950   0.299  15.912 -1.1199 -1.8913  1.0911
 7595SOL    HW234245   2.066   0.340  15.976 -0.5628  0.4015 -1.6267
 7596SOL     OW34246   0.172   2.512   7.643 -0.3201 -0.2731  0.1213
 7596SOL    HW134247   0.148   2.557   7.561 -0.1716  0.3625  0.4294
 7596SOL    HW234248   0.161   2.421   7.616  0.1087  0.0770 -1.2337
 7597SOL     OW34249   3.358   3.481   6.680  0.6374 -0.6524 -0.4896
 7597SOL    HW134250   3.354   3.387   6.662 -0.1701 -0.1023 -3.1512
 7597SOL    HW234251   3.266   3.496   6.701  0.8605 -0.0109  0.0563
 7598SOL     OW34252   4.293   1.284   2.644 -0.3971 -0.2468  0.5925
 7598SOL    HW134253   4.334   1.346   2.584  1.0693 -1.1337  0.6885
 7598SOL    HW234254   4.290   1.202   2.595 -1.5804  0.4660 -0.5500
 7599SOL     OW34255   1.585   0.335   4.330 -0.1566  0.0704  0.2368
 7599SOL    HW134256   1.575   0.250   4.372  2.4806 -1.2243 -1.8048
 7599SOL    HW234257   1.512   0.347   4.270  0.2356 -2.0221 -0.6676
 7600SOL     OW34258   3.171   0.743   4.748  0.1250  0.0539  0.5433
 7600SOL    HW134259   3.255   0.701   4.725 -0.3149 -0.0378 -0.9077
 7600SOL    HW234260   3.168   0.826   4.701  0.2864 -0.6114 -0.6713
 7601SOL     OW34261   1.654   1.301   7.585 -0.3465 -0.3218 -0.1558
 7601SOL    HW134262   1.652   1.351   7.503  1.6633  0.5159  0.3101
 7601SOL    HW234263   1.730   1.246   7.565 -0.6218 -0.5537 -0.5793
 7602SOL     OW34264   4.328   3.820   4.240  0.2516 -0.0061 -0.1386
 7602SOL    HW134265   4.254   3.788   4.190 -0.0441 -0.2699  0.4723
 7602SOL    HW234266   4.347   3.741   4.290 -2.3432 -1.4872 -1.5035
 7603SOL     OW34267   0.984   0.390   5.814 -0.4088 -1.5404 -0.0159
 7603SOL    HW134268   0.952   0.362   5.728 -0.0419  0.0009 -0.6619
 7603SOL    HW234269   1.049   0.322   5.830  0.0118 -1.8407 -3.0449
 7604SOL     OW34270   3.555   2.390   3.568  0.5671  0.3912 -0.3443
 7604SOL    HW134271   3.638   2.343   3.577  0.5847  0.6914  1.0411
 7604SOL    HW234272   3.510   2.344   3.638  0.8084 -1.8839 -1.6560
 7605SOL     OW34273   4.018   2.396   4.928  0.0987  0.2801  0.1911
 7605SOL    HW134274   4.009   2.363   5.017  0.3591 -0.1511  0.0595
 7605SOL    HW234275   3.945   2.457   4.921 -2.1278 -2.4107 -0.0174
 7606SOL     OW34276   3.338   2.009   2.510 -0.0233 -0.8204  0.3643
 7606SOL    HW134277   3.295   2.006   2.425 -1.3993 -0.4301  1.0542
 7606SOL    HW234278   3.396   2.083   2.491  0.7424 -1.1826  1.2814
 7607SOL     OW34279   0.833   3.770   6.551 -0.0057  0.0816  0.4374
 7607SOL    HW134280   0.812   3.796   6.640 -2.8176  0.8977 -0.4678
 7607SOL    HW234281   0.885   3.691   6.563  0.1419  0.2719  1.0284
 7608SOL     OW34282   1.769   0.460   2.155  0.4141 -0.1632 -0.2998
 7608SOL    HW134283   1.782   0.428   2.066 -1.4994 -2.2304  0.1617
 7608SOL    HW234284   1.708   0.393   2.186 -0.3346  0.3956 -0.5893
 7609SOL     OW34285   4.456   1.324   5.488  0.2422 -0.0781  0.1793
 7609SOL    HW134286   4.386   1.265   5.513 -0.1010  0.3546  0.2355
 7609SOL    HW234287   4.428   1.408   5.524  0.1972 -0.4044  0.8988
 7610SOL     OW34288   0.476   3.715  10.289  0.0427  0.0831 -0.0568
 7610SOL    HW134289   0.481   3.677  10.377 -1.1426  2.8028  1.1829
 7610SOL    HW234290   0.489   3.638  10.235 -0.4733  1.7083 -2.4797
 7611SOL     OW34291   0.669   0.148   8.781 -0.1925 -0.2019  0.2242
 7611SOL    HW134292   0.706   0.209   8.844 -0.3760  0.9783 -0.8143
 7611SOL    HW234293   0.579   0.181   8.776 -0.5294 -1.1662 -0.0309
 7612SOL     OW34294   4.534   2.222  16.106 -0.4985  0.1469  0.2109
 7612SOL    HW134295   4.515   2.309  16.069 -1.9000 -0.9726 -1.7202
 7612SOL    HW234296   4.548   2.171  16.027  0.5297  0.4390  0.2118
 7613SOL     OW34297   4.669   0.795   8.875  0.1027 -0.4111 -0.6605
 7613SOL    HW134298   4.717   0.806   8.793 -0.0677  0.7241 -0.6044
 7613SOL    HW234299   4.582   0.824   8.847  0.2431 -0.3049 -0.9821
 7614SOL     OW34300   0.656   4.438   5.908 -0.9176 -0.1005  0.1271
 7614SOL    HW134301   0.648   4.484   5.824  2.4501 -1.7857 -1.1102
 7614SOL    HW234302   0.747   4.411   5.923 -0.3821  1.8415  0.4310
 7615SOL     OW34303   0.754   0.919   3.945 -0.4225  0.3806  0.3429
 7615SOL    HW134304   0.660   0.925   3.924 -0.3918 -0.6008 -0.0653
 7615SOL    HW234305   0.767   0.829   3.973 -0.2395 -0.2145 -1.6397
 7616SOL     OW34306   1.056   2.160   5.933  0.5054  0.2764 -0.0052
 7616SOL    HW134307   1.078   2.240   5.886  1.2731  1.2840  2.0836
 7616SOL    HW234308   0.979   2.185   5.985  0.6767  0.0547  0.3541
 7617SOL     OW34309   2.199   4.218   5.643  0.0216 -0.6707 -0.3975
 7617SOL    HW134310   2.281   4.245   5.603 -0.7399  1.1046 -0.7122
 7617SOL    HW234311   2.140   4.278   5.598  0.7924  1.5493  1.5579
 7618SOL     OW34312   4.679   0.019   3.739 -0.2494 -0.4531  0.4046
 7618SOL    HW134313   4.664   4.649   3.732 -0.9504 -0.4587  1.8724
 7618SOL    HW234314   4.630   0.040   3.660  0.6966 -0.0279 -0.0744
 7619SOL     OW34315   1.147   1.820   3.281 -0.0976 -0.4413  0.4154
 7619SOL    HW134316   1.118   1.793   3.368 -3.4504 -0.0038 -0.5798
 7619SOL    HW234317   1.169   1.732   3.251 -2.3659 -1.1851  0.9742
 7620SOL     OW34318   3.873   0.340   3.475 -0.2865  0.4466  0.2700
 7620SOL    HW134319   3.809   0.271   3.493 -0.6322  0.7878  0.3327
 7620SOL    HW234320   3.950   0.300   3.516 -2.0676 -2.0056  1.2203
 7621SOL     OW34321   3.601   2.650   4.371 -0.2343 -0.2533 -0.6141
 7621SOL    HW134322   3.553   2.729   4.347 -3.3373 -1.4736  1.5544
 7621SOL    HW234323   3.529   2.588   4.383 -2.5017  2.6847  0.8397
 7622SOL     OW34324   2.268   1.912   6.720  0.8948 -0.0334 -0.3118
 7622SOL    HW134325   2.285   1.824   6.753  2.8900  0.5134  0.1388
 7622SOL    HW234326   2.267   1.955   6.806  3.2626  2.6418 -1.6113
 7623SOL     OW34327   4.599   1.290   3.248 -0.0270  0.0402  0.3735
 7623SOL    HW134328   4.618   1.340   3.169  0.2194 -1.6860 -0.6723
 7623SOL    HW234329   4.688   1.267   3.276 -0.0227 -1.6032 -0.9635
 7624SOL     OW34330   3.187   4.011   5.735  0.1503 -0.0317 -0.3546
 7624SOL    HW134331   3.153   3.964   5.811  0.6083  1.5404  0.8122
 7624SOL    HW234332   3.213   3.936   5.681  2.1598  0.7106 -0.4066
 7625SOL     OW34333   3.768   1.548   6.092 -0.5712 -0.0753  0.2622
 7625SOL    HW134334   3.750   1.567   6.000  0.9451 -3.1008 -0.6574
 7625SOL    HW234335   3.791   1.455   6.084 -0.3906  0.0891 -1.1934
 7626SOL     OW34336   0.649   2.913   7.389  0.1012 -0.1042 -0.0812
 7626SOL    HW134337   0.704   2.836   7.401  0.4643 -0.2799 -2.8106
 7626SOL    HW234338   0.613   2.924   7.477 -0.1639  0.1154 -0.2146
 7627SOL     OW34339   0.936   1.175   7.209  0.3511  0.1673 -0.2577
 7627SOL    HW134340   0.931   1.087   7.244  2.0591 -1.0826 -3.1740
 7627SOL    HW234341   0.869   1.217   7.263 -1.6095 -0.0975 -2.5111
 7628SOL     OW34342   1.344   3.918  12.246 -0.1877 -0.3343 -0.0077
 7628SOL    HW134343   1.304   3.936  12.331  1.1669 -0.4693  0.6521
 7628SOL    HW234344   1.390   3.838  12.271  1.8594  0.7500 -0.3243
 7629SOL     OW34345   0.075   1.680   8.306 -0.1165 -0.7479  0.2222
 7629SOL    HW134346   4.718   1.650   8.346 -0.9139  0.0155 -0.8258
 7629SOL    HW234347   0.036   1.756   8.262 -1.1451 -1.3212  0.1550
 7630SOL     OW34348   2.141   2.216   2.263  0.1089  0.1572 -0.5901
 7630SOL    HW134349   2.059   2.265   2.270 -0.2821 -0.3499 -1.6717
 7630SOL    HW234350   2.153   2.192   2.171 -0.4467  1.5586 -1.0347
 7631SOL     OW34351   2.893   3.254   2.082  0.0808  0.3128 -1.0682
 7631SOL    HW134352   2.868   3.262   1.990  2.8648 -1.8796 -2.0159
 7631SOL    HW234353   2.916   3.161   2.088  2.6877  0.8480 -2.7270
 7632SOL     OW34354   1.389   1.768  16.078  0.0341  0.6485  0.0607
 7632SOL    HW134355   1.413   1.678  16.056 -0.2090 -0.2320  3.3346
 7632SOL    HW234356   1.420   1.774  16.169 -1.2441 -0.5333  0.5786
 7633SOL     OW34357   2.290   2.188   5.767  0.3749  0.0267 -0.1437
 7633SOL    HW134358   2.268   2.105   5.724  0.6784 -1.4259  2.4862
 7633SOL    HW234359   2.229   2.251   5.729  1.2178  1.0003  0.1304
 7634SOL     OW34360   1.927   2.278   2.581  0.5670 -0.6617 -0.1501
 7634SOL    HW134361   1.956   2.249   2.668  0.6772 -2.9819 -0.9733
 7634SOL    HW234362   1.888   2.366   2.586  1.4413 -0.3213  0.6529
 7635SOL     OW34363   1.548   3.246   7.571 -0.3475 -0.4179  0.2701
 7635SOL    HW134364   1.473   3.306   7.570 -1.0104 -1.2313  0.8839
 7635SOL    HW234365   1.598   3.268   7.649  0.7406 -1.3654 -0.1559
 7636SOL     OW34366   2.653   3.881   4.052 -0.4786  0.1085  0.6167
 7636SOL    HW134367   2.589   3.821   4.014  0.5783 -0.6119 -0.0532
 7636SOL    HW234368   2.707   3.820   4.102  1.5117  0.2759 -1.3000
 7637SOL     OW34369   3.962   4.179   1.992  0.2787 -0.6495  0.6287
 7637SOL    HW134370   4.055   4.157   1.980 -0.2688 -2.4630 -0.3712
 7637SOL    HW234371   3.970   4.267   2.027  0.0118 -0.1268 -0.6300
 7638SOL     OW34372   3.730   2.800   8.626  0.1190  0.2936 -0.3569
 7638SOL    HW134373   3.825   2.796   8.637  0.0719  3.4789  1.2192
 7638SOL    HW234374   3.701   2.854   8.700 -0.9928  0.1925 -0.7252
 7639SOL     OW34375   2.140   2.754   6.666 -0.5504 -0.0122 -0.4741
 7639SOL    HW134376   2.099   2.701   6.735  0.8111 -0.5430 -0.0776
 7639SOL    HW234377   2.113   2.844   6.683  0.9082  0.3046  0.1336
 7640SOL     OW34378   0.879   2.512   4.948 -0.1198  0.7078  0.1821
 7640SOL    HW134379   0.864   2.582   4.884 -0.5508  1.9285  1.6086
 7640SOL    HW234380   0.872   2.435   4.893  0.6564 -0.0749  1.1830
 7641SOL     OW34381   0.009   2.814   2.176  0.7417  0.0372  0.0830
 7641SOL    HW134382   4.715   2.723   2.150 -2.3123  0.6778 -0.1028
 7641SOL    HW234383   4.644   2.834   2.205  1.3943 -0.4038  2.3998
 7642SOL     OW34384   2.254   2.788   7.483 -0.1916  0.6081  0.6927
 7642SOL    HW134385   2.204   2.732   7.542 -1.6743  0.7096 -0.4664
 7642SOL    HW234386   2.287   2.837   7.559  2.0924  0.7808 -0.4148
 7643SOL     OW34387   0.156   1.036   4.500  0.2847  0.5291  0.1471
 7643SOL    HW134388   0.194   1.120   4.528  0.0358  0.5019  0.5710
 7643SOL    HW234389   0.123   1.059   4.414 -0.4031 -0.5094  0.1389
 7644SOL     OW34390   3.294   1.478   7.791 -0.2836 -0.1946 -0.6513
 7644SOL    HW134391   3.380   1.505   7.825 -0.7757 -0.6327  0.9454
 7644SOL    HW234392   3.249   1.441   7.867 -1.9280 -0.8395 -1.9492
 7645SOL     OW34393   3.545   0.120   4.942 -0.0068 -0.1039 -0.0286
 7645SOL    HW134394   3.623   0.174   4.928  1.1651 -1.5858  0.8731
 7645SOL    HW234395   3.547   0.112   5.037  1.7297 -0.1176 -0.0715
 7646SOL     OW34396   0.518   2.496   3.512  0.5624  0.2534 -0.3430
 7646SOL    HW134397   0.582   2.526   3.577  0.8542 -1.4010  0.1226
 7646SOL    HW234398   0.568   2.430   3.464  0.1635 -1.1133  1.1019
 7647SOL     OW34399   3.301   3.933   7.165  0.4344 -0.2739 -0.5365
 7647SOL    HW134400   3.247   3.866   7.207 -0.5687  0.9305  0.1073
 7647SOL    HW234401   3.251   4.012   7.187  0.2748 -0.6596  0.4916
 7648SOL     OW34402   1.153   0.375   7.431 -0.6792 -0.0946  0.1522
 7648SOL    HW134403   1.231   0.399   7.482  0.4845  1.7523 -2.5134
 7648SOL    HW234404   1.098   0.343   7.503  0.0049 -0.9563  0.2826
 7649SOL     OW34405   0.046   4.336   9.187 -0.2670 -0.0922  1.1720
 7649SOL    HW134406   4.694   4.379   9.148  0.4669 -0.7741 -1.0335
 7649SOL    HW234407   0.063   4.389   9.265  1.8501 -1.3199  1.5506
 7650SOL     OW34408   1.764   1.991   8.055  0.1875  0.1290 -0.0031
 7650SOL    HW134409   1.819   2.061   8.089  1.0389  0.7321 -2.6435
 7650SOL    HW234410   1.740   1.951   8.139 -1.5476  0.2278 -0.4474
 7651SOL     OW34411   3.349   4.616   5.886  0.0215  0.3904 -0.3362
 7651SOL    HW134412   3.401   4.539   5.861  0.4466  0.0744  1.5776
 7651SOL    HW234413   3.345   4.660   5.800  1.0383 -1.8664 -1.5342
 7652SOL     OW34414   1.622   1.069   2.753 -0.2884 -0.1429  0.0975
 7652SOL    HW134415   1.596   0.977   2.747 -0.2357  0.0508 -3.0849
 7652SOL    HW234416   1.621   1.075   2.848  0.3019  1.0436  0.0309
 7653SOL     OW34417   1.133   1.720   7.571  0.0477 -0.1947 -0.0013
 7653SOL    HW134418   1.049   1.722   7.525 -1.1265 -2.0759  2.0484
 7653SOL    HW234419   1.190   1.780   7.523 -0.3798  0.0943 -0.1447
 7654SOL     OW34420   2.159   1.853   6.477 -0.2068  0.0190 -0.3134
 7654SOL    HW134421   2.069   1.881   6.490 -0.7842 -0.9809 -2.2474
 7654SOL    HW234422   2.196   1.874   6.563 -1.4168  2.7744 -0.4903
 7655SOL     OW34423   2.891   4.407   4.192 -0.0210  0.4599  0.4010
 7655SOL    HW134424   2.937   4.376   4.270 -0.9854  0.5704  1.0212
 7655SOL    HW234425   2.831   4.334   4.177 -0.7561  0.9240  1.0535
 7656SOL     OW34426   3.339   1.674   2.055  0.1381 -0.1774 -0.6913
 7656SOL    HW134427   3.346   1.667   2.150 -1.0617  0.1782 -0.5695
 7656SOL    HW234428   3.419   1.629   2.028 -1.6665 -1.9136 -3.1534
 7657SOL     OW34429   0.796   1.714   4.642  0.0710  1.1553  0.1092
 7657SOL    HW134430   0.799   1.801   4.684  0.5936  0.2828  1.8918
 7657SOL    HW234431   0.798   1.742   4.550  0.7410  0.2252 -0.1581
 7658SOL     OW34432   2.231   0.163   9.084 -0.4413  0.7784 -0.2748
 7658SOL    HW134433   2.209   0.134   9.172 -0.1424 -0.0616 -0.4774
 7658SOL    HW234434   2.262   0.252   9.098 -1.2025  0.9960  0.0741
 7659SOL     OW34435   0.374   3.239  13.626 -0.2234 -0.3593  0.0430
 7659SOL    HW134436   0.416   3.181  13.563  0.0342 -0.7011  0.5308
 7659SOL    HW234437   0.446   3.298  13.650 -0.7617  0.1431  0.4474
 7660SOL     OW34438   2.547   3.468   5.265  0.3042 -1.4208 -0.1593
 7660SOL    HW134439   2.602   3.524   5.209  0.3135 -1.1790  0.0896
 7660SOL    HW234440   2.464   3.516   5.266  0.8409 -0.4784  0.1345
 7661SOL     OW34441   3.768   4.708   5.516  0.6419  0.0994  0.0798
 7661SOL    HW134442   3.676   0.008   5.513  0.0283 -2.1670  0.1807
 7661SOL    HW234443   3.783   4.683   5.425  1.0636 -0.5131  0.3121
 7662SOL     OW34444   3.015   2.851   2.310  0.3794  0.0265 -0.0480
 7662SOL    HW134445   2.927   2.882   2.290 -0.2497 -1.2583  0.7150
 7662SOL    HW234446   2.993   2.813   2.395  2.4114 -0.8517  0.0932
 7663SOL     OW34447   0.711   2.433  16.284 -0.2233 -0.2085  0.3158
 7663SOL    HW134448   0.655   2.481  16.224  0.5982 -1.3302 -1.3646
 7663SOL    HW234449   0.795   2.444  16.240 -1.3799  0.0774 -1.7864
 7664SOL     OW34450   4.590   2.601   8.370 -0.7254 -0.3314  0.2268
 7664SOL    HW134451   4.647   2.638   8.303 -1.4268 -0.2696 -0.3331
 7664SOL    HW234452   4.505   2.608   8.326 -0.3899  0.5195 -0.3005
 7665SOL     OW34453   2.143   1.585   5.811 -0.2874  0.2686 -0.1638
 7665SOL    HW134454   2.138   1.491   5.825 -0.7247  0.3236  0.0352
 7665SOL    HW234455   2.052   1.615   5.808 -1.0801 -2.3045 -1.5868
 7666SOL     OW34456   0.395   2.286   0.872  0.3800  0.2211  0.1010
 7666SOL    HW134457   0.363   2.368   0.909  0.8318 -0.4581  2.0096
 7666SOL    HW234458   0.472   2.267   0.925 -0.0666 -0.9550  0.3332
 7667SOL     OW34459   1.906   1.759   6.611 -0.0385  0.2764 -0.0921
 7667SOL    HW134460   1.819   1.729   6.584  0.3528 -0.1590 -0.8776
 7667SOL    HW234461   1.960   1.680   6.610 -2.6655 -1.4842 -3.6779
 7668SOL     OW34462   4.081   2.249   6.911  0.3770 -0.3816 -0.3604
 7668SOL    HW134463   4.089   2.275   7.003  0.1517 -0.1867 -0.3970
 7668SOL    HW234464   4.030   2.320   6.872 -0.3701 -0.5479  0.2970
 7669SOL     OW34465   3.427   0.168   9.390 -0.0061  0.0607  0.0325
 7669SOL    HW134466   3.435   0.074   9.407 -2.6599 -0.4274 -1.5429
 7669SOL    HW234467   3.333   0.182   9.400  0.1033 -0.0048  1.1743
 7670SOL     OW34468   1.045   0.573   6.545 -0.0445 -0.0178  0.1756
 7670SOL    HW134469   1.074   0.522   6.621  1.3815  0.6728  0.0987
 7670SOL    HW234470   0.972   0.623   6.580  0.0922 -0.7607  1.5236
 7671SOL     OW34471   1.909   2.478   7.357 -0.4619  0.4630 -0.2932
 7671SOL    HW134472   1.910   2.411   7.425  1.4271  0.0917 -0.6631
 7671SOL    HW234473   1.892   2.435   7.273  1.9847 -2.5143  0.7442
 7672SOL     OW34474   4.069   2.319   2.574 -0.3087  0.0398 -0.0324
 7672SOL    HW134475   4.050   2.306   2.667 -1.6798  0.6283 -0.2366
 7672SOL    HW234476   4.094   2.411   2.565 -0.0894  0.1424  1.6622
 7673SOL     OW34477   0.190   1.392   7.927  0.7817  0.0241 -0.3355
 7673SOL    HW134478   0.258   1.372   7.863  0.0185  0.4486 -1.2897
 7673SOL    HW234479   0.121   1.333   7.894  1.6091 -1.6650  0.9343
 7674SOL     OW34480   4.105   2.203   2.321  0.4225  0.0743  0.0271
 7674SOL    HW134481   4.105   2.234   2.411 -1.3836  1.6197 -0.5052
 7674SOL    HW234482   4.198   2.197   2.297  1.0399 -0.7257  2.6190
 7675SOL     OW34483   2.273   3.085   4.188  0.2542 -0.3219 -0.4731
 7675SOL    HW134484   2.240   3.073   4.277 -1.8901  3.2659 -0.8239
 7675SOL    HW234485   2.233   3.013   4.139 -2.1085  0.9728 -0.4254
 7676SOL     OW34486   3.454   1.863   5.987 -0.0507  0.1340 -0.3813
 7676SOL    HW134487   3.427   1.783   5.943  0.2162  0.2499 -0.7614
 7676SOL    HW234488   3.499   1.820   6.059  0.3157 -0.5491 -1.0159
 7677SOL     OW34489   2.108   1.883  12.724 -0.4001  0.2128  0.4589
 7677SOL    HW134490   2.166   1.849  12.792 -0.9705  1.7282  1.7155
 7677SOL    HW234491   2.118   1.977  12.737 -0.2263  0.3252 -0.4615
 7678SOL     OW34492   1.009   2.194   2.921 -0.5120  0.2413 -0.1163
 7678SOL    HW134493   1.020   2.102   2.898 -1.2605 -0.1050  0.8860
 7678SOL    HW234494   1.043   2.192   3.011  1.8858 -0.5682 -1.0609
 7679SOL     OW34495   1.839   1.823   1.825 -0.5494  0.1489 -0.6063
 7679SOL    HW134496   1.750   1.807   1.792  0.1019 -1.5351 -1.5057
 7679SOL    HW234497   1.856   1.908   1.784 -1.7662  0.1787 -1.0623
 7680SOL     OW34498   3.020   0.479   3.799  0.1858 -0.5231  0.3501
 7680SOL    HW134499   3.001   0.463   3.706  1.0625  1.9253 -0.2590
 7680SOL    HW234500   2.971   0.561   3.807  1.1179  0.1577 -0.7283
 7681SOL     OW34501   2.545   0.925   9.800 -0.2992  0.5242  0.7695
 7681SOL    HW134502   2.499   0.983   9.860  0.0768  0.4834  1.0947
 7681SOL    HW234503   2.620   0.980   9.776 -1.3451  0.3456 -2.9554
 7682SOL     OW34504   3.660   4.058   6.030 -0.4710 -0.3871  0.2271
 7682SOL    HW134505   3.615   4.141   6.044 -0.3609 -0.0904 -1.1426
 7682SOL    HW234506   3.683   4.080   5.940 -0.5936 -0.6163  0.1397
 7683SOL     OW34507   4.481   4.671  11.873  0.4116  0.1117  0.3204
 7683SOL    HW134508   4.461   4.600  11.933  0.0455  1.0046  1.2403
 7683SOL    HW234509   4.474   4.627  11.788  0.5116 -0.4155  0.5888
 7684SOL     OW34510   3.193   3.931  12.565 -0.8716  0.0972  0.3452
 7684SOL    HW134511   3.236   3.985  12.498  3.7981 -1.5435  1.9998
 7684SOL    HW234512   3.176   3.850  12.517 -0.4185  0.6553 -0.7628
 7685SOL     OW34513   0.330   1.079   5.417 -0.0594  0.5942 -0.3312
 7685SOL    HW134514   0.292   1.118   5.338  0.4659  0.1194 -0.8226
 7685SOL    HW234515   0.424   1.095   5.402 -0.1917  1.7619  0.0855
 7686SOL     OW34516   1.079   0.859   1.660  0.2158 -0.5452 -0.1050
 7686SOL    HW134517   1.019   0.880   1.731  0.5909 -1.0370  0.3532
 7686SOL    HW234518   1.055   0.921   1.591 -1.7447 -0.7087  0.4412
 7687SOL     OW34519   0.420   3.535   2.239 -0.4504 -0.6625  0.5080
 7687SOL    HW134520   0.447   3.570   2.154  0.0902  0.0172  0.9566
 7687SOL    HW234521   0.447   3.610   2.291  0.6549 -0.8270  0.1645
 7688SOL     OW34522   3.269   1.479   9.785  0.3822 -0.5222  0.5553
 7688SOL    HW134523   3.195   1.494   9.726  0.9611 -0.5210 -0.1794
 7688SOL    HW234524   3.243   1.537   9.856  0.6041 -2.2302  2.0350
 7689SOL     OW34525   0.533   0.966   8.393  0.2479 -0.3566 -0.2794
 7689SOL    HW134526   0.499   0.877   8.402  0.5807 -0.3910  0.5721
 7689SOL    HW234527   0.449   1.012   8.382 -0.4897 -1.5071  0.6389
 7690SOL     OW34528   3.472   4.402   7.650 -0.4476 -0.4090  0.7493
 7690SOL    HW134529   3.384   4.414   7.613 -0.2058  0.5621  0.4863
 7690SOL    HW234530   3.451   4.432   7.739 -2.0416  0.5173  0.0711
 7691SOL     OW34531   1.492   1.648   7.734  0.3394 -1.0965 -0.5057
 7691SOL    HW134532   1.463   1.740   7.732 -1.7355 -1.6592  3.4514
 7691SOL    HW234533   1.403   1.616   7.720 -0.1339  0.5743 -1.3961
 7692SOL     OW34534   4.535   0.454   8.506  0.3528  0.5816 -0.0526
 7692SOL    HW134535   4.586   0.408   8.439  1.3343  0.6962  0.6256
 7692SOL    HW234536   4.602   0.490   8.563  1.1105  1.3308 -1.4271
 7693SOL     OW34537   3.804   3.171  14.537  0.3926 -0.9454 -0.4373
 7693SOL    HW134538   3.754   3.181  14.456  0.3939 -0.7510 -0.4144
 7693SOL    HW234539   3.893   3.158  14.505  0.5354 -0.5366 -0.2051
 7694SOL     OW34540   1.689   2.539   6.464 -0.2204  0.4919 -0.0678
 7694SOL    HW134541   1.607   2.587   6.450 -0.8700 -0.7157 -0.3672
 7694SOL    HW234542   1.759   2.594   6.428 -1.5237  0.9163 -1.9705
 7695SOL     OW34543   1.853   0.934   5.476 -0.0962  0.0850 -0.3388
 7695SOL    HW134544   1.863   0.911   5.569 -0.1154 -1.5373 -0.7277
 7695SOL    HW234545   1.832   1.027   5.474 -0.2580  0.0024 -2.0673
 7696SOL     OW34546   3.272   1.609  16.545 -0.5576 -0.4506  0.0059
 7696SOL    HW134547   3.303   1.521  16.525  1.0412  0.4027 -1.3174
 7696SOL    HW234548   3.299   1.607  16.636 -0.6609 -0.6760  0.0316
 7697SOL     OW34549   1.815   2.912  15.991  0.0086 -0.1885 -0.2252
 7697SOL    HW134550   1.796   2.915  16.085  0.7915 -1.1464 -0.0262
 7697SOL    HW234551   1.911   2.916  15.993  0.0028 -0.5192  0.5837
 7698SOL     OW34552   2.590   2.694   6.532 -0.7477 -0.1173 -0.4068
 7698SOL    HW134553   2.672   2.722   6.573 -0.0826 -2.5423 -0.0683
 7698SOL    HW234554   2.523   2.720   6.595 -0.0014 -1.3018  0.8707
 7699SOL     OW34555   2.517   3.874   1.048  0.0577  0.0766 -0.0014
 7699SOL    HW134556   2.511   3.881   1.143  0.2678  0.3274 -0.0060
 7699SOL    HW234557   2.485   3.786   1.032  2.9122 -0.8945 -0.3514
 7700SOL     OW34558   3.527   1.369  16.772  0.5558  0.8511  0.7079
 7700SOL    HW134559   3.561   1.354  16.684 -0.5108 -0.4200  0.5052
 7700SOL    HW234560   3.432   1.376  16.761  0.8044  0.8657 -1.5599
 7701SOL     OW34561   4.303   4.625   3.682 -0.0075  0.6608 -0.4283
 7701SOL    HW134562   4.306   4.707   3.731 -0.0862  0.0306  0.6373
 7701SOL    HW234563   4.263   4.649   3.598  1.2359  0.2012 -1.1555
 7702SOL     OW34564   2.457   1.504   2.944  0.0200 -0.2233 -0.2485
 7702SOL    HW134565   2.524   1.544   2.887 -0.1716  0.6519  0.1422
 7702SOL    HW234566   2.400   1.485   2.869  1.0973  1.6560 -1.5550
 7703SOL     OW34567   1.581   0.561   6.938 -0.4312  1.0197  0.3057
 7703SOL    HW134568   1.544   0.483   6.981 -0.3914  1.1292  0.5367
 7703SOL    HW234569   1.579   0.539   6.845 -0.2289  1.1305  0.2766
 7704SOL     OW34570   2.122   0.311   0.839  0.1711 -0.0689  0.4024
 7704SOL    HW134571   2.145   0.343   0.926 -1.3512 -2.1076  1.5312
 7704SOL    HW234572   2.094   0.220   0.848  2.7927 -0.8127  0.9153
 7705SOL     OW34573   3.553   4.105   7.679 -0.6602 -0.1729 -0.0944
 7705SOL    HW134574   3.630   4.129   7.627 -0.5917 -1.2003 -0.4601
 7705SOL    HW234575   3.578   4.013   7.688 -1.3816 -0.2194  1.4375
 7706SOL     OW34576   1.096   4.092  12.082 -0.6283 -0.0405  0.3202
 7706SOL    HW134577   1.113   4.033  12.155 -2.8985 -1.7932 -0.5922
 7706SOL    HW234578   1.144   4.040  12.018 -0.3904 -1.1562  1.4123
 7707SOL     OW34579   2.119   1.157  15.121  0.1082 -0.3100 -0.3726
 7707SOL    HW134580   2.097   1.221  15.053 -1.6012 -2.4544 -1.8401
 7707SOL    HW234581   2.034   1.117  15.138 -1.0104  1.5351 -1.5619
 7708SOL     OW34582   1.828   3.184   8.268 -0.7368 -0.2129 -0.1718
 7708SOL    HW134583   1.852   3.097   8.238  0.7678 -0.5587  2.0322
 7708SOL    HW234584   1.914   3.223   8.285 -0.4213 -0.6271 -0.8267
 7709SOL     OW34585   3.249   4.146  15.593  0.0037 -0.2153  0.1473
 7709SOL    HW134586   3.240   4.091  15.671 -0.9135 -0.4892 -0.1551
 7709SOL    HW234587   3.329   4.116  15.550 -0.5416  0.2016 -1.1231
 7710SOL     OW34588   0.586   1.434   3.171 -0.0235  0.4907  0.2026
 7710SOL    HW134589   0.622   1.347   3.155 -1.6361 -0.2661  0.7450
 7710SOL    HW234590   0.626   1.492   3.106  0.4889 -0.6675 -0.4956
 7711SOL     OW34591   4.651   2.910   8.985  0.0725 -0.3040  0.0122
 7711SOL    HW134592   4.601   2.953   8.916 -0.9904  2.3807  2.4136
 7711SOL    HW234593   4.584   2.873   9.043  1.7495  1.1471  2.8499
 7712SOL     OW34594   2.579   2.673   6.147  0.0535  0.2079  0.6973
 7712SOL    HW134595   2.503   2.625   6.114  0.4512  0.3659 -0.4773
 7712SOL    HW234596   2.607   2.623   6.223  0.4430 -0.3738  0.1672
 7713SOL     OW34597   4.423   0.853   8.791  0.3173  0.3010  0.5282
 7713SOL    HW134598   4.414   0.923   8.855 -0.4732  0.6869 -0.0175
 7713SOL    HW234599   4.336   0.814   8.786  0.5091  0.0151 -0.5284
 7714SOL     OW34600   4.377   1.156  10.419 -0.6034  0.3281 -0.3452
 7714SOL    HW134601   4.408   1.138  10.508 -0.8835 -1.8282 -0.6918
 7714SOL    HW234602   4.387   1.070  10.379 -1.3112  0.4317 -0.7563
 7715SOL     OW34603   0.904   3.760   9.161  0.6219 -0.0127  0.3064
 7715SOL    HW134604   0.924   3.695   9.094  3.0419 -0.4451  1.4526
 7715SOL    HW234605   0.970   3.827   9.142  0.1917 -0.2995 -2.1816
 7716SOL     OW34606   4.669   1.127   1.019 -0.2037  0.2870 -0.7407
 7716SOL    HW134607   4.699   1.155   1.106 -0.6082 -2.0499  0.1543
 7716SOL    HW234608   4.714   1.043   1.012  1.0262  0.9014 -0.2728
 7717SOL     OW34609   1.441   2.464   8.913 -0.5421  0.6434  0.4538
 7717SOL    HW134610   1.452   2.490   8.821  1.5046 -1.9798 -0.0355
 7717SOL    HW234611   1.417   2.372   8.902 -0.4897  0.5964  0.7306
 7718SOL     OW34612   4.307   0.992   0.322 -0.1091 -0.2484  0.6266
 7718SOL    HW134613   4.252   0.916   0.306  0.3000 -0.0237 -1.7988
 7718SOL    HW234614   4.312   1.036   0.237 -0.2544 -1.0887  0.1843
 7719SOL     OW34615   1.485   4.413  17.333 -0.6806  0.5016 -0.8402
 7719SOL    HW134616   1.403   4.447  17.299 -1.3417  0.6247  0.8763
 7719SOL    HW234617   1.553   4.434  17.269 -0.2013 -1.9077 -1.1197
 7720SOL     OW34618   2.145   0.077   2.809 -0.3925 -0.5527  0.0024
 7720SOL    HW134619   2.221   0.040   2.855 -1.6737 -1.8445  1.0828
 7720SOL    HW234620   2.119   4.718   2.770 -1.9572 -0.4908  0.9072
 7721SOL     OW34621   3.366   1.179   6.669 -0.0243 -0.3470  0.4381
 7721SOL    HW134622   3.308   1.103   6.682 -0.1483 -0.1967  0.7677
 7721SOL    HW234623   3.445   1.146   6.627 -1.1092 -2.6548  0.1791
 7722SOL     OW34624   0.205   4.202  10.963  0.4908  0.4211  0.2027
 7722SOL    HW134625   0.214   4.188  10.868  0.2005  2.7387 -0.1596
 7722SOL    HW234626   0.291   4.194  11.004 -0.6278 -3.2274  1.8421
 7723SOL     OW34627   3.123   0.465   9.847  0.2285 -0.0707 -0.1884
 7723SOL    HW134628   3.176   0.406   9.794 -0.9444 -2.2598  1.0739
 7723SOL    HW234629   3.177   0.543   9.843 -1.4999  1.1187 -0.4951
 7724SOL     OW34630   1.286   3.272  15.727 -0.5275 -0.8028  0.1206
 7724SOL    HW134631   1.200   3.307  15.704  0.5186  0.6835 -1.5786
 7724SOL    HW234632   1.346   3.324  15.673  0.2849  0.0876  1.8837
 7725SOL     OW34633   3.690   4.694   2.780 -0.1540 -0.6369  0.0078
 7725SOL    HW134634   3.691   4.664   2.871 -0.5967 -1.6882 -0.3302
 7725SOL    HW234635   3.719   0.061   2.788 -0.3532 -0.8212  2.6910
 7726SOL     OW34636   2.942   2.062  14.094  0.0918  0.0865  0.2222
 7726SOL    HW134637   2.940   2.024  14.006  1.7631  2.5256 -0.8571
 7726SOL    HW234638   2.939   2.156  14.079  0.3638 -0.1790 -1.5288
 7727SOL     OW34639   1.811   4.645  15.546  0.4192 -0.0705 -0.0954
 7727SOL    HW134640   1.769   4.654  15.632 -0.5366  1.8765 -0.7820
 7727SOL    HW234641   1.866   4.566  15.547 -2.3403 -2.0088 -0.3302
 7728SOL     OW34642   0.863   4.109   4.292  0.3749 -0.6977 -0.8802
 7728SOL    HW134643   0.825   4.193   4.317  1.5385 -0.2512 -0.6640
 7728SOL    HW234644   0.845   4.113   4.197 -0.0050 -2.3706 -0.8822
 7729SOL     OW34645   3.178   0.486   7.141  0.4360  0.2665  0.4790
 7729SOL    HW134646   3.205   0.572   7.109  0.3655 -0.1915 -0.8295
 7729SOL    HW234647   3.132   0.512   7.220 -1.3905 -0.3850 -0.3740
 7730SOL     OW34648   0.064   2.595   6.401  0.4293 -0.8438 -0.2006
 7730SOL    HW134649   0.150   2.635   6.385 -0.7888  2.6381  1.8914
 7730SOL    HW234650   0.052   2.539   6.325  1.5472  1.6717 -2.2261
 7731SOL     OW34651   3.813   1.196  11.045  1.0563  0.6749 -0.2469
 7731SOL    HW134652   3.814   1.265  11.113  0.5193 -0.4484  0.8995
 7731SOL    HW234653   3.798   1.235  10.959 -0.3398 -1.0407 -0.7798
 7732SOL     OW34654   3.612   1.190  13.876  0.4015  0.5262  0.5156
 7732SOL    HW134655   3.608   1.268  13.819  1.1463  0.6762  0.6719
 7732SOL    HW234656   3.651   1.222  13.957  0.7482 -1.4256  1.1019
 7733SOL     OW34657   2.022   3.460   5.947 -0.1487  0.0803  0.5694
 7733SOL    HW134658   2.112   3.430   5.950 -0.6629 -1.4597  0.7435
 7733SOL    HW234659   2.018   3.519   5.871 -0.1129  0.7815  1.1083
 7734SOL     OW34660   0.957   4.073  13.233  0.4698 -0.3756 -0.3126
 7734SOL    HW134661   0.981   4.058  13.324 -0.8094  0.0020  0.0919
 7734SOL    HW234662   1.031   4.042  13.182 -0.3072  0.0864 -1.7397
 7735SOL     OW34663   0.608   1.411   8.172 -0.8187 -0.2881 -0.1143
 7735SOL    HW134664   0.700   1.385   8.175 -1.4296 -2.2502  1.1491
 7735SOL    HW234665   0.602   1.451   8.258 -2.2011  1.5341 -1.0641
 7736SOL     OW34666   4.705   1.250   4.039 -0.0036  0.1677 -0.1757
 7736SOL    HW134667   0.051   1.228   3.978  0.2449  0.0276  0.1631
 7736SOL    HW234668   4.643   1.291   3.979  0.2089 -0.5636 -0.8900
 7737SOL     OW34669   2.835   0.919   4.014  0.0611  0.3849 -0.1729
 7737SOL    HW134670   2.777   0.860   4.061  0.5059 -1.3673 -1.8008
 7737SOL    HW234671   2.842   0.877   3.928  2.5943 -0.7159  0.5707
 7738SOL     OW34672   0.555   3.133  13.443 -0.4883 -0.4661  0.7000
 7738SOL    HW134673   0.533   3.164  13.356 -1.1486 -2.5070  0.1239
 7738SOL    HW234674   0.569   3.039  13.432  4.4320  0.2743  0.8831
 7739SOL     OW34675   0.118   3.892  16.105  0.2254 -0.1845 -0.3231
 7739SOL    HW134676   0.192   3.833  16.119  0.7872  0.6011  0.0525
 7739SOL    HW234677   0.132   3.913  16.013 -0.7208  0.6296 -0.2708
 7740SOL     OW34678   0.428   2.803  12.108 -0.4660  0.2970  0.1040
 7740SOL    HW134679   0.334   2.804  12.125 -0.1797  1.6350  1.5570
 7740SOL    HW234680   0.427   2.851  12.025  0.5356  1.4371  0.7538
 7741SOL     OW34681   1.682   1.109  12.150 -1.1817  0.1084  0.9328
 7741SOL    HW134682   1.663   1.167  12.077 -0.1619 -1.3227 -0.4936
 7741SOL    HW234683   1.768   1.074  12.126 -1.7272 -1.4021  1.1952
 7742SOL     OW34684   4.588   2.792  12.508 -0.0045 -0.0418 -0.0302
 7742SOL    HW134685   4.573   2.808  12.602  1.0713 -2.7987  0.5916
 7742SOL    HW234686   4.498   2.764  12.489  0.6681 -1.4446 -1.1210
 7743SOL     OW34687   0.885   4.604   3.081  0.7340 -0.8876  0.3225
 7743SOL    HW134688   0.835   4.531   3.046  2.4877 -0.7437 -2.4936
 7743SOL    HW234689   0.875   4.671   3.013 -1.6816 -1.3424  0.2393
 7744SOL     OW34690   3.496   4.626   3.855  0.1643  0.4515  0.4157
 7744SOL    HW134691   3.548   4.679   3.915  1.2328  2.5922 -2.4008
 7744SOL    HW234692   3.567   4.577   3.813  1.3946  0.6336  2.2778
 7745SOL     OW34693   2.742   0.290  16.110  0.3963 -0.0982 -0.4992
 7745SOL    HW134694   2.658   0.251  16.088 -0.0292  0.4513  0.1362
 7745SOL    HW234695   2.711   0.356  16.172  3.2746  0.6538  0.1404
 7746SOL     OW34696   1.378   1.070  16.481  0.2482  0.4478  0.0279
 7746SOL    HW134697   1.446   1.108  16.537 -0.2602  0.6293  0.5179
 7746SOL    HW234698   1.409   1.101  16.395  0.6988  2.1077  0.7765
 7747SOL     OW34699   1.506   0.325   1.866  0.5474  0.0713  0.1786
 7747SOL    HW134700   1.572   0.394   1.863  0.4229  0.1864  0.0841
 7747SOL    HW234701   1.499   0.306   1.772  0.3125  0.6660  0.0769
 7748SOL     OW34702   2.295   0.350  13.951 -1.0213 -0.2103  0.5052
 7748SOL    HW134703   2.380   0.342  13.907 -1.9874 -2.2212 -0.9999
 7748SOL    HW234704   2.303   0.441  13.978 -1.3712  0.4666 -1.6527
 7749SOL     OW34705   0.070   1.088   4.770 -0.4240 -0.3500  0.1181
 7749SOL    HW134706   4.700   1.105   4.771 -0.1826  1.0276 -0.4806
 7749SOL    HW234707   0.060   0.996   4.745  2.0669 -0.3784 -0.7318
 7750SOL     OW34708   1.599   4.667   8.690 -0.4694  0.0038 -0.6106
 7750SOL    HW134709   1.592   4.718   8.610 -0.2414 -0.6598 -1.0576
 7750SOL    HW234710   1.566   0.010   8.749 -0.6274 -0.2020 -0.4625
 7751SOL     OW34711   3.375   3.918  10.054  0.3236  0.3430 -0.3464
 7751SOL    HW134712   3.342   3.984  10.115 -1.2600 -0.4751 -0.3300
 7751SOL    HW234713   3.345   3.835  10.091  1.2523 -2.0008 -4.7959
 7752SOL     OW34714   1.498   2.291  15.575  0.1256  0.0364  0.1876
 7752SOL    HW134715   1.516   2.207  15.617  0.0688 -1.0636 -2.0008
 7752SOL    HW234716   1.545   2.360  15.622 -0.5418  0.3898  0.3447
 7753SOL     OW34717   0.277   3.776   4.041  0.2486  0.4958 -0.2731
 7753SOL    HW134718   0.274   3.868   4.068 -1.5648  0.4361 -0.2891
 7753SOL    HW234719   0.304   3.782   3.949 -0.3145  1.1152 -0.4003
 7754SOL     OW34720   4.603   4.113   7.220 -0.0074 -0.3772 -0.4361
 7754SOL    HW134721   4.608   4.058   7.141  2.7250 -1.0324  0.1796
 7754SOL    HW234722   4.593   4.047   7.289  0.3659  2.4531  2.2717
 7755SOL     OW34723   2.291   2.580   7.748 -0.0021  0.2956 -0.3802
 7755SOL    HW134724   2.317   2.500   7.794 -1.1429 -0.1230 -0.4676
 7755SOL    HW234725   2.203   2.561   7.715 -0.2345 -1.3158  1.1454
 7756SOL     OW34726   3.505   3.501   3.993 -0.1974 -0.0236  0.2263
 7756SOL    HW134727   3.535   3.512   4.083  0.8771  0.9724 -0.2436
 7756SOL    HW234728   3.450   3.422   3.990  1.0151 -0.8800  0.4963
 7757SOL     OW34729   0.650   1.096  14.980  0.4551 -0.8529 -0.2024
 7757SOL    HW134730   0.689   1.151  15.049 -1.0785  0.5620 -0.4570
 7757SOL    HW234731   0.724   1.036  14.986  0.3437 -0.8544  1.1738
 7758SOL     OW34732   4.036   1.035   5.342  0.0727  0.1409 -0.0508
 7758SOL    HW134733   3.999   0.947   5.342 -1.3221  0.7197  1.9509
 7758SOL    HW234734   3.983   1.084   5.405  1.4042  0.6528  0.6704
 7759SOL     OW34735   3.206   2.814   1.223  0.0759 -0.1311  0.2052
 7759SOL    HW134736   3.143   2.874   1.185 -2.4455 -2.7010  0.3761
 7759SOL    HW234737   3.273   2.833   1.157 -0.9815 -0.2372 -0.8856
 7760SOL     OW34738   1.657   4.609   2.624 -0.0136 -0.4151  0.7158
 7760SOL    HW134739   1.634   4.576   2.537 -1.3549 -0.9636  1.2744
 7760SOL    HW234740   1.699   4.533   2.664  1.0638 -0.1191  0.1472
 7761SOL     OW34741   4.704   1.784  10.368  0.0732 -0.1354  0.7767
 7761SOL    HW134742   4.648   1.861  10.367 -1.1431 -1.0553 -0.5014
 7761SOL    HW234743   4.716   1.762  10.276 -1.5705  1.7240  0.1327
 7762SOL     OW34744   3.177   4.401   4.954  0.5653 -0.1798  0.6094
 7762SOL    HW134745   3.152   4.422   4.864  1.6092  0.2965  0.4349
 7762SOL    HW234746   3.263   4.443   4.965  0.2948  0.8731 -1.2662
 7763SOL     OW34747   3.422   3.991   9.123 -0.0690  0.7998  0.2737
 7763SOL    HW134748   3.445   4.083   9.121 -1.3833  1.0889 -1.2157
 7763SOL    HW234749   3.437   3.963   9.214 -1.2135  0.2067  0.2764
 7764SOL     OW34750   0.351   1.140   4.176  0.0698 -0.0578 -0.0423
 7764SOL    HW134751   0.379   1.073   4.238 -0.9789 -0.9377 -0.5090
 7764SOL    HW234752   0.299   1.196   4.234  2.1235  1.3732  0.3922
 7765SOL     OW34753   1.566   4.286   3.946 -0.2410 -0.0369  0.6993
 7765SOL    HW134754   1.526   4.310   3.863 -0.4274  0.3158  0.8922
 7765SOL    HW234755   1.483   4.288   3.995  0.5680  1.6040  1.9815
 7766SOL     OW34756   0.301   2.256   7.605 -0.1803 -0.0368 -0.2948
 7766SOL    HW134757   0.250   2.245   7.525 -2.9130 -2.0593  1.7191
 7766SOL    HW234758   0.389   2.245   7.568 -0.4967 -1.1022 -0.7362
 7767SOL     OW34759   1.531   2.276   3.299 -0.1643 -0.1005 -0.1950
 7767SOL    HW134760   1.552   2.250   3.389 -0.9362  1.2602  0.3799
 7767SOL    HW234761   1.583   2.355   3.285 -2.1610  1.2881  0.1690
 7768SOL     OW34762   2.687   0.432  15.163 -0.2756  0.9029  0.2501
 7768SOL    HW134763   2.768   0.477  15.139 -0.4252 -0.1600 -2.3192
 7768SOL    HW234764   2.716   0.352  15.208 -2.2431 -0.2029 -0.4575
 7769SOL     OW34765   1.116   1.937   0.341 -0.5824  0.0383  0.0203
 7769SOL    HW134766   1.113   2.033   0.334  3.0734  0.2094  0.9033
 7769SOL    HW234767   1.061   1.897   0.274 -1.7606  0.4137  0.7632
 7770SOL     OW34768   3.335   2.608  15.575  0.0617  0.5622  0.3074
 7770SOL    HW134769   3.295   2.529  15.538 -1.5637  1.4176  0.2434
 7770SOL    HW234770   3.276   2.626  15.648  0.9801  0.2872  1.1116
 7771SOL     OW34771   0.817   4.333  10.259 -0.2056 -0.7070 -0.1473
 7771SOL    HW134772   0.805   4.265  10.193 -1.1114  1.2101 -1.9444
 7771SOL    HW234773   0.885   4.304  10.320 -0.5539 -0.0812  0.5436
 7772SOL     OW34774   3.584   3.623   5.358 -0.1872  0.8260 -0.1148
 7772SOL    HW134775   3.675   3.596   5.351 -0.4531  0.1271 -0.8768
 7772SOL    HW234776   3.600   3.714   5.382 -0.8709  0.6747  0.9173
 7773SOL     OW34777   4.363   3.231   2.251  0.3376 -0.1084 -0.5487
 7773SOL    HW134778   4.324   3.143   2.255  0.8900 -0.3854 -1.2438
 7773SOL    HW234779   4.440   3.207   2.302  0.0832  1.1619  0.4162
 7774SOL     OW34780   0.616   2.036   1.083 -0.3457  0.3515  0.7778
 7774SOL    HW134781   0.622   2.124   1.046 -0.3162 -0.0743 -0.2252
 7774SOL    HW234782   0.540   2.000   1.037 -0.1484  0.7572  0.1412
 7775SOL     OW34783   1.606   4.128   8.369  0.4217  0.1423 -0.1880
 7775SOL    HW134784   1.535   4.183   8.336  1.5138  2.1945  0.9080
 7775SOL    HW234785   1.685   4.177   8.346  0.2497 -0.6766 -2.5250
 7776SOL     OW34786   1.284   4.441   5.165 -0.3591 -0.4522  0.3119
 7776SOL    HW134787   1.226   4.510   5.198  0.8212  0.8773 -0.4086
 7776SOL    HW234788   1.230   4.372   5.126 -0.2387 -0.9096  0.9533
 7777SOL     OW34789   4.674   1.248   5.677  0.0709 -0.3323  0.0884
 7777SOL    HW134790   0.038   1.245   5.642 -0.2081  1.8343 -0.8527
 7777SOL    HW234791   4.625   1.276   5.599  1.1593 -0.7919 -0.7466
 7778SOL     OW34792   0.861   3.558   3.575 -0.1231  0.3671 -0.2741
 7778SOL    HW134793   0.780   3.605   3.555  0.4108  0.6241 -1.9023
 7778SOL    HW234794   0.917   3.570   3.497 -0.7801  1.0226 -0.6472
 7779SOL     OW34795   0.657   2.430   1.883 -0.0125  0.1752  0.0317
 7779SOL    HW134796   0.576   2.464   1.846  0.5880  0.0491 -1.4162
 7779SOL    HW234797   0.640   2.336   1.880  1.9047 -0.2372  2.0358
 7780SOL     OW34798   4.079   1.397   4.297  0.2307  0.4239  0.0130
 7780SOL    HW134799   4.038   1.418   4.214 -0.0606 -1.0181 -0.2038
 7780SOL    HW234800   4.174   1.399   4.284  0.3925 -0.2754  1.1370
 7781SOL     OW34801   0.318   4.121   7.459 -0.1895  0.2244 -0.1948
 7781SOL    HW134802   0.368   4.122   7.377 -0.9726  1.9355 -0.6560
 7781SOL    HW234803   0.292   4.029   7.459  0.6919 -0.0243 -0.6863
 7782SOL     OW34804   1.558   3.770   0.523 -0.0853 -0.0030 -0.1413
 7782SOL    HW134805   1.610   3.784   0.602 -0.6185  1.1404  0.0094
 7782SOL    HW234806   1.520   3.684   0.542 -0.1781 -0.1567 -1.0436
 7783SOL     OW34807   2.189   2.884   6.254  0.6385  0.4577  0.6562
 7783SOL    HW134808   2.209   2.893   6.161  2.0698  1.6270  1.0794
 7783SOL    HW234809   2.279   2.866   6.280  0.9745  2.7194  1.0973
 7784SOL     OW34810   3.931   3.681   3.826 -0.0018 -0.6069  0.3025
 7784SOL    HW134811   3.866   3.616   3.800  0.0819 -0.5815  0.0221
 7784SOL    HW234812   3.925   3.665   3.920  0.7696  0.5763  0.5512
 7785SOL     OW34813   0.543   4.023   2.061  0.2518  0.0531 -0.0890
 7785SOL    HW134814   0.504   4.099   2.018 -0.5793  0.7765  1.9393
 7785SOL    HW234815   0.571   4.059   2.145 -0.6822 -1.5996  0.9162
 7786SOL     OW34816   1.724   0.962  10.935 -0.1213  0.3203  0.1322
 7786SOL    HW134817   1.701   0.889  10.992 -1.0030 -0.7724 -1.6159
 7786SOL    HW234818   1.691   1.030  10.993  1.8402  1.6849 -0.3547
 7787SOL     OW34819   4.476   0.852   1.201  0.6005 -0.1269  0.1614
 7787SOL    HW134820   4.391   0.844   1.245  1.5476 -1.3926  1.7190
 7787SOL    HW234821   4.507   0.938   1.229 -2.0713  0.4286  1.4615
 7788SOL     OW34822   0.681   4.103   6.366 -0.1079 -0.3809 -0.3208
 7788SOL    HW134823   0.690   4.011   6.391  1.8496 -0.4284 -1.2051
 7788SOL    HW234824   0.618   4.133   6.432 -0.4735 -1.5506 -0.1359
 7789SOL     OW34825   4.133   4.091   8.614 -0.3718 -0.0235 -0.1342
 7789SOL    HW134826   4.128   3.998   8.637 -1.0124  0.2756  0.9341
 7789SOL    HW234827   4.209   4.097   8.557  2.4252  3.3768  3.9706
 7790SOL     OW34828   4.316   1.301  17.462 -0.1790  0.0792  0.0097
 7790SOL    HW134829   4.400   1.274  17.501 -1.2740 -2.3217  0.6880
 7790SOL    HW234830   4.322   1.272  17.371  1.0829  0.7986 -0.1426
 7791SOL     OW34831   0.557   0.979  11.522 -0.8361  0.5790  0.5014
 7791SOL    HW134832   0.490   0.995  11.588  0.3134  0.0614  1.7787
 7791SOL    HW234833   0.624   1.036  11.558 -0.2627  0.7062 -0.7717
 7792SOL     OW34834   1.592   4.699  15.139 -0.2183 -0.0658 -0.1036
 7792SOL    HW134835   1.634   4.641  15.075  0.8373  0.8753 -0.2583
 7792SOL    HW234836   1.523   4.641  15.173  0.4083 -1.2605 -0.8443
 7793SOL     OW34837   4.541   1.712   7.600 -0.3022  0.1927 -0.5261
 7793SOL    HW134838   4.552   1.803   7.627  0.2125 -0.2214  0.6606
 7793SOL    HW234839   4.454   1.727   7.564  0.4050 -1.8124 -3.0405
 7794SOL     OW34840   2.931   1.246  15.659  0.0009  0.4976  0.1658
 7794SOL    HW134841   2.878   1.167  15.671  0.7763 -0.0595 -0.0656
 7794SOL    HW234842   2.906   1.301  15.733  0.6769 -1.6942  2.0233
 7795SOL     OW34843   0.139   0.207   3.605 -0.2339  0.5287 -0.1982
 7795SOL    HW134844   0.069   0.216   3.669  0.1008 -1.8476  0.4873
 7795SOL    HW234845   0.103   0.165   3.526 -1.2609 -1.1402  1.1607
 7796SOL     OW34846   2.272   4.049   3.921 -0.0119  0.2996 -0.5678
 7796SOL    HW134847   2.345   4.050   3.859  0.8989  1.4452  0.5186
 7796SOL    HW234848   2.187   4.045   3.878 -1.1196 -3.3651  1.9255
 7797SOL     OW34849   3.860   0.462   4.290  0.0339  0.3906 -0.0671
 7797SOL    HW134850   3.780   0.417   4.261  0.0281 -0.3613  1.0929
 7797SOL    HW234851   3.926   0.392   4.292 -0.1975  0.1736  0.0738
 7798SOL     OW34852   2.482   0.106   0.067 -0.0220  0.0697  0.0122
 7798SOL    HW134853   2.478   0.074   0.157  1.7761  0.4687  0.2420
 7798SOL    HW234854   2.389   0.104   0.048  0.1262 -0.4538 -0.6593
 7799SOL     OW34855   1.665   4.255   5.410 -0.4834 -0.3138  0.1883
 7799SOL    HW134856   1.647   4.314   5.337  0.5843 -0.1014  0.0906
 7799SOL    HW234857   1.716   4.313   5.468  0.2298  0.4806 -1.2365
 7800SOL     OW34858   1.407   0.694   5.512  0.2354 -0.2175 -0.0308
 7800SOL    HW134859   1.458   0.775   5.511 -0.4943  0.2728  1.6052
 7800SOL    HW234860   1.326   0.726   5.470  0.2297  1.3593  1.1793
 7801SOL     OW34861   2.148   0.091  14.090 -0.3168 -0.2337  0.0523
 7801SOL    HW134862   2.220   0.077  14.151 -0.2120  0.2909  0.0527
 7801SOL    HW234863   2.190   0.156  14.034  0.6877  0.1916  1.3038
 7802SOL     OW34864   4.406   1.628   6.603  0.0379  0.5629  0.6837
 7802SOL    HW134865   4.395   1.578   6.522  1.7514 -0.1620  0.8966
 7802SOL    HW234866   4.346   1.586   6.664  0.4583  1.1431  1.5019
 7803SOL     OW34867   0.114   2.154   2.028 -0.4311  0.5078 -0.2740
 7803SOL    HW134868   0.060   2.230   2.050 -0.4934  0.9288 -1.8328
 7803SOL    HW234869   0.151   2.183   1.944  0.1726  1.0639  0.1848
 7804SOL     OW34870   1.149   0.037   7.833 -0.3027 -0.7098  0.0601
 7804SOL    HW134871   1.152   0.092   7.911  0.3019 -1.0157  0.2534
 7804SOL    HW234872   1.073   4.712   7.866  0.1085 -0.1788  1.7577
 7805SOL     OW34873   0.552   3.526   6.820  0.8398  0.6247  0.2983
 7805SOL    HW134874   0.642   3.532   6.788  1.0531  3.2054  1.3493
 7805SOL    HW234875   0.552   3.436   6.852 -0.6831  1.3247  2.3351
 7806SOL     OW34876   2.374   2.043   4.382  0.6308 -0.7033  0.1095
 7806SOL    HW134877   2.394   2.050   4.289 -0.0292 -1.2029 -0.0683
 7806SOL    HW234878   2.459   2.063   4.421  1.1726 -1.8962 -0.4594
 7807SOL     OW34879   2.482   0.455  15.001 -0.0776 -0.4546  0.0506
 7807SOL    HW134880   2.556   0.445  15.061  0.4578 -0.3203 -0.5836
 7807SOL    HW234881   2.508   0.393  14.933 -0.4802  1.0698 -1.5023
 7808SOL     OW34882   1.965   2.946   9.328  0.4021 -0.3414 -0.3409
 7808SOL    HW134883   1.904   2.878   9.359 -0.5963  0.5128 -0.4209
 7808SOL    HW234884   1.922   2.962   9.244  0.9367  1.0560 -0.3465
 7809SOL     OW34885   2.870   4.273  15.958 -0.1469 -0.6231 -0.0307
 7809SOL    HW134886   2.873   4.187  15.916 -0.0712  0.2799 -1.8590
 7809SOL    HW234887   2.830   4.254  16.043  1.2989 -3.0783  0.1039
 7810SOL     OW34888   3.742   2.822   7.785 -0.2976  0.4234 -0.1097
 7810SOL    HW134889   3.795   2.895   7.754  2.2983 -1.4645 -0.1596
 7810SOL    HW234890   3.673   2.875   7.825 -0.0539  0.2380  0.5568
 7811SOL     OW34891   4.714   3.325   9.445  0.0832  0.0888  0.3200
 7811SOL    HW134892   4.668   3.298   9.365  0.3768 -1.9649  0.8596
 7811SOL    HW234893   4.657   3.278   9.506 -0.4508  2.0820  1.3435
 7812SOL     OW34894   4.714   4.259   4.604 -0.5965  0.5419  0.0365
 7812SOL    HW134895   4.702   4.277   4.511 -2.9303  0.0506  0.2323
 7812SOL    HW234896   4.636   4.206   4.619  0.1578  0.3649  3.3073
 7813SOL     OW34897   3.472   3.671  17.259 -0.3897  0.0703 -0.7703
 7813SOL    HW134898   3.567   3.679  17.244 -0.1350 -1.7300 -0.2174
 7813SOL    HW234899   3.474   3.577  17.280 -1.0745 -0.3328 -2.5372
 7814SOL     OW34900   2.434   0.464  11.055  0.0716 -0.1741 -0.4799
 7814SOL    HW134901   2.386   0.411  11.119  1.9649 -1.7362 -0.3716
 7814SOL    HW234902   2.477   0.400  10.999  1.7398 -0.2688  0.9209
 7815SOL     OW34903   1.581   4.474   6.212  0.0478  0.0456 -0.0574
 7815SOL    HW134904   1.487   4.474   6.229 -0.0504 -0.7442 -0.6232
 7815SOL    HW234905   1.583   4.462   6.117  0.7749 -0.3599  0.0079
 7816SOL     OW34906   4.449   1.273   3.465 -0.1153  0.5867 -0.1305
 7816SOL    HW134907   4.482   1.308   3.383 -0.6731  0.2811 -0.4823
 7816SOL    HW234908   4.495   1.191   3.482 -0.0164  0.8808  1.0488
 7817SOL     OW34909   4.032   0.805  13.243 -0.5542 -0.5608 -0.0978
 7817SOL    HW134910   4.029   0.799  13.147  3.1966  1.6869 -0.3081
 7817SOL    HW234911   4.092   0.877  13.258  0.2986 -1.9599  3.0903
 7818SOL     OW34912   3.546   3.292   9.062  0.0127 -0.1078  0.2674
 7818SOL    HW134913   3.536   3.359   9.129 -0.0818  1.0200 -0.8770
 7818SOL    HW234914   3.524   3.346   8.986  0.4314  0.5664  0.6269
 7819SOL     OW34915   2.288   0.855  11.085  0.2935 -0.4193  0.4018
 7819SOL    HW134916   2.240   0.938  11.086  0.7000 -0.1723 -0.5968
 7819SOL    HW234917   2.363   0.898  11.044 -0.7543 -1.3121 -2.4762
 7820SOL     OW34918   0.179   0.906  14.987 -0.1139  0.3676  0.1941
 7820SOL    HW134919   0.154   0.974  15.049  4.0110  1.9031  0.2219
 7820SOL    HW234920   0.275   0.901  14.990 -0.1364  0.8882  1.4722
 7821SOL     OW34921   2.372   3.688   3.678  0.0878  0.9185  0.4383
 7821SOL    HW134922   2.354   3.608   3.629  0.2042  1.2847 -0.2070
 7821SOL    HW234923   2.285   3.728   3.669  0.1910  0.4291 -2.8617
 7822SOL     OW34924   3.843   1.829   9.227  0.5168  0.2062  0.7764
 7822SOL    HW134925   3.833   1.780   9.308 -1.8943 -0.6729 -0.0594
 7822SOL    HW234926   3.877   1.905   9.276  0.2126  0.7566  0.1414
 7823SOL     OW34927   3.658   2.244   5.663 -0.0365  0.0004 -0.4518
 7823SOL    HW134928   3.604   2.165   5.656  0.2044 -0.3049  1.2586
 7823SOL    HW234929   3.654   2.253   5.758 -0.5118 -0.6287 -0.4062
 7824SOL     OW34930   3.065   3.643   3.130  0.2526 -0.6814  0.3699
 7824SOL    HW134931   3.000   3.628   3.061  1.0014 -0.5865 -0.3648
 7824SOL    HW234932   3.140   3.592   3.099 -0.4813 -1.9703  0.7069
 7825SOL     OW34933   2.655   4.060   0.891  0.0075  0.0065 -0.2973
 7825SOL    HW134934   2.622   3.975   0.921 -2.5136  0.7258 -1.0157
 7825SOL    HW234935   2.721   4.070   0.960 -0.9364 -1.1540  0.7762
 7826SOL     OW34936   1.692   4.069   2.051 -0.0924 -0.8166 -0.1245
 7826SOL    HW134937   1.618   4.128   2.064  0.9272  0.5276 -0.4344
 7826SOL    HW234938   1.640   3.988   2.050  0.1093 -0.9510  0.3365
 7827SOL     OW34939   4.300   3.294   6.289 -0.3559  0.0366 -0.7566
 7827SOL    HW134940   4.353   3.232   6.339 -1.5031  1.1253  1.8176
 7827SOL    HW234941   4.370   3.358   6.276 -0.2234 -0.1124 -0.7796
 7828SOL     OW34942   3.811   1.764   1.155 -0.2483 -0.1246 -0.8289
 7828SOL    HW134943   3.874   1.780   1.225  0.7380  0.9988 -1.9900
 7828SOL    HW234944   3.735   1.807   1.193  0.8530 -0.8743  2.1708
 7829SOL     OW34945   1.508   1.767  10.752 -0.1444 -0.5984 -0.0641
 7829SOL    HW134946   1.457   1.809  10.683 -2.2059  0.6557  2.2300
 7829SOL    HW234947   1.476   1.816  10.828 -1.3004  0.0975 -1.0167
 7830SOL     OW34948   4.497   3.675   0.703  0.0870  0.0434 -0.4884
 7830SOL    HW134949   4.505   3.609   0.771 -1.1415 -0.3502 -0.7348
 7830SOL    HW234950   4.402   3.687   0.698  0.1634  1.5168  1.1991
 7831SOL     OW34951   0.327   0.592   1.088 -0.2765  0.2482  0.0123
 7831SOL    HW134952   0.344   0.561   0.999 -1.8621  1.2256 -0.6353
 7831SOL    HW234953   0.409   0.640   1.099 -0.6018  0.7246  0.3309
 7832SOL     OW34954   2.807   4.226   5.356  0.0228 -0.0264 -0.3139
 7832SOL    HW134955   2.854   4.143   5.348  1.7721  0.6587  2.8185
 7832SOL    HW234956   2.718   4.204   5.329 -0.2270 -0.8257  1.1533
 7833SOL     OW34957   0.841   2.416  11.599 -0.2029  0.6529 -0.6354
 7833SOL    HW134958   0.903   2.361  11.551  0.6605  0.6031  0.5282
 7833SOL    HW234959   0.817   2.358  11.670  0.4175  1.1928  0.0225
 7834SOL     OW34960   1.304   3.751   2.811  0.0834 -0.3277 -0.2172
 7834SOL    HW134961   1.279   3.730   2.721  0.4489 -2.1854  0.1279
 7834SOL    HW234962   1.287   3.845   2.800 -0.8096 -0.3561  0.8057
 7835SOL     OW34963   0.892   1.670   1.729  0.3308  0.1171  0.0309
 7835SOL    HW134964   0.927   1.584   1.704  0.7464  0.5103 -0.7456
 7835SOL    HW234965   0.837   1.688   1.653 -1.6538 -1.9486  0.9948
 7836SOL     OW34966   3.919   4.273   5.376 -0.1658 -0.1383  0.8239
 7836SOL    HW134967   3.890   4.296   5.464 -0.2548  1.6374  0.3230
 7836SOL    HW234968   3.964   4.190   5.392 -1.9550 -1.3218 -0.2127
 7837SOL     OW34969   3.800   1.638   8.703  0.2947  0.6380  0.4220
 7837SOL    HW134970   3.787   1.700   8.775 -3.5501  0.5126 -0.1679
 7837SOL    HW234971   3.828   1.564   8.756  0.4669 -0.6636 -1.4945
 7838SOL     OW34972   0.989   2.764  17.698  0.4129 -0.1303  0.1557
 7838SOL    HW134973   0.988   2.854   0.032 -3.1081  0.6542 -2.1654
 7838SOL    HW234974   0.967   2.714   0.078 -1.5170 -1.2295 -1.0907
 7839SOL     OW34975   0.853   4.340  11.356  0.4370 -0.3343 -0.3081
 7839SOL    HW134976   0.850   4.345  11.261  0.9255  1.4797 -0.2292
 7839SOL    HW234977   0.913   4.410  11.381  1.4296 -1.8907  1.6214
 7840SOL     OW34978   0.783   1.427   2.673 -0.5098 -0.1376  0.6114
 7840SOL    HW134979   0.772   1.485   2.597  1.8571 -1.7706 -0.9695
 7840SOL    HW234980   0.771   1.343   2.629  0.6239 -0.0578  0.1570
 7841SOL     OW34981   4.403   1.564  17.667 -1.0492  0.0807 -0.0151
 7841SOL    HW134982   4.473   1.526  17.614  0.7015  0.7732  1.8065
 7841SOL    HW234983   4.330   1.504  17.652 -1.6909  0.7717  0.3606
 7842SOL     OW34984   2.879   1.120  12.851  0.2606 -0.0872  0.5597
 7842SOL    HW134985   2.949   1.121  12.916  1.3628 -2.8590 -0.5775
 7842SOL    HW234986   2.907   1.149  12.764  0.9545 -0.0944  0.7764
 7843SOL     OW34987   1.493   2.499  13.561 -0.6300  0.4665 -0.1267
 7843SOL    HW134988   1.461   2.546  13.638 -0.0768  0.2014  0.2651
 7843SOL    HW234989   1.422   2.516  13.499 -0.1071  0.3479 -0.7496
 7844SOL     OW34990   0.879   1.829   7.725 -0.2467 -0.6685 -0.2668
 7844SOL    HW134991   0.880   1.740   7.691 -4.5048 -1.7558  2.3765
 7844SOL    HW234992   0.834   1.881   7.659 -0.4001 -2.9972 -1.9876
 7845SOL     OW34993   1.561   0.891  16.117  0.0062  0.5335 -0.2696
 7845SOL    HW134994   1.607   0.901  16.034  2.4157 -1.9278  0.7319
 7845SOL    HW234995   1.604   0.812  16.151 -2.1018 -0.2164  0.6544
 7846SOL     OW34996   3.728   2.317   9.907 -0.2666  0.2058  0.4628
 7846SOL    HW134997   3.715   2.302   9.814 -1.1488  0.1875  0.5896
 7846SOL    HW234998   3.662   2.261   9.946 -0.8600 -0.0470 -0.9257
 7847SOL     OW34999   0.340   3.217   8.071  0.2002  0.5280  0.1646
 7847SOL    HW135000   0.289   3.287   8.030  1.0742  2.0313  1.6330
 7847SOL    HW235001   0.307   3.149   8.012 -1.4508 -0.2090  1.9644
 7848SOL     OW35002   2.593   0.971   8.514  0.3150 -0.3548  0.2210
 7848SOL    HW135003   2.503   0.967   8.547  0.0725  0.8067 -0.3059
 7848SOL    HW235004   2.636   0.957   8.598  1.1718 -1.1517 -0.3480
 7849SOL     OW35005   1.825   1.768  10.549 -0.0999  0.2791 -0.3444
 7849SOL    HW135006   1.755   1.781  10.485  0.6718  0.8508 -1.0857
 7849SOL    HW235007   1.899   1.738  10.497 -0.7508 -0.0630 -1.0670
 7850SOL     OW35008   1.111   3.604   9.737 -0.0102  0.0174 -0.1618
 7850SOL    HW135009   1.084   3.541   9.670 -1.0270  0.4003 -0.1270
 7850SOL    HW235010   1.030   3.601   9.788  0.7075 -4.0472  0.6888
 7851SOL     OW35011   2.628   3.294  10.556 -0.5008 -0.2974 -0.7242
 7851SOL    HW135012   2.666   3.208  10.538  0.6178  0.2170 -0.8444
 7851SOL    HW235013   2.663   3.318  10.642 -1.0326 -2.4448  0.0909
 7852SOL     OW35014   0.827   2.239   2.611  0.1671 -0.3375  0.2358
 7852SOL    HW135015   0.894   2.176   2.638  0.0501  0.7242  3.0951
 7852SOL    HW235016   0.821   2.196   2.526  2.0105  0.7977 -0.4881
 7853SOL     OW35017   3.191   3.241  15.160  0.4881 -0.2704 -0.2902
 7853SOL    HW135018   3.127   3.286  15.104  0.6692  2.2341  1.5112
 7853SOL    HW235019   3.264   3.303  15.166 -1.9993  2.5763  0.6298
 7854SOL     OW35020   2.805   3.436   8.261  0.2009 -0.6627 -0.3177
 7854SOL    HW135021   2.774   3.525   8.239  1.5330 -0.5915 -1.9324
 7854SOL    HW235022   2.726   3.382   8.254 -2.7350  3.4330  0.7737
 7855SOL     OW35023   4.415   1.926   5.836  0.4319  0.7234 -0.5330
 7855SOL    HW135024   4.399   1.872   5.914  0.5238  2.7608  0.9036
 7855SOL    HW235025   4.326   1.936   5.802  0.3082  0.1943 -0.3634
 7856SOL     OW35026   0.449   3.153   7.387 -0.0951  0.1190 -0.3050
 7856SOL    HW135027   0.508   3.228   7.394  0.6731 -0.7614  2.2629
 7856SOL    HW235028   0.509   3.105   7.330 -1.4395 -0.5711 -1.1462
 7857SOL     OW35029   3.272   0.689   9.275 -0.4666 -0.9730  0.0754
 7857SOL    HW135030   3.301   0.672   9.185 -2.2945 -1.6154 -0.3858
 7857SOL    HW235031   3.192   0.741   9.263  0.9390  1.9964  3.5067
 7858SOL     OW35032   1.574   1.441   8.676 -0.3098  0.1549 -0.3788
 7858SOL    HW135033   1.603   1.529   8.697  0.6138 -0.4810  0.9988
 7858SOL    HW235034   1.630   1.393   8.736 -0.2618 -0.2210 -0.7215
 7859SOL     OW35035   4.547   2.895   5.205 -0.2465  0.5219 -0.5113
 7859SOL    HW135036   4.601   2.904   5.284 -1.5332  0.3154  0.3909
 7859SOL    HW235037   4.501   2.814   5.223 -0.7837  1.2934  1.5450
 7860SOL     OW35038   3.901   1.473   3.257  0.3792 -0.1980  0.9916
 7860SOL    HW135039   3.898   1.489   3.163  0.6719  0.2557  1.0586
 7860SOL    HW235040   3.819   1.423   3.264  0.0003 -0.0971 -2.7952
 7861SOL     OW35041   0.873   1.345   4.169 -0.0780 -0.3141 -0.3246
 7861SOL    HW135042   0.804   1.408   4.188 -1.0775 -1.2755 -0.7513
 7861SOL    HW235043   0.814   1.284   4.124 -0.4631  1.0061 -1.6168
 7862SOL     OW35044   1.001   2.127   8.821  0.6000 -0.0727 -0.0899
 7862SOL    HW135045   1.007   2.064   8.749 -1.1546 -0.5926  0.2218
 7862SOL    HW235046   0.948   2.076   8.882  0.0349 -0.0757 -0.5808
 7863SOL     OW35047   1.181   1.606   4.176  0.3727 -0.6669  0.2071
 7863SOL    HW135048   1.208   1.675   4.237 -0.7899  1.8763 -2.1675
 7863SOL    HW235049   1.108   1.652   4.134  2.3538  0.7094 -1.7694
 7864SOL     OW35050   1.591   2.532   7.157 -0.1100  0.1433  0.0353
 7864SOL    HW135051   1.533   2.479   7.102 -0.7953  0.6167  0.3197
 7864SOL    HW235052   1.676   2.516   7.115  0.7213 -0.5049  1.9520
 7865SOL     OW35053   2.922   1.648   9.845  0.3245 -0.1719  0.0625
 7865SOL    HW135054   2.888   1.595   9.918 -0.1446  2.8711  2.0229
 7865SOL    HW235055   2.840   1.695   9.829 -0.0075 -0.9124 -0.4137
 7866SOL     OW35056   2.308   3.419   2.568 -0.3227 -0.5765  0.4505
 7866SOL    HW135057   2.222   3.459   2.562 -0.6194 -1.2124  0.4623
 7866SOL    HW235058   2.296   3.325   2.576  0.0786 -0.8603 -2.2591
 7867SOL     OW35059   1.936   3.314  13.701 -0.5963  0.0792 -0.8673
 7867SOL    HW135060   1.878   3.311  13.625  1.0619 -0.0189 -2.1276
 7867SOL    HW235061   1.897   3.385  13.752  1.0318 -0.4384  1.0875
 7868SOL     OW35062   4.230   2.521   5.701 -0.0488  0.1078  0.2056
 7868SOL    HW135063   4.292   2.593   5.702  0.2134 -0.1111 -0.1011
 7868SOL    HW235064   4.265   2.472   5.775 -1.4236 -0.0820  0.7392
 7869SOL     OW35065   2.169   3.424   3.769  0.6650 -0.1550  0.3850
 7869SOL    HW135066   2.216   3.424   3.686 -1.3483  2.0112 -0.7567
 7869SOL    HW235067   2.079   3.416   3.738  0.4856  0.8441  0.6305
 7870SOL     OW35068   2.236   1.404  15.288  0.6175 -0.1793 -0.3486
 7870SOL    HW135069   2.261   1.353  15.211  0.0465 -1.8334  0.5782
 7870SOL    HW235070   2.227   1.488  15.243  0.1396 -1.0737 -1.9361
 7871SOL     OW35071   2.060   4.250  10.047 -0.6508  0.1414 -0.3183
 7871SOL    HW135072   2.146   4.210  10.061 -0.4390  0.4615 -0.7261
 7871SOL    HW235073   2.074   4.329  10.099 -1.5182 -0.3624  0.6861
 7872SOL     OW35074   0.267   0.670  11.819 -0.0077 -0.2824  0.2770
 7872SOL    HW135075   0.238   0.609  11.752 -3.5681  0.0186  1.5142
 7872SOL    HW235076   0.355   0.683  11.785 -0.4180  0.3913 -0.5300
 7873SOL     OW35077   0.429   2.019   3.575  0.5348  0.3472 -0.1037
 7873SOL    HW135078   0.481   2.033   3.496  0.5398  0.5629 -0.0635
 7873SOL    HW235079   0.496   1.974   3.627  0.0893  2.1700  2.0466
 7874SOL     OW35080   4.105   2.853   6.006 -0.6350  0.1857  0.7853
 7874SOL    HW135081   4.069   2.768   5.982  0.6232 -0.1463  0.0777
 7874SOL    HW235082   4.125   2.838   6.099  0.3316  0.6650  0.6513
 7875SOL     OW35083   1.320   4.192   5.862 -0.1280 -0.4599  0.4347
 7875SOL    HW135084   1.385   4.165   5.927  1.7686  1.8844 -0.4488
 7875SOL    HW235085   1.311   4.115   5.806  0.2507 -0.0163 -0.2393
 7876SOL     OW35086   2.418   3.074   5.901 -0.0732 -0.2004 -0.1156
 7876SOL    HW135087   2.383   3.163   5.907  0.8228  0.1081  0.4703
 7876SOL    HW235088   2.415   3.060   5.807 -1.0762  1.3861 -0.3220
 7877SOL     OW35089   2.607   3.175   3.934 -0.8489 -0.1694  0.2452
 7877SOL    HW135090   2.684   3.133   3.895 -0.5404  0.0120  0.6593
 7877SOL    HW235091   2.583   3.231   3.860  0.9322 -0.5321 -0.5985
 7878SOL     OW35092   0.210   0.393   6.153 -0.2789 -0.1161 -0.0299
 7878SOL    HW135093   0.190   0.408   6.245 -0.1877  0.1920 -0.0612
 7878SOL    HW235094   0.273   0.321   6.160  0.2386  0.4954  1.4344
 7879SOL     OW35095   4.172   1.429   8.851  0.4451  0.1172  0.1173
 7879SOL    HW135096   4.250   1.446   8.798 -0.5072  0.6732 -1.0997
 7879SOL    HW235097   4.107   1.419   8.782 -0.3692 -0.8681  1.0219
 7880SOL     OW35098   3.699   2.089   5.032  0.1174 -0.0825  0.3625
 7880SOL    HW135099   3.737   2.127   5.112  2.1340  0.0028 -0.6417
 7880SOL    HW235100   3.719   1.996   5.027 -0.3794 -0.2678  1.7512
 7881SOL     OW35101   0.960   0.959  16.726  0.4390  0.2235 -0.0286
 7881SOL    HW135102   0.885   0.914  16.687 -1.1939  2.2044  0.8290
 7881SOL    HW235103   0.975   0.909  16.806  2.2059  1.7226  0.5832
 7882SOL     OW35104   3.971   0.485  15.069  0.1806 -0.0450  0.2328
 7882SOL    HW135105   3.929   0.410  15.027  1.1721 -0.3083 -0.2913
 7882SOL    HW235106   4.059   0.452  15.052 -0.6648 -1.4206 -1.4956
 7883SOL     OW35107   2.546   4.177   5.255  0.3074  0.2841  0.0413
 7883SOL    HW135108   2.522   4.206   5.167  3.5842  0.4722 -0.8065
 7883SOL    HW235109   2.473   4.131   5.295  1.1773  0.5104  1.9051
 7884SOL     OW35110   1.656   4.598   2.331  0.9975  0.4814  0.0498
 7884SOL    HW135111   1.674   4.671   2.272 -0.1465  0.0869 -0.7917
 7884SOL    HW235112   1.579   4.566   2.283  0.5918  1.5046  0.0169
 7885SOL     OW35113   1.916   4.636   0.105 -0.2990  0.0580  0.1821
 7885SOL    HW135114   1.959   4.696   0.165  0.1994 -0.5556  0.4491
 7885SOL    HW235115   1.842   4.690   0.077 -0.3285  1.0897  2.3012
 7886SOL     OW35116   1.758   1.215  16.186 -0.7082 -0.5508 -0.6203
 7886SOL    HW135117   1.788   1.301  16.157 -0.6181  0.2467  1.7925
 7886SOL    HW235118   1.814   1.158  16.133  0.7299  2.2616 -2.1027
 7887SOL     OW35119   0.103   0.888   8.168 -0.6044 -0.1832 -0.1595
 7887SOL    HW135120   0.037   0.860   8.231 -1.2477  0.3546 -0.5838
 7887SOL    HW235121   0.162   0.945   8.217  1.9645 -3.4088  0.4427
 7888SOL     OW35122   0.460   0.439  17.464 -0.0204  0.3184  0.0012
 7888SOL    HW135123   0.530   0.503  17.456  0.2151  0.0576 -0.0266
 7888SOL    HW235124   0.392   0.503  17.484  0.1880  0.7921 -0.7901
 7889SOL     OW35125   0.735   0.537   1.691 -0.3987 -0.3793 -0.2490
 7889SOL    HW135126   0.661   0.500   1.642 -0.8648  3.8625 -2.8396
 7889SOL    HW235127   0.808   0.528   1.630  1.4289  0.8590  1.7932
 7890SOL     OW35128   2.284   0.799   2.971  0.4288  0.0342 -0.0328
 7890SOL    HW135129   2.301   0.767   2.882  1.8816  1.8546 -0.3843
 7890SOL    HW235130   2.348   0.742   3.013  1.3009  0.6195 -0.5722
 7891SOL     OW35131   3.322   3.390  15.474 -0.2658 -0.0954  0.2310
 7891SOL    HW135132   3.309   3.462  15.413  2.1082  0.1883  0.0388
 7891SOL    HW235133   3.409   3.359  15.447 -0.4720 -0.0201 -0.5380
 7892SOL     OW35134   3.764   0.931   4.733 -0.0516  0.0157 -0.0378
 7892SOL    HW135135   3.752   0.896   4.822  0.6102  1.4387  0.6180
 7892SOL    HW235136   3.756   1.024   4.753  1.0383  0.1365 -0.1383
 7893SOL     OW35137   2.517   3.770  10.332 -0.1025  0.1743  0.5699
 7893SOL    HW135138   2.597   3.723  10.307 -0.8785  0.1980 -1.9232
 7893SOL    HW235139   2.537   3.813  10.416  1.9398 -0.7351  0.5596
 7894SOL     OW35140   3.633   2.101  15.848  0.5413  0.2191 -0.7617
 7894SOL    HW135141   3.657   2.163  15.779 -0.4803  0.2113 -1.1273
 7894SOL    HW235142   3.712   2.122  15.898  0.2815 -1.9976  0.5361
 7895SOL     OW35143   2.922   0.495   3.517 -0.4768  0.3074 -0.2403
 7895SOL    HW135144   2.944   0.543   3.438 -0.7548  0.0816 -0.4524
 7895SOL    HW235145   2.943   0.404   3.499 -0.4511  0.7816 -2.5945
 7896SOL     OW35146   2.621   0.654   6.082 -0.1376 -0.1471  0.0646
 7896SOL    HW135147   2.617   0.572   6.132 -1.2206 -0.2640 -0.2058
 7896SOL    HW235148   2.598   0.627   5.994  2.7400 -0.7924 -0.4625
 7897SOL     OW35149   0.895   0.705   4.667 -0.1960 -0.6079 -0.9687
 7897SOL    HW135150   0.987   0.684   4.653 -0.1692 -1.8334  1.1093
 7897SOL    HW235151   0.873   0.654   4.744 -3.5695  0.2072 -1.3846
 7898SOL     OW35152   2.409   0.670   2.773  0.0985 -0.1618  0.1910
 7898SOL    HW135153   2.469   0.678   2.700 -1.3202  2.5944 -0.6633
 7898SOL    HW235154   2.430   0.590   2.822  0.3319 -0.5778 -0.5825
 7899SOL     OW35155   2.196   1.823  11.253  0.1325 -0.4673 -0.7457
 7899SOL    HW135156   2.205   1.914  11.280 -0.7141 -0.7160  0.3697
 7899SOL    HW235157   2.281   1.784  11.275 -0.1582 -1.5389 -1.4923
 7900SOL     OW35158   2.291   1.087   6.557 -0.3535  0.2425  0.0445
 7900SOL    HW135159   2.307   1.155   6.623  1.1552 -0.8276  0.7803
 7900SOL    HW235160   2.196   1.096   6.558 -0.3206  0.5701  0.2988
 7901SOL     OW35161   1.582   4.654   0.578 -0.0233  0.4303 -0.0978
 7901SOL    HW135162   1.653   4.686   0.523 -1.5050  1.8892 -1.1498
 7901SOL    HW235163   1.617   4.691   0.659  0.4650  0.4504 -0.3231
 7902SOL     OW35164   2.918   0.543  17.678  0.1191 -0.2028 -0.0234
 7902SOL    HW135165   2.954   0.609  17.619  0.5008 -0.6899 -0.3442
 7902SOL    HW235166   2.996   0.494   0.005 -1.4407 -3.1751 -0.9857
 7903SOL     OW35167   0.613   1.767   9.297  0.1895 -0.1782 -0.7522
 7903SOL    HW135168   0.610   1.716   9.216 -2.2624  1.0941 -1.4587
 7903SOL    HW235169   0.592   1.698   9.360  1.4095  0.5229  0.4133
 7904SOL     OW35170   3.028   0.901  16.391  0.0122 -0.1911  0.0259
 7904SOL    HW135171   2.964   0.910  16.462 -0.4699  4.1041 -0.9600
 7904SOL    HW235172   2.979   0.951  16.325 -1.3007 -1.5388 -0.0285
 7905SOL     OW35173   0.320   2.123   4.881  0.7595  0.7788 -0.2689
 7905SOL    HW135174   0.300   2.146   4.790  0.6396 -0.1583 -0.4852
 7905SOL    HW235175   0.315   2.027   4.874  0.9782  0.6851  0.8540
 7906SOL     OW35176   2.345   4.076  15.978  0.1065  0.2074  0.4581
 7906SOL    HW135177   2.294   4.087  15.898  0.2305  2.0864  0.6282
 7906SOL    HW235178   2.389   3.992  15.971  1.3061  1.0455 -1.9542
 7907SOL     OW35179   0.555   1.738  16.353 -0.4357 -0.4454 -0.3844
 7907SOL    HW135180   0.579   1.829  16.338  1.8632 -1.0377 -0.3328
 7907SOL    HW235181   0.498   1.752  16.428  0.9319  0.3725  0.4973
 7908SOL     OW35182   1.643   1.621   9.004  0.2300  0.1559 -0.2603
 7908SOL    HW135183   1.687   1.637   8.920  0.2228 -0.7672 -0.4453
 7908SOL    HW235184   1.569   1.681   8.995 -0.1918 -0.1423  1.2178
 7909SOL     OW35185   0.544   1.730   5.928  0.1194  0.2484  0.1916
 7909SOL    HW135186   0.542   1.636   5.949 -1.0377  0.4234  0.8729
 7909SOL    HW235187   0.585   1.733   5.841  0.0864 -0.3665  0.1540
 7910SOL     OW35188   3.290   4.270   0.436  0.0383  0.6173  0.0732
 7910SOL    HW135189   3.352   4.342   0.439 -0.8839  1.3579  1.2006
 7910SOL    HW235190   3.292   4.241   0.527 -0.3309 -0.5037 -0.2651
 7911SOL     OW35191   1.989   0.836   5.249 -0.5740  0.1368  0.5488
 7911SOL    HW135192   1.935   0.843   5.328  1.0149  0.9109  1.5562
 7911SOL    HW235193   2.075   0.831   5.289  0.2309  2.4007 -0.9088
 7912SOL     OW35194   4.023   2.156  16.195 -0.1501 -1.1736 -0.4859
 7912SOL    HW135195   4.073   2.237  16.201 -2.2282  0.0906 -0.0602
 7912SOL    HW235196   4.091   2.097  16.163 -0.9383 -1.0276 -2.4191
 7913SOL     OW35197   2.387   0.706   5.861  0.4175 -0.6049  0.3336
 7913SOL    HW135198   2.350   0.695   5.948  0.2429  1.2442  0.4834
 7913SOL    HW235199   2.460   0.645   5.871 -0.3718 -1.8291 -1.2053
 7914SOL     OW35200   3.164   1.685   4.527 -0.2253 -0.4909 -0.3497
 7914SOL    HW135201   3.184   1.634   4.448 -1.7077  0.8714 -1.6157
 7914SOL    HW235202   3.069   1.693   4.521  0.0552  2.8708 -0.4264
 7915SOL     OW35203   0.547   0.860  15.856 -0.2741  0.5428 -0.2051
 7915SOL    HW135204   0.505   0.884  15.939  3.9142  1.5037  1.6502
 7915SOL    HW235205   0.587   0.775  15.873 -2.0351  0.1215  1.8100
 7916SOL     OW35206   4.343   2.007   9.438  0.1842  0.3727 -0.2129
 7916SOL    HW135207   4.259   2.000   9.392  0.8706 -0.4517 -1.3663
 7916SOL    HW235208   4.331   2.085   9.492 -2.6202  0.8400 -1.4994
 7917SOL     OW35209   3.381   4.604   6.965 -0.1568  0.2386 -0.3014
 7917SOL    HW135210   3.359   4.691   6.998 -2.7396 -0.3382 -0.5327
 7917SOL    HW235211   3.369   4.546   7.040  1.0643 -0.5726 -0.7255
 7918SOL     OW35212   2.144   0.713   5.678  0.2748 -0.7638 -0.0322
 7918SOL    HW135213   2.094   0.781   5.724  0.4181 -0.5701 -0.1642
 7918SOL    HW235214   2.229   0.714   5.721 -0.1974 -0.4633  0.8998
 7919SOL     OW35215   3.631   1.374   5.868 -0.1300 -0.2047  0.0582
 7919SOL    HW135216   3.562   1.440   5.866  0.4519  0.4008 -0.0937
 7919SOL    HW235217   3.582   1.299   5.902  0.6133  0.4961  2.6713
 7920SOL     OW35218   2.665   4.716   8.908 -0.2172  0.3529  0.4082
 7920SOL    HW135219   2.725   0.066   8.910 -0.1853  0.2364  3.0203
 7920SOL    HW235220   2.658   4.698   9.001  2.4908 -0.4411  0.4380
 7921SOL     OW35221   0.941   2.718   4.622  1.0497 -0.7553 -0.0122
 7921SOL    HW135222   0.893   2.785   4.573  3.4062  1.2973  0.4805
 7921SOL    HW235223   0.986   2.767   4.690 -2.0036 -0.6378  1.9470
 7922SOL     OW35224   1.776   3.726   2.785 -0.0832 -0.6170  0.0682
 7922SOL    HW135225   1.838   3.685   2.726  1.3987  1.3720  0.2445
 7922SOL    HW235226   1.843   3.772   2.836 -1.1951  0.1458  0.8480
 7923SOL     OW35227   4.142   3.243  11.489 -0.4288 -0.1016 -0.1976
 7923SOL    HW135228   4.231   3.271  11.511 -1.3661  2.3061  0.6286
 7923SOL    HW235229   4.107   3.332  11.494  3.1187  1.2729  0.4081
 7924SOL     OW35230   3.788   2.494   4.255 -0.0447  0.8682  0.4356
 7924SOL    HW135231   3.815   2.439   4.329 -0.7476  0.9140  0.7205
 7924SOL    HW235232   3.699   2.522   4.277 -0.8503 -2.1989  1.0859
 7925SOL     OW35233   0.838   3.924  10.589 -0.7654  0.3668 -0.2773
 7925SOL    HW135234   0.874   3.884  10.509 -2.3715 -1.4766 -0.0554
 7925SOL    HW235235   0.749   3.892  10.579 -0.9491  0.3909  1.2572
 7926SOL     OW35236   1.289   1.182   6.328  0.1034 -0.0624 -0.1834
 7926SOL    HW135237   1.228   1.237   6.278  2.4946  2.9969  0.2838
 7926SOL    HW235238   1.343   1.138   6.262 -0.8384 -4.2659  1.8501
 7927SOL     OW35239   0.282   4.000   3.576  0.1879 -0.0397  0.4169
 7927SOL    HW135240   0.279   3.926   3.515 -1.2372  2.0147 -2.0084
 7927SOL    HW235241   0.190   4.027   3.583  0.6500  0.9450  2.5632
 7928SOL     OW35242   2.085   3.878   2.705  0.0518 -0.4974 -0.8142
 7928SOL    HW135243   2.066   3.861   2.612 -0.7366  1.7296 -1.0773
 7928SOL    HW235244   2.125   3.961   2.681 -1.0381 -0.2760 -1.9141
 7929SOL     OW35245   1.765   3.947   5.717  0.4758 -0.2960 -0.3625
 7929SOL    HW135246   1.682   3.971   5.677  1.4976  1.8046 -1.2125
 7929SOL    HW235247   1.831   3.974   5.652  0.5862  0.0202 -0.1128
 7930SOL     OW35248   0.433   3.929   5.498 -0.3495  0.1279 -0.5388
 7930SOL    HW135249   0.484   3.965   5.570  1.7496  0.7346 -2.3655
 7930SOL    HW235250   0.509   3.913   5.443 -0.0154 -0.1341 -0.0040
 7931SOL     OW35251   2.770   3.739  11.035  0.3755  0.0956 -0.8669
 7931SOL    HW135252   2.693   3.686  11.057  0.0054  1.0862  0.2662
 7931SOL    HW235253   2.779   3.714  10.944 -1.8757 -0.8949 -0.8349
 7932SOL     OW35254   4.371   3.593  13.386 -0.3765 -0.2415  0.2637
 7932SOL    HW135255   4.422   3.650  13.444  0.1116  1.9540 -2.3277
 7932SOL    HW235256   4.414   3.607  13.302  0.4990  0.0870  0.7593
 7933SOL     OW35257   0.782   1.941  13.244 -0.1055  0.3657  0.1997
 7933SOL    HW135258   0.805   1.941  13.151 -1.4571 -0.5176 -0.1424
 7933SOL    HW235259   0.700   1.893  13.231  0.4367 -1.5204  3.6066
 7934SOL     OW35260   3.434   0.842   4.991 -0.0979  0.2278  0.1306
 7934SOL    HW135261   3.436   0.753   4.956 -3.3307  0.1847  0.0744
 7934SOL    HW235262   3.456   0.898   4.917  0.4259 -0.6029 -0.3498
 7935SOL     OW35263   1.377   1.764   8.278 -0.0631 -0.3570 -0.6719
 7935SOL    HW135264   1.356   1.670   8.280  1.0864 -0.6127 -0.7283
 7935SOL    HW235265   1.466   1.772   8.243 -0.5766  2.5163 -1.3355
 7936SOL     OW35266   3.315   0.991   4.225 -0.0123 -0.0716  0.5117
 7936SOL    HW135267   3.317   0.904   4.186 -2.9093 -0.8358  2.0274
 7936SOL    HW235268   3.338   1.032   4.142 -1.6478  3.3468  1.7186
 7937SOL     OW35269   3.388   3.820   6.937  0.4441  0.4902  0.1489
 7937SOL    HW135270   3.318   3.837   6.874  1.0943 -0.3788 -0.8120
 7937SOL    HW235271   3.342   3.859   7.012 -2.9755 -3.0215 -0.0952
 7938SOL     OW35272   2.165   4.660  17.334 -0.0768 -0.1110 -0.1169
 7938SOL    HW135273   2.114   4.646  17.415  1.9934 -1.3186  0.9624
 7938SOL    HW235274   2.179   0.030  17.349 -1.9771 -0.0616  1.5443
 7939SOL     OW35275   4.078   3.913  13.917  0.1476 -0.4102  0.4849
 7939SOL    HW135276   4.139   3.957  13.977  1.1061 -1.8913  0.5704
 7939SOL    HW235277   4.135   3.901  13.841 -0.9335 -0.0197 -0.3881
 7940SOL     OW35278   3.889   3.099   6.195  0.0839  0.5781  0.6004
 7940SOL    HW135279   3.859   3.189   6.204  0.7511  0.6946  1.6974
 7940SOL    HW235280   3.874   3.077   6.103 -2.0806  1.0832  0.8447
 7941SOL     OW35281   4.008   4.473   5.229  0.4076 -0.2444  0.0812
 7941SOL    HW135282   3.987   4.381   5.247 -0.0410 -0.0634  0.5105
 7941SOL    HW235283   4.022   4.499   5.320  0.2267 -1.0854  0.3474
 7942SOL     OW35284   0.720   2.954   2.521 -0.0948 -0.4358  0.1653
 7942SOL    HW135285   0.705   2.886   2.586  0.0702  0.1358  0.7964
 7942SOL    HW235286   0.641   2.944   2.467  2.3671 -1.6707 -3.2536
 7943SOL     OW35287   0.906   3.926  12.582  0.1013  0.3884 -0.3817
 7943SOL    HW135288   0.818   3.943  12.550  0.4337  1.5577 -0.6956
 7943SOL    HW235289   0.916   3.996  12.646  0.1143  2.7708 -2.9699
 7944SOL     OW35290   3.579   2.223   8.723 -0.2969 -0.2262 -0.0278
 7944SOL    HW135291   3.600   2.192   8.635 -0.1775 -0.8603  0.2200
 7944SOL    HW235292   3.620   2.157   8.778 -1.7568 -2.2510 -1.3416
 7945SOL     OW35293   3.776   2.467   2.600  0.5731 -0.6351 -0.2654
 7945SOL    HW135294   3.704   2.404   2.592  0.3576 -0.3959 -0.2291
 7945SOL    HW235295   3.839   2.418   2.654 -0.3457 -1.3799  0.1434
 7946SOL     OW35296   1.914   2.297  16.565 -0.6939 -0.7244 -0.8131
 7946SOL    HW135297   1.833   2.344  16.583 -0.4151  0.7241 -3.2360
 7946SOL    HW235298   1.902   2.226  16.628 -2.4209  0.0012 -0.3303
 7947SOL     OW35299   1.500   4.504  13.941 -0.4702  0.1878  0.0625
 7947SOL    HW135300   1.406   4.519  13.938 -0.4855  0.7535  2.8023
 7947SOL    HW235301   1.533   4.594  13.940  0.1665 -0.0906 -2.6519
 7948SOL     OW35302   1.771   3.408   1.395 -0.2272 -0.7472 -0.1962
 7948SOL    HW135303   1.750   3.347   1.465  1.1522  0.6033  1.4234
 7948SOL    HW235304   1.692   3.403   1.342 -0.5211 -0.5274  0.2218
 7949SOL     OW35305   4.534   4.099   0.431  0.2104  0.1084 -0.3751
 7949SOL    HW135306   4.604   4.165   0.430  0.1290  0.1509 -3.0438
 7949SOL    HW235307   4.514   4.109   0.524  1.8236 -1.5191  0.1552
 7950SOL     OW35308   3.431   2.391   8.363  0.0791 -0.6229  0.3129
 7950SOL    HW135309   3.501   2.445   8.326  0.6431 -0.1241  2.1222
 7950SOL    HW235310   3.368   2.461   8.382  1.7310  1.1882 -0.8629
 7951SOL     OW35311   2.808   0.400   5.407 -0.2885  0.3203 -0.0163
 7951SOL    HW135312   2.842   0.311   5.419  1.2338  1.1090  1.6696
 7951SOL    HW235313   2.874   0.453   5.453 -0.7024  0.6571  0.1945
 7952SOL     OW35314   0.073   4.503   6.903  0.7669  0.2773 -0.3591
 7952SOL    HW135315   4.714   4.530   6.942  1.5007 -0.4977  1.7308
 7952SOL    HW235316   0.082   4.412   6.932  0.6687 -0.5354 -2.8129
 7953SOL     OW35317   2.488   1.689   4.680  0.4965 -0.3570 -0.2087
 7953SOL    HW135318   2.493   1.780   4.709  0.0068 -0.2496 -0.4543
 7953SOL    HW235319   2.456   1.706   4.592  0.9680  1.9743  0.0682
 7954SOL     OW35320   3.825   3.854   4.860 -0.5185 -0.7849 -0.2330
 7954SOL    HW135321   3.898   3.859   4.798 -1.4727  3.8755 -0.9930
 7954SOL    HW235322   3.747   3.863   4.806 -0.3657  0.8211 -0.1874
 7955SOL     OW35323   1.172   0.596  10.140 -0.0901 -0.0145 -0.1957
 7955SOL    HW135324   1.171   0.503  10.118 -0.1437 -0.0729  0.0452
 7955SOL    HW235325   1.257   0.602  10.183 -1.3564 -0.1826  2.3389
 7956SOL     OW35326   0.640   2.245   5.284  0.3313  0.3406 -0.1913
 7956SOL    HW135327   0.611   2.154   5.293 -2.1271  1.2121  0.7883
 7956SOL    HW235328   0.601   2.278   5.365  1.1926 -0.2189  0.4581
 7957SOL     OW35329   0.964   1.319   4.421  0.0496  0.7149 -0.1581
 7957SOL    HW135330   0.930   1.329   4.333 -0.2051  4.0083  0.3049
 7957SOL    HW235331   0.899   1.361   4.478  0.5151  0.2879  0.6823
 7958SOL     OW35332   0.400   2.047   8.513  0.0781  0.7262 -0.3803
 7958SOL    HW135333   0.360   2.087   8.591 -2.4812 -0.5728 -1.0413
 7958SOL    HW235334   0.459   2.117   8.485  2.5971 -1.1638  0.2445
 7959SOL     OW35335   3.370   4.086   4.676 -0.4067 -0.8135  0.2742
 7959SOL    HW135336   3.333   4.007   4.639  2.1238 -1.4834 -0.8526
 7959SOL    HW235337   3.299   4.118   4.732 -1.2270 -2.3844  0.1203
 7960SOL     OW35338   2.194   3.528  11.833 -0.3828  0.0293  0.2181
 7960SOL    HW135339   2.108   3.567  11.849 -1.0847  0.0894 -3.6500
 7960SOL    HW235340   2.226   3.560  11.749 -1.3540  0.4004 -0.0128
 7961SOL     OW35341   1.582   3.874  16.394 -0.2185 -0.0942  0.6968
 7961SOL    HW135342   1.625   3.945  16.442  0.4676 -0.0676  0.0477
 7961SOL    HW235343   1.558   3.925  16.317  0.1013 -0.6324  0.2372
 7962SOL     OW35344   1.361   1.032   6.060 -0.1545  0.1724  0.0694
 7962SOL    HW135345   1.395   0.986   6.137 -0.4633 -0.9152 -0.4327
 7962SOL    HW235346   1.319   0.955   6.021 -0.7345  0.5149  0.0320
 7963SOL     OW35347   1.265   2.578   4.441  0.2990 -0.1610  0.0290
 7963SOL    HW135348   1.221   2.583   4.356  2.3449  0.7973 -0.9823
 7963SOL    HW235349   1.357   2.571   4.413  0.9676  2.3157  1.5797
 7964SOL     OW35350   1.904   4.018   2.238 -0.4732  0.0665 -0.3920
 7964SOL    HW135351   1.847   4.025   2.162 -1.1393  1.1821  0.2111
 7964SOL    HW235352   1.851   3.950   2.279  1.7202 -1.3496  0.0976
 7965SOL     OW35353   1.837   2.117  11.691  0.5127 -0.5871 -0.7862
 7965SOL    HW135354   1.805   2.147  11.776  2.2496 -2.2753  0.4625
 7965SOL    HW235355   1.781   2.043  11.669  1.6883 -1.3680 -1.1739
 7966SOL     OW35356   0.292   2.978   0.638  0.1148 -0.1325  0.0778
 7966SOL    HW135357   0.254   2.903   0.592 -1.9781  0.9015  0.1294
 7966SOL    HW235358   0.370   2.983   0.582  1.1013  1.1200  1.5626
 7967SOL     OW35359   0.352   4.309  12.969 -0.3962 -0.4133  0.0698
 7967SOL    HW135360   0.341   4.307  12.873  0.8150  1.2207 -0.0966
 7967SOL    HW235361   0.340   4.219  13.000 -2.3473 -1.0396 -2.5237
 7968SOL     OW35362   2.184   3.802   6.767  0.8007 -0.3228 -0.0053
 7968SOL    HW135363   2.175   3.810   6.672 -1.2325 -1.7151  0.0747
 7968SOL    HW235364   2.238   3.880   6.781  0.3164  0.4907 -2.5048
 7969SOL     OW35365   3.957   4.668   7.161  0.7494  0.0427  0.1500
 7969SOL    HW135366   3.984   4.583   7.125 -1.3990 -1.4182  2.0515
 7969SOL    HW235367   3.907   4.639   7.237  0.4804 -0.7032 -0.3038
 7970SOL     OW35368   2.602   4.038  10.847  0.0987 -0.6250  0.4073
 7970SOL    HW135369   2.551   4.085  10.913  2.9005  0.4847  1.7647
 7970SOL    HW235370   2.569   4.074  10.764 -1.9973 -0.2265  1.3915
 7971SOL     OW35371   3.497   4.439   5.682  0.4617 -0.0633 -0.2679
 7971SOL    HW135372   3.455   4.366   5.728 -2.4454  1.5188 -0.3796
 7971SOL    HW235373   3.589   4.415   5.694  0.1077  0.1197  2.8663
 7972SOL     OW35374   0.524   0.972   3.800 -0.5568  0.0834  0.1398
 7972SOL    HW135375   0.597   1.017   3.758  1.4472 -0.7280  2.7750
 7972SOL    HW235376   0.456   1.009   3.744  0.5814  1.8524 -0.0778
 7973SOL     OW35377   1.031   3.662   5.074 -0.4337  0.5600 -0.1887
 7973SOL    HW135378   1.037   3.583   5.128  1.6804  0.2874 -0.8321
 7973SOL    HW235379   1.111   3.664   5.022  0.6698  1.2834  1.5445
 7974SOL     OW35380   0.002   0.268  12.930 -0.0493 -0.3700 -0.6204
 7974SOL    HW135381   0.074   0.288  12.871  1.6079  1.3535  1.9668
 7974SOL    HW235382   0.042   0.247  13.014  1.4544  1.3750 -0.9208
 7975SOL     OW35383   1.803   3.177   0.829  0.3013 -0.2048  0.2334
 7975SOL    HW135384   1.882   3.215   0.866  0.8128 -0.1804 -0.8903
 7975SOL    HW235385   1.758   3.259   0.813  0.0896 -0.4779 -0.5911
 7976SOL     OW35386   3.384   1.103   2.003 -0.5243 -0.0711  0.7672
 7976SOL    HW135387   3.461   1.136   2.050 -2.1410  3.0352  1.2481
 7976SOL    HW235388   3.420   1.070   1.921 -0.0679 -0.1227  0.9827
 7977SOL     OW35389   1.288   3.414   2.978 -0.0113 -0.6100 -0.0228
 7977SOL    HW135390   1.359   3.351   2.964 -0.6649 -1.3959  0.1699
 7977SOL    HW235391   1.256   3.415   2.887 -0.9679  0.0081  0.3178
 7978SOL     OW35392   1.857   3.073   2.100 -0.2752  0.2225 -0.4721
 7978SOL    HW135393   1.850   3.100   2.192 -1.4073  0.0462 -0.4960
 7978SOL    HW235394   1.862   3.160   2.062  1.0406  1.0630  1.6214
 7979SOL     OW35395   1.169   1.098  15.098  1.2982 -0.8628  0.1724
 7979SOL    HW135396   1.124   1.014  15.087 -0.7681  0.5695 -2.2354
 7979SOL    HW235397   1.199   1.136  15.015  0.6308 -1.3525 -0.2836
 7980SOL     OW35398   2.018   2.990  16.561  0.4234 -0.2907  0.2618
 7980SOL    HW135399   2.103   3.031  16.545  0.1411  1.0636  2.1624
 7980SOL    HW235400   2.036   2.940  16.641 -0.4069 -0.9080  0.0612
 7981SOL     OW35401   1.929   4.066   5.517 -0.6420 -0.2535  0.1943
 7981SOL    HW135402   1.894   4.101   5.435 -0.7965  1.9610  1.1909
 7981SOL    HW235403   2.008   4.119   5.533  0.3237 -0.7691 -2.8991
 7982SOL     OW35404   2.359   0.484  15.763  0.0094  0.6747 -0.2497
 7982SOL    HW135405   2.266   0.505  15.764  0.2607  1.7261  0.4445
 7982SOL    HW235406   2.400   0.558  15.807  1.3087  1.7351 -3.2251
 7983SOL     OW35407   2.676   4.408   8.651  0.4140  0.0977  0.3038
 7983SOL    HW135408   2.626   4.489   8.645  0.3709  0.1402  1.1957
 7983SOL    HW235409   2.737   4.428   8.580  0.1863  0.0928  0.1085
 7984SOL     OW35410   4.071   3.070   7.175 -0.1187 -0.3311 -0.4311
 7984SOL    HW135411   4.030   3.094   7.258 -1.1239  0.3557 -1.1189
 7984SOL    HW235412   4.005   3.012   7.136  0.1855 -0.7561 -0.3143
 7985SOL     OW35413   1.361   1.930   4.038  0.0861  0.2123  0.1739
 7985SOL    HW135414   1.424   1.980   4.090  0.0839  0.3787  0.0155
 7985SOL    HW235415   1.421   1.869   3.994  1.0569  0.3031  1.3781
 7986SOL     OW35416   1.827   3.716  17.196 -0.5060 -0.4631 -0.3693
 7986SOL    HW135417   1.776   3.636  17.192 -0.3922 -0.5606  0.1488
 7986SOL    HW235418   1.760   3.785  17.202 -0.4597 -0.6017  1.6748
 7987SOL     OW35419   0.203   1.719   4.371 -0.1267  0.4968 -0.5967
 7987SOL    HW135420   0.211   1.773   4.450 -3.3226  0.7438 -0.4428
 7987SOL    HW235421   0.109   1.706   4.361 -0.4710  0.9242  2.0152
 7988SOL     OW35422   4.512   4.328   8.187 -0.1618  0.0127  0.5449
 7988SOL    HW135423   4.456   4.332   8.265 -0.5595  1.2233  0.2088
 7988SOL    HW235424   4.501   4.240   8.153 -1.7631  0.1326  0.7420
 7989SOL     OW35425   3.872   1.483  16.793 -0.1869  0.5223 -0.0110
 7989SOL    HW135426   3.824   1.480  16.876 -0.7022  0.4440 -0.3057
 7989SOL    HW235427   3.865   1.569  16.751 -1.7044  0.4814  0.1346
 7990SOL     OW35428   2.992   2.036  13.813  1.2368 -0.0837  1.1083
 7990SOL    HW135429   2.901   2.066  13.814  1.1489 -0.2860 -0.3877
 7990SOL    HW235430   3.019   2.049  13.722 -0.8489  0.8068  0.6369
 7991SOL     OW35431   2.018   4.346   2.016  0.0451 -0.4460 -0.1457
 7991SOL    HW135432   2.028   4.440   2.026  1.4366 -0.8466  2.3213
 7991SOL    HW235433   2.094   4.329   1.960 -1.5660 -2.4701 -1.7548
 7992SOL     OW35434   2.441   0.348   9.212 -0.0290 -0.2384  0.0805
 7992SOL    HW135435   2.399   0.432   9.194  3.1122  0.9517 -1.8439
 7992SOL    HW235436   2.449   0.367   9.305  0.3878  0.1302 -0.0350
 7993SOL     OW35437   2.493   0.442   3.778 -0.1529  0.0903 -0.1997
 7993SOL    HW135438   2.476   0.373   3.842  1.4695 -1.1953 -1.1389
 7993SOL    HW235439   2.582   0.414   3.755  0.4873  0.1622  2.2294
 7994SOL     OW35440   0.848   4.304   6.304 -0.2912  0.7165 -0.0776
 7994SOL    HW135441   0.804   4.365   6.364 -3.3719 -0.1251 -1.4423
 7994SOL    HW235442   0.787   4.231   6.312  3.4549 -2.3288  0.2878
 7995SOL     OW35443   4.196   1.023   1.085  0.2887 -0.3104 -0.0359
 7995SOL    HW135444   4.264   1.031   1.017  0.8019 -0.4284  0.4658
 7995SOL    HW235445   4.233   1.080   1.152  1.6306 -0.1005 -0.9439
 7996SOL     OW35446   4.485   1.875  17.276  0.7077 -0.5262 -0.3538
 7996SOL    HW135447   4.459   1.869  17.368  0.4008  0.6422 -0.3669
 7996SOL    HW235448   4.500   1.969  17.262  1.6795 -0.8625 -1.5773
 7997SOL     OW35449   2.062   3.965   1.191  0.2220  0.6097  0.6026
 7997SOL    HW135450   1.980   4.004   1.161  0.8969  0.5869 -1.3073
 7997SOL    HW235451   2.110   4.044   1.218  1.3096 -0.6808  2.4063
 7998SOL     OW35452   1.776   2.963   4.824 -0.2128  0.4067 -0.0099
 7998SOL    HW135453   1.839   2.951   4.753 -2.7049  2.5170 -2.5817
 7998SOL    HW235454   1.842   2.960   4.893 -1.8096  0.3733  1.5183
 7999SOL     OW35455   0.472   0.057   2.874  0.4222 -0.2036  0.6004
 7999SOL    HW135456   0.463   0.053   2.779 -0.0866  0.1136  0.6294
 7999SOL    HW235457   0.403   0.001   2.909  2.6322 -2.9925  0.3939
 8000SOL     OW35458   1.232   1.903  16.642 -0.4318  0.1043 -0.2894
 8000SOL    HW135459   1.146   1.864  16.621 -0.8217 -1.0356  3.4457
 8000SOL    HW235460   1.255   1.923  16.552 -0.6254 -1.3008 -0.6575
 8001SOL     OW35461   3.336   3.228   9.710  0.1616 -0.1408  0.6624
 8001SOL    HW135462   3.256   3.248   9.759  0.1116 -0.2969  0.6456
 8001SOL    HW235463   3.301   3.169   9.644 -2.4805  2.2243 -0.0280
 8002SOL     OW35464   0.020   1.605   7.835  0.1139 -0.0676 -0.1676
 8002SOL    HW135465   0.063   1.530   7.877 -0.0621 -0.0856 -0.0177
 8002SOL    HW235466   4.660   1.601   7.881  0.0504  0.8351 -0.2200
 8003SOL     OW35467   0.815   2.239   3.619 -0.0599 -0.1994  0.6411
 8003SOL    HW135468   0.862   2.323   3.624 -1.5391  0.6691 -0.2161
 8003SOL    HW235469   0.883   2.172   3.627 -0.5388 -0.7624  0.0266
 8004SOL     OW35470   2.232   2.858   6.955 -0.0949 -0.2608 -0.2477
 8004SOL    HW135471   2.252   2.835   7.046 -0.1471 -0.4047 -0.2725
 8004SOL    HW235472   2.142   2.824   6.949 -0.2688  0.1356  0.0777
 8005SOL     OW35473   3.407   1.556   7.257 -0.0348 -0.3278  0.7336
 8005SOL    HW135474   3.420   1.517   7.171  1.6214  0.7535  0.4942
 8005SOL    HW235475   3.339   1.508   7.305 -0.6306 -0.9560 -0.7435
 8006SOL     OW35476   1.068   4.467   9.981  0.2747  0.4665 -0.2932
 8006SOL    HW135477   1.155   4.474   9.940  1.7113  2.3224  3.1108
 8006SOL    HW235478   1.086   4.417  10.061  1.1975  0.5485 -0.4445
 8007SOL     OW35479   0.998   1.175   6.585  0.2335  0.2111 -0.0915
 8007SOL    HW135480   1.050   1.249   6.554 -0.0424 -0.1303 -1.3699
 8007SOL    HW235481   0.936   1.224   6.638  0.5323  1.4818 -0.9197
 8008SOL     OW35482   0.403   3.023   2.629 -0.1326  0.3255  0.3411
 8008SOL    HW135483   0.440   2.969   2.560  1.0189  0.4034  0.9070
 8008SOL    HW235484   0.396   3.115   2.605  0.6981 -0.0294 -1.1898
 8009SOL     OW35485   1.074   2.267   9.519  0.4563  0.1791 -0.2341
 8009SOL    HW135486   1.010   2.285   9.588  0.9238  0.5973  0.0876
 8009SOL    HW235487   1.152   2.255   9.573  0.9075 -1.0863 -1.1714
 8010SOL     OW35488   3.624   2.413   5.900  0.5123  0.3174 -0.6136
 8010SOL    HW135489   3.566   2.441   5.829 -0.2009 -0.1259 -0.1958
 8010SOL    HW235490   3.589   2.470   5.968  0.7393  0.1763 -0.3793
 8011SOL     OW35491   2.976   1.298   3.369 -0.0006  0.4310  0.4593
 8011SOL    HW135492   2.933   1.238   3.308  1.3643 -0.2128  0.1338
 8011SOL    HW235493   3.062   1.303   3.328  0.2965 -0.1006  1.0057
 8012SOL     OW35494   3.228   1.153   5.241 -0.2941 -0.0462 -0.4193
 8012SOL    HW135495   3.166   1.219   5.271 -0.1356  0.2822 -0.8131
 8012SOL    HW235496   3.318   1.180   5.255 -0.3117  0.1337 -0.6432
 8013SOL     OW35497   4.633   3.940   6.983 -0.2427 -0.0486  0.2337
 8013SOL    HW135498   4.604   3.850   6.976  1.0034 -0.3834 -0.5633
 8013SOL    HW235499   4.624   3.967   6.892  1.3772  1.0933  0.3986
 8014SOL     OW35500   2.877   3.534  10.375  0.5122  0.5193 -0.0610
 8014SOL    HW135501   2.892   3.441  10.393  1.1598  0.8405  1.1133
 8014SOL    HW235502   2.841   3.564  10.458  0.7424  1.2780 -0.2395
 8015SOL     OW35503   2.069   1.285  13.708  0.4162 -0.1680 -0.3091
 8015SOL    HW135504   2.020   1.296  13.627 -0.9266 -0.6209  0.4434
 8015SOL    HW235505   2.084   1.378  13.724  0.1279  0.2768 -2.6473
 8016SOL     OW35506   1.647   1.899  15.186  0.3898  0.2619  0.0670
 8016SOL    HW135507   1.655   1.983  15.231 -1.7225 -0.2712  1.4217
 8016SOL    HW235508   1.741   1.881  15.196  0.6134  2.2810  1.5110
 8017SOL     OW35509   3.295   3.831   4.000  0.0575  0.1631  0.0959
 8017SOL    HW135510   3.255   3.785   3.926  1.4948 -2.6543  1.0503
 8017SOL    HW235511   3.210   3.840   4.043  0.1537  2.8688 -0.3324
 8018SOL     OW35512   0.497   2.052   0.561 -0.8379 -0.1052 -0.7316
 8018SOL    HW135513   0.567   2.099   0.607 -1.5498  0.7457 -0.5216
 8018SOL    HW235514   0.487   1.971   0.610 -3.2073  0.1739 -0.7758
 8019SOL     OW35515   1.988   0.737   3.659 -0.1434 -0.1489 -0.4968
 8019SOL    HW135516   1.972   0.831   3.653  3.7137  0.7226  2.3722
 8019SOL    HW235517   2.072   0.732   3.705  0.3283  0.1245 -1.3355
 8020SOL     OW35518   1.747   1.512   3.236  0.1561  0.6490  0.0879
 8020SOL    HW135519   1.676   1.566   3.202 -0.7813 -1.0218 -0.6128
 8020SOL    HW235520   1.825   1.565   3.218  0.1332  0.8202  0.4928
 8021SOL     OW35521   2.929   0.716   3.801  0.1648  0.1596  0.4137
 8021SOL    HW135522   2.874   0.773   3.748 -0.4980 -0.6259  0.2719
 8021SOL    HW235523   3.013   0.744   3.764  0.2305  0.6491  0.9224
 8022SOL     OW35524   3.213   3.006   4.875 -0.2539 -0.0633  0.1873
 8022SOL    HW135525   3.201   3.100   4.860  2.2997 -0.0555 -1.8315
 8022SOL    HW235526   3.300   2.995   4.837  0.9482  1.4620  2.4465
 8023SOL     OW35527   3.179   1.457   6.179 -0.2366  0.3717  0.7608
 8023SOL    HW135528   3.241   1.395   6.140 -0.4034  0.4810  0.3260
 8023SOL    HW235529   3.117   1.397   6.220  0.9627 -1.8956 -0.6945
 8024SOL     OW35530   1.335   3.118  14.434 -0.1545  0.4067  0.2319
 8024SOL    HW135531   1.264   3.127  14.498 -1.3183 -0.6703 -0.9287
 8024SOL    HW235532   1.304   3.049  14.377  0.2651 -0.1302  0.6489
 8025SOL     OW35533   4.714   2.223   0.966  0.4753 -0.2658 -0.0937
 8025SOL    HW135534   4.700   2.306   0.921  0.1439 -1.6978 -2.6318
 8025SOL    HW235535   4.629   2.203   1.004 -0.1848 -0.1170 -1.4753
 8026SOL     OW35536   4.396   1.264   0.742  0.0153 -0.6430  0.0684
 8026SOL    HW135537   4.439   1.348   0.723  1.4465 -1.2601  0.6110
 8026SOL    HW235538   4.389   1.240   0.650  2.9846 -0.2780 -0.2511
 8027SOL     OW35539   2.279   4.531   3.033 -0.4335  0.0187  0.0142
 8027SOL    HW135540   2.302   4.611   2.986  1.0277  0.4292  1.3990
 8027SOL    HW235541   2.186   4.540   3.054 -0.6660 -2.2457 -0.0271
 8028SOL     OW35542   2.077   0.212  13.577 -0.3932 -0.3344 -0.4637
 8028SOL    HW135543   2.021   0.135  13.586  1.4586 -1.4766  1.4876
 8028SOL    HW235544   2.050   0.266  13.651  1.7139 -1.3891  1.0853
 8029SOL     OW35545   1.277   3.757  16.229 -0.1079  0.3368  0.3917
 8029SOL    HW135546   1.194   3.729  16.269  1.1102 -2.3904  1.0051
 8029SOL    HW235547   1.330   3.678  16.240  0.7187  0.5741 -1.9722
 8030SOL     OW35548   3.309   2.364   4.165  0.0968  0.3397  0.0813
 8030SOL    HW135549   3.316   2.439   4.107  1.3066  0.1240 -0.0607
 8030SOL    HW235550   3.385   2.373   4.223 -1.0372  0.6105  1.5295
 8031SOL     OW35551   4.226   1.534  10.116  0.2283 -0.1716  0.1768
 8031SOL    HW135552   4.135   1.510  10.130 -0.0090  1.1012  0.8926
 8031SOL    HW235553   4.239   1.566  10.206 -1.0406 -0.1049  0.3292
 8032SOL     OW35554   1.388   2.592   8.235  0.1388 -0.2844  0.3548
 8032SOL    HW135555   1.384   2.599   8.140  0.3310  1.8411  0.5076
 8032SOL    HW235556   1.410   2.682   8.259  0.5250 -0.6939  1.5541
 8033SOL     OW35557   0.984   1.986   2.701  0.5739 -0.2809 -0.4909
 8033SOL    HW135558   0.998   1.972   2.607  0.9299  0.3285 -0.5313
 8033SOL    HW235559   1.056   1.935   2.736 -0.4149  0.4402  2.5536
 8034SOL     OW35560   1.166   4.376   7.288  0.0048  0.1592  0.0863
 8034SOL    HW135561   1.201   4.382   7.377 -1.4123  2.6229  0.4587
 8034SOL    HW235562   1.195   4.287   7.269  0.9009  0.3184  0.7067
 8035SOL     OW35563   2.722   2.301  17.225  1.0747  0.0868 -0.2148
 8035SOL    HW135564   2.707   2.376  17.168 -0.7140  0.1656  0.3464
 8035SOL    HW235565   2.630   2.274  17.232  0.6668  0.9387 -2.2564
 8036SOL     OW35566   1.408   1.302   1.179 -0.0170 -0.4337  0.0006
 8036SOL    HW135567   1.433   1.218   1.141  1.3372  0.9394 -2.1492
 8036SOL    HW235568   1.471   1.311   1.251  1.4846  0.5915 -1.4432
 8037SOL     OW35569   2.653   3.323   5.671 -0.0854  0.1601  1.2362
 8037SOL    HW135570   2.713   3.363   5.608 -0.5677 -1.5046 -0.2795
 8037SOL    HW235571   2.573   3.328   5.620 -0.0096 -0.9620  1.0068
 8038SOL     OW35572   0.473   4.146   5.714  0.5839 -0.0006  0.3076
 8038SOL    HW135573   0.555   4.188   5.737  1.0387 -0.7235  0.0094
 8038SOL    HW235574   0.460   4.188   5.629 -0.3392  2.5805  1.7330
 8039SOL     OW35575   4.537   1.742  14.688  0.1928 -0.5429 -0.4020
 8039SOL    HW135576   4.483   1.670  14.721  0.4296 -1.3292 -1.7228
 8039SOL    HW235577   4.476   1.815  14.703  0.3907 -0.0321 -2.0945
 8040SOL     OW35578   2.872   0.666  16.185 -0.8050 -0.1507  0.0861
 8040SOL    HW135579   2.843   0.651  16.275 -1.3173  1.7046  0.2281
 8040SOL    HW235580   2.929   0.589  16.182  0.5236  0.7978  0.8816
 8041SOL     OW35581   0.402   1.507   2.191 -0.1436  0.0329  0.2750
 8041SOL    HW135582   0.322   1.556   2.172 -1.9301 -1.9029  2.7149
 8041SOL    HW235583   0.450   1.517   2.109  0.7532 -0.2063  0.7705
 8042SOL     OW35584   1.843   2.867   2.933 -0.5943  0.1269  0.7376
 8042SOL    HW135585   1.881   2.891   2.849  0.3970 -2.2771  0.5214
 8042SOL    HW235586   1.749   2.872   2.917 -0.4831  2.0181  0.6257
 8043SOL     OW35587   4.294   4.705   0.087 -0.2647  0.5608  0.6836
 8043SOL    HW135588   4.299   4.715  17.690 -1.2810  0.7923  0.6559
 8043SOL    HW235589   4.380   4.666   0.107  0.4240  2.0597  0.6227
 8044SOL     OW35590   1.106   2.398   1.368 -0.1063 -0.4783  0.3054
 8044SOL    HW135591   1.184   2.452   1.385  0.7136 -1.7640  0.6824
 8044SOL    HW235592   1.043   2.464   1.341  0.7247  0.4038  0.4896
 8045SOL     OW35593   0.482   4.636  14.346 -0.0417  0.2758  0.5609
 8045SOL    HW135594   0.417   4.687  14.298  0.7652 -0.7099 -1.5897
 8045SOL    HW235595   0.540   4.607  14.275 -0.9422  1.1687 -0.5383
 8046SOL     OW35596   0.538   3.020  16.729  0.3935  0.2797  0.0519
 8046SOL    HW135597   0.500   2.932  16.721 -0.8934  0.8391 -0.0447
 8046SOL    HW235598   0.479   3.068  16.787  0.0888  0.3542 -0.3226
 8047SOL     OW35599   0.554   0.188  11.091  0.3021  0.1904  0.2072
 8047SOL    HW135600   0.591   0.237  11.165  1.3710  0.8655 -0.7698
 8047SOL    HW235601   0.611   0.112  11.098  0.4328  0.3403  0.7465
 8048SOL     OW35602   1.536   0.838  11.859  0.1137  0.4766 -0.4996
 8048SOL    HW135603   1.516   0.845  11.765  0.6484 -0.5996 -0.6953
 8048SOL    HW235604   1.629   0.859  11.851 -0.0942  2.3528  2.0353
 8049SOL     OW35605   0.572   3.468   7.114 -0.0464  0.6273  0.6513
 8049SOL    HW135606   0.561   3.374   7.099  1.8025  0.4763  0.2984
 8049SOL    HW235607   0.646   3.489   7.057 -0.3599 -0.0340  0.0047
 8050SOL     OW35608   1.595   0.298   3.755 -0.9201 -0.3323 -0.5009
 8050SOL    HW135609   1.581   0.347   3.674 -1.6079 -1.3885 -1.0060
 8050SOL    HW235610   1.530   0.229   3.759 -1.2981  0.1010  0.9907
 8051SOL     OW35611   0.405   1.890   0.957  0.1352 -0.4680 -0.2022
 8051SOL    HW135612   0.419   1.851   0.871 -1.8274 -0.8972 -0.3347
 8051SOL    HW235613   0.312   1.912   0.949 -0.4330 -1.9306  2.0246
 8052SOL     OW35614   3.816   3.099   1.876 -0.2189 -0.3603  0.8460
 8052SOL    HW135615   3.853   3.116   1.962  1.1692  2.5724 -0.3316
 8052SOL    HW235616   3.842   3.007   1.868 -1.8868 -0.3257 -4.9567
 8053SOL     OW35617   1.731   2.847   5.421  0.4692  0.4334 -0.4785
 8053SOL    HW135618   1.700   2.921   5.474 -0.8442 -1.5706  1.5179
 8053SOL    HW235619   1.807   2.882   5.373  0.7968 -1.8576 -1.6313
 8054SOL     OW35620   2.038   2.524   2.287 -0.1534  0.2769 -0.4301
 8054SOL    HW135621   2.060   2.599   2.341 -0.7839  1.2936 -1.6004
 8054SOL    HW235622   1.997   2.568   2.212  0.5987  1.2755 -0.2400
 8055SOL     OW35623   2.179   1.948   3.117 -0.1351  0.2149  0.2264
 8055SOL    HW135624   2.180   2.004   3.195  1.9939  1.0377 -0.3977
 8055SOL    HW235625   2.181   1.855   3.137  0.7861  0.3107  0.5497
 8056SOL     OW35626   2.270   1.735   2.750 -0.4566 -0.1626  0.3490
 8056SOL    HW135627   2.234   1.763   2.666  1.3942 -0.5701 -0.5666
 8056SOL    HW235628   2.284   1.644   2.724  1.3428 -0.3018  1.8207
 8057SOL     OW35629   3.907   4.000   3.773 -0.3436 -0.6824  0.0021
 8057SOL    HW135630   3.992   3.959   3.790  0.2184  0.7885  0.8185
 8057SOL    HW235631   3.844   3.928   3.768  1.5710 -2.2916 -0.6916
 8058SOL     OW35632   1.029   3.227   6.585  0.1390 -0.1215  0.7846
 8058SOL    HW135633   1.036   3.169   6.509  0.3339 -1.1560  1.5949
 8058SOL    HW235634   1.119   3.244   6.614  0.2562  0.7342 -0.0765
 8059SOL     OW35635   1.088   0.356   9.079 -0.0495 -0.6681  0.3024
 8059SOL    HW135636   1.128   0.442   9.063 -0.4646 -1.2639 -3.8537
 8059SOL    HW235637   1.003   0.372   9.038 -0.5932 -0.4164  1.5141
 8060SOL     OW35638   2.338   0.256   3.933 -0.3390 -0.1854  0.5629
 8060SOL    HW135639   2.245   0.240   3.915 -0.3504  0.6892 -0.1504
 8060SOL    HW235640   2.346   0.218   4.021 -1.8330 -2.8351 -0.4692
 8061SOL     OW35641   4.712   1.580   5.598  0.4374 -0.1043  0.1085
 8061SOL    HW135642   4.677   1.633   5.527  1.9043 -0.4576 -0.8811
 8061SOL    HW235643   4.660   1.610   5.672  0.2766 -1.7841  0.6692
 8062SOL     OW35644   2.163   1.678   2.998  0.1553 -0.0721 -0.0768
 8062SOL    HW135645   2.226   1.686   2.927 -0.3333 -1.7392 -0.6908
 8062SOL    HW235646   2.115   1.596   2.987  0.1917  0.1925 -2.1874
 8063SOL     OW35647   2.000   3.971   4.964  0.1797 -0.2355 -0.2975
 8063SOL    HW135648   1.987   3.878   4.945  1.9921 -0.4526 -0.5423
 8063SOL    HW235649   1.988   4.012   4.878 -1.8055  1.1910  0.6630
 8064SOL     OW35650   2.162   1.205   1.592  0.0377  0.3543 -0.8104
 8064SOL    HW135651   2.200   1.233   1.675 -0.9206  0.3279 -0.3621
 8064SOL    HW235652   2.082   1.258   1.584  0.6561  0.9419 -3.0109
 8065SOL     OW35653   3.708   2.697   7.272 -0.0966  0.2708  0.2828
 8065SOL    HW135654   3.615   2.685   7.289  0.5719 -1.6661  2.6316
 8065SOL    HW235655   3.733   2.620   7.324  1.5867  0.5498 -0.1239
 8066SOL     OW35656   3.020   3.172  13.905 -0.0813  0.5629  0.0940
 8066SOL    HW135657   3.053   3.261  13.904 -0.5842  0.7322 -1.2187
 8066SOL    HW235658   3.096   3.116  13.924  0.5298  1.3193 -0.1457
 8067SOL     OW35659   3.639   0.765   6.847  0.6249  0.0133  0.0109
 8067SOL    HW135660   3.673   0.679   6.823  0.0238 -1.0084  2.8912
 8067SOL    HW235661   3.699   0.815   6.792  1.4611  0.3534  1.2269
 8068SOL     OW35662   4.061   0.932   3.387 -0.1265  0.2145 -0.2624
 8068SOL    HW135663   4.110   0.991   3.445  0.4656 -0.1707 -0.3710
 8068SOL    HW235664   4.129   0.908   3.324 -2.0796 -0.6541 -2.0251
 8069SOL     OW35665   1.236   2.908   6.736  0.5347  0.7702 -0.1582
 8069SOL    HW135666   1.206   2.928   6.825  2.1352  2.0992  0.1024
 8069SOL    HW235667   1.155   2.872   6.701 -0.5696  1.6380  1.4839
 8070SOL     OW35668   1.784   2.787   2.527  0.4556  0.0938  0.5164
 8070SOL    HW135669   1.800   2.705   2.574  0.5396 -0.7534 -0.9733
 8070SOL    HW235670   1.855   2.837   2.567  0.5444 -0.1067  0.6061
 8071SOL     OW35671   0.978   3.867   4.946 -0.7302  0.0976  0.4273
 8071SOL    HW135672   1.000   3.804   5.014 -1.3511  0.3525  0.8677
 8071SOL    HW235673   1.008   3.819   4.869  0.0323 -0.9235  1.3614
 8072SOL     OW35674   4.075   2.313   7.182  0.7406 -0.0385  0.3984
 8072SOL    HW135675   4.009   2.381   7.194  1.7276  1.2177 -1.3094
 8072SOL    HW235676   4.145   2.338   7.242  0.8484  2.6420 -0.8586
 8073SOL     OW35677   3.055   4.556   3.377  0.4518  0.0571 -0.0247
 8073SOL    HW135678   2.975   4.590   3.335  0.3001 -1.8784 -1.2922
 8073SOL    HW235679   3.034   4.544   3.469 -1.8061 -1.4496 -0.7409
 8074SOL     OW35680   4.586   4.378   2.683 -0.4564  0.2447  0.0390
 8074SOL    HW135681   4.614   4.300   2.634  1.1415  0.3396  0.7942
 8074SOL    HW235682   4.593   4.448   2.618  0.3127 -2.8372 -3.2398
 8075SOL     OW35683   2.216   0.678  10.193 -0.1187 -0.2108  0.1469
 8075SOL    HW135684   2.297   0.724  10.214  0.4955 -1.3898  0.3508
 8075SOL    HW235685   2.232   0.596  10.239 -2.9061 -0.9292 -0.1551
 8076SOL     OW35686   2.380   0.171  15.799 -0.2880 -0.3143 -0.1950
 8076SOL    HW135687   2.290   0.141  15.785 -0.6168 -0.1383  1.5460
 8076SOL    HW235688   2.362   0.264  15.786 -2.3351 -0.9975 -2.3846
 8077SOL     OW35689   1.542   4.231   4.276 -0.0967 -0.2206 -0.2242
 8077SOL    HW135690   1.555   4.138   4.295  2.0568 -0.1415 -1.2949
 8077SOL    HW235691   1.532   4.234   4.181 -2.1246 -2.1325 -0.0948
 8078SOL     OW35692   2.807   1.628   3.377  0.7387  0.7069 -0.2462
 8078SOL    HW135693   2.863   1.681   3.432 -0.2378  0.3244  1.1285
 8078SOL    HW235694   2.868   1.577   3.324 -1.9787 -0.8370 -1.8999
 8079SOL     OW35695   2.503   1.939   2.958 -0.5329  0.2152 -0.0858
 8079SOL    HW135696   2.454   1.941   2.876 -1.6677  0.3420  0.6033
 8079SOL    HW235697   2.443   1.881   3.004  0.3661 -1.4312 -0.9821
 8080SOL     OW35698   2.828   1.087   1.716 -0.4435  0.6513 -0.0052
 8080SOL    HW135699   2.870   1.044   1.642 -1.5671 -0.1601 -0.1752
 8080SOL    HW235700   2.800   1.168   1.674 -0.7205  0.3198 -0.4563
 8081SOL     OW35701   2.415   0.339  17.563 -0.0064 -0.3701 -0.0442
 8081SOL    HW135702   2.327   0.369  17.542 -1.3662 -1.9151  3.5308
 8081SOL    HW235703   2.440   0.410  17.622  0.3417  1.2393 -2.1235
 8082SOL     OW35704   2.267   3.683  14.931  0.0675  0.1410 -0.1137
 8082SOL    HW135705   2.230   3.698  14.844  1.8326 -0.8856 -1.0448
 8082SOL    HW235706   2.350   3.648  14.899  0.1526 -0.1177  0.3974
 8083SOL     OW35707   0.174   2.258   1.175 -0.6359  0.1495  0.1611
 8083SOL    HW135708   0.240   2.312   1.131 -0.2256 -1.6362 -1.4349
 8083SOL    HW235709   0.116   2.238   1.101  0.1216  0.4086 -0.5031
 8084SOL     OW35710   0.098   1.259   9.981  0.3826  0.3699  0.6526
 8084SOL    HW135711   0.031   1.304   9.931 -0.1390  1.2420  2.1382
 8084SOL    HW235712   0.081   1.286  10.071  0.4895  1.7334  0.2693
 8085SOL     OW35713   3.375   2.885   3.417 -0.0637  0.2622  0.1119
 8085SOL    HW135714   3.332   2.965   3.446  0.8474 -0.3579  3.1573
 8085SOL    HW235715   3.460   2.918   3.391 -0.9814  2.0796 -0.5835
 8086SOL     OW35716   1.280   4.092   6.994 -0.2122 -0.2309 -0.2147
 8086SOL    HW135717   1.335   4.155   6.947 -1.0138 -0.5808 -1.6216
 8086SOL    HW235718   1.337   4.061   7.064  0.1535  0.7881 -0.0531
 8087SOL     OW35719   2.059   3.306   0.833 -0.0288  0.4601 -0.1781
 8087SOL    HW135720   2.050   3.366   0.759  1.0808  0.3232 -0.4180
 8087SOL    HW235721   2.028   3.366   0.901  0.0963 -1.6425  1.7565
 8088SOL     OW35722   3.880   1.750   6.904 -0.2730  0.0586  0.2773
 8088SOL    HW135723   3.786   1.750   6.889 -0.3466  1.2032  0.7459
 8088SOL    HW235724   3.887   1.802   6.984 -1.6220  1.2156 -0.3611
 8089SOL     OW35725   4.687   0.701   6.895  0.6122 -0.2607 -0.3556
 8089SOL    HW135726   4.616   0.644   6.865  1.7204 -0.8863 -1.8198
 8089SOL    HW235727   4.636   0.759   6.951  1.2219  0.5282 -0.6123
 8090SOL     OW35728   1.721   4.446   3.634 -0.4539  0.3868 -0.0648
 8090SOL    HW135729   1.698   4.539   3.636  0.4617  0.6029  0.3166
 8090SOL    HW235730   1.636   4.404   3.637 -0.8981  1.2337 -0.6642
 8091SOL     OW35731   3.706   0.627   3.603  0.0173  0.6502  0.1845
 8091SOL    HW135732   3.682   0.623   3.510  2.6649 -1.6201 -0.3979
 8091SOL    HW235733   3.776   0.691   3.593  0.6925 -0.1955 -0.4867
 8092SOL     OW35734   0.518   1.515   1.658 -0.6753 -0.5959 -0.1708
 8092SOL    HW135735   0.499   1.592   1.711 -2.2707  0.0744 -1.6817
 8092SOL    HW235736   0.498   1.445   1.719 -1.3271 -0.3873 -0.1385
 8093SOL     OW35737   4.421   2.702   3.936 -0.4331  0.2312 -0.8045
 8093SOL    HW135738   4.405   2.794   3.920 -0.7436  0.3277  0.0832
 8093SOL    HW235739   4.456   2.692   4.024 -0.2540  1.3013 -0.7579
 8094SOL     OW35740   4.295   2.258   5.621  0.3937 -0.0897 -0.0534
 8094SOL    HW135741   4.234   2.332   5.624 -0.3374 -0.7219  0.4639
 8094SOL    HW235742   4.382   2.297   5.630 -0.8149  2.4318  0.8970
 8095SOL     OW35743   4.289   0.347   0.612  0.1078  0.0650 -0.5465
 8095SOL    HW135744   4.370   0.393   0.633 -0.2580 -0.6242  2.3541
 8095SOL    HW235745   4.258   0.385   0.530  0.6202 -0.0018 -0.7762
 8096SOL     OW35746   4.414   2.975   3.930  0.2489  0.2929 -0.1321
 8096SOL    HW135747   4.371   3.025   3.861  0.4448  0.0489 -0.4307
 8096SOL    HW235748   4.356   2.977   4.006  1.3267  1.2731  0.6580
 8097SOL     OW35749   4.102   3.703   0.385 -0.0221  0.2687 -0.5034
 8097SOL    HW135750   4.049   3.642   0.333 -1.8145  0.5677  0.9524
 8097SOL    HW235751   4.067   3.686   0.472  0.4299 -1.1384 -0.6064
 8098SOL     OW35752   4.171   0.723   2.687 -0.1168  0.1879  0.0052
 8098SOL    HW135753   4.261   0.747   2.666 -0.3197 -0.4127 -1.5477
 8098SOL    HW235754   4.134   0.725   2.599  1.0695 -1.5417 -0.5318
 8099SOL     OW35755   2.706   2.184   0.509  0.3790 -0.1561 -0.4092
 8099SOL    HW135756   2.786   2.163   0.558  0.3568  1.3787  0.2952
 8099SOL    HW235757   2.696   2.269   0.552  2.0840  0.9779 -2.2856
 8100SOL     OW35758   2.788   3.877  10.180  0.1591  0.4039  0.5830
 8100SOL    HW135759   2.729   3.887  10.105  0.9910  2.8981  0.2769
 8100SOL    HW235760   2.818   3.966  10.198 -0.7539  0.7605  0.3207
 8101SOL     OW35761   1.218   0.556   0.184 -0.4493 -0.1956 -0.1944
 8101SOL    HW135762   1.228   0.565   0.279  2.6152 -1.2179 -0.4163
 8101SOL    HW235763   1.285   0.612   0.146 -1.3045 -0.0920 -1.5225
 8102SOL     OW35764   3.853   0.450   7.578  0.4192 -0.1835  0.0556
 8102SOL    HW135765   3.799   0.476   7.503  2.0650 -0.6305 -1.2684
 8102SOL    HW235766   3.911   0.394   7.526 -0.6311 -1.3634  0.1349
 8103SOL     OW35767   2.534   3.600  12.299 -0.3272 -0.0151 -0.1385
 8103SOL    HW135768   2.448   3.597  12.258 -0.8206 -0.3747  0.9260
 8103SOL    HW235769   2.586   3.652  12.238  0.1392 -0.6644 -0.2902
 8104SOL     OW35770   2.367   3.023   8.014  0.4178  0.2827 -0.4191
 8104SOL    HW135771   2.382   2.938   8.054  2.4056  0.2497 -1.2678
 8104SOL    HW235772   2.435   3.029   7.947  0.1875 -0.6905 -0.7387
 8105SOL     OW35773   2.487   0.693  17.561 -0.9257  0.3731 -0.2048
 8105SOL    HW135774   2.559   0.678  17.500 -0.4645 -0.6388  0.5762
 8105SOL    HW235775   2.435   0.759  17.515  0.7978  2.4375  0.8351
 8106SOL     OW35776   1.494   2.725   5.546 -0.0222 -0.2834  0.1306
 8106SOL    HW135777   1.450   2.801   5.584  0.9504 -0.3606  1.4156
 8106SOL    HW235778   1.575   2.761   5.511  0.4973 -1.1360  0.4421
 8107SOL     OW35779   3.266   3.013   1.945 -0.6832 -0.7153 -0.4486
 8107SOL    HW135780   3.247   3.020   1.851  0.1001 -1.9647 -0.6914
 8107SOL    HW235781   3.353   2.975   1.941 -0.4075  0.1539 -2.8915
 8108SOL     OW35782   2.860   3.102   2.909  0.2760 -0.5222  0.2856
 8108SOL    HW135783   2.864   3.196   2.890  1.3160 -0.8291 -0.9598
 8108SOL    HW235784   2.935   3.070   2.859  1.0863  1.5277  0.2082
 8109SOL     OW35785   1.591   4.005   8.732 -0.4489  0.2635 -0.0450
 8109SOL    HW135786   1.506   4.039   8.703 -1.4101 -1.0088  1.3376
 8109SOL    HW235787   1.598   3.911   8.716 -1.0240  0.2889 -0.4343
 8110SOL     OW35788   1.754   2.736  16.218 -0.4783  0.3852 -0.0861
 8110SOL    HW135789   1.785   2.784  16.295 -1.7526  0.4910  0.3551
 8110SOL    HW235790   1.662   2.722  16.240 -0.2976 -1.8664 -0.7920
 8111SOL     OW35791   4.363   2.668   5.351  0.0397 -0.1216 -0.4502
 8111SOL    HW135792   4.280   2.625   5.332  1.0077 -1.8829 -0.7184
 8111SOL    HW235793   4.352   2.693   5.443  4.6978 -2.5163  0.7692
 8112SOL     OW35794   4.510   2.428  17.169 -1.0624 -0.5687  0.9550
 8112SOL    HW135795   4.506   2.486  17.245 -1.0138 -1.9689  2.0354
 8112SOL    HW235796   4.585   2.463  17.122  0.2085  0.6156  3.8509
 8113SOL     OW35797   2.216   1.881   7.134  0.1943  0.0973  0.1423
 8113SOL    HW135798   2.188   1.912   7.220  0.8391 -1.3566  0.8857
 8113SOL    HW235799   2.159   1.804   7.137 -0.5666  0.5670 -2.3719
 8114SOL     OW35800   1.202   1.232   7.268 -0.2376 -0.0536  0.0028
 8114SOL    HW135801   1.113   1.208   7.242 -0.1447 -0.1311 -0.2414
 8114SOL    HW235802   1.180   1.325   7.280 -0.1592 -0.0808  0.3458
 8115SOL     OW35803   2.001   1.504   6.591  0.0969 -1.0317  0.4555
 8115SOL    HW135804   2.048   1.457   6.521  1.2911  1.1674 -0.2035
 8115SOL    HW235805   2.031   1.469   6.675  1.8001  0.0090  0.2736
 8116SOL     OW35806   0.121   2.365  11.437 -0.9111  0.0915 -0.1023
 8116SOL    HW135807   0.091   2.306  11.368 -1.8489 -0.1146  0.4836
 8116SOL    HW235808   0.146   2.315  11.515 -1.1099  1.6730  0.9915
 8117SOL     OW35809   3.910   0.037   7.586  0.5480  0.5087 -0.8270
 8117SOL    HW135810   3.994   0.043   7.631 -0.5619 -1.4350  1.5211
 8117SOL    HW235811   3.924   4.723   7.500 -0.9581 -1.3344 -0.2568
 8118SOL     OW35812   4.026   4.265   4.439  0.5468  0.1884 -0.4376
 8118SOL    HW135813   3.967   4.260   4.514 -0.9663  1.3239 -1.5384
 8118SOL    HW235814   4.027   4.178   4.399 -0.6033 -0.0196 -0.0300
 8119SOL     OW35815   2.402   4.072   3.656  0.2384  0.2394 -0.5330
 8119SOL    HW135816   2.367   4.160   3.644  2.5598  1.2495  0.1168
 8119SOL    HW235817   2.478   4.101   3.707 -1.2827  2.7638  0.2950
 8120SOL     OW35818   2.511   1.960  17.296  0.0029  0.0947 -0.3923
 8120SOL    HW135819   2.489   2.052  17.284 -1.0419 -0.2211 -0.9225
 8120SOL    HW235820   2.605   1.963  17.276 -0.0017  0.3104 -0.3822
 8121SOL     OW35821   2.675   4.073   7.555  0.5684 -0.0481 -0.2003
 8121SOL    HW135822   2.762   4.051   7.523  0.0998 -1.6145 -0.3908
 8121SOL    HW235823   2.697   4.100   7.644  0.2437  0.0762 -0.1593
 8122SOL     OW35824   3.569   0.773   8.860 -0.0679  0.3449  0.6348
 8122SOL    HW135825   3.647   0.774   8.915 -0.5128  1.3789  1.2375
 8122SOL    HW235826   3.545   0.865   8.851 -0.1792  0.3122  0.5943
 8123SOL     OW35827   0.705   2.199   6.879 -0.3952 -0.2124 -0.0088
 8123SOL    HW135828   0.746   2.198   6.793 -2.3217  0.6730 -0.9388
 8123SOL    HW235829   0.765   2.252   6.931 -0.9923 -1.4998  2.0303
 8124SOL     OW35830   3.599   0.458   6.033  0.1574  0.0800  0.0872
 8124SOL    HW135831   3.597   0.524   5.964 -0.5555 -1.1767 -1.0920
 8124SOL    HW235832   3.660   0.398   5.990  2.6524  0.6955  2.8124
 8125SOL     OW35833   0.938   3.127   8.504  0.0486  0.4373 -0.5994
 8125SOL    HW135834   0.928   3.115   8.410 -1.2232  0.6416 -0.4826
 8125SOL    HW235835   0.992   3.206   8.499  1.3997 -0.3900  0.7121
 8126SOL     OW35836   2.062   3.880   6.477  0.1269 -0.6221 -0.5455
 8126SOL    HW135837   1.998   3.932   6.526 -1.3835 -0.1579 -2.9883
 8126SOL    HW235838   2.036   3.903   6.388  0.7268 -1.5290 -0.9575
 8127SOL     OW35839   2.187   4.697   6.063  0.0573 -0.1862 -0.1170
 8127SOL    HW135840   2.148   0.039   6.006 -0.1118  1.4153  1.8884
 8127SOL    HW235841   2.213   4.627   6.003  1.0154 -0.9333  1.1565
 8128SOL     OW35842   4.538   3.503   1.930 -0.4771 -0.1779 -0.1767
 8128SOL    HW135843   4.474   3.431   1.926  0.8171 -1.2711 -1.3377
 8128SOL    HW235844   4.557   3.525   1.839 -1.2004  0.0274 -0.2761
 8129SOL     OW35845   3.145   4.571   9.093 -0.2732 -0.3733  0.1091
 8129SOL    HW135846   3.122   4.491   9.141  0.8715 -0.6601  0.1783
 8129SOL    HW235847   3.058   4.601   9.066  0.1027 -2.7641 -3.7859
 8130SOL     OW35848   1.972   2.952   4.647 -0.3596 -0.1342  0.2865
 8130SOL    HW135849   1.986   2.874   4.594  2.5006  0.7726 -0.2740
 8130SOL    HW235850   1.979   3.025   4.586 -0.9417  1.3751  2.0138
 8131SOL     OW35851   3.450   2.065  16.033 -0.0816 -0.6293 -0.6661
 8131SOL    HW135852   3.511   2.078  15.960  1.1869 -1.2570  0.2749
 8131SOL    HW235853   3.498   1.994  16.077 -0.1747 -1.0322 -1.2183
 8132SOL     OW35854   1.730   2.620  13.501 -0.2570  0.3066 -0.5713
 8132SOL    HW135855   1.661   2.555  13.505  0.0111  0.0753  0.3490
 8132SOL    HW235856   1.742   2.634  13.595  0.7112 -0.3773 -0.5944
 8133SOL     OW35857   0.341   1.071   3.147 -0.1391 -0.0792  0.0122
 8133SOL    HW135858   0.295   1.001   3.101  0.3218 -0.5303  0.2285
 8133SOL    HW235859   0.371   1.136   3.083 -2.0699  0.3021 -0.4872
 8134SOL     OW35860   4.218   3.904   7.027  0.0341  0.1177 -0.1459
 8134SOL    HW135861   4.262   3.843   7.086 -0.3642 -0.0325 -0.0025
 8134SOL    HW235862   4.176   3.837   6.973  3.5324 -1.8541 -0.3955
 8135SOL     OW35863   2.545   0.848   1.111 -0.2465  0.1315 -0.2685
 8135SOL    HW135864   2.497   0.882   1.035  1.0567 -1.5803 -1.8647
 8135SOL    HW235865   2.522   0.917   1.173  0.4361  0.3282 -0.2342
 8136SOL     OW35866   1.269   0.606   9.063  0.8414  0.0726 -0.5732
 8136SOL    HW135867   1.281   0.699   9.080 -1.1743  0.5844 -1.9125
 8136SOL    HW235868   1.252   0.610   8.969 -1.9116 -1.9377 -0.1878
 8137SOL     OW35869   0.692   2.496   7.462 -0.4088  0.1713 -0.0287
 8137SOL    HW135870   0.694   2.474   7.369 -0.5472 -1.3893  0.3345
 8137SOL    HW235871   0.604   2.531   7.474 -0.6788 -1.0172  1.5184
 8138SOL     OW35872   0.650   3.456   6.299  0.5533  0.2770  0.0551
 8138SOL    HW135873   0.593   3.510   6.245  1.4817  1.3514  0.1555
 8138SOL    HW235874   0.734   3.496   6.276 -0.0053  1.6637  0.4196
 8139SOL     OW35875   3.568   3.300  11.429  0.1134 -0.2322  0.0940
 8139SOL    HW135876   3.581   3.385  11.387 -3.1449 -0.2204 -0.8677
 8139SOL    HW235877   3.642   3.305  11.490 -0.2595 -0.5763  0.5734
 8140SOL     OW35878   2.135   1.006   4.287  0.5625  0.3593  0.0634
 8140SOL    HW135879   2.217   1.019   4.239 -1.3136 -0.1804 -3.3207
 8140SOL    HW235880   2.135   0.913   4.266  0.8875  0.2693  0.4741
 8141SOL     OW35881   3.638   3.867   9.891 -0.3178 -0.4669  0.4420
 8141SOL    HW135882   3.607   3.931   9.828 -0.3647 -2.0209 -1.1123
 8141SOL    HW235883   3.557   3.838   9.935 -1.5528  0.6760 -1.1073
 8142SOL     OW35884   0.092   3.075   6.942  0.5845  0.5837  0.0279
 8142SOL    HW135885   0.134   3.117   6.867 -0.4339 -1.0540 -1.4704
 8142SOL    HW235886   0.108   3.137   7.013 -3.2944  2.1118 -0.4072
 8143SOL     OW35887   2.767   2.916   0.654  0.2055  0.3761  0.3950
 8143SOL    HW135888   2.743   2.827   0.629  1.1457 -0.1175  1.2203
 8143SOL    HW235889   2.813   2.944   0.575  2.3011 -2.7269  0.5230
 8144SOL     OW35890   3.863   3.435   8.761  0.3939  0.1082  0.4170
 8144SOL    HW135891   3.821   3.364   8.712 -1.2448  1.1613  0.2941
 8144SOL    HW235892   3.946   3.432   8.713  1.2422  0.6869  1.8607
 8145SOL     OW35893   1.471   1.315   9.084  0.0152 -0.0669  0.2633
 8145SOL    HW135894   1.526   1.302   9.007  0.9548 -0.9024  1.0795
 8145SOL    HW235895   1.430   1.399   9.062  0.8760  0.4526  0.6754
 8146SOL     OW35896   0.217   4.036  16.471  0.3176 -0.0320 -0.0230
 8146SOL    HW135897   0.208   4.088  16.551  0.0580 -1.2023  0.7062
 8146SOL    HW235898   0.258   4.096  16.408 -1.2890 -1.0397 -2.0311
 8147SOL     OW35899   0.703   1.212   3.045  0.0188  0.0791  0.0039
 8147SOL    HW135900   0.672   1.126   3.016  1.7998 -0.9417  1.1743
 8147SOL    HW235901   0.785   1.212   2.996 -0.8178  0.8025 -1.4274
 8148SOL     OW35902   2.463   0.181   8.292  0.4067  0.1252 -0.1078
 8148SOL    HW135903   2.481   0.168   8.385  0.2789  1.0955  0.0559
 8148SOL    HW235904   2.481   0.275   8.294 -2.4783  0.7534 -3.6143
 8149SOL     OW35905   2.741   1.091  15.025  0.4229  0.3696 -0.8836
 8149SOL    HW135906   2.723   1.080  14.931  1.0851  0.7480 -1.0537
 8149SOL    HW235907   2.690   1.023  15.069 -1.7394  2.5429 -0.0521
 8150SOL     OW35908   0.707   3.595  10.128  0.7507  0.1427 -0.4490
 8150SOL    HW135909   0.792   3.624  10.094  0.6711 -1.0558 -1.6304
 8150SOL    HW235910   0.654   3.647  10.067 -0.8243 -3.4156 -2.1091
 8151SOL     OW35911   2.981   2.199   6.827  0.1469  0.2556  0.1245
 8151SOL    HW135912   2.930   2.278   6.808 -0.4523 -0.1187  0.1797
 8151SOL    HW235913   3.071   2.232   6.832  0.4443 -0.4616 -0.4452
 8152SOL     OW35914   1.649   2.167  16.871  0.2117  0.5066 -0.5823
 8152SOL    HW135915   1.713   2.123  16.815 -1.7510 -2.2018 -0.6674
 8152SOL    HW235916   1.687   2.255  16.870 -0.2095  0.6995  0.3265
 8153SOL     OW35917   2.566   1.106   6.634  0.1680 -0.1188  0.3148
 8153SOL    HW135918   2.473   1.083   6.626 -0.2301  1.8091 -0.6921
 8153SOL    HW235919   2.576   1.076   6.724 -0.6585  2.0321  1.1024
 8154SOL     OW35920   1.912   2.195  12.861  0.6096 -0.2524 -0.1962
 8154SOL    HW135921   1.930   2.274  12.912  0.7094  1.3442 -2.7227
 8154SOL    HW235922   1.816   2.196  12.857  0.7073  0.6168 -1.8121
 8155SOL     OW35923   0.618   0.008   0.594  0.2088  0.0751  0.3069
 8155SOL    HW135924   0.702   0.046   0.569  1.3038 -1.7341  1.2593
 8155SOL    HW235925   0.628   4.637   0.589  0.9645  0.1713 -0.0136
 8156SOL     OW35926   1.178   1.673   9.859 -0.7068 -0.0496  0.7106
 8156SOL    HW135927   1.111   1.717   9.911  1.8490  4.0253  0.5981
 8156SOL    HW235928   1.122   1.604   9.824  0.2536 -1.4981  2.0534
 8157SOL     OW35929   3.999   0.309   0.682 -0.2944 -0.3049 -0.3031
 8157SOL    HW135930   3.990   0.282   0.590 -0.2286 -1.0951 -0.0762
 8157SOL    HW235931   4.091   0.334   0.684 -0.5493  0.7287 -1.3524
 8158SOL     OW35932   3.168   1.708   9.891 -0.3596  0.6563 -0.0269
 8158SOL    HW135933   3.156   1.747   9.978 -0.9400  1.7574 -0.6107
 8158SOL    HW235934   3.075   1.693   9.871 -0.0246 -0.2767 -0.8448
 8159SOL     OW35935   4.550   0.298  13.207 -0.0207 -0.1770 -0.2539
 8159SOL    HW135936   4.492   0.222  13.219  0.1757 -0.4578 -1.0588
 8159SOL    HW235937   4.638   0.260  13.209  0.7434  1.5181 -1.5462
 8160SOL     OW35938   3.120   2.777  14.766  0.2119  0.3834 -0.1530
 8160SOL    HW135939   3.040   2.732  14.740  0.0216  0.5185  0.2073
 8160SOL    HW235940   3.086   2.859  14.803 -0.8366  0.0925 -0.4540
 8161SOL     OW35941   0.846   1.496   3.350 -0.3467 -0.1499  0.1201
 8161SOL    HW135942   0.830   1.591   3.354 -1.4693 -0.4918  3.7444
 8161SOL    HW235943   0.812   1.468   3.265 -2.5188  0.0284  0.9523
 8162SOL     OW35944   4.068   1.277   7.007 -0.2669 -0.1054 -0.0159
 8162SOL    HW135945   4.089   1.337   7.078  1.5295  0.5005 -1.0485
 8162SOL    HW235946   3.998   1.218   7.036 -0.2154  0.5173  1.3512
 8163SOL     OW35947   4.240   3.860   0.119  0.6104 -0.2351 -0.3315
 8163SOL    HW135948   4.289   3.779   0.107  1.2769  0.1653 -0.2720
 8163SOL    HW235949   4.150   3.833   0.098  1.1864 -1.9098 -0.6381
 8164SOL     OW35950   1.370   1.659   7.070 -0.2803 -0.5407 -0.5679
 8164SOL    HW135951   1.426   1.680   6.995  0.2292 -0.3721 -0.1356
 8164SOL    HW235952   1.293   1.629   7.022 -0.6566 -1.2438  0.4790
 8165SOL     OW35953   2.956   0.088   8.617  0.7464 -0.0946  0.0150
 8165SOL    HW135954   3.027   0.126   8.669  0.2393 -0.8117  1.2235
 8165SOL    HW235955   2.886   0.101   8.681  0.1153  0.1607 -0.7227
 8166SOL     OW35956   3.158   0.966   3.386  0.1063  0.1513  0.1256
 8166SOL    HW135957   3.084   1.022   3.364 -0.1203 -1.0012 -2.0739
 8166SOL    HW235958   3.165   0.912   3.306  1.3890  2.2697 -1.1863
 8167SOL     OW35959   3.617   3.478   6.788 -0.2169  0.3604 -0.2136
 8167SOL    HW135960   3.537   3.497   6.740 -1.9524 -1.8935  1.7868
 8167SOL    HW235961   3.616   3.382   6.783 -2.9407  0.2584  2.2190
 8168SOL     OW35962   1.626   2.318   7.940  0.2359 -0.0019  0.1757
 8168SOL    HW135963   1.720   2.302   7.933  0.4752  1.9636 -0.8068
 8168SOL    HW235964   1.606   2.345   7.851 -0.6254  0.9835  0.6653
 8169SOL     OW35965   2.295   1.652   7.842 -0.0574 -0.1628 -0.1633
 8169SOL    HW135966   2.306   1.728   7.900 -0.5596  0.3484 -0.7325
 8169SOL    HW235967   2.377   1.664   7.795  1.1171 -0.4810  1.8349
 8170SOL     OW35968   4.462   3.459   5.483 -0.9377 -0.1610 -0.5854
 8170SOL    HW135969   4.531   3.444   5.547 -0.0121  0.3044 -1.4773
 8170SOL    HW235970   4.380   3.440   5.528 -0.7052 -1.8499 -0.8750
 8171SOL     OW35971   1.911   1.947   7.526 -0.1286 -0.1635  0.2115
 8171SOL    HW135972   1.928   1.883   7.457  2.4156  2.3957 -1.4892
 8171SOL    HW235973   1.945   1.890   7.595 -1.4844  1.8040  2.5139
 8172SOL     OW35974   2.157   1.107   8.510  0.3376 -0.0459 -0.2986
 8172SOL    HW135975   2.128   1.048   8.580  1.1029 -1.2734 -1.0212
 8172SOL    HW235976   2.123   1.192   8.539  2.6690  0.2259  1.6629
 8173SOL     OW35977   0.623   4.605  11.233  0.3802  0.4138  0.4341
 8173SOL    HW135978   0.543   4.612  11.285  1.3604 -0.7314  2.1123
 8173SOL    HW235979   0.601   4.524  11.186  2.0088  0.5902 -0.6361
 8174SOL     OW35980   0.112   2.801   5.135  0.3604  0.4918  0.2061
 8174SOL    HW135981   0.190   2.853   5.117 -1.6238  2.2483 -3.2948
 8174SOL    HW235982   0.056   2.877   5.146 -1.6412 -0.9868  0.2894
 8175SOL     OW35983   2.053   3.404   7.432  0.0397  0.0846 -0.5353
 8175SOL    HW135984   2.130   3.348   7.444  0.2818  0.1837 -1.6182
 8175SOL    HW235985   2.084   3.463   7.363 -0.3014 -0.3276 -1.0383
 8176SOL     OW35986   1.489   0.322   8.068  0.6692  0.1056 -0.4682
 8176SOL    HW135987   1.418   0.385   8.056  0.3572  0.0726  1.1841
 8176SOL    HW235988   1.433   0.248   8.093 -0.9147  2.0732  1.8408
 8177SOL     OW35989   0.583   2.012   3.339  0.3299  0.2628 -0.0955
 8177SOL    HW135990   0.675   1.992   3.321  0.3479  0.1762  0.1004
 8177SOL    HW235991   0.562   2.039   3.249  0.6682 -1.3128 -0.6497
 8178SOL     OW35992   0.030   2.431   1.317 -0.1871 -0.0571 -0.0924
 8178SOL    HW135993   4.713   2.378   1.385  2.6102 -0.1685  1.4808
 8178SOL    HW235994   0.083   2.362   1.278  1.4723  0.5689  1.0347
 8179SOL     OW35995   2.766   0.920  17.088  0.1525  0.4335  0.2332
 8179SOL    HW135996   2.807   0.909  17.174 -1.2082 -0.5744  0.7329
 8179SOL    HW235997   2.839   0.952  17.035 -0.0164  0.1372 -0.1789
 8180SOL     OW35998   4.163   0.290  17.342  0.0229 -0.2313  0.2037
 8180SOL    HW135999   4.085   0.338  17.317 -0.8960 -1.7940  0.0690
 8180SOL    HW236000   4.173   0.235  17.263  2.3163  0.9788 -0.3570
 8181SOL     OW36001   0.379   4.117   8.716 -0.4203  0.2516 -0.2913
 8181SOL    HW136002   0.312   4.100   8.650  0.6862  0.3679 -1.4417
 8181SOL    HW236003   0.360   4.205   8.748  1.7250 -0.1180  1.9771
 8182SOL     OW36004   3.442   4.579   2.623  0.3777  0.3686  0.0916
 8182SOL    HW136005   3.470   4.510   2.683 -2.0229 -0.0585  0.7107
 8182SOL    HW236006   3.507   4.575   2.552  1.2483  1.2415  0.8485
 8183SOL     OW36007   1.144   4.464   8.219 -0.1430  1.1089  0.2345
 8183SOL    HW136008   1.225   4.416   8.236  0.5073  1.7838 -0.9475
 8183SOL    HW236009   1.124   4.436   8.130  0.9439  1.2629 -0.0551
 8184SOL     OW36010   2.213   4.327   1.843  0.7072  0.3907 -0.3268
 8184SOL    HW136011   2.220   4.249   1.788  1.7730 -0.0524  0.4319
 8184SOL    HW236012   2.290   4.329   1.900 -0.6137  1.8873  1.4084
 8185SOL     OW36013   3.151   1.771   2.913 -0.0385  0.0271  0.4718
 8185SOL    HW136014   3.227   1.797   2.965  1.3507  0.0747 -1.6028
 8185SOL    HW236015   3.159   1.835   2.842  0.1762 -0.2343  0.2652
 8186SOL     OW36016   0.331   4.577   8.513 -0.0875 -0.3193  0.1785
 8186SOL    HW136017   0.260   4.514   8.506  0.6397 -1.3368  1.9227
 8186SOL    HW236018   0.318   4.610   8.602 -0.0444  0.5236 -0.1341
 8187SOL     OW36019   2.448   4.608  14.219  0.8780  0.7374 -0.0266
 8187SOL    HW136020   2.388   4.619  14.293 -0.4442  1.6504 -1.2376
 8187SOL    HW236021   2.404   4.547  14.160 -0.8097  1.9611 -0.0251
 8188SOL     OW36022   1.375   0.071   2.343 -0.8573 -0.0778  0.3163
 8188SOL    HW136023   1.388   0.116   2.260  1.9449  1.3443  1.5253
 8188SOL    HW236024   1.428   0.124   2.402 -2.2237  1.1942  0.4064
 8189SOL     OW36025   4.630   1.338   8.251 -0.4246  0.8380  0.1893
 8189SOL    HW136026   4.638   1.340   8.347 -0.7699 -0.9641  0.2540
 8189SOL    HW236027   4.641   1.432   8.234 -0.8759  0.8409 -0.0650
 8190SOL     OW36028   2.469   2.352   8.827  0.3531 -0.3520  0.1720
 8190SOL    HW136029   2.385   2.387   8.798  0.3978  0.4654  0.9989
 8190SOL    HW236030   2.508   2.421   8.882  1.2143 -1.5527  1.0837
 8191SOL     OW36031   3.746   2.683  15.910 -0.2438 -0.5872 -0.6643
 8191SOL    HW136032   3.683   2.754  15.895  1.7560  1.2670 -0.2777
 8191SOL    HW236033   3.751   2.666  16.004 -0.9750  0.5104 -0.4260
 8192SOL     OW36034   2.606   1.148   4.968  0.1018 -0.4671 -0.4483
 8192SOL    HW136035   2.526   1.182   5.006  1.1276  0.5121  0.8366
 8192SOL    HW236036   2.620   1.220   4.906  1.0891 -0.2565  0.0182
 8193SOL     OW36037   2.340   2.758   5.611 -0.0183 -0.2759 -0.4517
 8193SOL    HW136038   2.434   2.752   5.629 -0.2434 -0.9814  0.4791
 8193SOL    HW236039   2.315   2.737   5.701 -0.3226 -0.6443 -0.6241
 8194SOL     OW36040   1.337   1.574   0.810 -0.4896  0.2089 -0.1529
 8194SOL    HW136041   1.374   1.660   0.829  1.7324 -1.5900  3.7865
 8194SOL    HW236042   1.412   1.523   0.840 -0.2082  0.6166 -0.1742
 8195SOL     OW36043   1.509   2.619   4.609  0.2814  0.3418 -0.0367
 8195SOL    HW136044   1.546   2.536   4.578 -2.4543 -0.6707 -0.6005
 8195SOL    HW236045   1.476   2.589   4.694  2.6631  0.7127  1.0303
 8196SOL     OW36046   4.229   4.305   4.232  0.6199 -0.0551 -0.3006
 8196SOL    HW136047   4.284   4.365   4.283 -0.7409  0.2940  0.7494
 8196SOL    HW236048   4.148   4.292   4.281  0.3305  2.6577 -0.0623
 8197SOL     OW36049   0.643   4.158  11.968 -0.4533 -0.5995 -0.2671
 8197SOL    HW136050   0.708   4.175  11.900  1.3212  0.9989  1.7952
 8197SOL    HW236051   0.690   4.159  12.052 -0.0414  2.4526 -0.5307
 8198SOL     OW36052   2.929   3.004  13.230  0.0687 -1.0032  0.1329
 8198SOL    HW136053   2.865   2.953  13.181  0.2426 -1.0213 -0.0738
 8198SOL    HW236054   2.902   2.981  13.319  0.9070 -0.9970  0.3886
 8199SOL     OW36055   3.842   3.014   3.870  0.0287 -0.0649 -0.5125
 8199SOL    HW136056   3.924   2.977   3.839 -1.2439 -1.2680 -2.4823
 8199SOL    HW236057   3.776   2.972   3.814 -0.7651  1.2645 -0.5842
 8200SOL     OW36058   2.573   3.903   8.135  0.2533  0.5905  0.8051
 8200SOL    HW136059   2.500   3.927   8.078  1.0225 -0.8098 -0.7695
 8200SOL    HW236060   2.633   3.974   8.112 -0.4531  0.7725 -0.4620
 8201SOL     OW36061   1.836   1.210   5.395 -0.0632  0.3525  0.3350
 8201SOL    HW136062   1.880   1.206   5.309 -0.4127  0.1278  0.1688
 8201SOL    HW236063   1.845   1.305   5.409 -0.8130  0.6336 -1.0943
 8202SOL     OW36064   1.670   1.460   6.931  0.4655  0.0387 -0.0323
 8202SOL    HW136065   1.754   1.495   6.960  1.7575 -2.0332 -1.2476
 8202SOL    HW236066   1.631   1.546   6.913 -1.3411 -0.6993  0.3310
 8203SOL     OW36067   4.316   1.723   4.644 -0.6267  0.2178 -0.5025
 8203SOL    HW136068   4.360   1.642   4.617 -1.6036 -0.7465  0.7774
 8203SOL    HW236069   4.314   1.773   4.563 -0.4250  1.1199  0.0541
 8204SOL     OW36070   3.906   4.398   6.803  0.0853 -0.0216 -0.1317
 8204SOL    HW136071   3.811   4.403   6.788  0.1710  0.2428 -0.5935
 8204SOL    HW236072   3.930   4.314   6.764  2.2324  0.3161  0.4720
 8205SOL     OW36073   3.655   3.838   3.775 -0.1567  0.5109  0.1967
 8205SOL    HW136074   3.656   3.910   3.712  1.7631  0.9620  0.7182
 8205SOL    HW236075   3.643   3.760   3.721  1.1563 -0.0295  0.6749
 8206SOL     OW36076   2.190   4.526   7.823  0.2873  0.7938 -0.2607
 8206SOL    HW136077   2.232   4.508   7.907  1.8898  2.3390 -0.7317
 8206SOL    HW236078   2.253   4.586   7.783  1.5724 -0.5238 -0.2322
 8207SOL     OW36079   3.757   4.648   8.039  0.2724  0.4085  0.1351
 8207SOL    HW136080   3.825   4.588   8.071 -0.8756 -1.1741 -0.4056
 8207SOL    HW236081   3.752   4.631   7.945  2.1297  0.1388  0.0759
 8208SOL     OW36082   0.997   3.074  15.341 -0.1784  0.2906  0.5934
 8208SOL    HW136083   1.044   2.995  15.314 -0.0340  0.6323 -0.1722
 8208SOL    HW236084   1.066   3.138  15.357 -1.7940  1.6667  2.0148
 8209SOL     OW36085   0.680   1.811  14.657  0.8593 -0.1820 -0.4205
 8209SOL    HW136086   0.604   1.838  14.607  0.1867 -2.6205 -0.6582
 8209SOL    HW236087   0.646   1.733  14.700 -1.1867  0.6691 -0.5141
 8210SOL     OW36088   0.307   4.568   2.963  0.3151 -0.3822  0.2449
 8210SOL    HW136089   0.354   4.538   3.041  0.4680  2.9216  1.4332
 8210SOL    HW236090   0.301   4.491   2.907  1.9822  0.4810 -1.1188
 8211SOL     OW36091   1.912   0.246  10.869  0.1881 -0.3640 -0.4575
 8211SOL    HW136092   1.847   0.224  10.802  1.4535 -0.9898 -1.5053
 8211SOL    HW236093   1.859   0.218  10.943  0.4504  0.1400 -0.0769
 8212SOL     OW36094   0.525   4.423   6.815 -0.4125  0.2479  0.2875
 8212SOL    HW136095   0.477   4.495   6.856 -0.7481 -0.7956  1.7060
 8212SOL    HW236096   0.449   4.377   6.778  0.6169 -0.8092 -0.5296
 8213SOL     OW36097   3.176   0.962   4.558 -0.7893  0.0382 -0.1699
 8213SOL    HW136098   3.121   1.024   4.606  1.9215  1.1825  1.3827
 8213SOL    HW236099   3.209   1.008   4.481 -0.2155  1.0969  0.7232
 8214SOL     OW36100   2.618   2.595   8.554  0.5868 -0.0418  0.1150
 8214SOL    HW136101   2.704   2.587   8.596  1.2866  0.5669 -1.2174
 8214SOL    HW236102   2.580   2.659   8.615  0.3573 -0.4484  0.4007
 8215SOL     OW36103   0.160   3.309   2.063  0.0191  0.2868  0.5104
 8215SOL    HW136104   0.234   3.253   2.040  0.1251  1.2481 -1.4892
 8215SOL    HW236105   0.121   3.267   2.139  0.6676 -2.0050 -0.4202
 8216SOL     OW36106   3.466   1.720   6.469 -0.3623  0.2332  0.2595
 8216SOL    HW136107   3.527   1.704   6.540 -1.5674 -3.6639  0.3904
 8216SOL    HW236108   3.409   1.644   6.475  1.6819 -1.3877 -0.7926
 8217SOL     OW36109   2.288   3.563   8.789  0.3458  0.1440  0.1671
 8217SOL    HW136110   2.317   3.641   8.837 -1.6021  0.0991  1.4332
 8217SOL    HW236111   2.322   3.497   8.850  1.3216 -0.2570 -0.8038
 8218SOL     OW36112   2.261   1.766   9.945 -0.1485  0.1516  0.5546
 8218SOL    HW136113   2.269   1.726   9.859 -0.5622 -0.3736  0.7583
 8218SOL    HW236114   2.302   1.705  10.007 -1.1819  0.5316  1.6203
 8219SOL     OW36115   3.815   2.038  11.397 -0.1809 -0.3051  0.2229
 8219SOL    HW136116   3.807   2.094  11.474  1.2646  0.6388 -0.3241
 8219SOL    HW236117   3.846   2.101  11.333 -1.2115  1.6051  1.6121
 8220SOL     OW36118   3.147   3.323   4.377  0.3139  0.1660  1.0530
 8220SOL    HW136119   3.097   3.260   4.428 -1.8218  1.0544  0.0610
 8220SOL    HW236120   3.084   3.387   4.344 -0.8019 -1.4079  0.1314
 8221SOL     OW36121   1.639   3.410   4.775 -0.0746  0.0885 -0.0016
 8221SOL    HW136122   1.650   3.486   4.831  1.7128  0.5064 -0.8944
 8221SOL    HW236123   1.555   3.418   4.731 -0.7271 -0.0204  1.2381
 8222SOL     OW36124   2.658   2.112   4.071 -0.4580 -0.1480  0.0895
 8222SOL    HW136125   2.570   2.082   4.094 -0.1561 -1.8289 -0.9832
 8222SOL    HW236126   2.701   2.027   4.069 -0.9611 -0.3966 -0.0664
 8223SOL     OW36127   0.293   3.353   1.353  0.3034  0.1161  0.4597
 8223SOL    HW136128   0.319   3.267   1.387 -1.7636 -1.2501 -1.3791
 8223SOL    HW236129   0.278   3.333   1.260  0.6259  2.4751 -0.0922
 8224SOL     OW36130   4.674   2.156   2.675  0.6493 -0.4740  0.1502
 8224SOL    HW136131   4.706   2.236   2.633 -0.1166 -0.0618  0.3463
 8224SOL    HW236132   4.672   2.100   2.597  0.7079 -1.2515  0.7091
 8225SOL     OW36133   1.858   4.328   4.907 -0.3401 -0.2551  0.0786
 8225SOL    HW136134   1.886   4.280   4.829 -1.0580 -2.6198  1.2637
 8225SOL    HW236135   1.927   4.313   4.970 -0.0455  0.4786 -0.0695
 8226SOL     OW36136   4.488   0.027   5.067  0.1881 -0.4691  0.2849
 8226SOL    HW136137   4.519   0.001   4.981  2.4736  2.2913  0.2750
 8226SOL    HW236138   4.400   4.714   5.070 -0.4021  1.1600  4.3020
 8227SOL     OW36139   1.699   0.792   7.030 -0.1365  0.4763 -0.3481
 8227SOL    HW136140   1.648   0.717   6.998 -1.2750  0.5442  1.2838
 8227SOL    HW236141   1.643   0.828   7.098  0.1680 -2.9924  1.7744
 8228SOL     OW36142   1.296   3.788  17.637  0.0684 -0.3062  0.6010
 8228SOL    HW136143   1.340   3.868  17.667  1.0545 -1.2510  1.6721
 8228SOL    HW236144   1.248   3.829  17.565 -0.1227  1.6259  1.8169
 8229SOL     OW36145   0.979   0.434   2.841  0.1328  0.1028  0.4936
 8229SOL    HW136146   0.971   0.404   2.932 -0.8169  0.8749  0.6765
 8229SOL    HW236147   0.917   0.507   2.841  0.9678  0.8017  0.3006
 8230SOL     OW36148   0.733   0.371  12.215 -0.5836  0.1904  0.3398
 8230SOL    HW136149   0.747   0.305  12.146  0.5497 -2.1279  2.7788
 8230SOL    HW236150   0.810   0.427  12.212  0.4823 -1.2664  0.1568
 8231SOL     OW36151   2.127   1.576  16.136 -0.6227 -0.2423  0.3714
 8231SOL    HW136152   2.044   1.537  16.107  1.8170 -4.5442 -0.8413
 8231SOL    HW236153   2.105   1.605  16.225 -1.5295 -1.6320  0.6087
 8232SOL     OW36154   1.613   2.251   3.901  0.3095  0.0722 -0.1131
 8232SOL    HW136155   1.621   2.163   3.865 -1.3211 -0.4403  0.7737
 8232SOL    HW236156   1.704   2.280   3.908  0.5902 -0.5441 -1.1849
 8233SOL     OW36157   4.287   3.309   0.846 -0.3048  0.6618 -0.1354
 8233SOL    HW136158   4.212   3.265   0.887 -0.2954  0.8814  0.1165
 8233SOL    HW236159   4.352   3.295   0.915 -0.7799 -0.4766  0.0781
 8234SOL     OW36160   0.144   0.462  10.680 -0.2741  0.1038  0.5951
 8234SOL    HW136161   0.185   0.484  10.596 -1.5497  0.0414 -0.0406
 8234SOL    HW236162   0.216   0.481  10.741 -0.0501  1.3324 -0.0306
 8235SOL     OW36163   4.165   3.189   3.291  0.6280  0.3932 -0.3771
 8235SOL    HW136164   4.116   3.182   3.210  0.2870  0.7437 -0.2003
 8235SOL    HW236165   4.206   3.103   3.304 -0.0154  0.4286  2.0129
 8236SOL     OW36166   0.311   0.066   7.484  0.0504 -0.3390 -0.1287
 8236SOL    HW136167   0.359   0.149   7.481  1.3375 -1.1225 -1.1924
 8236SOL    HW236168   0.226   0.085   7.525  0.6100  0.0574  0.8385
 8237SOL     OW36169   0.951   1.468   5.504 -0.4453 -0.1742 -0.0507
 8237SOL    HW136170   1.029   1.418   5.479  1.5053  1.7079  2.1499
 8237SOL    HW236171   0.937   1.517   5.423  1.2192  0.1822 -0.1323
 8238SOL     OW36172   1.344   1.792   4.829  0.0707 -0.3467  0.1086
 8238SOL    HW136173   1.283   1.812   4.758  1.9827 -0.8515 -1.6544
 8238SOL    HW236174   1.423   1.802   4.777 -0.9311  3.3957 -0.6721
 8239SOL     OW36175   2.013   3.002   7.277 -0.3143 -0.5942 -0.4429
 8239SOL    HW136176   1.983   2.911   7.286 -0.3823 -0.6061 -0.8057
 8239SOL    HW236177   2.055   3.021   7.361 -0.1312  4.4999 -1.7190
 8240SOL     OW36178   2.950   4.144   9.386  0.0178 -0.7358 -0.2417
 8240SOL    HW136179   2.990   4.187   9.461  1.0594 -1.5352 -0.3306
 8240SOL    HW236180   2.863   4.185   9.384 -0.1997 -1.2043 -0.4605
 8241SOL     OW36181   1.676   1.442   4.731  0.3822 -0.6136  0.0200
 8241SOL    HW136182   1.593   1.395   4.733 -1.4052  2.5253 -1.7706
 8241SOL    HW236183   1.674   1.467   4.824 -1.5829 -0.2868 -0.1069
 8242SOL     OW36184   4.498   2.895  13.493 -0.1750 -0.1834  0.2242
 8242SOL    HW136185   4.426   2.840  13.523 -1.5466  0.4034 -1.9881
 8242SOL    HW236186   4.525   2.862  13.408 -1.4693 -0.2600 -0.1497
 8243SOL     OW36187   4.394   2.720   8.241 -0.2916  0.3730 -0.4124
 8243SOL    HW136188   4.399   2.808   8.278  2.3359 -0.6171  1.5936
 8243SOL    HW236189   4.333   2.735   8.169 -3.3004  0.4252  2.1793
 8244SOL     OW36190   3.975   0.486   2.724 -0.1389 -0.7022 -0.3195
 8244SOL    HW136191   4.039   0.557   2.721 -0.7268 -0.0560  2.3877
 8244SOL    HW236192   3.924   0.526   2.795  1.0918 -0.1858  0.2813
 8245SOL     OW36193   1.379   1.379   0.479  0.4680 -0.1952 -0.0964
 8245SOL    HW136194   1.304   1.437   0.467  3.3357  2.4726 -4.8672
 8245SOL    HW236195   1.354   1.331   0.558  0.8311 -0.9796 -0.4588
 8246SOL     OW36196   2.664   4.190   1.255  0.1012 -0.2103  0.1682
 8246SOL    HW136197   2.603   4.118   1.271  0.8515 -1.2514 -1.6639
 8246SOL    HW236198   2.719   4.163   1.181 -2.2935 -1.7509 -1.0387
 8247SOL     OW36199   1.421   3.617   5.133  0.5126  0.0551 -0.1521
 8247SOL    HW136200   1.425   3.634   5.227  1.5705 -0.3972 -0.1102
 8247SOL    HW236201   1.510   3.588   5.110  0.3886 -1.2833  1.0734
 8248SOL     OW36202   0.051   0.947  14.763  0.9278  0.0520 -0.3420
 8248SOL    HW136203   4.690   0.979  14.793  1.5330 -0.5245  1.9737
 8248SOL    HW236204   0.087   0.930  14.850  0.6420 -2.8663 -0.8218
 8249SOL     OW36205   4.520   4.710   4.776  0.4048 -0.5905  0.0948
 8249SOL    HW136206   4.527   0.059   4.716 -1.1147 -0.8213 -0.3649
 8249SOL    HW236207   4.533   4.633   4.720 -3.0341 -1.3618  0.3150
 8250SOL     OW36208   2.188   3.836   5.801 -0.4258  0.0027  0.3155
 8250SOL    HW136209   2.108   3.802   5.762  0.7174  1.1928 -3.1249
 8250SOL    HW236210   2.237   3.864   5.724 -0.0939  0.2219  0.6051
 8251SOL     OW36211   2.876   0.574   2.980  0.0676  0.3645  0.0434
 8251SOL    HW136212   2.935   0.532   2.917 -0.7476 -1.1657  0.2841
 8251SOL    HW236213   2.867   0.659   2.937  3.8420 -0.1961 -1.8561
 8252SOL     OW36214   4.032   0.333   3.891 -0.9195  0.1409  0.5554
 8252SOL    HW136215   4.046   0.415   3.845 -1.0690 -0.0640  0.1443
 8252SOL    HW236216   4.104   0.337   3.954 -1.9416 -1.2217  1.8167
 8253SOL     OW36217   1.258   0.608   0.464 -0.4619  0.3084 -0.4204
 8253SOL    HW136218   1.335   0.596   0.519 -1.9450 -2.4525  1.0164
 8253SOL    HW236219   1.262   0.704   0.469  0.1377  0.1870  1.4194
 8254SOL     OW36220   1.653   1.305  11.963 -0.3487  0.3241  0.0175
 8254SOL    HW136221   1.677   1.247  11.891  0.8191  1.3534 -0.4158
 8254SOL    HW236222   1.626   1.382  11.913  1.0283  0.1945 -0.9248
 8255SOL     OW36223   3.966   2.352   7.623  0.5003  0.2405  0.4654
 8255SOL    HW136224   3.937   2.261   7.612  1.3509  0.1343 -0.7957
 8255SOL    HW236225   3.903   2.369   7.694 -0.4692  1.8268 -0.7790
 8256SOL     OW36226   0.790   1.107   8.362  0.6073 -0.4994  0.2587
 8256SOL    HW136227   0.700   1.081   8.346  1.1925 -1.6472 -1.1897
 8256SOL    HW236228   0.777   1.154   8.444 -0.5267  1.5096 -1.0656
 8257SOL     OW36229   2.619   1.571  17.350  0.3322  0.1075 -0.2050
 8257SOL    HW136230   2.675   1.517  17.405  0.2428  0.1682 -0.0541
 8257SOL    HW236231   2.633   1.661  17.380  0.8416 -0.2006  0.4793
 8258SOL     OW36232   4.724   1.809   6.864  0.6837 -0.1959 -0.0660
 8258SOL    HW136233   4.665   1.748   6.908  1.2391  0.1520  1.1458
 8258SOL    HW236234   4.657   1.851   6.809  0.0385 -1.1171  0.0215
 8259SOL     OW36235   1.433   1.145   4.836  0.6438 -0.0397 -0.1576
 8259SOL    HW136236   1.461   1.059   4.806  0.6175 -0.1119  0.0264
 8259SOL    HW236237   1.451   1.202   4.762 -2.6632  1.1762 -0.0115
 8260SOL     OW36238   2.358   4.395   5.199 -0.0318  0.6492 -0.1211
 8260SOL    HW136239   2.399   4.428   5.279 -0.1939  2.0669 -0.6228
 8260SOL    HW236240   2.417   4.435   5.135 -1.6833  1.2720 -1.2557
 8261SOL     OW36241   1.007   3.177   8.867  0.4416  0.2296 -0.1046
 8261SOL    HW136242   1.015   3.160   8.961  1.5421 -0.2771 -0.2869
 8261SOL    HW236243   1.014   3.273   8.865 -0.9433  0.3379  0.4067
 8262SOL     OW36244   4.724   0.019   5.379 -0.3052  0.6092 -0.0957
 8262SOL    HW136245   0.012   0.112   5.400 -3.0386  0.5197  1.8393
 8262SOL    HW236246   0.007   4.701   5.464 -2.5462 -1.7481 -1.1023
 8263SOL     OW36247   0.058   4.542  11.690 -0.4879 -0.5471  0.0052
 8263SOL    HW136248   0.136   4.502  11.729 -0.3805 -0.6297 -0.2916
 8263SOL    HW236249   0.037   4.490  11.613 -0.2162  1.6811 -1.5768
 8264SOL     OW36250   1.628   3.423  14.205 -0.2758  0.2732  0.5404
 8264SOL    HW136251   1.635   3.388  14.116  1.7666 -0.2220  0.9009
 8264SOL    HW236252   1.691   3.495  14.198  0.4327 -0.5332 -1.4065
 8265SOL     OW36253   3.840   3.286   1.277 -0.0901 -0.9108  0.2799
 8265SOL    HW136254   3.829   3.251   1.189 -1.8900 -0.3362  0.2681
 8265SOL    HW236255   3.857   3.202   1.318  0.1785 -1.3385 -0.7182
 8266SOL     OW36256   3.320   3.751   7.548 -0.1630 -0.2266  0.8666
 8266SOL    HW136257   3.310   3.680   7.485  0.3460 -1.0865  1.7372
 8266SOL    HW236258   3.411   3.729   7.572  0.7050  3.4592  0.9238
 8267SOL     OW36259   4.027   0.427   2.152 -0.0566 -0.0147  0.3543
 8267SOL    HW136260   4.037   0.419   2.057 -3.1483 -1.1363  0.1308
 8267SOL    HW236261   4.022   0.522   2.158  0.6961  0.1733 -1.9219
 8268SOL     OW36262   0.999   0.033   4.233 -0.2129 -0.9223 -0.3369
 8268SOL    HW136263   0.905   0.026   4.253 -0.3189  1.2933 -0.0023
 8268SOL    HW236264   1.042   4.713   4.306  2.4835 -1.1396 -2.0894
 8269SOL     OW36265   1.147   1.935  15.938 -0.2337 -0.4415 -0.1215
 8269SOL    HW136266   1.223   1.880  15.957 -0.0307 -0.4180 -0.8857
 8269SOL    HW236267   1.127   1.976  16.022 -0.0451  2.3686 -1.4626
 8270SOL     OW36268   4.259   2.046   5.464 -0.0771 -0.1203 -0.5170
 8270SOL    HW136269   4.259   2.119   5.525  0.4961 -1.6525  1.3005
 8270SOL    HW236270   4.180   2.072   5.416 -0.9172 -1.6799  0.0118
 8271SOL     OW36271   0.736   0.085   4.279  0.4682  0.0981 -0.1489
 8271SOL    HW136272   0.693   0.127   4.354 -2.0117  2.6978 -2.9998
 8271SOL    HW236273   0.671   0.026   4.240 -0.0079 -0.8365  2.0488
 8272SOL     OW36274   3.899   0.492   9.006 -1.0472  0.5358  0.0734
 8272SOL    HW136275   3.830   0.436   9.042 -0.5183  0.2430  0.6202
 8272SOL    HW236276   3.972   0.480   9.066  0.2263  1.0663 -1.3707
 8273SOL     OW36277   1.917   4.236   3.639  0.5186  0.0271  0.0741
 8273SOL    HW136278   1.978   4.304   3.663  1.6174 -1.3279  1.1029
 8273SOL    HW236279   1.842   4.288   3.611  0.9152  0.4157 -0.2529
 8274SOL     OW36280   2.852   2.638   5.526  0.1831 -0.0800  0.3739
 8274SOL    HW136281   2.836   2.633   5.621  1.1716 -1.7241  0.4543
 8274SOL    HW236282   2.809   2.556   5.499  0.8820 -0.4003  0.2448
 8275SOL     OW36283   2.554   4.665   8.671  0.3046 -0.5036  0.0265
 8275SOL    HW136284   2.472   4.625   8.698 -0.4063  1.4869  0.8624
 8275SOL    HW236285   2.591   4.700   8.752 -2.3710 -1.9401  1.8552
 8276SOL     OW36286   0.172   1.245   8.841  0.2776 -0.2319  0.2711
 8276SOL    HW136287   0.081   1.230   8.866  0.1950 -0.2184 -0.0206
 8276SOL    HW236288   0.209   1.234   8.928  1.7662 -1.5593 -0.5352
 8277SOL     OW36289   0.539   3.765  16.379 -0.4696  0.2975 -0.2145
 8277SOL    HW136290   0.577   3.770  16.467 -0.9130  2.9801 -0.1966
 8277SOL    HW236291   0.574   3.683  16.344 -2.7829 -0.4650 -0.7422
 8278SOL     OW36292   3.751   4.482  17.544 -0.1244  0.5638 -0.6156
 8278SOL    HW136293   3.718   4.572  17.547  0.5647  0.8000 -0.0907
 8278SOL    HW236294   3.838   4.488  17.583 -0.1251  0.2258 -0.5578
 8279SOL     OW36295   2.752   0.086  11.956  0.0617  0.6136  0.2426
 8279SOL    HW136296   2.844   0.059  11.956 -0.3862 -0.8491 -1.8296
 8279SOL    HW236297   2.731   0.111  12.046  1.8209 -0.9908  1.1111
 8280SOL     OW36298   2.360   2.520   6.066  0.2631 -0.3270 -0.1394
 8280SOL    HW136299   2.306   2.542   6.141  0.2235  1.3580 -0.6672
 8280SOL    HW236300   2.367   2.425   6.077  1.8836 -0.0469  1.2910
 8281SOL     OW36301   2.907   2.567  14.751  0.1663  0.9894  0.0974
 8281SOL    HW136302   2.828   2.549  14.803 -0.3424 -2.7222 -1.9596
 8281SOL    HW236303   2.961   2.506  14.801  1.9818 -0.2166 -3.3683
 8282SOL     OW36304   0.320   0.294  15.227  0.2121  0.0548 -0.8152
 8282SOL    HW136305   0.397   0.340  15.195  1.6179 -1.5552  0.2625
 8282SOL    HW236306   0.359   0.217  15.268 -0.9012 -0.3535 -0.5018
 8283SOL     OW36307   4.557   0.631   8.251  0.4134 -0.0560 -0.0724
 8283SOL    HW136308   4.602   0.713   8.272 -0.7587  0.6760 -0.4303
 8283SOL    HW236309   4.579   0.579   8.329  0.1006  1.6428  1.1415
 8284SOL     OW36310   0.461   4.168   7.207  0.0029  0.3025 -0.3886
 8284SOL    HW136311   0.548   4.207   7.201  0.5282 -0.5359  1.8981
 8284SOL    HW236312   0.410   4.247   7.186  0.8215  0.1132 -3.1287
 8285SOL     OW36313   4.688   4.215   8.894 -0.6033 -0.6410 -0.4038
 8285SOL    HW136314   4.620   4.267   8.850  1.3017  0.8979 -1.5150
 8285SOL    HW236315   4.666   4.211   8.987 -0.0090  0.7647 -0.2031
 8286SOL     OW36316   2.439   1.066  12.402  0.2746 -0.1965 -0.0715
 8286SOL    HW136317   2.390   1.045  12.322  1.1076  0.1708 -0.6858
 8286SOL    HW236318   2.390   1.143  12.432  1.7519  0.9095 -0.4555
 8287SOL     OW36319   0.665   2.443   9.190 -0.0504  0.3305 -0.3028
 8287SOL    HW136320   0.639   2.493   9.268 -3.1174  0.1421 -1.2204
 8287SOL    HW236321   0.740   2.399   9.232  1.1951 -0.1350 -3.0546
 8288SOL     OW36322   3.073   2.797   0.337 -0.2288  0.0741  0.5104
 8288SOL    HW136323   3.109   2.739   0.269 -3.5836 -0.7282 -0.5930
 8288SOL    HW236324   3.064   2.728   0.403 -2.6644  0.9937  1.1123
 8289SOL     OW36325   0.002   3.492  13.217 -0.6659 -0.3283  0.3329
 8289SOL    HW136326   0.007   3.553  13.143 -0.0290  1.7105  2.0540
 8289SOL    HW236327   4.696   3.550  13.287 -2.6077  0.2025 -0.9376
 8290SOL     OW36328   2.016   0.359  14.193 -0.1067 -0.1124 -0.2505
 8290SOL    HW136329   1.973   0.416  14.257  0.2065 -1.6476  1.3065
 8290SOL    HW236330   2.104   0.391  14.208 -0.6979  0.4927  1.9173
 8291SOL     OW36331   0.369   1.314   7.723 -0.3567  0.5156 -0.3406
 8291SOL    HW136332   0.446   1.269   7.757 -1.7770 -0.8635  1.0403
 8291SOL    HW236333   0.399   1.349   7.639  0.8579  0.3215  0.0075
 8292SOL     OW36334   1.910   3.152  16.183 -0.2194  0.0559 -0.1697
 8292SOL    HW136335   1.917   3.203  16.102 -0.9565  1.0155  0.3836
 8292SOL    HW236336   1.963   3.076  16.158 -1.3747 -0.9682  0.4891
 8293SOL     OW36337   3.923   0.769   3.546 -0.1773  0.9625  0.2607
 8293SOL    HW136338   3.955   0.807   3.627 -0.4921  0.4782  0.6085
 8293SOL    HW236339   3.939   0.832   3.476  1.2983 -0.8892 -1.0491
 8294SOL     OW36340   2.484   3.404  11.978 -0.3342 -0.2591 -0.8252
 8294SOL    HW136341   2.426   3.466  12.023  1.1499 -0.5835  1.5759
 8294SOL    HW236342   2.537   3.451  11.914  1.1562 -1.1237 -0.2230
 8295SOL     OW36343   0.979   1.719  15.894  0.0238  0.0988 -0.1742
 8295SOL    HW136344   1.018   1.799  15.929 -0.4988 -1.2801  3.6279
 8295SOL    HW236345   1.064   1.679  15.873 -0.0405  0.1084 -0.4417
 8296SOL     OW36346   1.639   3.231   6.171 -0.3613 -0.3220 -0.3876
 8296SOL    HW136347   1.705   3.249   6.104  0.4400  0.2880  0.5660
 8296SOL    HW236348   1.681   3.166   6.227 -1.2685 -0.2938  0.3276
 8297SOL     OW36349   3.720   3.138   2.553  0.4932 -1.0819  0.7628
 8297SOL    HW136350   3.762   3.128   2.468 -0.8885 -1.5588  0.1402
 8297SOL    HW236351   3.754   3.225   2.573  1.3005 -1.1583 -0.3095
 8298SOL     OW36352   2.629   4.235  14.392 -0.0723  0.5669 -0.0308
 8298SOL    HW136353   2.715   4.234  14.351 -0.9264  1.0719 -1.8570
 8298SOL    HW236354   2.617   4.140  14.400 -2.2903  0.7964 -0.6626
 8299SOL     OW36355   1.439   3.309   4.039 -0.2278  0.8035 -0.1717
 8299SOL    HW136356   1.523   3.355   4.040 -0.5166  1.2770  1.8988
 8299SOL    HW236357   1.415   3.313   3.946  0.1152 -1.1390 -0.3402
 8300SOL     OW36358   2.602   0.898   5.635  0.9331  0.3450 -0.5181
 8300SOL    HW136359   2.628   0.875   5.724 -1.0650 -0.5542 -0.1820
 8300SOL    HW236360   2.578   0.809   5.611 -0.3505  0.0872  1.6837
 8301SOL     OW36361   2.022   3.914  11.409 -1.1088  0.2160 -0.3844
 8301SOL    HW136362   1.971   3.912  11.328 -1.6243 -0.3370 -0.0499
 8301SOL    HW236363   2.044   3.821  11.413  3.1057  1.2577  0.7799
 8302SOL     OW36364   2.382   3.150   5.604 -0.2237 -0.3313 -0.1041
 8302SOL    HW136365   2.461   3.168   5.554  0.6873  0.4027  1.6155
 8302SOL    HW236366   2.312   3.204   5.567 -2.0899 -1.4173  1.7833
 8303SOL     OW36367   3.704   1.590   5.257  0.1181  0.0791  0.5333
 8303SOL    HW136368   3.636   1.630   5.312  0.2449 -0.0421  0.7777
 8303SOL    HW236369   3.742   1.524   5.315 -0.3732 -0.2921  0.4309
 8304SOL     OW36370   3.011   3.488   2.394 -0.4359  0.6692 -0.9221
 8304SOL    HW136371   2.928   3.460   2.355  0.0492 -1.8113 -0.1853
 8304SOL    HW236372   3.032   3.422   2.460 -0.5076  2.4295  0.8477
 8305SOL     OW36373   2.902   0.007   2.289  0.0044 -0.1210 -0.0816
 8305SOL    HW136374   2.976   0.052   2.329 -0.3321 -0.4802  0.9675
 8305SOL    HW236375   2.835   4.717   2.356 -0.5329 -2.4750 -1.1330
 8306SOL     OW36376   4.067   1.779  16.498 -0.2715 -0.0160 -0.1140
 8306SOL    HW136377   4.082   1.873  16.508 -2.8804  0.4814 -0.8071
 8306SOL    HW236378   4.141   1.769  16.439 -0.2587 -1.2616  0.1133
 8307SOL     OW36379   4.590   3.524   5.255 -0.2560 -0.7099  0.6623
 8307SOL    HW136380   4.525   3.503   5.323  1.8159 -2.2789  2.1671
 8307SOL    HW236381   4.646   3.592   5.293  0.8977  0.1420 -2.5508
 8308SOL     OW36382   3.358   4.148  13.523  0.0381 -0.6738  0.0545
 8308SOL    HW136383   3.266   4.125  13.537  0.5249 -3.6191 -1.4927
 8308SOL    HW236384   3.345   4.207  13.449 -0.2229 -1.1760 -0.2994
 8309SOL     OW36385   1.539   0.180   1.086  0.1179 -0.1353 -0.7290
 8309SOL    HW136386   1.515   0.272   1.099 -2.8205 -1.0365  0.1517
 8309SOL    HW236387   1.607   0.177   1.154  0.1576  3.5372 -0.6040
 8310SOL     OW36388   2.805   0.836  13.556 -0.2220  0.2622  0.7334
 8310SOL    HW136389   2.799   0.928  13.582 -3.1306 -0.3982  2.4537
 8310SOL    HW236390   2.779   0.795  13.639  1.3496 -1.3001  0.4460
 8311SOL     OW36391   3.286   2.391   9.574 -0.8924 -0.9288  0.3984
 8311SOL    HW136392   3.202   2.382   9.528  0.5227 -2.1099 -1.9171
 8311SOL    HW236393   3.274   2.332   9.649  1.9943 -2.1091 -0.0626
 8312SOL     OW36394   0.441   3.937   4.893 -0.5283  0.1182 -0.2444
 8312SOL    HW136395   0.375   3.916   4.827 -2.1924 -0.2731  1.5304
 8312SOL    HW236396   0.523   3.932   4.845 -0.5222  1.0891 -0.3462
 8313SOL     OW36397   4.586   1.922   0.777  0.1129  0.3423  0.0471
 8313SOL    HW136398   4.534   1.997   0.807 -1.6377  0.2465 -2.7435
 8313SOL    HW236399   4.639   1.891   0.851 -2.1076 -2.0640  0.6088
 8314SOL     OW36400   3.281   0.279   6.603  0.1652  0.2392  0.1600
 8314SOL    HW136401   3.266   0.305   6.512  3.0035  0.1631 -0.3133
 8314SOL    HW236402   3.259   0.360   6.650  1.5868  1.5998 -1.5045
 8315SOL     OW36403   2.261   4.054   5.335 -0.0465 -0.6065 -0.6155
 8315SOL    HW136404   2.262   4.070   5.240 -0.5734 -0.1913 -0.5505
 8315SOL    HW236405   2.209   4.132   5.356  1.8015  0.3746  0.2465
 8316SOL     OW36406   3.569   4.723  15.819 -0.4365 -0.3400  0.5797
 8316SOL    HW136407   3.528   4.646  15.858 -0.1560 -1.1147 -0.6733
 8316SOL    HW236408   3.619   0.018  15.898  0.0635  2.0101 -0.3219
 8317SOL     OW36409   1.803   2.127   3.479 -0.2156  0.2630 -0.0283
 8317SOL    HW136410   1.713   2.108   3.506  0.1490 -0.0057  1.0042
 8317SOL    HW236411   1.855   2.052   3.509 -2.3683 -0.2706  2.3773
 8318SOL     OW36412   3.417   2.168   2.100 -0.2385  1.1090  0.2299
 8318SOL    HW136413   3.485   2.145   2.036  0.9855  4.5180  0.3204
 8318SOL    HW236414   3.352   2.100   2.081  0.4396  0.5756 -0.1751
 8319SOL     OW36415   2.101   1.676   4.904 -0.0321  0.7658 -0.7553
 8319SOL    HW136416   2.102   1.581   4.893  1.4954  0.7511 -0.5478
 8319SOL    HW236417   2.092   1.704   4.814  0.1177 -0.7817 -1.2551
 8320SOL     OW36418   0.305   4.551   4.096  0.3018 -0.0772  0.1274
 8320SOL    HW136419   0.322   4.619   4.031  0.7332  0.8628  1.2190
 8320SOL    HW236420   0.211   4.543   4.110  0.4091  0.0186  0.9329
 8321SOL     OW36421   0.838   0.613   5.942 -0.6311 -0.2465  0.3185
 8321SOL    HW136422   0.867   0.540   5.886  3.2424  0.6327  1.1519
 8321SOL    HW236423   0.763   0.573   5.986 -0.2296 -0.4716  0.8095
 8322SOL     OW36424   4.311   1.460   3.612 -0.1445  0.2502  1.1295
 8322SOL    HW136425   4.283   1.529   3.552  1.0970 -0.0502  0.2027
 8322SOL    HW236426   4.366   1.403   3.558 -0.0855 -1.6229  3.1396
 8323SOL     OW36427   0.105   2.108   2.900 -0.7787  0.1318 -0.0338
 8323SOL    HW136428   0.059   2.122   2.818  0.5540 -0.8043 -0.9393
 8323SOL    HW236429   0.138   2.019   2.896 -2.3323 -0.4064 -0.8692
 8324SOL     OW36430   4.202   0.648   3.969 -0.1311  0.2788  0.5984
 8324SOL    HW136431   4.153   0.722   4.004  1.5244  1.0069  1.3912
 8324SOL    HW236432   4.217   0.671   3.878 -0.2220  0.9353  0.7520
 8325SOL     OW36433   1.536   1.620   3.129 -0.5867 -0.2219  0.2464
 8325SOL    HW136434   1.473   1.550   3.142  1.4114 -1.9750  0.4057
 8325SOL    HW236435   1.483   1.685   3.082  0.2000 -0.0674 -0.4232
 8326SOL     OW36436   2.859   3.690  10.775  0.0042  0.3847 -0.1212
 8326SOL    HW136437   2.840   3.688  10.681  1.9308  2.0421 -0.5441
 8326SOL    HW236438   2.933   3.633  10.792 -0.8868 -0.3599  1.2913
 8327SOL     OW36439   0.765   3.096   7.094 -0.0314 -0.0827 -0.7073
 8327SOL    HW136440   0.801   3.143   7.019 -0.2665 -1.1558 -1.5045
 8327SOL    HW236441   0.673   3.124   7.096 -0.5091 -1.5291 -1.7307
 8328SOL     OW36442   3.686   2.723  13.340  0.1142  0.1055 -0.0830
 8328SOL    HW136443   3.650   2.663  13.405 -0.7368  0.4289 -0.2476
 8328SOL    HW236444   3.641   2.703  13.258 -0.4465  1.9972 -0.2386
 8329SOL     OW36445   1.757   3.307   5.883 -0.2749 -0.5755 -0.0169
 8329SOL    HW136446   1.768   3.214   5.860 -1.6235 -1.1067  1.5496
 8329SOL    HW236447   1.792   3.345   5.802 -1.2429 -1.4868 -0.8547
 8330SOL     OW36448   2.547   2.453  13.798  0.0223  0.1773  0.1158
 8330SOL    HW136449   2.609   2.381  13.809  0.4443  0.7905  1.7571
 8330SOL    HW236450   2.531   2.474  13.890 -2.0670 -1.2335  0.0817
 8331SOL     OW36451   0.359   4.606   8.045  0.8300 -0.1086 -0.1005
 8331SOL    HW136452   0.403   4.602   7.960  0.5269  2.0340 -0.3685
 8331SOL    HW236453   0.426   4.580   8.108 -0.5461 -0.3522  1.2588
 8332SOL     OW36454   0.094   2.654  12.523  0.2535 -1.3293 -0.1334
 8332SOL    HW136455   0.028   2.721  12.540  2.2558  0.3219  1.0530
 8332SOL    HW236456   0.114   2.661  12.430  1.3512  0.5228  0.2475
 8333SOL     OW36457   2.508   0.261   6.881  0.0979  0.4059 -0.3444
 8333SOL    HW136458   2.597   0.290   6.905  0.5267 -0.5247 -0.8154
 8333SOL    HW236459   2.455   0.275   6.959 -2.6494 -1.2221 -1.8972
 8334SOL     OW36460   2.285   4.040   4.979 -0.4214 -0.0613  0.6215
 8334SOL    HW136461   2.337   4.026   4.900 -1.8462  1.4092 -0.5770
 8334SOL    HW236462   2.195   4.032   4.948  0.2215 -0.2901 -1.1748
 8335SOL     OW36463   4.580   0.422   8.879  0.0925 -0.4887 -0.9475
 8335SOL    HW136464   4.622   0.336   8.886 -2.1693 -1.7024 -2.3072
 8335SOL    HW236465   4.643   0.482   8.839 -0.3689  1.7136  1.6283
 8336SOL     OW36466   4.260   1.229   7.497 -0.2626  0.0590 -0.5401
 8336SOL    HW136467   4.230   1.140   7.476  0.4702 -0.3029 -0.0847
 8336SOL    HW236468   4.354   1.207   7.496 -0.3008 -0.0640 -1.3850
 8337SOL     OW36469   2.279   2.123  13.017  0.0116  0.3968 -0.0126
 8337SOL    HW136470   2.247   2.083  13.098  1.6494  2.2226  1.5127
 8337SOL    HW236471   2.371   2.097  13.029 -0.2323 -0.4023  0.1711
 8338SOL     OW36472   1.145   0.188   3.134  0.3544 -0.2733 -0.0139
 8338SOL    HW136473   1.217   0.251   3.144 -0.5479  0.6736  0.5364
 8338SOL    HW236474   1.066   0.241   3.127  0.8124  0.4344  0.1752
 8339SOL     OW36475   3.981   0.453  10.308 -0.7031  0.1895  0.5364
 8339SOL    HW136476   4.017   0.537  10.336  3.0600 -0.9881 -0.7576
 8339SOL    HW236477   4.022   0.389  10.366 -0.7129 -1.1292 -0.9322
 8340SOL     OW36478   2.295   4.642   3.810  0.3339  0.2690  0.1489
 8340SOL    HW136479   2.334   4.651   3.723 -0.9584  1.1642 -0.3405
 8340SOL    HW236480   2.269   4.550   3.810 -1.7777  0.8598  0.9859
 8341SOL     OW36481   3.183   2.600   0.160 -0.0549 -0.4812  0.1982
 8341SOL    HW136482   3.250   2.553   0.208  0.5617 -0.7018 -0.8837
 8341SOL    HW236483   3.177   2.551   0.078 -1.9648 -0.2851  0.2272
 8342SOL     OW36484   3.852   2.167   3.833  0.0495  0.3981 -0.0964
 8342SOL    HW136485   3.874   2.247   3.881  0.1744 -1.3386  2.7815
 8342SOL    HW236486   3.942   2.141   3.814 -0.6092  0.8030 -3.6814
 8343SOL     OW36487   0.969   1.783   2.024  0.3529  0.0739 -0.2111
 8343SOL    HW136488   0.883   1.805   1.989  0.1749  0.7575  0.6509
 8343SOL    HW236489   1.017   1.775   1.941  1.6614 -0.4938  0.5865
 8344SOL     OW36490   3.409   2.771   5.742 -0.1062  0.1169 -0.3785
 8344SOL    HW136491   3.424   2.854   5.787  1.4269 -0.8116  0.8218
 8344SOL    HW236492   3.314   2.769   5.731  0.0082 -2.2015 -0.8050
 8345SOL     OW36493   1.812   4.023   1.332 -0.3978  0.1693  0.2887
 8345SOL    HW136494   1.829   3.935   1.365 -0.6850 -0.2259 -0.5934
 8345SOL    HW236495   1.800   4.012   1.237 -1.5570 -0.4468  0.5125
 8346SOL     OW36496   3.297   0.738   5.962 -0.0926  0.0473  1.2650
 8346SOL    HW136497   3.324   0.710   6.050 -1.2289 -0.4288  1.4551
 8346SOL    HW236498   3.373   0.715   5.908 -1.2863  0.5771 -0.6460
 8347SOL     OW36499   3.063   3.610  14.187 -0.8654  0.2648  0.1364
 8347SOL    HW136500   3.096   3.550  14.254  1.4978  2.6422  1.0969
 8347SOL    HW236501   3.109   3.575  14.111 -1.1846  0.5715 -0.2015
 8348SOL     OW36502   4.250   0.042   5.707 -0.3503  0.0416 -0.1833
 8348SOL    HW136503   4.341   0.013   5.697  0.3424  1.9948  0.6159
 8348SOL    HW236504   4.262   0.136   5.717 -0.2894 -0.0005  0.1284
 8349SOL     OW36505   0.653   4.098   3.450 -0.0173  0.1719 -0.2998
 8349SOL    HW136506   0.725   4.058   3.498  0.3502  0.3202 -0.7306
 8349SOL    HW236507   0.630   4.019   3.401  0.3787  1.2040 -2.1321
 8350SOL     OW36508   2.236   1.864  17.001  0.3397 -0.0057  0.0337
 8350SOL    HW136509   2.319   1.825  16.974  0.9131  0.3346  1.2876
 8350SOL    HW236510   2.254   1.932  17.066  0.9987 -0.0901 -0.0562
 8351SOL     OW36511   3.501   3.534   2.071 -0.0086 -0.3485  0.1361
 8351SOL    HW136512   3.579   3.493   2.034 -1.4252 -2.9113 -0.0310
 8351SOL    HW236513   3.542   3.619   2.060 -1.3735  0.1629 -1.0493
 8352SOL     OW36514   2.432   1.757   9.333  0.4167 -0.4084  0.1845
 8352SOL    HW136515   2.521   1.784   9.309  0.1140  0.4361  0.0343
 8352SOL    HW236516   2.369   1.801   9.277  0.0401 -1.0845  0.0798
 8353SOL     OW36517   1.104   4.102  13.873  0.1205 -0.3309  0.2598
 8353SOL    HW136518   1.094   4.176  13.813  0.1363  1.3586  2.3551
 8353SOL    HW236519   1.154   4.139  13.946 -0.0301 -1.5378  0.9778
 8354SOL     OW36520   2.849   0.443  16.574 -0.4232  0.2916  0.0585
 8354SOL    HW136521   2.941   0.458  16.551  0.0879  0.9409  2.5184
 8354SOL    HW236522   2.844   0.447  16.669  1.2223  3.3346  0.0089
 8355SOL     OW36523   1.357   0.427  14.238 -0.1895 -0.2156  0.4321
 8355SOL    HW136524   1.362   0.332  14.246  2.1197 -0.0025  1.3988
 8355SOL    HW236525   1.435   0.453  14.188 -0.1252  1.2203  1.2703
 8356SOL     OW36526   0.058   3.458   2.798 -0.3925  0.1610 -0.4738
 8356SOL    HW136527   0.131   3.520   2.786 -0.8488  0.6410 -0.7600
 8356SOL    HW236528   0.043   3.479   2.890 -2.6765 -0.5636 -0.6984
 8357SOL     OW36529   2.972   0.229   4.603  0.1596 -0.3148  0.0800
 8357SOL    HW136530   2.913   0.169   4.557 -0.5945  0.2084  0.3738
 8357SOL    HW236531   2.953   0.312   4.560  0.0754 -0.1869  0.3711
 8358SOL     OW36532   1.155   0.082   6.873  0.0552  0.4370  0.1202
 8358SOL    HW136533   1.207   0.140   6.929  0.6264  3.6770 -3.7907
 8358SOL    HW236534   1.072   0.085   6.921 -0.4000  1.5628 -0.7453
 8359SOL     OW36535   0.589   4.414  11.038 -0.2021  0.3187 -0.1143
 8359SOL    HW136536   0.495   4.428  11.032 -0.7095 -1.6775  3.4818
 8359SOL    HW236537   0.607   4.349  10.970 -1.6848  2.0339 -2.1612
 8360SOL     OW36538   0.765   0.245  10.852  0.0671 -0.0002  0.4650
 8360SOL    HW136539   0.733   0.215  10.937 -3.0110  2.9163  0.3515
 8360SOL    HW236540   0.788   0.159  10.815  0.7082  0.1904  0.4237
 8361SOL     OW36541   3.413   3.425   8.558  0.5639 -0.2300 -0.0213
 8361SOL    HW136542   3.466   3.505   8.564  0.0011  0.0459  1.1835
 8361SOL    HW236543   3.331   3.437   8.511 -1.0086  2.0848  3.3266
 8362SOL     OW36544   2.518   0.554  12.979  0.7313  0.6653 -0.3315
 8362SOL    HW136545   2.467   0.476  12.955  0.0044  0.5398  1.6293
 8362SOL    HW236546   2.472   0.589  13.055  1.1003  0.7409 -0.1444
 8363SOL     OW36547   2.144   3.316  15.385  1.0284  0.0151 -0.0713
 8363SOL    HW136548   2.186   3.363  15.456  1.8879  2.4696 -2.2191
 8363SOL    HW236549   2.054   3.333  15.414  0.8225  0.3228 -0.8871
 8364SOL     OW36550   4.410   3.561  10.593  0.7549 -0.3591 -0.1308
 8364SOL    HW136551   4.360   3.582  10.672 -0.1828 -0.9022 -0.5925
 8364SOL    HW236552   4.356   3.602  10.525 -0.3504 -0.0441  0.9463
 8365SOL     OW36553   0.887   1.228   2.003  0.4629  0.0151 -0.6787
 8365SOL    HW136554   0.981   1.215   1.989  0.2790 -2.4928  0.4176
 8365SOL    HW236555   0.869   1.278   1.924  2.4898  1.4742 -0.2195
 8366SOL     OW36556   2.956   3.977   5.370 -0.1816  0.2049 -0.3453
 8366SOL    HW136557   2.940   3.988   5.464  0.2011 -1.7237 -0.0372
 8366SOL    HW236558   2.885   3.923   5.335 -0.3938 -0.6521  1.3949
 8367SOL     OW36559   3.560   0.964   5.358  0.2160  0.1231 -0.5110
 8367SOL    HW136560   3.487   0.915   5.320 -0.4723  1.0288 -0.3688
 8367SOL    HW236561   3.586   1.008   5.277  0.7924  1.4469  0.4056
 8368SOL     OW36562   1.547   1.538   2.016  0.5398 -0.1645  0.4224
 8368SOL    HW136563   1.469   1.558   1.964 -0.0775 -2.8652  0.3041
 8368SOL    HW236564   1.519   1.529   2.107  1.8959 -0.7214  0.7835
 8369SOL     OW36565   4.122   0.787   4.705 -0.4315  0.3357 -0.4486
 8369SOL    HW136566   4.106   0.812   4.795  1.2705 -0.0963 -0.0191
 8369SOL    HW236567   4.108   0.869   4.657 -0.5427 -1.2562 -3.1857
 8370SOL     OW36568   2.931   4.471  17.089  0.8829  0.6827 -0.3350
 8370SOL    HW136569   2.957   4.534  17.021 -0.2115  1.1432 -0.3342
 8370SOL    HW236570   3.002   4.491  17.150  0.4642  0.4673  0.2130
 8371SOL     OW36571   1.782   0.016   2.133  0.2885 -0.0600 -0.2193
 8371SOL    HW136572   1.827   0.090   2.094  1.8067 -0.9403 -0.1363
 8371SOL    HW236573   1.849   4.672   2.129 -0.6480 -1.1045  1.6828
 8372SOL     OW36574   3.354   1.438   6.416 -0.6433  0.0281  0.1046
 8372SOL    HW136575   3.292   1.410   6.349  0.6006  0.4366 -1.2313
 8372SOL    HW236576   3.438   1.420   6.372 -0.6171 -0.4818  0.3585
 8373SOL     OW36577   1.892   3.072   5.638 -0.0826  0.1628 -0.3638
 8373SOL    HW136578   1.806   3.064   5.596 -0.8426 -0.5661  1.3185
 8373SOL    HW236579   1.944   3.099   5.563 -0.1539  0.3513 -0.3447
 8374SOL     OW36580   1.663   0.188   3.206  0.0779  0.2947  0.2647
 8374SOL    HW136581   1.692   0.269   3.249 -0.9889  0.6532  0.3028
 8374SOL    HW236582   1.571   0.188   3.232 -0.2568 -0.7305 -0.9533
 8375SOL     OW36583   3.220   4.584   8.785  0.9674 -0.3927  0.1940
 8375SOL    HW136584   3.288   4.648   8.764  0.8048 -0.3108 -0.0809
 8375SOL    HW236585   3.233   4.555   8.876  3.9168  0.8129  0.1628
 8376SOL     OW36586   2.601   0.151   3.802  0.0310 -0.5408 -0.4503
 8376SOL    HW136587   2.633   0.234   3.767  3.0072 -1.5761 -0.1330
 8376SOL    HW236588   2.510   0.165   3.775  0.0727  0.9773  0.1851
 8377SOL     OW36589   0.669   1.421   7.065  0.2737 -0.7316  0.0639
 8377SOL    HW136590   0.647   1.329   7.052  1.0165 -0.9839  0.6158
 8377SOL    HW236591   0.578   1.452   7.073 -0.3546 -2.6379  0.2081
 8378SOL     OW36592   0.750   2.791  15.346 -0.8294 -0.5651  0.7067
 8378SOL    HW136593   0.758   2.851  15.420 -2.2350 -0.5965  0.8863
 8378SOL    HW236594   0.838   2.801  15.311 -2.2161 -0.4159 -2.8117
 8379SOL     OW36595   3.567   3.288  13.726 -0.0342  0.1340 -0.1537
 8379SOL    HW136596   3.477   3.257  13.719  0.1022  0.4789 -3.6750
 8379SOL    HW236597   3.620   3.213  13.751 -0.7490 -0.2398  0.2394
 8380SOL     OW36598   0.539   1.810   4.062 -0.3100 -0.5282 -0.1977
 8380SOL    HW136599   0.505   1.724   4.035 -1.1186  0.2340 -1.6058
 8380SOL    HW236600   0.465   1.819   4.122 -0.1956  1.0565 -0.3098
 8381SOL     OW36601   3.497   0.835  10.254 -0.0953  0.2720  0.5093
 8381SOL    HW136602   3.582   0.853  10.213 -0.8308 -0.0006 -1.1241
 8381SOL    HW236603   3.432   0.900  10.228 -0.0208 -0.2491 -1.0220
 8382SOL     OW36604   4.673   2.493   3.018  0.3424 -0.2415  0.3296
 8382SOL    HW136605   4.711   2.406   3.033 -0.6192 -0.8599 -0.8203
 8382SOL    HW236606   0.014   2.553   3.054  0.1299 -0.5631  1.2318
 8383SOL     OW36607   3.365   0.595   3.506  0.2469 -0.2547  0.2469
 8383SOL    HW136608   3.407   0.519   3.466 -1.1480 -0.8081 -0.1804
 8383SOL    HW236609   3.385   0.663   3.441  0.4213  0.1746  0.7433
 8384SOL     OW36610   2.187   2.401   4.935 -0.2491 -0.0341 -0.8898
 8384SOL    HW136611   2.242   2.479   4.946 -0.5219  0.1422 -0.7799
 8384SOL    HW236612   2.159   2.387   5.026 -0.6700 -2.2785 -1.3784
 8385SOL     OW36613   1.007   4.020   3.396 -0.1740  0.4428 -0.1391
 8385SOL    HW136614   1.018   3.957   3.325  1.4598 -0.2270  0.7030
 8385SOL    HW236615   0.982   4.104   3.358 -0.4049  0.5072  0.1500
 8386SOL     OW36616   4.248   4.070   7.494  0.1357  0.3840 -0.2625
 8386SOL    HW136617   4.199   3.988   7.499 -0.8948  0.9882 -0.3661
 8386SOL    HW236618   4.189   4.126   7.443  1.8829  2.2613 -0.2557
 8387SOL     OW36619   2.554   0.693  10.190 -0.1794 -0.3425  0.0531
 8387SOL    HW136620   2.612   0.620  10.213  1.1918  0.1593 -1.8031
 8387SOL    HW236621   2.533   0.719  10.280 -0.0026 -0.2282  0.0623
 8388SOL     OW36622   1.199   0.695   4.838 -0.3056  0.0373  0.2717
 8388SOL    HW136623   1.219   0.602   4.826  0.0573  0.2732 -0.9203
 8388SOL    HW236624   1.165   0.691   4.928 -1.4645  0.4962 -0.1494
 8389SOL     OW36625   4.177   4.704  11.547  0.3786  0.1842  0.4166
 8389SOL    HW136626   4.207   0.046  11.484 -1.5684 -0.7304 -1.4897
 8389SOL    HW236627   4.136   0.033  11.615  1.0206 -2.2221  2.6688
 8390SOL     OW36628   2.317   1.023  12.159  0.1707  0.2246 -0.2327
 8390SOL    HW136629   2.349   0.983  12.078 -1.2492 -0.9307 -0.2257
 8390SOL    HW236630   2.262   0.949  12.186 -1.5761  1.7371  0.3065
 8391SOL     OW36631   0.662   0.394  12.492  0.0801  0.2759  0.1283
 8391SOL    HW136632   0.660   0.472  12.436  0.4246  0.0874 -0.1443
 8391SOL    HW236633   0.692   0.330  12.428  3.5374  2.3181 -0.2933
 8392SOL     OW36634   3.821   0.231   4.889 -0.1596  0.3425 -0.7844
 8392SOL    HW136635   3.884   0.219   4.818 -1.0350  0.9144 -1.6542
 8392SOL    HW236636   3.846   0.320   4.915  1.0754  0.4200 -2.2439
 8393SOL     OW36637   1.808   4.186   9.895  0.2480 -0.0313 -0.0976
 8393SOL    HW136638   1.793   4.093   9.910  0.9625  0.0623  1.1899
 8393SOL    HW236639   1.863   4.204   9.971 -0.3613  0.1998  0.2939
 8394SOL     OW36640   3.499   2.371  10.845  0.2604  0.1109 -0.4252
 8394SOL    HW136641   3.420   2.418  10.822 -1.6950 -0.8681  4.1738
 8394SOL    HW236642   3.474   2.320  10.923 -0.6558 -0.6287 -1.1995
 8395SOL     OW36643   2.114   0.194   5.914 -0.4512 -0.2138 -0.5164
 8395SOL    HW136644   2.172   0.156   5.848 -1.4776  0.0200 -1.5526
 8395SOL    HW236645   2.041   0.201   5.853 -0.2857 -0.9971 -0.7950
 8396SOL     OW36646   0.506   2.215   2.238  0.6040  0.5593 -0.2578
 8396SOL    HW136647   0.522   2.172   2.153  1.6501  1.0902 -0.3208
 8396SOL    HW236648   0.459   2.293   2.209 -1.1483 -0.9563 -1.5465
 8397SOL     OW36649   2.423   0.002   2.817  0.3720 -0.4961  0.0788
 8397SOL    HW136650   2.437   0.094   2.797 -1.3387  0.2888  2.4602
 8397SOL    HW236651   2.509   4.696   2.788 -0.2915  0.4045 -2.7392
 8398SOL     OW36652   2.060   0.758   1.802 -0.0281  0.0169  0.0229
 8398SOL    HW136653   2.113   0.803   1.869 -0.4885  1.7716 -0.7887
 8398SOL    HW236654   2.039   0.827   1.739 -1.6703 -0.7006 -0.2169
 8399SOL     OW36655   1.664   0.553  10.072 -0.2201 -0.0692 -0.0414
 8399SOL    HW136656   1.719   0.621  10.111  1.2862 -0.7989 -0.9090
 8399SOL    HW236657   1.660   0.577   9.980 -4.4782  1.2036  0.4228
 8400SOL     OW36658   4.578   4.604   6.504  0.0315  0.0169  0.2097
 8400SOL    HW136659   4.567   4.647   6.419  1.6171 -0.8519 -0.4370
 8400SOL    HW236660   4.672   4.584   6.504  0.3732  1.6130  1.9606
 8401SOL     OW36661   2.751   2.540  15.365  0.0988  0.5147 -0.1734
 8401SOL    HW136662   2.743   2.475  15.296  1.4926  1.3400 -1.1184
 8401SOL    HW236663   2.690   2.604  15.327 -2.3625 -1.3143  0.6975
 8402SOL     OW36664   3.684   2.961   4.589 -0.5291 -0.2536  0.1418
 8402SOL    HW136665   3.723   2.877   4.563  1.2292  1.1334 -1.7065
 8402SOL    HW236666   3.757   2.995   4.639  0.1441  0.7267 -1.4896
 8403SOL     OW36667   4.390   2.042   0.247 -0.7363 -0.2233 -0.4263
 8403SOL    HW136668   4.396   1.947   0.258 -0.6210 -0.1311  0.3014
 8403SOL    HW236669   4.408   2.051   0.154 -1.8144  0.2911 -0.5830
 8404SOL     OW36670   3.678   1.280   0.884 -0.3318 -0.0960  0.6302
 8404SOL    HW136671   3.743   1.217   0.853  0.3320  0.0996  1.6426
 8404SOL    HW236672   3.717   1.362   0.856  0.3909 -0.0776  1.7248
 8405SOL     OW36673   1.207   0.338   0.514 -0.0651 -0.0481 -0.6334
 8405SOL    HW136674   1.280   0.283   0.543 -0.4559 -0.0430  0.3514
 8405SOL    HW236675   1.249   0.422   0.498 -0.0299  0.0967  0.2338
 8406SOL     OW36676   2.717   1.509   6.324 -0.3721 -0.4985 -0.5075
 8406SOL    HW136677   2.681   1.544   6.405 -1.6850 -2.6192 -0.2036
 8406SOL    HW236678   2.648   1.454   6.287 -1.2717  0.9010 -0.9002
 8407SOL     OW36679   1.742   4.626   6.411 -0.5477  0.1786 -0.3391
 8407SOL    HW136680   1.690   4.601   6.335  1.3958 -0.1591 -1.5715
 8407SOL    HW236681   1.769   4.716   6.391  2.8289 -1.1874 -2.0242
 8408SOL     OW36682   0.157   1.579  10.358 -0.5764 -0.3544  0.5955
 8408SOL    HW136683   0.087   1.641  10.341 -0.3050 -0.2365 -0.0783
 8408SOL    HW236684   0.141   1.552  10.449  1.5388 -3.0531  0.1674
 8409SOL     OW36685   2.029   3.487   0.638  0.3533  0.5696 -0.4777
 8409SOL    HW136686   2.067   3.536   0.565  0.3579 -1.6682 -1.9609
 8409SOL    HW236687   1.940   3.479   0.604 -0.5249  3.1014  1.1699
 8410SOL     OW36688   4.464   4.703   2.650 -0.8347  0.2936  0.0952
 8410SOL    HW136689   4.559   4.699   2.655 -0.7874 -1.2483 -2.1208
 8410SOL    HW236690   4.441   0.015   2.735  1.3479  2.4234 -0.2353
 8411SOL     OW36691   0.510   3.824   7.879 -0.1552 -0.3234  0.1937
 8411SOL    HW136692   0.601   3.818   7.849  0.6536 -1.6794  2.9770
 8411SOL    HW236693   0.494   3.733   7.900  0.7007 -0.4590  0.2756
 8412SOL     OW36694   0.207   3.943   6.065  0.2754  0.6799 -0.0130
 8412SOL    HW136695   0.126   3.941   6.015 -0.3743 -2.7210  1.1798
 8412SOL    HW236696   0.257   3.879   6.014  1.3876  0.6462  1.1042
 8413SOL     OW36697   3.061   2.959   8.744 -0.0149 -0.4345  0.2966
 8413SOL    HW136698   2.999   2.908   8.796 -2.8937  1.6469 -1.0881
 8413SOL    HW236699   3.042   2.922   8.658 -0.1945 -2.2937  1.1173
 8414SOL     OW36700   1.717   0.901   3.625  0.2983  0.0533  0.0487
 8414SOL    HW136701   1.746   0.972   3.683 -0.9203  1.6994 -1.3390
 8414SOL    HW236702   1.629   0.877   3.653  1.4047 -2.3464  1.4428
 8415SOL     OW36703   2.920   1.698   6.419 -0.1382 -0.6539  0.0806
 8415SOL    HW136704   2.858   1.633   6.385 -0.4202 -0.2350 -0.2029
 8415SOL    HW236705   2.964   1.717   6.337 -2.8126  3.4425 -0.3733
 8416SOL     OW36706   3.139   2.616   2.660 -0.4258  0.0009 -0.3914
 8416SOL    HW136707   3.223   2.571   2.654  0.8338  2.1085  1.2241
 8416SOL    HW236708   3.094   2.568   2.729  0.4769  2.1997  1.7483
 8417SOL     OW36709   4.400   0.430   6.610  0.0762  0.3275  0.4855
 8417SOL    HW136710   4.331   0.367   6.593  0.7615  0.0744 -1.3436
 8417SOL    HW236711   4.476   0.381   6.579 -1.9520 -0.6258 -2.9758
 8418SOL     OW36712   2.910   3.095   5.377  0.5426 -0.0314  0.1683
 8418SOL    HW136713   2.818   3.078   5.359  0.5893 -0.3094  0.1864
 8418SOL    HW236714   2.941   3.142   5.299  0.6752  0.3252  0.4359
 8419SOL     OW36715   2.207   1.725   3.400  0.1591  0.5777  0.0862
 8419SOL    HW136716   2.182   1.633   3.393  0.5627  0.5666 -1.0883
 8419SOL    HW236717   2.299   1.724   3.377 -0.0716  0.1421 -0.8276
 8420SOL     OW36718   1.612   0.795   3.356 -0.1930  1.1330  0.9159
 8420SOL    HW136719   1.612   0.752   3.442  1.5468 -1.8483 -0.5444
 8420SOL    HW236720   1.631   0.885   3.383  1.0204  1.3371 -0.6114
 8421SOL     OW36721   2.561   3.276   3.312 -0.3214  0.1596  0.2102
 8421SOL    HW136722   2.484   3.311   3.356 -1.4245 -1.4588 -0.4522
 8421SOL    HW236723   2.596   3.353   3.266 -1.3296 -0.1408 -1.0505
 8422SOL     OW36724   0.759   2.559   8.112 -0.3458 -0.8582  0.2225
 8422SOL    HW136725   0.708   2.510   8.048  0.5690  2.1678 -2.7875
 8422SOL    HW236726   0.837   2.542   8.059  1.5550 -2.4498  3.4772
 8423SOL     OW36727   1.544   1.781  15.808 -0.5764 -0.1486  0.3041
 8423SOL    HW136728   1.576   1.692  15.799  0.6281  0.6808 -3.6598
 8423SOL    HW236729   1.529   1.778  15.902 -0.6199 -0.3961  0.2886
 8424SOL     OW36730   0.870   2.935   9.804 -0.2221 -0.6432 -0.1202
 8424SOL    HW136731   0.789   2.972   9.769 -0.0782  0.7083  0.9845
 8424SOL    HW236732   0.823   2.861   9.843 -0.1663 -0.4668  0.2763
 8425SOL     OW36733   0.124   3.563   7.313  0.3187 -0.6577  0.2296
 8425SOL    HW136734   0.201   3.616   7.331 -0.3585  0.2033  0.5708
 8425SOL    HW236735   0.168   3.532   7.234 -0.5907  0.8556 -0.8591
 8426SOL     OW36736   1.639   3.326   5.056 -0.2726  0.0896 -0.1539
 8426SOL    HW136737   1.724   3.358   5.085 -0.2637 -0.1160  0.0501
 8426SOL    HW236738   1.654   3.326   4.962 -1.0185 -2.7171 -0.2665
 8427SOL     OW36739   2.398   0.481   5.364  0.6498 -0.3372 -0.0506
 8427SOL    HW136740   2.386   0.425   5.441  1.4812  0.5393  0.7093
 8427SOL    HW236741   2.404   0.421   5.289  3.3507  1.4278 -1.2259
 8428SOL     OW36742   3.827   1.591  13.222 -0.3663  0.8371  0.2836
 8428SOL    HW136743   3.735   1.597  13.196  0.3491  0.5992 -2.3082
 8428SOL    HW236744   3.868   1.655  13.164  1.4204 -1.2569 -0.7857
 8429SOL     OW36745   0.522   2.355   5.505 -0.9708  0.2711  0.0727
 8429SOL    HW136746   0.557   2.357   5.595 -0.6352 -1.7145  0.0085
 8429SOL    HW236747   0.427   2.351   5.513 -0.7860 -2.7732  1.1145
 8430SOL     OW36748   1.789   3.921   9.967  0.2044  0.0755  0.6245
 8430SOL    HW136749   1.871   3.879   9.992 -0.5225 -1.2496  0.7465
 8430SOL    HW236750   1.732   3.849   9.992 -1.6427  1.2085 -0.3401
 8431SOL     OW36751   1.569   3.702   8.753 -0.5960 -0.3812  0.9329
 8431SOL    HW136752   1.580   3.664   8.840  0.2496 -3.2881 -0.4371
 8431SOL    HW236753   1.566   3.620   8.704 -1.8957 -0.6445  1.4649
 8432SOL     OW36754   2.832   1.243   7.981  0.1072  0.2590 -0.1202
 8432SOL    HW136755   2.820   1.182   8.054  0.5124 -0.5625 -0.7422
 8432SOL    HW236756   2.875   1.321   8.015 -0.7971  0.7158 -0.0291
 8433SOL     OW36757   2.925   0.947  11.528  0.2921 -0.0100  0.2716
 8433SOL    HW136758   2.984   0.958  11.602  0.3141  0.5985  0.1643
 8433SOL    HW236759   2.897   0.860  11.554  0.7990 -0.2809 -0.0889
 8434SOL     OW36760   4.253   3.498   1.400 -0.5788 -0.1090  0.3393
 8434SOL    HW136761   4.212   3.532   1.480  1.6924  0.8350  1.1021
 8434SOL    HW236762   4.341   3.485   1.434  0.1348  1.3101 -0.9364
 8435SOL     OW36763   1.831   0.569   6.720 -0.2626 -0.1572  0.4190
 8435SOL    HW136764   1.916   0.568   6.676 -1.0692  0.8777 -1.1448
 8435SOL    HW236765   1.790   0.640   6.671  1.2107  1.9102  2.1435
 8436SOL     OW36766   3.318   1.737   9.272  0.4148  0.2773  0.8723
 8436SOL    HW136767   3.385   1.786   9.225 -1.0797  0.0103 -1.5756
 8436SOL    HW236768   3.241   1.793   9.268 -0.7677 -1.5380 -1.4593
 8437SOL     OW36769   3.630   1.142   2.943  0.2323  0.3435  0.2471
 8437SOL    HW136770   3.596   1.231   2.954 -2.7648 -1.0300  2.2123
 8437SOL    HW236771   3.616   1.086   3.019  0.7442 -0.2686 -0.1195
 8438SOL     OW36772   0.866   2.012   3.269 -0.6459 -0.1697  0.4379
 8438SOL    HW136773   0.933   1.949   3.298  0.8532  0.8258 -0.8875
 8438SOL    HW236774   0.918   2.081   3.229  0.3881 -0.1073  1.8910
 8439SOL     OW36775   3.222   4.271   2.621  0.3276  0.5439 -0.1476
 8439SOL    HW136776   3.204   4.218   2.544  1.1630  1.9385 -1.3003
 8439SOL    HW236777   3.275   4.346   2.592  0.2810  0.4676 -0.4268
 8440SOL     OW36778   4.666   1.467  11.417  0.1423 -0.6372  0.4339
 8440SOL    HW136779   4.588   1.504  11.459  1.7067  3.1576 -0.0367
 8440SOL    HW236780   4.623   1.465  11.331 -0.3257  3.2069  0.5810
 8441SOL     OW36781   3.110   1.009   3.982  0.5187  0.1341 -0.1009
 8441SOL    HW136782   3.017   0.994   4.000 -0.1813  1.7239 -2.3497
 8441SOL    HW236783   3.160   0.930   4.002 -1.2330 -1.5314 -2.2324
 8442SOL     OW36784   1.378   2.663  15.294 -0.0898 -0.5993  0.1515
 8442SOL    HW136785   1.340   2.743  15.330  0.5639  0.7987 -2.2871
 8442SOL    HW236786   1.394   2.623  15.380  0.7599 -2.1161 -0.7092
 8443SOL     OW36787   0.884   1.437  10.683  0.1866  0.1468 -0.4849
 8443SOL    HW136788   0.793   1.408  10.691  0.1771  0.0097 -1.0406
 8443SOL    HW236789   0.925   1.366  10.633  0.0932  1.2129 -2.0977
 8444SOL     OW36790   3.735   1.402   7.051 -0.3441  0.2915 -0.0382
 8444SOL    HW136791   3.724   1.403   6.956 -0.4753 -2.4184 -0.0428
 8444SOL    HW236792   3.646   1.379   7.078 -0.1994 -0.0880  0.1170
 8445SOL     OW36793   1.589   2.068   3.164  0.0195 -0.1814 -0.3847
 8445SOL    HW136794   1.567   1.978   3.186  0.9599  0.0060  1.2900
 8445SOL    HW236795   1.562   2.119   3.240 -0.9667 -1.5451  0.1672
 8446SOL     OW36796   1.611   2.533   1.055 -0.1736  0.8887  0.6154
 8446SOL    HW136797   1.665   2.611   1.066  0.0696  0.7247  0.5817
 8446SOL    HW236798   1.527   2.576   1.043  0.1873  1.3441 -0.2294
 8447SOL     OW36799   0.047   0.588   2.206 -0.1384 -0.1725 -0.6419
 8447SOL    HW136800   0.064   0.539   2.126  0.4038 -0.3034 -0.4516
 8447SOL    HW236801   0.102   0.663   2.182  2.5884 -1.9078  0.1869
 8448SOL     OW36802   2.786   1.353  15.012  0.7398 -0.2505  0.7432
 8448SOL    HW136803   2.771   1.263  15.039  2.0770 -0.3623  1.0740
 8448SOL    HW236804   2.733   1.402  15.075 -2.2414 -2.5580  0.0421
 8449SOL     OW36805   4.684   0.145   8.561 -0.1561  0.0807 -0.1805
 8449SOL    HW136806   0.005   0.229   8.560 -0.1672  0.0767 -1.9460
 8449SOL    HW236807   4.714   0.121   8.473 -1.3701 -0.8928 -0.3400
 8450SOL     OW36808   3.219   4.460  15.211  0.0296  0.0572  0.2145
 8450SOL    HW136809   3.136   4.491  15.175  0.8955  0.9965 -0.9464
 8450SOL    HW236810   3.190   4.401  15.281 -0.5702 -1.7467 -1.5792
 8451SOL     OW36811   4.585   0.973   5.501  0.1592  0.0914 -0.3005
 8451SOL    HW136812   4.515   0.934   5.553  0.3716 -0.9100 -0.7667
 8451SOL    HW236813   4.620   1.032   5.567 -2.3541  0.8279  0.3768
 8452SOL     OW36814   1.883   1.238   2.202 -0.1019  0.6789 -0.3413
 8452SOL    HW136815   1.811   1.180   2.226  0.2285  1.3002  2.1952
 8452SOL    HW236816   1.950   1.216   2.267 -1.6995 -1.1488  0.6650
 8453SOL     OW36817   0.766   1.462   4.542  0.4635 -0.7171  0.0098
 8453SOL    HW136818   0.728   1.409   4.611  0.2509 -2.0472 -1.1218
 8453SOL    HW236819   0.778   1.544   4.589 -1.3062 -1.2705  1.4038
 8454SOL     OW36820   1.165   1.147   4.797 -0.8501 -0.0559  0.2954
 8454SOL    HW136821   1.258   1.124   4.800 -0.5944  0.7653 -1.2566
 8454SOL    HW236822   1.170   1.204   4.720  0.4364 -1.3729 -0.5958
 8455SOL     OW36823   4.214   3.707   2.150 -0.7820  0.2844  0.3083
 8455SOL    HW136824   4.235   3.704   2.056  1.4255  0.8880  0.7719
 8455SOL    HW236825   4.248   3.622   2.178  1.0766  1.0010  0.2500
 8456SOL     OW36826   0.916   2.673  11.562 -0.0958 -0.0652  0.0515
 8456SOL    HW136827   0.874   2.589  11.579  2.6431 -1.5234 -0.3621
 8456SOL    HW236828   0.994   2.637  11.519  0.4847 -1.1565  2.0551
 8457SOL     OW36829   0.124   0.127   5.948 -0.0774 -0.2505  0.1877
 8457SOL    HW136830   0.217   0.116   5.927 -0.1183  0.1943 -0.2177
 8457SOL    HW236831   0.104   0.043   5.989 -1.8699  1.2313  2.3164
 8458SOL     OW36832   1.009   3.339  15.691 -0.3456 -0.2432 -0.4341
 8458SOL    HW136833   1.049   3.419  15.659 -0.5902  0.1249  0.1827
 8458SOL    HW236834   0.991   3.365  15.781 -0.7458  1.6199 -1.0566
 8459SOL     OW36835   0.393   1.259   2.263 -0.0394 -0.0861  0.6115
 8459SOL    HW136836   0.389   1.227   2.172  3.4850 -1.0547  0.7808
 8459SOL    HW236837   0.386   1.354   2.257  0.1733 -0.1808 -1.4580
 8460SOL     OW36838   3.965   0.046   5.067 -1.0079  0.2132 -0.0432
 8460SOL    HW136839   3.931   0.056   4.978 -0.7592 -1.9341 -0.4003
 8460SOL    HW236840   3.939   0.130   5.104 -2.4355  0.6584 -2.0294
 8461SOL     OW36841   3.218   3.151   5.791 -0.4979 -0.0636 -0.4284
 8461SOL    HW136842   3.173   3.175   5.710 -0.4433 -0.2048 -0.4999
 8461SOL    HW236843   3.143   3.106   5.829  1.2979 -1.5599  1.3265
 8462SOL     OW36844   3.437   2.448  16.005 -0.1617  0.2324  0.0270
 8462SOL    HW136845   3.517   2.465  16.055 -2.1256  1.6319  2.6662
 8462SOL    HW236846   3.459   2.467  15.914 -0.9001  0.6208 -0.0709
 8463SOL     OW36847   3.880   0.123   5.732 -0.4319 -0.6714  0.1460
 8463SOL    HW136848   3.819   0.107   5.660 -0.4382 -0.1621  0.0439
 8463SOL    HW236849   3.883   0.039   5.780 -1.2938 -0.4964  0.5135
 8464SOL     OW36850   3.211   2.948  11.617 -0.0209 -0.0513  0.0464
 8464SOL    HW136851   3.302   2.975  11.605 -0.2755  0.5263 -0.5490
 8464SOL    HW236852   3.173   3.025  11.576  0.5530  0.6565  0.8367
 8465SOL     OW36853   0.222   1.205   3.892 -0.1941  0.5733 -0.0035
 8465SOL    HW136854   0.231   1.157   3.974  0.1788 -0.1944 -0.4950
 8465SOL    HW236855   0.312   1.207   3.860  0.1522  4.3593  1.1953
 8466SOL     OW36856   2.630   3.618   0.200 -0.1793  0.5172  0.1632
 8466SOL    HW136857   2.584   3.558   0.259 -2.2797  1.3018 -0.6741
 8466SOL    HW236858   2.704   3.561   0.182 -0.2530  0.4981 -0.0920
 8467SOL     OW36859   4.241   2.179   7.403 -0.1542  0.2795  0.7506
 8467SOL    HW136860   4.194   2.106   7.362  3.1404 -0.5853 -1.5138
 8467SOL    HW236861   4.288   2.204   7.324  0.8864 -0.2951  1.1922
 8468SOL     OW36862   0.634   1.142   6.961 -0.3908 -0.0535  0.1584
 8468SOL    HW136863   0.607   1.143   6.869  2.5542 -0.9853 -0.7183
 8468SOL    HW236864   0.603   1.058   6.996 -0.1723 -0.8240 -1.5175
 8469SOL     OW36865   0.371   0.187   0.638  0.4865  0.7518  0.8975
 8469SOL    HW136866   0.463   0.201   0.660  0.9005  0.2477 -0.4894
 8469SOL    HW236867   0.341   0.270   0.601  1.9136  0.8380 -0.0721
 8470SOL     OW36868   4.041   4.466   7.028 -0.1007 -0.4732 -0.2703
 8470SOL    HW136869   4.033   4.443   6.935 -2.4408 -1.9000  0.2675
 8470SOL    HW236870   3.991   4.387   7.051 -1.4045  0.4804  0.1368
 8471SOL     OW36871   3.611   2.977   5.887 -0.3636 -0.3542 -0.1893
 8471SOL    HW136872   3.623   2.953   5.796  1.2186 -0.5921  0.0712
 8471SOL    HW236873   3.619   2.893   5.932  0.4873  0.1021  0.5264
 8472SOL     OW36874   3.350   1.511   3.726 -0.3585  0.5681  0.7206
 8472SOL    HW136875   3.391   1.598   3.722  0.9143 -0.2197 -4.3479
 8472SOL    HW236876   3.290   1.513   3.652 -1.0693 -0.1135  1.2824
 8473SOL     OW36877   2.613   2.085   3.220  0.0009 -0.0547  0.1078
 8473SOL    HW136878   2.571   1.999   3.220 -1.6316  0.7496 -0.4710
 8473SOL    HW236879   2.558   2.138   3.162  0.5023 -0.4966 -0.7772
 8474SOL     OW36880   3.738   0.557   9.826 -0.0339 -0.4818  0.2981
 8474SOL    HW136881   3.812   0.618   9.819 -1.4653  0.9906 -1.8940
 8474SOL    HW236882   3.758   0.514   9.910 -2.1639  0.2183  1.1610
 8475SOL     OW36883   1.537   1.033   1.363 -0.4405 -0.2345  0.0691
 8475SOL    HW136884   1.470   1.033   1.295  1.6470 -0.6877 -1.9434
 8475SOL    HW236885   1.503   0.971   1.429 -0.1177 -1.1686 -0.6534
 8476SOL     OW36886   2.680   2.501  14.905 -0.7499 -0.1976 -0.0445
 8476SOL    HW136887   2.635   2.420  14.879 -0.5931 -0.0520 -0.7737
 8476SOL    HW236888   2.717   2.494  14.993  1.4138  1.4479 -0.8289
 8477SOL     OW36889   2.186   1.620   6.334 -0.4586  0.5032 -0.2148
 8477SOL    HW136890   2.144   1.541   6.369 -0.3093  1.5982  2.4159
 8477SOL    HW236891   2.152   1.693   6.385 -2.1878 -1.7579  1.9414
 8478SOL     OW36892   3.008   2.584   8.595 -0.4523 -0.0091  0.1663
 8478SOL    HW136893   3.027   2.580   8.688  0.7827  0.0783 -0.0874
 8478SOL    HW236894   3.017   2.495   8.562 -0.0728 -0.5025  1.6241
 8479SOL     OW36895   1.686   2.446  16.349  0.0677  0.6354 -0.4172
 8479SOL    HW136896   1.746   2.520  16.338 -1.3700  1.9992  0.8418
 8479SOL    HW236897   1.678   2.449  16.445  0.5552 -4.6093 -0.2171
 8480SOL     OW36898   2.872   2.681  15.577  0.0255 -0.1511  0.1235
 8480SOL    HW136899   2.877   2.642  15.490 -1.5502  0.7553 -0.3811
 8480SOL    HW236900   2.891   2.769  15.547 -0.4705 -0.0186  0.1981
 8481SOL     OW36901   2.342   1.569  10.116  0.2662 -0.1890 -0.1894
 8481SOL    HW136902   2.264   1.521  10.146  0.9501 -0.2245  1.5284
 8481SOL    HW236903   2.380   1.567  10.204  0.0760  1.7011 -0.0612
 8482SOL     OW36904   0.458   4.480   1.442  0.3739 -0.6031  0.2936
 8482SOL    HW136905   0.511   4.509   1.368 -1.1323  0.5933 -0.3276
 8482SOL    HW236906   0.466   4.559   1.495  3.5941 -0.6941 -0.0871
 8483SOL     OW36907   0.489   0.293   5.976  0.2314 -0.4180  0.5869
 8483SOL    HW136908   0.424   0.259   6.037  1.1166 -0.4204  1.5312
 8483SOL    HW236909   0.538   0.347   6.038 -0.4777 -0.9506  1.6123
 8484SOL     OW36910   3.181   3.027  13.126  0.4799  0.2075 -0.2574
 8484SOL    HW136911   3.199   3.093  13.193  0.2875  1.6702 -1.6373
 8484SOL    HW236912   3.086   3.016  13.136  0.5067 -0.4965 -0.7496
 8485SOL     OW36913   0.706   2.263  13.790 -0.3737 -0.4558  0.1565
 8485SOL    HW136914   0.667   2.214  13.862 -2.2592 -0.1564 -0.6733
 8485SOL    HW236915   0.648   2.241  13.718  0.8407 -1.6186 -0.4666
 8486SOL     OW36916   2.750   4.165  13.373 -0.5223 -0.2190  0.0836
 8486SOL    HW136917   2.816   4.233  13.387  0.3528 -0.9159 -0.6275
 8486SOL    HW236918   2.804   4.089  13.351 -0.2541 -1.0928  3.7338
 8487SOL     OW36919   3.509   3.413   8.810  0.1633 -1.2573  0.0434
 8487SOL    HW136920   3.472   3.497   8.837  0.1990 -1.6320  1.2275
 8487SOL    HW236921   3.496   3.414   8.715 -0.3389  1.4875  0.1281
 8488SOL     OW36922   2.813   2.623   2.822 -0.5408 -0.2387 -0.0609
 8488SOL    HW136923   2.786   2.575   2.744 -0.5339 -0.4652  0.0751
 8488SOL    HW236924   2.868   2.563   2.872  1.4036  1.4025 -0.2402
 8489SOL     OW36925   3.108   0.975  15.850 -0.1695 -0.0638  0.2707
 8489SOL    HW136926   3.060   1.056  15.865 -0.2521  0.1021 -0.8610
 8489SOL    HW236927   3.156   0.991  15.769 -0.6636  1.2243  0.2473
 8490SOL     OW36928   0.537   4.164   1.786 -0.0899 -0.1459 -0.3526
 8490SOL    HW136929   0.529   4.260   1.790 -1.3055 -0.2523 -0.3800
 8490SOL    HW236930   0.563   4.152   1.694 -0.2541 -0.8607 -0.3067
 8491SOL     OW36931   0.226   3.331  12.927  0.1425  0.8072  0.3040
 8491SOL    HW136932   0.181   3.315  13.010 -0.5895  0.4589 -0.1586
 8491SOL    HW236933   0.208   3.244  12.891  2.0117  1.4072 -2.0705
 8492SOL     OW36934   2.909   2.397   6.528  0.6194  0.6697 -0.5707
 8492SOL    HW136935   2.875   2.308   6.534  0.4213  0.7830  0.0521
 8492SOL    HW236936   2.924   2.422   6.620  0.4122 -1.8680  0.1517
 8493SOL     OW36937   4.326   3.726   1.892  0.3149 -0.5177  0.7740
 8493SOL    HW136938   4.392   3.705   1.826  0.3510  1.2845  0.2519
 8493SOL    HW236939   4.280   3.803   1.859  0.7632 -0.2915  0.6894
 8494SOL     OW36940   3.659   1.070   5.928 -0.5717 -0.1713  0.5910
 8494SOL    HW136941   3.578   1.075   5.877  1.1031  0.5294 -1.9962
 8494SOL    HW236942   3.653   0.985   5.973  2.5114  0.5970  2.4492
 8495SOL     OW36943   4.331   3.299  13.300  0.3209 -0.3698  0.1143
 8495SOL    HW136944   4.340   3.390  13.327  0.4774 -0.3420 -0.0346
 8495SOL    HW236945   4.391   3.254  13.360  1.1131 -1.3764 -1.4247
 8496SOL     OW36946   1.555   4.677   4.050  0.2746 -0.2281 -0.1169
 8496SOL    HW136947   1.500   0.023   4.016 -0.8735 -0.3219  1.5662
 8496SOL    HW236948   1.634   0.001   4.075 -1.0657  2.4888 -1.0750
 8497SOL     OW36949   3.407   1.430   8.842 -0.0439 -0.3544 -0.1693
 8497SOL    HW136950   3.328   1.387   8.812  0.6572 -0.5905 -1.6574
 8497SOL    HW236951   3.400   1.420   8.937 -1.1800  2.0024  0.0013
 8498SOL     OW36952   2.265   2.837   1.791 -0.2681  0.1224  0.3998
 8498SOL    HW136953   2.244   2.930   1.799 -1.9393 -0.1814 -0.3310
 8498SOL    HW236954   2.182   2.808   1.752 -0.5507  0.9084  0.4221
 8499SOL     OW36955   1.410   3.653  12.248  0.1525 -0.4871 -0.6208
 8499SOL    HW136956   1.389   3.620  12.336  0.0672 -0.6417 -0.6976
 8499SOL    HW236957   1.342   3.622  12.189 -0.2775 -1.0293  0.1523
 8500SOL     OW36958   3.227   3.733   2.003 -0.3636 -0.0993  0.5829
 8500SOL    HW136959   3.188   3.660   2.051  1.5105 -0.6308  1.2967
 8500SOL    HW236960   3.185   3.734   1.917 -0.3934  2.4679  0.6421
 8501SOL     OW36961   1.790   0.052   5.470 -0.4985 -0.2839 -0.4685
 8501SOL    HW136962   1.838   0.092   5.398  0.5682  0.9516  0.9308
 8501SOL    HW236963   1.709   0.103   5.475  0.1280  0.5102  1.8017
 8502SOL     OW36964   1.478   3.974   6.352  0.3583  0.6391  0.1782
 8502SOL    HW136965   1.510   4.049   6.303 -2.2713  2.0943  0.6968
 8502SOL    HW236966   1.555   3.925   6.381  0.7408  0.2776 -1.4729
 8503SOL     OW36967   0.371   2.248   2.931  0.3306 -0.0638 -0.1383
 8503SOL    HW136968   0.398   2.250   2.839 -0.2605  2.6558 -0.2646
 8503SOL    HW236969   0.288   2.199   2.928 -0.2385  0.9470 -0.8380
 8504SOL     OW36970   0.358   2.558  15.066 -0.3283  0.0211 -0.1342
 8504SOL    HW136971   0.432   2.498  15.069 -0.7488 -0.4572  0.8462
 8504SOL    HW236972   0.399   2.625  15.013  0.4496 -0.8945 -0.6734
 8505SOL     OW36973   3.790   4.531  13.052 -0.6079 -0.3266 -0.3213
 8505SOL    HW136974   3.849   4.458  13.031  0.4065  0.1191  0.9724
 8505SOL    HW236975   3.761   4.500  13.138 -1.6810  0.3627 -0.4318
 8506SOL     OW36976   3.791   1.645   1.899  0.0947  0.0565 -0.2739
 8506SOL    HW136977   3.702   1.643   1.936  0.5090  0.3598  0.7423
 8506SOL    HW236978   3.821   1.554   1.902 -0.8477 -0.1600  3.8648
 8507SOL     OW36979   2.926   2.526   4.495 -0.1851  0.0181  0.5661
 8507SOL    HW136980   3.013   2.555   4.468  0.6878 -2.4531  0.6975
 8507SOL    HW236981   2.906   2.602   4.549 -0.0322  1.9792 -2.1282
 8508SOL     OW36982   0.324   2.621   5.848 -0.8867 -0.7687  0.2836
 8508SOL    HW136983   0.373   2.540   5.835  1.0158  0.2163  1.3593
 8508SOL    HW236984   0.234   2.587   5.853 -1.2494  0.6024  2.8475
 8509SOL     OW36985   3.099   3.994   1.954 -0.0696  0.3681 -0.2708
 8509SOL    HW136986   3.127   3.949   1.874  1.2691  0.9090 -0.1174
 8509SOL    HW236987   3.100   3.926   2.020 -1.7827 -0.3851 -1.0320
 8510SOL     OW36988   2.330   1.700  15.987 -0.0412  0.5036 -0.2138
 8510SOL    HW136989   2.270   1.710  15.913  0.9458  1.8137 -0.8389
 8510SOL    HW236990   2.259   1.673  16.045 -1.1060 -0.3663 -1.9259
 8511SOL     OW36991   3.976   2.095   5.440 -0.5549  0.0888 -0.0860
 8511SOL    HW136992   3.957   2.179   5.482  1.2981  0.5251 -0.1246
 8511SOL    HW236993   3.960   2.025   5.504  0.2285  0.6471  0.7194
 8512SOL     OW36994   0.957   2.462   7.907  0.1684  0.2199 -0.6561
 8512SOL    HW136995   1.037   2.513   7.911 -0.2096  0.7996 -0.4297
 8512SOL    HW236996   0.923   2.507   7.830  0.2994  0.1872 -0.7311
 8513SOL     OW36997   2.347   0.060   6.799 -0.2881  0.0779  0.3936
 8513SOL    HW136998   2.265   0.104   6.818 -0.0328  0.2248  1.1662
 8513SOL    HW236999   2.408   0.125   6.836  1.2215  0.4937 -2.8600
 8514SOL     OW37000   0.088   0.586  12.820 -1.1172 -0.0545 -0.1971
 8514SOL    HW137001   0.138   0.505  12.811 -0.8962  0.2407 -1.6877
 8514SOL    HW237002   0.146   0.655  12.789  0.9584 -1.9862 -0.6075
 8515SOL     OW37003   2.534   1.539   9.917  0.5967  0.2721  0.2319
 8515SOL    HW137004   2.512   1.462   9.865 -0.3236  0.8984 -0.3073
 8515SOL    HW237005   2.466   1.539   9.985  2.1152  0.8338  1.7610
 8516SOL     OW37006   3.761   0.937  11.068 -0.3446  0.4656 -0.4269
 8516SOL    HW137007   3.785   1.029  11.059 -0.0915  0.4629  0.2176
 8516SOL    HW237008   3.824   0.897  11.008  0.3182  1.6783 -0.5359
 8517SOL     OW37009   2.746   1.419   3.591 -0.0853  0.0785 -0.0539
 8517SOL    HW137010   2.688   1.493   3.575  2.7912  1.7638 -2.5977
 8517SOL    HW237011   2.761   1.395   3.500  0.4859 -2.3520  0.6600
 8518SOL     OW37012   0.796   4.401   1.939 -0.0192  0.1701 -0.3248
 8518SOL    HW137013   0.706   4.367   1.932 -1.1722  3.0536  0.4794
 8518SOL    HW237014   0.826   4.374   1.852 -0.5185  3.1293 -1.4296
 8519SOL     OW37015   0.248   3.095   3.286  0.0698  0.5444 -0.0487
 8519SOL    HW137016   0.155   3.115   3.274  0.6371  2.1227 -1.8700
 8519SOL    HW237017   0.272   3.056   3.202  1.2813  0.1877  0.4635
 8520SOL     OW37018   0.698   0.201   2.962 -0.1120 -0.2837 -0.0696
 8520SOL    HW137019   0.624   0.157   2.921 -0.1029  1.1345 -1.6119
 8520SOL    HW237020   0.678   0.292   2.938  0.2032 -0.5169 -1.2292
 8521SOL     OW37021   3.543   0.957   7.056  0.0303  0.0133  0.0575
 8521SOL    HW137022   3.571   0.903   6.982 -0.3655 -1.4420  0.9712
 8521SOL    HW237023   3.617   0.940   7.114  0.0697 -1.8679 -0.5428
 8522SOL     OW37024   3.329   1.600   6.786 -0.7630 -0.1263 -0.0646
 8522SOL    HW137025   3.298   1.612   6.696  0.5669 -3.1546 -0.9420
 8522SOL    HW237026   3.279   1.670   6.827  1.8608  0.2814  2.4338
 8523SOL     OW37027   3.512   3.913   4.295  0.1736  0.8597  0.1198
 8523SOL    HW137028   3.519   3.879   4.206  2.1678 -0.4428  0.7489
 8523SOL    HW237029   3.432   3.962   4.279 -0.3594 -0.4937 -1.4071
 8524SOL     OW37030   3.624   2.324   4.846  0.1406 -0.1031  0.0654
 8524SOL    HW137031   3.709   2.349   4.812  0.7168 -0.1951  1.4211
 8524SOL    HW237032   3.625   2.230   4.866 -1.5943 -0.0849  0.2923
 8525SOL     OW37033   4.441   3.788   1.273  0.2542 -0.0272  0.4493
 8525SOL    HW137034   4.404   3.704   1.247  0.0557  0.3585 -0.5512
 8525SOL    HW237035   4.507   3.811   1.207  0.0631 -2.1247 -0.4777
 8526SOL     OW37036   3.890   3.399   7.823  0.1006  0.1324 -0.1435
 8526SOL    HW137037   3.830   3.335   7.785  1.2937 -0.7600 -0.5446
 8526SOL    HW237038   3.873   3.387   7.916 -0.1395 -0.3744 -0.2520
 8527SOL     OW37039   1.047   1.774   4.013 -0.4799  0.1406  0.0961
 8527SOL    HW137040   0.955   1.757   4.036  1.1066 -3.7694  3.6704
 8527SOL    HW237041   1.050   1.868   4.030 -0.3436 -0.1432  1.5984
 8528SOL     OW37042   0.334   4.593   6.908 -0.1475  0.0249  0.3213
 8528SOL    HW137043   0.246   4.557   6.920 -0.5635  0.9466  0.0398
 8528SOL    HW237044   0.334   4.635   6.994 -1.9607 -0.9996  0.8369
 8529SOL     OW37045   4.551   4.425  12.077  0.1205  0.1143 -0.3207
 8529SOL    HW137046   4.585   4.397  11.992  0.4564 -0.4900  0.0186
 8529SOL    HW237047   4.602   4.381  12.144  0.5700  2.1924  0.7109
 8530SOL     OW37048   4.487   2.167   2.079  0.0328  0.5630  0.4541
 8530SOL    HW137049   4.551   2.239   2.080  2.0514 -1.2349  0.9878
 8530SOL    HW237050   4.423   2.200   2.016 -0.9012  0.9257  1.6052
 8531SOL     OW37051   3.497   3.562   7.289  0.2933 -0.0938  0.4567
 8531SOL    HW137052   3.562   3.499   7.320  0.4086 -0.9220 -1.4491
 8531SOL    HW237053   3.493   3.544   7.195  2.0331 -1.0203  0.5810
 8532SOL     OW37054   1.575   2.994   4.285 -0.5791  0.9444  0.1677
 8532SOL    HW137055   1.516   3.058   4.325  1.7715  2.7429  0.6944
 8532SOL    HW237056   1.609   2.939   4.356  0.0020  0.2415 -0.6589
 8533SOL     OW37057   2.948   2.480   6.790 -0.0894 -0.3540 -0.0154
 8533SOL    HW137058   2.970   2.568   6.760 -1.6876  0.8336  2.2459
 8533SOL    HW237059   2.876   2.479   6.853 -0.0856  1.8227  0.0175
 8534SOL     OW37060   4.692   2.956  13.025 -0.5531  0.3232 -0.0734
 8534SOL    HW137061   4.705   3.025  12.960  0.0488 -0.1646 -0.4709
 8534SOL    HW237062   4.670   3.010  13.101  1.0036 -1.0232  1.3145
 8535SOL     OW37063   1.172   2.058  15.170  0.0852  0.6877  0.1525
 8535SOL    HW137064   1.175   1.987  15.234 -0.8050  0.7734  0.2891
 8535SOL    HW237065   1.256   2.102  15.182  0.1061 -0.2232  3.4395
 8536SOL     OW37066   4.199   0.971  16.646  0.2336  0.3363 -0.0922
 8536SOL    HW137067   4.182   1.060  16.617  0.7020  0.6056  0.4701
 8536SOL    HW237068   4.281   0.990  16.690 -0.6256  0.5043  1.4426
 8537SOL     OW37069   2.681   4.112   8.765  0.1765 -0.4173 -0.6731
 8537SOL    HW137070   2.598   4.122   8.717 -0.4718  0.6905  0.6871
 8537SOL    HW237071   2.732   4.188   8.735 -1.1143  1.6537  2.4033
 8538SOL     OW37072   4.151   0.192  17.685 -0.7163  0.6516  0.1073
 8538SOL    HW137073   4.130   0.274  17.639 -2.3770  0.8753  1.2634
 8538SOL    HW237074   4.110   0.126  17.630  1.8394  0.3165 -1.4116
 8539SOL     OW37075   3.705   2.322   4.057  0.3913 -0.0830 -0.8665
 8539SOL    HW137076   3.730   2.406   4.096  0.6756 -1.0424  0.9989
 8539SOL    HW237077   3.743   2.265   4.123  1.5795  1.9436  0.2095
 8540SOL     OW37078   3.948   1.472   0.474 -0.0142 -0.4548 -0.0098
 8540SOL    HW137079   3.887   1.494   0.545  1.3133  1.9500  0.3856
 8540SOL    HW237080   3.963   1.381   0.500 -0.8710 -0.7156 -0.4498
 8541SOL     OW37081   0.822   4.430  10.629  0.0102 -0.2889 -0.0821
 8541SOL    HW137082   0.876   4.454  10.553  1.4042 -1.2354  0.6131
 8541SOL    HW237083   0.859   4.346  10.654  1.5101  0.9702  1.9800
 8542SOL     OW37084   0.007   0.668  14.734  0.9936  0.1304 -0.1919
 8542SOL    HW137085   0.050   0.666  14.648 -3.5828 -0.3655 -2.4665
 8542SOL    HW237086   4.721   0.763  14.740  1.9883  0.2132  0.2772
 8543SOL     OW37087   0.316   1.809   0.364  0.6087 -0.3912 -0.2641
 8543SOL    HW137088   0.374   1.844   0.296  1.9558  3.3183  2.8331
 8543SOL    HW237089   0.370   1.730   0.371 -0.6526 -1.4109 -2.0655
 8544SOL     OW37090   2.100   3.118   9.033  0.2911  0.1765 -0.1743
 8544SOL    HW137091   2.016   3.090   9.069  0.4120 -0.0873 -0.0977
 8544SOL    HW237092   2.102   3.212   9.053  1.1901  0.1689 -0.2510
 8545SOL     OW37093   1.693   3.164   3.935 -0.5756  0.2601  0.3909
 8545SOL    HW137094   1.762   3.172   4.001  1.3225  2.3956 -1.8442
 8545SOL    HW237095   1.629   3.104   3.972  0.0183  0.2188  1.3418
 8546SOL     OW37096   1.278   0.482   7.081 -0.0741  0.4965  0.3162
 8546SOL    HW137097   1.342   0.506   7.148  0.9797  0.5995 -0.7235
 8546SOL    HW237098   1.190   0.496   7.116  0.4282  2.6375  0.7112
 8547SOL     OW37099   2.234   2.686   0.419 -0.9051  0.0083  0.2845
 8547SOL    HW137100   2.323   2.668   0.449 -0.9835  1.8989  1.6450
 8547SOL    HW237101   2.213   2.771   0.457 -3.3250  1.0028 -3.2882
 8548SOL     OW37102   2.684   2.462  16.061 -0.3966  0.0637 -0.1647
 8548SOL    HW137103   2.619   2.501  16.119  0.3542 -0.6002  1.1316
 8548SOL    HW237104   2.629   2.404  16.009  0.7645 -1.8550  0.7409
 8549SOL     OW37105   1.463   2.147   6.525  0.1310  0.7527  0.1932
 8549SOL    HW137106   1.394   2.123   6.463  0.9861  0.2918 -0.5684
 8549SOL    HW237107   1.537   2.098   6.489 -0.9208 -0.2592 -0.5642
 8550SOL     OW37108   2.261   1.879  13.695  0.0208  0.2620  0.8576
 8550SOL    HW137109   2.209   1.959  13.702  0.1907  0.4527 -0.0640
 8550SOL    HW237110   2.189   1.820  13.714  0.4075 -0.9292 -1.3430
 8551SOL     OW37111   4.322   0.134   3.822  0.2682  0.2692  0.0115
 8551SOL    HW137112   4.403   0.128   3.872  1.9099 -0.5616 -2.7091
 8551SOL    HW237113   4.271   0.213   3.840  0.7759  1.1095 -2.1793
 8552SOL     OW37114   3.683   4.026  11.108 -0.2844 -0.1394  0.1869
 8552SOL    HW137115   3.685   3.973  11.029  0.5516  0.6537 -0.3265
 8552SOL    HW237116   3.751   4.093  11.094 -3.9966  3.6058 -0.0502
 8553SOL     OW37117   3.038   3.435  13.906 -0.0080  0.4645 -0.6575
 8553SOL    HW137118   3.123   3.469  13.935 -0.2475  0.1320  0.4660
 8553SOL    HW237119   2.985   3.514  13.895  1.1813  1.6953  2.5534
 8554SOL     OW37120   2.164   1.517   1.987  0.0820  0.1945 -0.6241
 8554SOL    HW137121   2.154   1.423   1.972  3.6999 -0.0738 -1.3698
 8554SOL    HW237122   2.122   1.555   1.909 -0.3105  1.1750  0.0594
 8555SOL     OW37123   4.110   3.351   1.211 -0.1465  0.2713 -0.2214
 8555SOL    HW137124   4.036   3.298   1.240  1.0721 -1.0104  0.5364
 8555SOL    HW237125   4.143   3.391   1.291 -1.5743 -2.1170  1.5621
 8556SOL     OW37126   4.143   1.351   3.307 -0.1990 -0.5470 -0.0514
 8556SOL    HW137127   4.168   1.430   3.355 -1.6647  0.8615 -1.6143
 8556SOL    HW237128   4.064   1.383   3.265 -1.4069 -0.2755  2.4579
 8557SOL     OW37129   1.268   3.087   6.307 -0.1280 -0.1001  0.2009
 8557SOL    HW137130   1.303   3.130   6.229 -1.1508 -1.8902 -1.2508
 8557SOL    HW237131   1.344   3.042   6.345  1.0185 -0.2568 -2.2645
 8558SOL     OW37132   4.202   2.289  15.146 -0.0648 -0.1128  0.1264
 8558SOL    HW137133   4.238   2.225  15.083  0.8423 -1.7788  2.3344
 8558SOL    HW237134   4.108   2.273  15.152  0.0875 -0.4283  1.6528
 8559SOL     OW37135   0.594   0.374   8.944  0.3784  0.1791  0.3133
 8559SOL    HW137136   0.563   0.427   8.871 -0.7265 -1.8663 -0.6876
 8559SOL    HW237137   0.550   0.421   9.015 -2.7988  1.5724 -2.5705
 8560SOL     OW37138   3.198   3.448   0.809  0.4396 -0.7461  0.3402
 8560SOL    HW137139   3.183   3.502   0.732  1.1469  0.3808  0.9927
 8560SOL    HW237140   3.231   3.370   0.765 -1.3039 -0.3275 -1.7084
 8561SOL     OW37141   2.257   0.475  17.027  0.4103  0.1720 -1.0299
 8561SOL    HW137142   2.182   0.532  17.043  0.9588  0.6816 -0.2091
 8561SOL    HW237143   2.236   0.441  16.941  2.0627  1.4185 -1.9291
 8562SOL     OW37144   4.704   1.537   2.410  0.2571 -0.6101 -0.3168
 8562SOL    HW137145   4.673   1.536   2.319 -0.6745 -4.6304  0.0856
 8562SOL    HW237146   4.719   1.632   2.410 -1.6580 -0.3334  1.4401
 8563SOL     OW37147   3.198   3.745   8.597  0.5189  0.3395 -0.2234
 8563SOL    HW137148   3.126   3.740   8.534 -0.2562  2.9818  0.4219
 8563SOL    HW237149   3.162   3.678   8.655 -2.2342  0.3128 -1.9980
 8564SOL     OW37150   1.135   3.562   4.673 -0.2980 -0.1822 -0.4008
 8564SOL    HW137151   1.119   3.651   4.704  1.0527 -1.2115  3.2764
 8564SOL    HW237152   1.135   3.573   4.578 -0.9055 -0.2881 -0.4077
 8565SOL     OW37153   2.543   4.158  17.262  0.1973 -0.2726 -0.1987
 8565SOL    HW137154   2.538   4.096  17.335 -0.9494 -1.5217 -1.3294
 8565SOL    HW237155   2.637   4.149  17.249 -0.1314 -1.6506 -1.6408
 8566SOL     OW37156   2.287   0.604   5.067 -0.4119  0.2391 -0.1423
 8566SOL    HW137157   2.239   0.655   5.001  0.2325  0.0374 -0.7736
 8566SOL    HW237158   2.369   0.653   5.071 -0.7178  0.5539  2.0198
 8567SOL     OW37159   4.540   0.852  17.148  0.1419  0.2049 -0.2944
 8567SOL    HW137160   4.588   0.932  17.125 -1.4923  1.2914  0.0839
 8567SOL    HW237161   4.510   0.825  17.061 -2.9733  1.6352  0.3330
 8568SOL     OW37162   2.347   4.601  12.133 -0.0452  0.0841  0.6792
 8568SOL    HW137163   2.378   4.538  12.198 -0.6354  0.2297  1.0956
 8568SOL    HW237164   2.254   4.584  12.146 -0.4352  2.0249  0.3517
 8569SOL     OW37165   3.698   4.621   5.907  0.5021 -0.1006  0.3028
 8569SOL    HW137166   3.725   4.529   5.911 -1.8851 -0.8489 -0.7845
 8569SOL    HW237167   3.697   4.637   6.001 -1.9736 -1.1099  0.4429
 8570SOL     OW37168   2.590   0.888  15.101  0.1897 -0.3094 -0.0147
 8570SOL    HW137169   2.512   0.942  15.108 -0.1722 -0.5211 -2.5755
 8570SOL    HW237170   2.561   0.839  15.024 -0.9048 -0.9799  0.8131
 8571SOL     OW37171   1.364   0.816  12.161 -0.2446  0.1373 -0.6096
 8571SOL    HW137172   1.442   0.768  12.132 -0.3458  1.3961 -2.9315
 8571SOL    HW237173   1.315   0.822  12.079 -1.0764  1.4747 -0.0093
 8572SOL     OW37174   4.563   4.589   7.032  0.2569  0.5933  0.8199
 8572SOL    HW137175   4.472   4.571   7.057 -0.0470  0.9462 -0.0478
 8572SOL    HW237176   4.591   4.631   7.114 -0.1229 -0.9425  1.7447
 8573SOL     OW37177   2.895   0.057   0.220  0.6142  0.7029  0.2460
 8573SOL    HW137178   2.919   4.691   0.203  0.3767  0.6018  0.4587
 8573SOL    HW237179   2.924   0.095   0.136 -1.0733 -0.4973 -0.8864
 8574SOL     OW37180   4.168   4.529   2.921 -0.9795 -0.1555 -0.6968
 8574SOL    HW137181   4.246   4.493   2.879 -0.0136  0.8027  0.2802
 8574SOL    HW237182   4.114   4.459   2.885 -1.3447  0.3967 -1.2390
 8575SOL     OW37183   0.941   1.182   2.879 -0.8019  0.5365  0.2079
 8575SOL    HW137184   0.972   1.095   2.902 -1.1843  0.8938  2.0512
 8575SOL    HW237185   1.002   1.216   2.813 -1.5826 -0.2474 -0.9325
 8576SOL     OW37186   1.731   1.680   5.993 -0.3781 -0.6030 -0.5518
 8576SOL    HW137187   1.686   1.762   6.011 -1.5887 -1.4112  0.1019
 8576SOL    HW237188   1.786   1.650   6.065 -0.4934 -1.0341 -0.6417
 8577SOL     OW37189   4.615   3.704  12.810  0.0342  0.1254 -0.4875
 8577SOL    HW137190   4.541   3.750  12.850 -1.1026 -2.6428  0.6324
 8577SOL    HW237191   4.583   3.682  12.722 -1.5658  0.0581  0.1143
 8578SOL     OW37192   2.270   3.048  16.250 -0.4437  0.3887 -0.2663
 8578SOL    HW137193   2.362   3.035  16.229 -0.6392  1.4054 -1.8037
 8578SOL    HW237194   2.280   3.083  16.339  2.5447  0.6834 -0.7249
 8579SOL     OW37195   4.251   2.349  14.712  0.0649  0.1353 -0.5670
 8579SOL    HW137196   4.306   2.272  14.701 -0.6769 -0.2758 -1.3802
 8579SOL    HW237197   4.226   2.342  14.805  0.2971 -1.7554 -0.6471
 8580SOL     OW37198   1.950   0.479   7.498  0.2666 -0.1475 -0.0803
 8580SOL    HW137199   1.924   0.425   7.423 -0.2271  0.0239 -0.0355
 8580SOL    HW237200   2.003   0.546   7.454  0.1043 -0.0178 -0.0789
 8581SOL     OW37201   4.088   1.395   5.446 -0.3905 -0.1687  0.1222
 8581SOL    HW137202   4.028   1.358   5.381 -2.0952  5.8307 -1.7541
 8581SOL    HW237203   4.153   1.327   5.461  1.2091  1.4013  0.2665
 8582SOL     OW37204   3.485   3.878  12.819 -0.2162  0.3140  0.0966
 8582SOL    HW137205   3.396   3.912  12.806  0.6048  2.2844 -0.3472
 8582SOL    HW237206   3.492   3.814  12.747 -0.0672  0.3455  0.0851
 8583SOL     OW37207   2.063   2.586   2.640  0.4892  0.3918  0.3269
 8583SOL    HW137208   2.021   2.592   2.727 -0.2310 -1.5704  0.1054
 8583SOL    HW237209   2.016   2.520   2.589  0.5277  0.8343 -0.2717
 8584SOL     OW37210   2.834   0.914   4.626  0.5924 -0.6530  0.3275
 8584SOL    HW137211   2.890   0.991   4.635  0.1332 -0.3036  0.1850
 8584SOL    HW237212   2.829   0.880   4.716  0.2657 -0.5359  0.3543
 8585SOL     OW37213   2.966   1.522  13.616  0.3611 -0.2080  0.3512
 8585SOL    HW137214   2.874   1.539  13.598  0.0324 -0.1438  2.1152
 8585SOL    HW237215   2.998   1.504  13.527  0.1922 -2.6813  0.7973
 8586SOL     OW37216   4.068   0.261   9.130  0.5512 -0.9951 -0.0990
 8586SOL    HW137217   4.025   0.305   9.203  2.7811  0.3482  0.4346
 8586SOL    HW237218   4.144   0.318   9.119  1.3311 -1.8077  1.1042
 8587SOL     OW37219   4.459   3.649   7.447  0.3207 -0.0441  0.5505
 8587SOL    HW137220   4.373   3.611   7.431  1.0271 -1.3789 -0.1132
 8587SOL    HW237221   4.511   3.571   7.468 -1.9175 -1.4432  0.8216
 8588SOL     OW37222   3.097   0.506  16.503  0.0439  0.1029  0.0003
 8588SOL    HW137223   3.133   0.577  16.449 -2.3916  1.1304 -0.2552
 8588SOL    HW237224   3.172   0.484  16.558 -0.7015 -0.8770  0.6190
 8589SOL     OW37225   4.602   3.070   0.249 -0.3207  0.4551 -0.2246
 8589SOL    HW137226   4.576   3.098   0.161 -1.3521  3.1472  0.9198
 8589SOL    HW237227   4.552   2.990   0.265  0.5769  0.1632  1.0988
 8590SOL     OW37228   0.375   4.602   2.123 -0.3381 -0.0059 -0.4693
 8590SOL    HW137229   0.446   4.564   2.072  1.3153 -2.2293  3.4558
 8590SOL    HW237230   0.334   4.662   2.061 -1.6649  0.0716  0.5005
 8591SOL     OW37231   0.549   1.968   7.754  0.3143 -0.1180 -0.4190
 8591SOL    HW137232   0.616   1.998   7.816  0.4115 -2.9578  0.8373
 8591SOL    HW237233   0.468   1.972   7.805  2.0513 -1.5085  2.4515
 8592SOL     OW37234   0.723   1.968   6.371 -0.1345 -0.2269 -0.1279
 8592SOL    HW137235   0.775   2.047   6.355  2.0191 -0.7190  4.1724
 8592SOL    HW237236   0.728   1.922   6.288  3.1252 -1.0237  0.5031
 8593SOL     OW37237   3.470   2.500   5.645 -0.3693 -0.0829 -0.2575
 8593SOL    HW137238   3.522   2.520   5.568  0.2529 -0.0547  0.1703
 8593SOL    HW237239   3.456   2.590   5.676 -1.4053 -0.2179 -0.3157
 8594SOL     OW37240   2.035   4.606  13.756 -0.4773  0.5968 -0.1378
 8594SOL    HW137241   1.952   4.640  13.722 -0.8475 -0.5684 -0.3898
 8594SOL    HW237242   2.011   4.597  13.848  0.1207 -1.0502 -0.1497
 8595SOL     OW37243   1.338   4.693  16.261 -0.0237  0.1835  0.0742
 8595SOL    HW137244   1.318   4.721  16.350  0.2018 -1.8160  0.7597
 8595SOL    HW237245   1.331   0.055  16.219  0.9446 -0.0123 -0.4792
 8596SOL     OW37246   0.805   2.362   5.618 -0.1190 -0.1068  0.3531
 8596SOL    HW137247   0.858   2.433   5.654  0.9026 -0.2936 -0.7762
 8596SOL    HW237248   0.771   2.400   5.537 -0.4576 -0.6873  0.2203
 8597SOL     OW37249   3.754   4.339   2.942  0.1445  0.6260  0.4537
 8597SOL    HW137250   3.836   4.363   2.899 -1.0546  3.0095 -0.4636
 8597SOL    HW237251   3.781   4.323   3.033 -0.2385  0.2371  0.5026
 8598SOL     OW37252   0.551   2.816   1.698 -0.1551 -1.0216  0.2334
 8598SOL    HW137253   0.602   2.796   1.620 -0.5123  2.0959 -0.7705
 8598SOL    HW237254   0.577   2.902   1.729  0.1644 -1.3473  0.8835
 8599SOL     OW37255   3.701   3.981  16.877  0.8295 -0.0860  0.2193
 8599SOL    HW137256   3.706   3.966  16.971 -0.9808 -0.7590  0.2280
 8599SOL    HW237257   3.741   4.067  16.866  0.7663 -0.1857 -0.7965
 8600SOL     OW37258   0.384   0.994   7.736  0.0789 -0.5363  0.1920
 8600SOL    HW137259   0.437   1.027   7.665 -0.1432  2.3685  1.3745
 8600SOL    HW237260   0.337   1.072   7.765  0.3514 -0.1362 -0.4602
 8601SOL     OW37261   0.211   3.797   0.671 -0.3457  0.0567  0.0699
 8601SOL    HW137262   0.149   3.751   0.615 -1.1891  0.6306  0.5366
 8601SOL    HW237263   0.150   3.852   0.719 -1.3943 -0.3521 -0.7957
 8602SOL     OW37264   2.619   1.429  12.874 -0.7128 -0.1820  0.3074
 8602SOL    HW137265   2.564   1.352  12.859  0.7573 -0.9835 -0.9181
 8602SOL    HW237266   2.662   1.430  12.789  1.6601 -0.0086  1.4932
 8603SOL     OW37267   0.330   3.103   5.646  0.5649  0.2358  0.1244
 8603SOL    HW137268   0.359   3.015   5.669 -0.9443 -0.4431 -0.5672
 8603SOL    HW237269   0.398   3.125   5.583 -0.5148  1.7380 -0.5179
 8604SOL     OW37270   1.112   2.063  16.160 -0.3170  0.2456 -0.2632
 8604SOL    HW137271   1.161   2.041  16.239  1.4928  0.4030 -1.3401
 8604SOL    HW237272   1.033   2.105  16.195  1.6544  2.0041  2.1423
 8605SOL     OW37273   0.631   4.660   0.860 -0.0973 -0.4529 -0.4525
 8605SOL    HW137274   0.708   4.711   0.881  0.3441 -1.3583  0.1234
 8605SOL    HW237275   0.607   4.692   0.773  1.2495 -1.4794 -1.1991
 8606SOL     OW37276   2.726   4.408   8.935 -0.4805  0.3206 -0.3934
 8606SOL    HW137277   2.732   4.416   8.840  1.0234  2.3690 -0.1205
 8606SOL    HW237278   2.631   4.395   8.943 -0.7276  1.7995 -0.8491
 8607SOL     OW37279   2.449   2.848   2.868 -0.2733 -0.2708  0.1531
 8607SOL    HW137280   2.442   2.930   2.917  0.7226 -0.6752  0.9760
 8607SOL    HW237281   2.544   2.857   2.860 -0.2690 -1.0186 -0.6790
 8608SOL     OW37282   2.667   4.494  15.844  0.3559  0.0179  0.0140
 8608SOL    HW137283   2.593   4.459  15.895 -1.1541 -0.0800 -2.2523
 8608SOL    HW237284   2.739   4.447  15.888  0.4496 -0.5782 -0.7801
 8609SOL     OW37285   1.677   2.205  10.244 -0.1374 -0.1966 -0.1283
 8609SOL    HW137286   1.650   2.295  10.227 -2.2927 -0.6921  0.6153
 8609SOL    HW237287   1.769   2.210  10.220 -0.8279  3.1327 -2.0792
 8610SOL     OW37288   4.699   3.392   6.516  0.1445 -0.1755  0.2877
 8610SOL    HW137289   0.059   3.429   6.491  0.3338 -1.0162 -0.3069
 8610SOL    HW237290   4.713   3.298   6.499 -0.4129 -0.0831 -0.6899
 8611SOL     OW37291   4.147   0.158   1.420  0.1285  0.3950 -0.1068
 8611SOL    HW137292   4.109   0.075   1.392 -0.1727  0.6867 -0.5642
 8611SOL    HW237293   4.103   0.216   1.358 -2.1413 -0.2952  0.8689
 8612SOL     OW37294   3.125   0.709  15.918  0.4430 -0.0057 -0.3624
 8612SOL    HW137295   3.089   0.796  15.903 -1.2251 -0.7470 -0.6513
 8612SOL    HW237296   3.177   0.697  15.839  1.6169 -1.1758  0.5797
 8613SOL     OW37297   0.250   0.220  13.779 -0.4555  0.1524  0.0140
 8613SOL    HW137298   0.270   0.150  13.717  1.0125  0.5535  0.0325
 8613SOL    HW237299   0.335   0.227  13.821 -0.3956 -0.7015  0.0168
 8614SOL     OW37300   2.036   2.075   6.973  0.1970 -0.1858  0.2403
 8614SOL    HW137301   2.116   2.024   6.988 -1.3516 -3.3979 -2.4550
 8614SOL    HW237302   1.987   2.058   7.053  2.9963  0.2979  2.0680
 8615SOL     OW37303   3.490   1.448   9.504  0.2086 -0.2506  0.2617
 8615SOL    HW137304   3.522   1.481   9.420  1.1873  1.1102  1.1886
 8615SOL    HW237305   3.479   1.358   9.471 -0.8241 -1.0196  2.6663
 8616SOL     OW37306   2.464   1.848   8.962  0.0382 -0.0422 -0.1014
 8616SOL    HW137307   2.434   1.933   8.993  0.4148  0.3315 -0.7438
 8616SOL    HW237308   2.554   1.879   8.947  0.3168 -0.5956  0.4075
 8617SOL     OW37309   2.810   2.726   0.345  0.1365  0.0875  0.2681
 8617SOL    HW137310   2.783   2.709   0.435 -1.2094 -1.2273 -0.3748
 8617SOL    HW237311   2.892   2.774   0.356  0.3938 -0.3578  0.2825
 8618SOL     OW37312   0.761   0.152   6.591  0.1931  0.1550 -0.0954
 8618SOL    HW137313   0.840   0.097   6.584 -1.0682 -1.7226  0.5236
 8618SOL    HW237314   0.798   0.233   6.555  1.2176 -0.3061 -0.0816
 8619SOL     OW37315   0.585   1.867  11.481 -0.2257  0.3613  0.6572
 8619SOL    HW137316   0.548   1.790  11.438  2.8192 -0.6883 -0.1044
 8619SOL    HW237317   0.636   1.900  11.407 -2.2388 -0.6980 -1.1865
 8620SOL     OW37318   4.706   1.575   8.979  0.4370 -0.7581  0.2097
 8620SOL    HW137319   0.055   1.633   8.956 -0.9260  0.5783 -0.7780
 8620SOL    HW237320   4.700   1.587   9.073  1.6135 -0.4203  0.2423
 8621SOL     OW37321   1.425   4.170   2.165 -0.0159 -0.1302  0.3854
 8621SOL    HW137322   1.461   4.186   2.252  0.9033  0.7701 -0.1647
 8621SOL    HW237323   1.372   4.249   2.152  0.1703 -0.2009 -0.8678
 8622SOL     OW37324   0.730   3.588  10.394 -0.0849 -0.2821 -0.5669
 8622SOL    HW137325   0.709   3.569  10.302 -0.6920  1.8618 -0.8830
 8622SOL    HW237326   0.750   3.681  10.385  0.5665 -0.2956  0.8154
 8623SOL     OW37327   4.175   1.621   3.423  0.2105  0.3877  0.0835
 8623SOL    HW137328   4.125   1.702   3.435  2.0422  0.9390  3.8258
 8623SOL    HW237329   4.215   1.631   3.336  2.4425  1.5877  1.2245
 8624SOL     OW37330   3.148   2.664   3.622  0.8634 -0.3663  0.2676
 8624SOL    HW137331   3.156   2.669   3.527  2.4191 -1.1682  0.3606
 8624SOL    HW237332   3.179   2.575   3.639  0.6226 -0.4763  0.1343
 8625SOL     OW37333   3.934   1.906   1.400 -0.3627 -0.9786  0.4729
 8625SOL    HW137334   3.968   1.912   1.489  0.2923 -1.2021  0.2387
 8625SOL    HW237335   3.847   1.944   1.414 -1.0698 -1.8781 -1.5132
 8626SOL     OW37336   2.800   2.042  17.579 -0.0616 -0.0651  0.9899
 8626SOL    HW137337   2.782   2.107  17.647  0.8116  0.9863  0.2362
 8626SOL    HW237338   2.846   2.099  17.517 -1.3422  1.1772  1.1872
 8627SOL     OW37339   2.008   2.749   3.325 -0.0023  0.3273  0.1864
 8627SOL    HW137340   2.041   2.737   3.414  1.8424 -0.5735 -0.6013
 8627SOL    HW237341   2.030   2.665   3.283 -0.5756 -0.4414  1.4320
 8628SOL     OW37342   2.596   1.519   4.469 -0.1386 -0.4169  0.5916
 8628SOL    HW137343   2.551   1.439   4.443 -1.5238  0.7525 -0.5910
 8628SOL    HW237344   2.556   1.536   4.554  1.4762  0.0773  1.2508
 8629SOL     OW37345   3.674   3.237   8.322  0.0993  0.4315 -0.2192
 8629SOL    HW137346   3.592   3.190   8.339  1.5015 -1.5908  1.0744
 8629SOL    HW237347   3.651   3.329   8.335 -2.0662  0.3023 -3.2433
 8630SOL     OW37348   2.500   1.137   7.713  0.2545 -0.2011  0.1117
 8630SOL    HW137349   2.451   1.059   7.739 -0.4326 -0.2376 -1.3025
 8630SOL    HW237350   2.536   1.158   7.799  1.0262  1.6835 -0.6597
 8631SOL     OW37351   3.445   0.683   6.647 -0.2527  0.3662 -0.0180
 8631SOL    HW137352   3.529   0.658   6.686  0.7601  1.6008 -1.4347
 8631SOL    HW237353   3.381   0.620   6.679  2.2521 -1.4355  1.4856
 8632SOL     OW37354   2.738   2.158   9.071  0.1694  0.0160 -0.0157
 8632SOL    HW137355   2.667   2.105   9.107  0.5804 -0.5184  0.0012
 8632SOL    HW237356   2.733   2.132   8.979  0.3386  0.1426 -0.0592
 8633SOL     OW37357   4.539   3.629  16.966 -0.0887 -0.1599  0.2769
 8633SOL    HW137358   4.496   3.557  17.011  1.3378  0.4765  2.6787
 8633SOL    HW237359   4.500   3.706  17.009  0.8157 -0.4879  1.7072
 8634SOL     OW37360   0.046   1.724   1.889 -0.3754 -0.0919  0.2752
 8634SOL    HW137361   4.720   1.796   1.925 -2.5620 -1.9885  1.0069
 8634SOL    HW237362   0.068   1.757   1.802 -0.2331 -0.8418  0.0277
 8635SOL     OW37363   0.253   4.297   0.945 -0.0377 -0.0585  1.3476
 8635SOL    HW137364   0.317   4.366   0.930 -2.0161  1.7490  1.1643
 8635SOL    HW237365   0.207   4.338   1.019 -0.1374  3.2417 -0.5768
 8636SOL     OW37366   0.919   1.058   4.682 -0.0185  0.4406  0.5263
 8636SOL    HW137367   0.939   1.028   4.593  0.2273 -1.9348  1.3918
 8636SOL    HW237368   1.005   1.084   4.715  1.5161 -0.9496 -2.3622
 8637SOL     OW37369   2.059   1.668   8.130 -0.2863 -0.0426 -0.3907
 8637SOL    HW137370   2.029   1.606   8.197  0.1384 -1.3562 -1.4098
 8637SOL    HW237371   2.011   1.632   8.056 -0.7592  0.3327 -0.2723
 8638SOL     OW37372   3.000   1.194   8.537  0.2321  0.0816  0.0140
 8638SOL    HW137373   2.964   1.227   8.619  1.5520 -0.7610  0.9297
 8638SOL    HW237374   3.050   1.119   8.570  0.1296 -0.2857 -0.6668
 8639SOL     OW37375   2.566   0.026   7.522  0.2644 -0.4065 -0.1937
 8639SOL    HW137376   2.649   0.006   7.480  0.1859  0.4771 -0.7795
 8639SOL    HW237377   2.556   0.120   7.504 -2.3001 -0.3580  1.4764
 8640SOL     OW37378   0.077   4.584  17.577  0.3391  0.6757 -0.3217
 8640SOL    HW137379   0.062   4.498  17.536 -2.1487  1.5798 -1.3494
 8640SOL    HW237380   0.170   4.573  17.595  0.3467 -0.0745 -0.7818
 8641SOL     OW37381   1.406   0.423  10.010  0.4331  1.0161 -0.0937
 8641SOL    HW137382   1.319   0.395   9.984 -0.2378  1.5667  1.5465
 8641SOL    HW237383   1.440   0.434   9.921  0.0058 -2.8183 -0.7322
 8642SOL     OW37384   0.955   4.519   7.709  0.7012 -0.1827  0.3698
 8642SOL    HW137385   0.931   4.596   7.760 -2.1960 -1.0900  0.4185
 8642SOL    HW237386   0.951   4.455   7.781  0.1970  0.7579  1.1780
 8643SOL     OW37387   4.615   3.414  15.154  0.6928 -0.1680  0.9527
 8643SOL    HW137388   4.577   3.381  15.073  0.5952  0.6584  0.6638
 8643SOL    HW237389   4.636   3.330  15.197  0.4404 -0.4949  0.4319
 8644SOL     OW37390   0.337   0.457  10.867  0.2040  0.0431 -0.6549
 8644SOL    HW137391   0.354   0.550  10.849 -1.1374  0.3504 -0.2905
 8644SOL    HW237392   0.426   0.422  10.860  0.6063  0.9903 -0.2578
 8645SOL     OW37393   0.511   4.568   7.435 -0.5157  0.0863 -0.5260
 8645SOL    HW137394   0.438   4.625   7.458  0.4396  0.5136  1.4573
 8645SOL    HW237395   0.470   4.485   7.458  0.3388 -0.5955 -1.4199
 8646SOL     OW37396   0.454   2.582   6.268  0.3396 -0.1271 -0.3289
 8646SOL    HW137397   0.399   2.656   6.292  0.9016  0.4909 -0.9559
 8646SOL    HW237398   0.499   2.573   6.353  0.3921  0.4306 -0.3027
 8647SOL     OW37399   2.078   3.954  11.817  0.0230 -0.2154 -0.4320
 8647SOL    HW137400   2.000   3.929  11.767  0.7550 -2.2117 -0.5733
 8647SOL    HW237401   2.038   4.027  11.864 -0.6284  0.3143 -1.8273
 8648SOL     OW37402   3.460   1.096   4.001  0.0748  0.0957  0.1096
 8648SOL    HW137403   3.485   1.177   4.046  0.3344 -0.2631  0.6156
 8648SOL    HW237404   3.534   1.035   4.011 -1.8143 -1.9365  1.6921
 8649SOL     OW37405   3.245   1.209   2.995 -0.1183  1.2665 -0.4546
 8649SOL    HW137406   3.192   1.209   2.915 -0.7141 -0.1790 -0.0625
 8649SOL    HW237407   3.323   1.257   2.970  0.3618  0.4593 -0.5180
 8650SOL     OW37408   1.503   0.866   7.885  0.2962  0.1068 -0.1559
 8650SOL    HW137409   1.492   0.939   7.824 -0.0117  0.4871  0.3570
 8650SOL    HW237410   1.586   0.828   7.857 -0.1890 -0.7127 -0.4816
 8651SOL     OW37411   4.251   0.903  10.469  0.1108 -0.6554 -0.0311
 8651SOL    HW137412   4.231   0.952  10.549  0.1347 -0.9341  0.1463
 8651SOL    HW237413   4.221   0.962  10.400 -0.5603  0.8416  1.5364
 8652SOL     OW37414   2.756   4.119   5.901  0.3635  0.3891 -0.2662
 8652SOL    HW137415   2.692   4.190   5.892 -0.4887 -0.6716 -2.5166
 8652SOL    HW237416   2.811   4.152   5.972  2.4490 -1.4956 -1.0009
 8653SOL     OW37417   2.215   0.648   1.246 -0.1012 -0.3039  0.2416
 8653SOL    HW137418   2.191   0.729   1.291 -1.8389  0.1880 -1.6085
 8653SOL    HW237419   2.254   0.595   1.316 -0.0231 -1.5212 -0.7341
 8654SOL     OW37420   4.385   2.970   3.113 -0.1165  0.4435 -0.0912
 8654SOL    HW137421   4.457   2.907   3.109 -0.1196  0.5873 -2.6277
 8654SOL    HW237422   4.326   2.934   3.179  2.1196 -0.9350  1.1705
 8655SOL     OW37423   3.324   2.315   5.234  0.6165  0.0309 -0.7061
 8655SOL    HW137424   3.284   2.275   5.157  2.0054 -0.5193 -1.1329
 8655SOL    HW237425   3.392   2.359   5.183  0.3254  0.2351 -0.9172
 8656SOL     OW37426   4.085   2.108   3.721 -0.0339 -0.6028 -0.5258
 8656SOL    HW137427   4.109   2.032   3.774 -2.1398 -1.4457 -0.8078
 8656SOL    HW237428   4.173   2.134   3.693  0.2715 -1.8254 -0.6881
 8657SOL     OW37429   3.614   3.730  16.889  0.2304  0.0313  0.1275
 8657SOL    HW137430   3.600   3.724  16.984 -0.5613 -3.0208 -0.1894
 8657SOL    HW237431   3.632   3.824  16.879  1.3654 -0.1553  0.3860
 8658SOL     OW37432   4.494   0.638   5.769  0.0804  0.3755 -0.0243
 8658SOL    HW137433   4.476   0.732   5.779  0.2893  0.5970 -1.7552
 8658SOL    HW237434   4.440   0.618   5.693  0.1697  0.7034 -0.1758
 8659SOL     OW37435   3.251   3.435   3.123 -0.1261  0.2678  0.5279
 8659SOL    HW137436   3.206   3.355   3.096 -0.5110  0.6153  0.1296
 8659SOL    HW237437   3.327   3.435   3.066  0.0913  1.2548  0.8172
 8660SOL     OW37438   1.320   0.895   6.541 -0.9244  0.1847 -0.5011
 8660SOL    HW137439   1.371   0.818   6.566 -0.4116  0.2345 -1.4242
 8660SOL    HW237440   1.238   0.876   6.587  0.3943 -1.2947  1.2505
 8661SOL     OW37441   3.099   2.009   8.002 -0.3906  0.1378 -0.1188
 8661SOL    HW137442   3.163   1.940   8.019 -0.2743  0.9406  2.8010
 8661SOL    HW237443   3.046   1.999   8.081 -1.2174  2.7339 -0.3393
 8662SOL     OW37444   3.675   0.286   5.399 -0.5248 -0.4007  0.5046
 8662SOL    HW137445   3.638   0.280   5.487  0.3380  0.8723  0.9514
 8662SOL    HW237446   3.769   0.278   5.415 -0.2401  1.8842 -0.1165
 8663SOL     OW37447   2.250   0.841   4.646  0.3501 -0.2392  0.5542
 8663SOL    HW137448   2.307   0.774   4.609  1.2250  0.1925  1.1160
 8663SOL    HW237449   2.244   0.806   4.735  2.1220 -0.1104  0.7236
 8664SOL     OW37450   4.049   3.686   5.561 -0.3718 -0.3780  0.1495
 8664SOL    HW137451   4.022   3.739   5.486 -0.3721  0.1295  0.5067
 8664SOL    HW237452   3.961   3.672   5.596 -0.7962  1.7472 -0.0696
 8665SOL     OW37453   2.978   2.156  16.015  0.1344 -0.4771 -0.5668
 8665SOL    HW137454   3.066   2.189  16.030 -0.0548 -1.0632  1.8672
 8665SOL    HW237455   2.946   2.231  15.965 -1.3975 -1.0183 -0.3920
 8666SOL     OW37456   3.550   4.396   3.434  0.5688  0.2299 -0.2566
 8666SOL    HW137457   3.475   4.444   3.400 -0.6800 -2.7115 -1.6240
 8666SOL    HW237458   3.505   4.315   3.459 -0.1542  0.2828 -1.4207
 8667SOL     OW37459   2.240   1.078   0.281  0.3346  0.0581 -0.0348
 8667SOL    HW137460   2.329   1.107   0.301 -0.2192  1.5118  0.3799
 8667SOL    HW237461   2.245   1.045   0.192  0.6233  0.8330 -0.3087
 8668SOL     OW37462   2.111   1.641   1.310 -0.1721 -0.1242 -0.1177
 8668SOL    HW137463   2.020   1.610   1.307  0.5630 -2.4189  1.2218
 8668SOL    HW237464   2.137   1.604   1.394 -1.6101  0.2748  0.5115
 8669SOL     OW37465   1.024   2.947   4.765 -0.2021  0.2855 -0.2348
 8669SOL    HW137466   1.084   2.889   4.812 -3.7025 -2.5187  0.8409
 8669SOL    HW237467   1.084   3.001   4.715  0.9391 -1.4010 -0.6893
 8670SOL     OW37468   1.332   1.358   8.772  0.1626 -0.4356  0.8335
 8670SOL    HW137469   1.412   1.379   8.724  0.0497 -2.2241 -0.1494
 8670SOL    HW237470   1.349   1.407   8.852 -1.5277  2.5157 -0.6199
 8671SOL     OW37471   4.329   0.468   2.732  0.4641  0.5646  0.6777
 8671SOL    HW137472   4.306   0.400   2.795  0.3064 -0.4137 -0.4491
 8671SOL    HW237473   4.250   0.523   2.735  0.3839  0.4612  0.3878
 8672SOL     OW37474   4.517   4.038   1.606 -0.5309  0.4162 -0.8633
 8672SOL    HW137475   4.576   4.000   1.671 -1.0445  3.0479  1.0941
 8672SOL    HW237476   4.466   3.962   1.579 -2.5257  1.9511 -1.3992
 8673SOL     OW37477   2.462   3.974   1.314 -0.2613 -0.2890  0.3942
 8673SOL    HW137478   2.502   3.984   1.400  0.6457 -0.3200 -0.0252
 8673SOL    HW237479   2.371   3.962   1.342 -0.2502  0.7059  0.8576
 8674SOL     OW37480   2.486   2.648   7.443 -0.0885 -0.0081 -0.0820
 8674SOL    HW137481   2.537   2.704   7.385 -0.2319  1.9849  1.7431
 8674SOL    HW237482   2.401   2.691   7.438 -0.2920 -0.4364 -0.3914
 8675SOL     OW37483   1.234   3.788   2.329 -0.3526  0.2509  0.1184
 8675SOL    HW137484   1.269   3.708   2.368  3.3553  1.7731 -0.1013
 8675SOL    HW237485   1.309   3.845   2.347 -0.8941  2.0981 -3.5356
 8676SOL     OW37486   0.885   0.419   5.375 -0.6605 -0.0448  0.5293
 8676SOL    HW137487   0.854   0.504   5.406  0.7241  0.4370  0.6291
 8676SOL    HW237488   0.970   0.452   5.343  0.2768 -1.0815  1.9488
 8677SOL     OW37489   0.504   1.808   4.790 -0.3086  0.0360  0.1445
 8677SOL    HW137490   0.523   1.778   4.701  0.1072 -2.6287  1.1593
 8677SOL    HW237491   0.588   1.819   4.834 -0.4560 -0.4417  0.5391
 8678SOL     OW37492   2.881   3.007   9.830 -0.3449 -0.6794  0.8456
 8678SOL    HW137493   2.891   2.962   9.914  1.6532 -1.9526 -0.0750
 8678SOL    HW237494   2.899   2.930   9.776  3.7391  1.4153 -0.7451
 8679SOL     OW37495   3.699   3.399   1.956  0.7413 -0.0826  0.2847
 8679SOL    HW137496   3.728   3.471   1.899 -0.9959  0.3474 -0.0601
 8679SOL    HW237497   3.675   3.329   1.896  2.0923  1.5266 -2.1728
 8680SOL     OW37498   4.708   0.409  11.952 -0.1057  0.1391  0.5045
 8680SOL    HW137499   4.700   0.320  11.919 -1.1431  0.5584 -0.3610
 8680SOL    HW237500   4.654   0.404  12.031 -1.9264  2.0197 -0.6106
 8681SOL     OW37501   0.640   0.303   7.833  0.6583  0.8434  0.0595
 8681SOL    HW137502   0.622   0.349   7.750  0.3741  1.1137  0.2702
 8681SOL    HW237503   0.599   0.217   7.831 -1.9185  2.0821 -0.2972
 8682SOL     OW37504   0.850   1.027   3.332 -0.1292  0.2563  0.6030
 8682SOL    HW137505   0.867   1.103   3.277  0.4834 -0.7434 -0.5840
 8682SOL    HW237506   0.930   0.975   3.328  0.2063  1.0385 -2.7367
 8683SOL     OW37507   1.415   0.095   3.012 -0.1430 -0.3803  0.2367
 8683SOL    HW137508   1.365   0.081   3.092 -0.1999 -1.3233  0.0323
 8683SOL    HW237509   1.442   0.005   2.994 -0.3801 -0.7484  1.7380
 8684SOL     OW37510   1.733   3.825   6.379  0.5496  0.7550  0.7461
 8684SOL    HW137511   1.774   3.889   6.321  1.7860 -0.4381  0.2989
 8684SOL    HW237512   1.758   3.739   6.345  0.3068  0.4948  1.2437
 8685SOL     OW37513   0.930   3.751   4.215  0.1394 -0.3112  0.1406
 8685SOL    HW137514   0.888   3.706   4.141 -0.8814 -1.6549  1.5429
 8685SOL    HW237515   0.855   3.788   4.262  0.8553  1.6058 -0.2318
 8686SOL     OW37516   2.965   2.114   8.224  0.1804  0.1277 -0.2608
 8686SOL    HW137517   2.917   2.161   8.156 -3.5838 -1.1619  1.4376
 8686SOL    HW237518   2.914   2.125   8.305 -0.0927  1.3418 -0.5989
 8687SOL     OW37519   3.792   0.898   7.994 -0.2650  0.5202 -0.1009
 8687SOL    HW137520   3.801   0.932   8.084 -0.7606  2.3197 -0.7293
 8687SOL    HW237521   3.843   0.818   8.001 -0.0789  0.6453 -0.0078
 8688SOL     OW37522   0.513   0.516   7.708  0.5156  0.0819  0.1753
 8688SOL    HW137523   0.465   0.596   7.730 -0.2271 -0.5896  1.0271
 8688SOL    HW237524   0.508   0.519   7.612  2.2797  0.4783  0.1030
 8689SOL     OW37525   4.485   3.683   2.528 -0.4149  0.1066  0.0252
 8689SOL    HW137526   4.504   3.590   2.543  0.9392  0.3863  0.0785
 8689SOL    HW237527   4.470   3.712   2.619  0.2096  1.3860 -0.2785
 8690SOL     OW37528   4.154   0.565   4.240 -0.3068  0.0952  0.2103
 8690SOL    HW137529   4.120   0.587   4.153 -1.1931 -0.8330  0.3166
 8690SOL    HW237530   4.140   0.645   4.291  2.1081 -0.5003  1.7835
 8691SOL     OW37531   3.626   4.140   6.890  0.4770  0.5190  0.1052
 8691SOL    HW137532   3.544   4.125   6.842  0.0651 -0.9206  1.2793
 8691SOL    HW237533   3.607   4.233   6.900  0.4701  0.4351  0.8448
 8692SOL     OW37534   4.591   3.106   4.173  0.2816 -0.1881  0.0173
 8692SOL    HW137535   4.506   3.074   4.202  0.7361 -0.9520  0.5179
 8692SOL    HW237536   4.661   3.050   4.206  0.5565 -0.1333 -0.4568
 8693SOL     OW37537   1.155   4.018   0.577  0.1149  0.5317  0.0127
 8693SOL    HW137538   1.108   4.090   0.620 -1.5529 -0.7393  0.3212
 8693SOL    HW237539   1.248   4.039   0.573 -0.2650  2.4041  1.1566
 8694SOL     OW37540   4.679   1.664   6.450 -0.0827  0.5025 -0.1744
 8694SOL    HW137541   4.660   1.574   6.477  2.9712  0.0693  0.5182
 8694SOL    HW237542   4.614   1.708   6.504 -0.2972  0.2477 -0.2257
 8695SOL     OW37543   1.743   3.111  15.824  0.1393 -0.1240 -0.0045
 8695SOL    HW137544   1.752   3.033  15.877 -2.4805  0.1655  0.8436
 8695SOL    HW237545   1.791   3.174  15.878  0.1745  0.8740 -1.1898
 8696SOL     OW37546   3.600   0.472   2.003 -0.2599 -0.2594 -0.4879
 8696SOL    HW137547   3.612   0.491   2.096  1.5198 -0.8265 -0.6166
 8696SOL    HW237548   3.579   0.379   2.002  0.9402 -0.5290 -0.3979
 8697SOL     OW37549   4.078   3.697   5.879 -0.4293 -0.0018  0.3113
 8697SOL    HW137550   4.012   3.726   5.942 -0.8809  1.4213 -0.8093
 8697SOL    HW237551   4.030   3.647   5.814 -0.7461  0.8469 -0.1019
 8698SOL     OW37552   3.350   3.640   5.982 -0.6429  0.1712  0.7261
 8698SOL    HW137553   3.412   3.702   6.020  2.1225 -2.0074 -0.2123
 8698SOL    HW237554   3.367   3.554   6.021 -1.2313  0.7547  2.2940
 8699SOL     OW37555   3.831   3.265   3.995  0.0150 -0.3325  0.2694
 8699SOL    HW137556   3.818   3.181   3.951 -1.0468 -0.5445  0.9752
 8699SOL    HW237557   3.925   3.272   4.007 -0.1999  1.1096  1.1310
 8700SOL     OW37558   2.105   2.754   3.583 -0.3422  0.1241 -0.2234
 8700SOL    HW137559   2.051   2.831   3.596 -0.7829 -0.0097 -1.2888
 8700SOL    HW237560   2.074   2.685   3.642 -2.1504  1.6559  0.6098
 8701SOL     OW37561   3.981   3.975   6.500  0.4478 -0.3159 -0.5386
 8701SOL    HW137562   3.950   4.015   6.419  0.5724 -2.2105 -1.5169
 8701SOL    HW237563   4.066   4.018   6.494  0.9337 -1.0934  0.6002
 8702SOL     OW37564   1.475   1.739   8.582  0.0093 -0.4993  0.4846
 8702SOL    HW137565   1.444   1.821   8.543 -0.3969 -0.9149 -0.0596
 8702SOL    HW237566   1.441   1.680   8.515  0.1512 -0.4214  0.3472
 8703SOL     OW37567   0.801   1.930   5.744 -0.1333  0.0507  0.4321
 8703SOL    HW137568   0.732   1.865   5.729 -1.3441  1.4129  0.0925
 8703SOL    HW237569   0.856   1.911   5.667 -2.5393  1.6821 -1.6945
 8704SOL     OW37570   3.870   1.120  11.342 -0.0562  0.7472 -0.2271
 8704SOL    HW137571   3.920   1.039  11.332 -1.9423 -0.3733 -0.5814
 8704SOL    HW237572   3.820   1.118  11.260  1.1463  0.1514 -0.9447
 8705SOL     OW37573   3.880   2.552   4.577 -0.4472 -0.1604  0.1084
 8705SOL    HW137574   3.843   2.557   4.665  0.4530 -1.0260  0.5290
 8705SOL    HW237575   3.842   2.467   4.555  0.3021 -1.5099  4.1763
 8706SOL     OW37576   2.613   3.815   8.781 -0.3946 -0.2441 -0.6880
 8706SOL    HW137577   2.567   3.863   8.713  0.1450  1.5147  0.1957
 8706SOL    HW237578   2.545   3.776   8.836  0.3684 -1.6185 -0.7095
 8707SOL     OW37579   3.454   2.692   6.823 -0.2117  0.3839 -0.3223
 8707SOL    HW137580   3.431   2.696   6.730 -1.0556  0.9868 -0.0849
 8707SOL    HW237581   3.400   2.759   6.864 -0.2362 -0.8869  1.7182
 8708SOL     OW37582   1.065   2.628   9.170 -0.5013  0.0019  0.3260
 8708SOL    HW137583   1.058   2.614   9.265 -1.3785 -0.5025  0.1834
 8708SOL    HW237584   1.160   2.626   9.156 -0.3788 -1.4667  1.3838
 8709SOL     OW37585   2.088   3.931   8.939 -0.1310  0.4438 -0.2894
 8709SOL    HW137586   1.995   3.934   8.916 -0.7173 -1.0513  1.8957
 8709SOL    HW237587   2.078   4.002   9.003 -0.0102 -1.0005  1.3214
 8710SOL     OW37588   3.290   2.767   4.267  0.7870 -0.2443  0.2489
 8710SOL    HW137589   3.269   2.806   4.182  0.5405 -1.8735 -0.4287
 8710SOL    HW237590   3.371   2.808   4.297  0.4032  1.4598 -0.9961
 8711SOL     OW37591   4.187   2.568   0.789  0.2072 -0.4686  0.5582
 8711SOL    HW137592   4.273   2.609   0.781 -0.2497  0.7356  1.9619
 8711SOL    HW237593   4.163   2.583   0.880 -0.0655  1.4346  0.1731
 8712SOL     OW37594   3.392   4.585   9.462  0.2613  0.0575  0.1661
 8712SOL    HW137595   3.483   4.566   9.485  0.6053  1.4797 -0.0195
 8712SOL    HW237596   3.401   4.583   9.366 -0.3594  1.5891  0.0773
 8713SOL     OW37597   1.506   0.144  14.403 -0.1646  0.1975 -0.7080
 8713SOL    HW137598   1.420   0.117  14.435  0.9514 -0.5092  1.6162
 8713SOL    HW237599   1.532   0.190  14.482  1.5468 -2.3601  0.2124
 8714SOL     OW37600   2.948   0.190  13.977  0.3976 -0.3879 -0.1629
 8714SOL    HW137601   2.924   0.137  14.053 -1.6938  0.0168 -0.5393
 8714SOL    HW237602   2.872   0.201  13.920 -0.8757  1.4767  1.9365
 8715SOL     OW37603   1.855   1.772   3.900  0.2782  0.3344 -0.0284
 8715SOL    HW137604   1.903   1.851   3.927 -1.5641  1.7433 -0.8845
 8715SOL    HW237605   1.828   1.784   3.809  1.0770 -1.6329 -0.5307
 8716SOL     OW37606   2.956   4.186   7.104  0.1561 -0.1832 -0.1688
 8716SOL    HW137607   2.970   4.112   7.164  2.8576 -0.9645 -1.7891
 8716SOL    HW237608   2.864   4.203   7.125 -0.1889 -0.4664 -1.4563
 8717SOL     OW37609   2.243   0.002   0.963  0.0994 -0.0677 -0.0046
 8717SOL    HW137610   2.326   4.682   0.948 -0.5578 -1.1902 -0.3190
 8717SOL    HW237611   2.258   0.051   1.045  1.1556  0.4066 -0.4829
 8718SOL     OW37612   2.166   3.171   6.159 -0.5146 -0.2363 -0.2458
 8718SOL    HW137613   2.175   3.076   6.158  1.5969 -0.0419  0.1376
 8718SOL    HW237614   2.195   3.183   6.069  1.6394  1.4462  0.6672
 8719SOL     OW37615   3.430   3.105  11.318  0.4316  0.3256 -0.0718
 8719SOL    HW137616   3.462   3.186  11.359 -2.4763  1.9095 -0.9576
 8719SOL    HW237617   3.484   3.110  11.239 -2.0737  0.2968 -1.7792
 8720SOL     OW37618   1.227   3.886  13.415 -0.4444 -0.2803  0.4320
 8720SOL    HW137619   1.239   3.924  13.328  1.0165 -0.7752  0.4151
 8720SOL    HW237620   1.212   3.971  13.455 -0.4596 -0.1841  0.2197
 8721SOL     OW37621   3.543   4.156   4.456 -0.2380 -0.1661  0.6282
 8721SOL    HW137622   3.475   4.156   4.524 -0.9307 -2.9375 -0.0544
 8721SOL    HW237623   3.524   4.073   4.411 -1.6972  0.1690  0.6343
 8722SOL     OW37624   0.252   3.897   1.470  0.3071 -0.3933  0.6174
 8722SOL    HW137625   0.202   3.816   1.462 -2.0635  1.1780 -0.6256
 8722SOL    HW237626   0.204   3.952   1.408 -1.7299 -4.0214 -1.0684
 8723SOL     OW37627   4.143   1.411   2.838  0.1670  0.4978  0.3279
 8723SOL    HW137628   4.216   1.419   2.900 -0.8153  0.9224  1.4360
 8723SOL    HW237629   4.193   1.388   2.760  0.5553  0.1252  0.6897
 8724SOL     OW37630   1.352   4.614   3.354 -0.2232  0.5367 -0.4235
 8724SOL    HW137631   1.300   4.634   3.276  2.2376  1.9536 -1.6979
 8724SOL    HW237632   1.317   4.677   3.418 -0.8830  0.4414 -0.6963
 8725SOL     OW37633   4.482   2.270   3.933  0.4123 -0.5547 -0.0737
 8725SOL    HW137634   4.461   2.177   3.919 -0.8793  0.1457 -2.8467
 8725SOL    HW237635   4.562   2.269   3.881  0.7726  0.2817  0.4678
 8726SOL     OW37636   2.782   3.405   6.900  0.3648 -0.3178  0.6656
 8726SOL    HW137637   2.841   3.465   6.944  0.7297  1.2284 -1.9368
 8726SOL    HW237638   2.708   3.425   6.957 -0.0316 -0.7479  0.3042
 8727SOL     OW37639   1.609   2.589   2.826  0.9507 -0.5694  0.4326
 8727SOL    HW137640   1.651   2.577   2.912  0.3350  2.5778  1.1695
 8727SOL    HW237641   1.557   2.669   2.837  2.7533  0.6398  0.1129
 8728SOL     OW37642   3.197   1.716  11.887  0.4255  0.0089  0.3659
 8728SOL    HW137643   3.280   1.716  11.936 -0.6037  0.3549  2.1125
 8728SOL    HW237644   3.146   1.710  11.968 -2.8791  0.1326 -1.7371
 8729SOL     OW37645   3.770   0.431   6.265 -0.4683  0.0466  0.5064
 8729SOL    HW137646   3.701   0.465   6.208 -1.4247 -1.4840  0.7625
 8729SOL    HW237647   3.841   0.493   6.245 -0.0897 -0.3902  0.4927
 8730SOL     OW37648   1.295   4.545   3.793  0.2099  0.3547 -0.7773
 8730SOL    HW137649   1.215   4.544   3.741  0.1160  2.4293 -0.6607
 8730SOL    HW237650   1.268   4.563   3.883 -0.3602  1.9120 -1.2654
 8731SOL     OW37651   0.341   1.033   5.687 -0.6441  0.0180  1.2502
 8731SOL    HW137652   0.313   1.068   5.603  0.5997  0.3678  0.9844
 8731SOL    HW237653   0.259   1.021   5.735 -0.2667 -0.5722  1.7608
 8732SOL     OW37654   0.927   0.583   3.399  0.4435 -0.6527  0.2821
 8732SOL    HW137655   0.833   0.592   3.409  0.5586  0.2333  0.6158
 8732SOL    HW237656   0.928   0.586   3.303 -1.0616  1.3112  0.3289
 8733SOL     OW37657   3.770   4.358  13.613  0.2688  0.3224 -0.0396
 8733SOL    HW137658   3.842   4.328  13.669  1.3508  2.8453 -0.0975
 8733SOL    HW237659   3.816   4.423  13.560  0.5315  0.2962  0.1524
 8734SOL     OW37660   1.466   0.408   6.751  0.1963 -0.1014 -0.1498
 8734SOL    HW137661   1.511   0.341   6.802  0.3884  1.6096  1.9148
 8734SOL    HW237662   1.379   0.375   6.730  0.0309  1.3749 -1.8063
 8735SOL     OW37663   4.245   2.305   8.183 -0.1412 -0.4353 -0.1940
 8735SOL    HW137664   4.169   2.361   8.169 -0.0740  0.7092  3.9205
 8735SOL    HW237665   4.250   2.249   8.106  0.4663 -0.9456  0.2151
 8736SOL     OW37666   0.313   3.994   2.318 -0.8024 -0.3079 -0.1412
 8736SOL    HW137667   0.284   3.952   2.237  4.6454 -1.3192 -1.5776
 8736SOL    HW237668   0.333   4.080   2.280  1.9167 -0.8726 -0.0226
 8737SOL     OW37669   1.951   0.940   0.549 -0.2563  0.5194  0.2661
 8737SOL    HW137670   1.962   0.853   0.511  0.2683  0.2645  0.9967
 8737SOL    HW237671   1.930   0.918   0.640 -2.1980 -2.8114 -0.9869
 8738SOL     OW37672   4.614   3.161   3.681  0.7405 -0.2265  0.9138
 8738SOL    HW137673   4.533   3.112   3.696 -0.8564  0.8517 -4.2650
 8738SOL    HW237674   4.643   3.173   3.772 -0.3795 -0.2402  1.2790
 8739SOL     OW37675   2.768   0.389  11.923  0.0194 -0.0174  0.0832
 8739SOL    HW137676   2.716   0.469  11.915  0.7913  0.4417 -0.3553
 8739SOL    HW237677   2.695   0.331  11.946 -1.4404  1.6002 -0.4619
 8740SOL     OW37678   1.449   4.015  17.388  0.0272 -0.2495 -0.3509
 8740SOL    HW137679   1.364   3.994  17.426  0.4017 -1.8962 -0.4473
 8740SOL    HW237680   1.436   3.963  17.309 -1.7936 -0.0204 -0.2080
 8741SOL     OW37681   4.482   0.683  11.015 -0.1756  0.9276  0.4253
 8741SOL    HW137682   4.407   0.626  11.001 -0.6568  1.5637  0.4027
 8741SOL    HW237683   4.545   0.612  11.024 -2.9189 -1.6582 -0.6745
 8742SOL     OW37684   1.907   1.914   4.710 -0.0809  0.0278  0.4279
 8742SOL    HW137685   1.871   1.876   4.790  0.5868  1.3304  1.3384
 8742SOL    HW237686   1.875   1.839   4.659 -1.0395  0.4426  0.4240
 8743SOL     OW37687   2.562   0.660  14.313 -0.5147 -0.1735  0.1082
 8743SOL    HW137688   2.643   0.712  14.307 -0.3550 -0.8606 -3.7225
 8743SOL    HW237689   2.536   0.647  14.222 -1.9282 -0.1374  0.5156
 8744SOL     OW37690   2.956   1.217   8.816  0.0538  0.6640  0.0677
 8744SOL    HW137691   2.947   1.135   8.865 -2.2779  2.5981  2.8508
 8744SOL    HW237692   2.881   1.267   8.847 -0.4356  1.9303 -3.1106
 8745SOL     OW37693   2.392   1.034   5.551  0.1705 -0.2683 -0.2709
 8745SOL    HW137694   2.353   0.948   5.565 -0.5628  0.2354  0.8115
 8745SOL    HW237695   2.482   1.012   5.576  0.8439  0.0902 -2.4046
 8746SOL     OW37696   1.303   2.065   4.966  0.1349 -0.4418  0.3720
 8746SOL    HW137697   1.234   2.015   4.921 -1.6704  0.9852  1.5296
 8746SOL    HW237698   1.253   2.102   5.039 -1.5353  0.4331 -1.2080
 8747SOL     OW37699   2.150   0.364  16.809 -0.1969 -0.1589 -0.2320
 8747SOL    HW137700   2.068   0.323  16.833 -0.4526  0.8872  0.7178
 8747SOL    HW237701   2.185   0.284  16.770  0.4285  0.0248 -0.0643
 8748SOL     OW37702   0.077   4.617  13.282  0.3590 -0.0121  0.5043
 8748SOL    HW137703   0.015   4.671  13.233  0.3903  1.3865  1.9560
 8748SOL    HW237704   0.127   4.571  13.216 -0.0489  0.4909 -0.1522
 8749SOL     OW37705   3.235   2.267  16.012  0.1867  0.4487  0.2157
 8749SOL    HW137706   3.288   2.188  16.007 -0.3075  0.2546 -1.8128
 8749SOL    HW237707   3.311   2.326  16.016 -1.3047  2.2988  1.5513
 8750SOL     OW37708   0.979   1.674   6.132  0.0525  0.3503  0.3189
 8750SOL    HW137709   0.970   1.662   6.226 -0.1106 -2.4342 -0.0260
 8750SOL    HW237710   0.915   1.744   6.119 -1.9883 -1.3235  1.2937
 8751SOL     OW37711   2.196   4.437  17.144  0.5169 -0.4612 -0.3323
 8751SOL    HW137712   2.171   4.522  17.181  2.0408 -1.6181  3.3701
 8751SOL    HW237713   2.280   4.427  17.189  0.3518  1.1368  0.3431
 8752SOL     OW37714   4.117   0.816   8.988  0.2382  0.0595  0.0882
 8752SOL    HW137715   4.161   0.752   8.932  1.9955  1.5273 -0.1986
 8752SOL    HW237716   4.119   0.758   9.065  3.5285  3.2806  2.4430
 8753SOL     OW37717   4.119   2.579   5.272  0.3392  0.4746  0.6803
 8753SOL    HW137718   4.083   2.496   5.243 -1.1441  1.5513 -0.5840
 8753SOL    HW237719   4.037   2.620   5.299 -0.5860 -0.3800 -0.8185
 8754SOL     OW37720   4.438   1.059   0.900 -0.0235  0.3508  0.1259
 8754SOL    HW137721   4.409   1.122   0.834  1.8666  1.0579 -0.0139
 8754SOL    HW237722   4.529   1.082   0.917 -0.4504  1.5192  0.8147
 8755SOL     OW37723   0.099   3.215   5.745  0.4123 -0.5379  0.1809
 8755SOL    HW137724   0.188   3.202   5.713 -0.3935  0.5349 -2.4334
 8755SOL    HW237725   0.100   3.141   5.807  0.9123  0.4014  1.2909
 8756SOL     OW37726   2.724   0.730   7.371 -0.4902 -0.4825  0.0079
 8756SOL    HW137727   2.801   0.779   7.400 -1.2075  0.0986  0.9308
 8756SOL    HW237728   2.703   0.680   7.450  0.3277 -0.3818  0.2818
 8757SOL     OW37729   2.884   2.343   3.625  0.2574 -0.4489 -0.4670
 8757SOL    HW137730   2.935   2.364   3.703 -1.8341 -0.5828  0.9587
 8757SOL    HW237731   2.807   2.307   3.671  1.9174 -1.5875  1.4347
 8758SOL     OW37732   3.155   2.427   9.101  0.1843 -0.5084 -0.0909
 8758SOL    HW137733   3.122   2.339   9.083 -0.3909 -0.0026 -1.5034
 8758SOL    HW237734   3.248   2.411   9.117  0.5967 -0.2991 -2.2167
 8759SOL     OW37735   4.363   1.756   8.637 -0.1947 -0.2890  0.1694
 8759SOL    HW137736   4.449   1.764   8.596  0.0762 -2.3354  0.3127
 8759SOL    HW237737   4.369   1.660   8.637  0.3254 -0.2556 -1.4279
 8760SOL     OW37738   1.997   1.804   2.041 -0.5253  0.0441 -0.4878
 8760SOL    HW137739   2.062   1.737   2.019 -1.5756 -1.3248  0.5784
 8760SOL    HW237740   1.936   1.800   1.967 -0.9649 -0.5714 -0.0812
 8761SOL     OW37741   1.875   0.565   5.201  0.0641  0.6467  0.2018
 8761SOL    HW137742   1.931   0.642   5.210 -0.2004  0.9466 -0.7760
 8761SOL    HW237743   1.849   0.580   5.111 -2.3597 -0.9255  0.6327
 8762SOL     OW37744   1.977   1.406   5.086  0.3098 -0.3053  0.0869
 8762SOL    HW137745   2.047   1.430   5.025  0.1342  0.5286  0.2068
 8762SOL    HW237746   1.984   1.313   5.106  0.0609  0.1896  2.5939
 8763SOL     OW37747   2.391   0.444   2.956 -0.1509 -0.4282 -0.1544
 8763SOL    HW137748   2.365   0.372   3.013  0.3591 -1.3208 -1.0459
 8763SOL    HW237749   2.315   0.495   2.984  0.4545  1.1373 -1.3630
 8764SOL     OW37750   4.680   1.949  12.630 -0.0562  0.2755  0.4583
 8764SOL    HW137751   0.022   2.012  12.660 -1.6826  0.9578  2.6333
 8764SOL    HW237752   4.613   1.969  12.696 -1.3897  1.9621 -1.4272
 8765SOL     OW37753   2.599   0.188   1.270 -0.1279 -0.3281 -0.3612
 8765SOL    HW137754   2.617   0.277   1.298  2.5704 -0.7728 -0.7001
 8765SOL    HW237755   2.670   0.166   1.210 -0.4927 -1.2599 -0.4538
 8766SOL     OW37756   0.996   3.229   4.383  0.1263 -0.0567  0.5826
 8766SOL    HW137757   1.061   3.168   4.418 -0.0484 -0.4005  0.3086
 8766SOL    HW237758   0.929   3.236   4.451 -0.0407 -2.0455  0.6430
 8767SOL     OW37759   2.270   3.152   5.330  0.3013  0.2592 -0.9117
 8767SOL    HW137760   2.302   3.163   5.241  1.9267  2.9487  0.0162
 8767SOL    HW237761   2.253   3.057   5.329 -1.0409  0.5033 -1.1757
 8768SOL     OW37762   4.209   4.293  17.187  0.1649  0.1462 -0.1922
 8768SOL    HW137763   4.136   4.276  17.246 -0.3390  1.2251 -0.5031
 8768SOL    HW237764   4.177   4.368  17.136  0.9628 -0.3282 -1.4034
 8769SOL     OW37765   3.342   0.553   5.344 -0.3050 -0.4493 -0.2365
 8769SOL    HW137766   3.413   0.498   5.379 -0.1997 -0.3640 -0.3135
 8769SOL    HW237767   3.271   0.534   5.404  2.1810  0.3308  2.9459
 8770SOL     OW37768   3.899   4.673   6.607  0.6377 -0.2329  0.1094
 8770SOL    HW137769   3.931   4.674   6.697 -0.3380 -0.1437  0.4497
 8770SOL    HW237770   3.826   0.011   6.600  0.5871 -0.2246  0.7357
 8771SOL     OW37771   3.106   2.085   7.484 -0.0873 -0.0157  0.1409
 8771SOL    HW137772   3.057   2.021   7.432 -0.0260 -0.6379  0.8562
 8771SOL    HW237773   3.048   2.161   7.484  0.4763  0.3973  2.1266
 8772SOL     OW37774   2.169   1.781   3.670  0.1782 -0.0520  0.2320
 8772SOL    HW137775   2.132   1.698   3.699 -1.6845  0.2350 -1.2957
 8772SOL    HW237776   2.193   1.739   3.587  0.6800  2.2141 -0.7704
 8773SOL     OW37777   3.400   1.754   7.450 -0.5319 -0.5530 -0.0571
 8773SOL    HW137778   3.362   1.670   7.478 -1.2760 -0.0396  0.4657
 8773SOL    HW237779   3.345   1.810   7.505 -1.4885  0.1708 -1.7821
 8774SOL     OW37780   2.586   4.570   3.152 -0.1927 -0.5705  0.4423
 8774SOL    HW137781   2.527   4.504   3.116  0.5084 -1.7738  1.4938
 8774SOL    HW237782   2.524   4.627   3.198 -0.5325 -0.9364  0.4369
 8775SOL     OW37783   0.157   0.914   2.693 -0.6233  0.1218 -0.2139
 8775SOL    HW137784   0.197   0.995   2.723  0.6815 -0.4000 -0.5580
 8775SOL    HW237785   0.067   0.944   2.708 -1.0687  0.2696 -3.0380
 8776SOL     OW37786   1.869   4.501   4.411  0.0180  0.0981 -0.0782
 8776SOL    HW137787   1.913   4.549   4.482 -0.8211  1.7439 -0.6562
 8776SOL    HW237788   1.943   4.444   4.391 -0.5216  0.3040 -2.6650
 8777SOL     OW37789   1.049   3.505   7.108 -0.1377  0.5227 -0.0360
 8777SOL    HW137790   1.063   3.500   7.203 -1.7340  1.5401  0.2500
 8777SOL    HW237791   1.112   3.573   7.080 -1.1599  1.5812  0.2245
 8778SOL     OW37792   0.721   4.142  13.124  0.1488  0.1033  0.0015
 8778SOL    HW137793   0.714   4.236  13.142 -3.1351  0.2933 -2.2651
 8778SOL    HW237794   0.804   4.119  13.166 -0.8243 -2.2328  0.6186
 8779SOL     OW37795   0.511   4.414   6.138  0.3416 -0.1583  0.4527
 8779SOL    HW137796   0.461   4.334   6.127  0.2642 -0.0396 -0.0801
 8779SOL    HW237797   0.582   4.395   6.077 -0.6551  2.0996 -1.4113
 8780SOL     OW37798   4.614   1.258  12.395 -0.0197  0.2488  0.0479
 8780SOL    HW137799   4.626   1.175  12.349 -2.3147  0.1683 -0.4297
 8780SOL    HW237800   4.519   1.245  12.400 -0.1578  0.9150 -0.7096
 8781SOL     OW37801   3.727   4.113   7.460  0.1865  0.0606 -0.2500
 8781SOL    HW137802   3.706   4.133   7.369 -0.5349  3.1163  0.5996
 8781SOL    HW237803   3.755   4.022   7.451 -0.3755  0.1370 -2.7921
 8782SOL     OW37804   2.918   2.907  15.441 -0.1975 -0.1709  0.0656
 8782SOL    HW137805   3.005   2.920  15.405  0.0070 -1.0958  0.2100
 8782SOL    HW237806   2.853   2.937  15.377 -0.9519 -0.7118  0.5669
 8783SOL     OW37807   2.067   1.726  12.502  0.3920  0.0483  0.3787
 8783SOL    HW137808   1.972   1.737  12.491  0.5346  2.7427  1.8401
 8783SOL    HW237809   2.084   1.795  12.566 -3.0751 -0.6666  2.0919
 8784SOL     OW37810   2.354   0.219   7.128 -0.4069 -0.2018 -0.0663
 8784SOL    HW137811   2.349   0.125   7.145  0.5403 -0.1752  0.3484
 8784SOL    HW237812   2.378   0.252   7.215  1.2566 -0.0586 -0.5906
 8785SOL     OW37813   1.061   1.698   2.476  0.1412 -0.1234  0.2448
 8785SOL    HW137814   1.156   1.686   2.480 -0.0604 -1.6211  0.6599
 8785SOL    HW237815   1.065   1.761   2.405  0.1625  2.1407  2.2548
 8786SOL     OW37816   3.434   2.044   5.615  0.1848 -0.2272  0.0576
 8786SOL    HW137817   3.471   1.956   5.622  0.8426  0.1899  1.7683
 8786SOL    HW237818   3.360   2.034   5.674 -0.7025  2.7078 -0.5313
 8787SOL     OW37819   2.619   2.489   8.321 -0.1961  0.1732  0.0807
 8787SOL    HW137820   2.627   2.534   8.405 -1.7702  0.5246  0.0359
 8787SOL    HW237821   2.707   2.482   8.284  0.6310 -0.1419  2.0842
 8788SOL     OW37822   1.743   4.691  11.107  0.0194 -0.6026  0.1660
 8788SOL    HW137823   1.779   4.697  11.019  0.0792 -0.6300  0.1889
 8788SOL    HW237824   1.815   4.642  11.145  0.7947  0.9037  0.6230
 8789SOL     OW37825   2.668   1.313   4.303 -0.0370 -0.2045  0.6696
 8789SOL    HW137826   2.743   1.330   4.360 -0.8736 -0.6422  1.9064
 8789SOL    HW237827   2.708   1.237   4.260  1.6615  0.1302  1.6526
 8790SOL     OW37828   4.293   1.016   1.469  0.5172 -0.7005  0.4476
 8790SOL    HW137829   4.329   1.073   1.401  0.0167 -1.0102 -0.0761
 8790SOL    HW237830   4.254   0.947   1.416  2.2706 -0.4505 -1.1386
 8791SOL     OW37831   2.447   3.852  15.293  0.0025  0.0099  0.3208
 8791SOL    HW137832   2.495   3.915  15.347 -0.4047  0.7216 -0.1444
 8791SOL    HW237833   2.512   3.783  15.284  0.4776  0.5601 -0.4868
 8792SOL     OW37834   1.847   4.278   8.304 -0.1245  0.3731  0.3691
 8792SOL    HW137835   1.863   4.338   8.231  0.8431 -0.1290  0.1757
 8792SOL    HW237836   1.937   4.264   8.334  0.3553  0.1252 -1.2041
 8793SOL     OW37837   1.326   3.395   7.592 -0.1881 -0.0011  0.2570
 8793SOL    HW137838   1.246   3.420   7.545 -0.4753  2.4776  2.0682
 8793SOL    HW237839   1.376   3.476   7.609  0.8698 -0.6938  0.4336
 8794SOL     OW37840   1.589   3.339   3.435 -0.1198  0.0526  0.7328
 8794SOL    HW137841   1.583   3.247   3.464 -1.8926 -0.3191 -0.8502
 8794SOL    HW237842   1.682   3.359   3.427 -0.8757  1.7666 -3.6559
 8795SOL     OW37843   2.705   0.416   6.212  0.2686 -0.7018 -0.2373
 8795SOL    HW137844   2.662   0.405   6.297  2.5043 -0.4610  0.9113
 8795SOL    HW237845   2.671   0.349   6.152  1.4409 -1.9770  0.5393
 8796SOL     OW37846   1.768   0.529  16.993 -0.5494  0.1765  0.0563
 8796SOL    HW137847   1.743   0.617  17.022 -0.7816  0.3261 -0.6154
 8796SOL    HW237848   1.693   0.501  16.940  0.3225  2.7881 -2.4807
 8797SOL     OW37849   3.265   3.304   8.133  0.0336  0.2750  0.0552
 8797SOL    HW137850   3.198   3.363   8.100 -1.1458 -0.6086  0.8519
 8797SOL    HW237851   3.229   3.300   8.222  1.2714 -0.4240  0.5322
 8798SOL     OW37852   3.017   0.512   6.514  0.0822 -0.1734 -0.2227
 8798SOL    HW137853   2.949   0.580   6.515  0.2739  0.0504 -1.5322
 8798SOL    HW237854   3.032   0.514   6.419  0.9987 -0.3590 -0.0742
 8799SOL     OW37855   1.335   3.339   8.736  0.3125 -0.0176 -0.4705
 8799SOL    HW137856   1.277   3.414   8.723 -0.8871 -0.8106  0.3311
 8799SOL    HW237857   1.286   3.269   8.692 -1.0785 -0.9706  2.5683
 8800SOL     OW37858   0.672   4.405  14.807 -0.0124 -0.4932 -0.0511
 8800SOL    HW137859   0.617   4.398  14.729  0.2002  1.7458 -0.3858
 8800SOL    HW237860   0.613   4.361  14.868 -1.0113 -0.6989 -1.1788
 8801SOL     OW37861   0.379   2.660  13.893  0.0917 -0.4108  0.2962
 8801SOL    HW137862   0.288   2.685  13.879  0.0333 -0.2747  0.9259
 8801SOL    HW237863   0.419   2.738  13.855 -0.0884  0.3909  1.7399
 8802SOL     OW37864   3.532   0.434   8.963 -0.5463  0.1701  0.3179
 8802SOL    HW137865   3.606   0.394   9.008 -1.1050 -1.8179 -0.5406
 8802SOL    HW237866   3.458   0.408   9.018 -3.0083  2.3322 -1.9528
 8803SOL     OW37867   2.440   0.694  15.577 -0.5130 -0.3056 -0.2914
 8803SOL    HW137868   2.419   0.754  15.506 -0.2069  2.1151  1.6375
 8803SOL    HW237869   2.368   0.632  15.563 -1.2138  0.7396 -1.2153
 8804SOL     OW37870   3.001   1.587  17.464  0.3704  0.3723  0.2904
 8804SOL    HW137871   3.063   1.605  17.394 -0.4229  2.5467  0.1595
 8804SOL    HW237872   2.938   1.656  17.444 -0.8736 -0.1092  2.5056
 8805SOL     OW37873   4.631   4.431  14.203 -0.3871 -0.4271  0.5472
 8805SOL    HW137874   4.536   4.441  14.210 -0.4964 -0.9977 -0.0860
 8805SOL    HW237875   4.647   4.347  14.245 -1.0207  0.0307  1.6865
 8806SOL     OW37876   3.065   3.636   8.265 -0.1773  0.4154 -0.2316
 8806SOL    HW137877   2.972   3.643   8.285 -0.2807 -0.8467 -0.2279
 8806SOL    HW237878   3.056   3.564   8.203  0.8897 -1.3775  1.6638
 8807SOL     OW37879   3.203   4.350   2.919  0.2917 -0.5247 -0.8385
 8807SOL    HW137880   3.152   4.283   2.964  0.2644  0.6082  0.8022
 8807SOL    HW237881   3.239   4.302   2.844  2.5197 -0.5957  0.2646
 8808SOL     OW37882   3.926   3.563   8.444 -0.0282  0.3243 -0.7689
 8808SOL    HW137883   3.978   3.644   8.444  1.2638 -0.5091  0.4059
 8808SOL    HW237884   3.985   3.505   8.492 -1.5773 -2.2132 -1.9419
 8809SOL     OW37885   0.216   0.490   5.314 -0.4534 -0.0319 -0.1477
 8809SOL    HW137886   0.255   0.568   5.354  1.9446 -0.7848 -1.0525
 8809SOL    HW237887   0.212   0.518   5.223 -0.6337  0.4121 -0.0067
 8810SOL     OW37888   0.928   3.025   1.413  0.4061  0.3668  0.2214
 8810SOL    HW137889   0.969   3.110   1.429  0.8671  0.2994 -0.5668
 8810SOL    HW237890   0.903   3.032   1.321 -1.0494  0.3993  0.6268
 8811SOL     OW37891   1.572   1.747   2.649  0.0253 -0.2781  0.0838
 8811SOL    HW137892   1.630   1.675   2.626 -0.7965 -1.1719  0.8346
 8811SOL    HW237893   1.632   1.822   2.645 -0.3757 -0.0411 -1.3989
 8812SOL     OW37894   0.386   0.397   5.031 -0.0045 -0.9787  0.0415
 8812SOL    HW137895   0.441   0.455   5.084  1.0696 -0.8105 -1.2509
 8812SOL    HW237896   0.319   0.458   4.998  0.4169 -0.6985 -0.3059
 8813SOL     OW37897   3.554   1.666   3.145  0.3069 -0.4597  0.1072
 8813SOL    HW137898   3.600   1.712   3.216 -0.4080  1.6295 -0.7718
 8813SOL    HW237899   3.557   1.574   3.169  0.2474 -0.3415  0.5668
 8814SOL     OW37900   0.883   1.887   8.249 -0.6414  0.7131  0.0096
 8814SOL    HW137901   0.878   1.885   8.154  2.5046 -1.0694 -0.1116
 8814SOL    HW237902   0.975   1.865   8.262 -1.1535 -2.0357 -1.0655
 8815SOL     OW37903   3.811   4.705  15.418  0.7819  0.4010 -0.1185
 8815SOL    HW137904   3.749   0.051  15.437 -0.5773 -0.9614  0.5647
 8815SOL    HW237905   3.761   4.644  15.363 -1.0342  1.2843  0.5404
 8816SOL     OW37906   4.031   3.250  16.709  0.0377 -0.2862 -0.1510
 8816SOL    HW137907   4.019   3.215  16.621 -3.1470  1.2384 -0.3312
 8816SOL    HW237908   4.007   3.174  16.760  0.9642 -0.6060 -0.1892
 8817SOL     OW37909   0.613   0.247   6.828  0.0046 -0.2081  0.3085
 8817SOL    HW137910   0.634   0.206   6.744 -0.8060  0.7155 -0.3471
 8817SOL    HW237911   0.683   0.202   6.876  0.1372 -1.1871 -0.8187
 8818SOL     OW37912   0.072   0.165   6.772  0.2965 -0.1245 -0.1979
 8818SOL    HW137913   0.040   0.095   6.829 -0.5474 -0.4212 -1.0435
 8818SOL    HW237914   0.097   0.111   6.697  0.2631  0.1355 -0.3943
 8819SOL     OW37915   3.796   1.266   8.012  0.1855  0.5448  0.7198
 8819SOL    HW137916   3.880   1.225   7.990  0.7130  1.4042  1.1669
 8819SOL    HW237917   3.821   1.336   8.072  0.8854 -2.4212  3.9203
 8820SOL     OW37918   0.639   3.754  16.615 -0.2916 -0.2523 -0.2491
 8820SOL    HW137919   0.617   3.677  16.667  0.2521  0.4587  1.0268
 8820SOL    HW237920   0.605   3.827  16.666 -1.8108 -0.1176 -1.4628
 8821SOL     OW37921   4.513   1.114   6.566  0.0471  0.2937 -0.0195
 8821SOL    HW137922   4.504   1.051   6.494 -0.4907 -0.8509  1.0425
 8821SOL    HW237923   4.497   1.061   6.645  2.5648  0.1454  0.4075
 8822SOL     OW37924   1.751   1.336   1.251 -1.0874 -0.7624 -0.0022
 8822SOL    HW137925   1.814   1.301   1.187 -0.3547  0.4627  0.0522
 8822SOL    HW237926   1.728   1.418   1.207  0.8670  0.6332  1.5760
 8823SOL     OW37927   0.402   4.013   4.315  0.0408 -0.0708  0.7545
 8823SOL    HW137928   0.312   3.986   4.296  0.1251  1.2670 -1.5794
 8823SOL    HW237929   0.397   4.106   4.292  2.5362 -0.0977  0.1813
 8824SOL     OW37930   3.681   4.616  13.311 -0.2547  0.0960 -0.7332
 8824SOL    HW137931   3.755   4.596  13.369  0.2159  2.0501 -0.6456
 8824SOL    HW237932   3.716   4.704  13.292  2.1543 -0.6458  0.2437
 8825SOL     OW37933   2.962   0.064   5.928 -0.0935  0.0461 -0.0886
 8825SOL    HW137934   3.032   4.722   5.934  2.2221  2.3652 -1.8089
 8825SOL    HW237935   2.924   0.078   6.014  2.0269 -0.1680  0.8767
 8826SOL     OW37936   1.278   1.820  15.701  0.5302  0.1829  0.3018
 8826SOL    HW137937   1.281   1.757  15.629 -0.6535  1.2630 -0.6973
 8826SOL    HW237938   1.356   1.801  15.752  1.0061  1.1444 -0.0684
 8827SOL     OW37939   0.161   3.859   7.245  0.0311  0.3657 -0.3818
 8827SOL    HW137940   0.186   3.888   7.333  1.4993 -0.6834 -0.4306
 8827SOL    HW237941   0.101   3.788   7.268  0.0553  0.1378 -1.0081
 8828SOL     OW37942   0.000   1.658   3.540  0.2899  0.0988  0.2536
 8828SOL    HW137943   0.023   1.615   3.457  1.5584  1.2969 -0.0158
 8828SOL    HW237944   0.073   1.719   3.552 -0.4862  0.6720  2.0524
 8829SOL     OW37945   0.013   4.109   1.465  0.1792 -0.0586 -0.2547
 8829SOL    HW137946   4.648   4.093   1.494 -0.3437  0.2536 -1.7292
 8829SOL    HW237947   0.042   4.129   1.554  1.0463 -3.4606  0.2145
 8830SOL     OW37948   2.987   3.881  12.070 -0.0667 -0.0497 -0.2867
 8830SOL    HW137949   2.941   3.948  12.121  1.4366 -0.3236  1.4515
 8830SOL    HW237950   2.969   3.810  12.131  0.5147  0.4587  0.4812
 8831SOL     OW37951   0.588   4.025   8.392 -0.6169 -0.4717  0.2441
 8831SOL    HW137952   0.555   4.115   8.401  0.0117 -0.3857  1.7426
 8831SOL    HW237953   0.545   3.992   8.313 -1.4048 -3.5443  1.9616
 8832SOL     OW37954   0.976   0.797  14.299  0.1608 -0.5280  0.2274
 8832SOL    HW137955   1.047   0.734  14.302  1.3625  0.8987  1.6679
 8832SOL    HW237956   0.961   0.828  14.388  0.4834 -1.3774  0.5714
 8833SOL     OW37957   0.543   3.395   7.639 -0.0196  0.5025 -0.6089
 8833SOL    HW137958   0.599   3.324   7.672 -0.1379  0.8033  0.2495
 8833SOL    HW237959   0.463   3.347   7.662 -2.0126  2.9435 -2.5549
 8834SOL     OW37960   2.899   2.312   6.059  0.2658  0.8575 -0.3829
 8834SOL    HW137961   2.909   2.217   6.055 -0.2469  0.7902 -0.0440
 8834SOL    HW237962   2.878   2.333   5.968  3.2792  0.2938 -1.2284
 8835SOL     OW37963   2.452   4.349   8.898 -0.3644  1.0262  0.7330
 8835SOL    HW137964   2.398   4.355   8.977  0.1434 -1.8145  1.3010
 8835SOL    HW237965   2.408   4.398   8.829  1.3482  2.2582  0.4974
 8836SOL     OW37966   0.130   2.699  13.420  0.0892  0.5906 -0.2439
 8836SOL    HW137967   0.106   2.685  13.512 -0.1041 -3.1869 -0.8435
 8836SOL    HW237968   0.180   2.781  13.422  0.7682  0.2124 -1.6321
 8837SOL     OW37969   1.702   4.396   0.240  1.1504 -0.1974  0.4559
 8837SOL    HW137970   1.795   4.375   0.247  1.2255 -0.1577 -0.4298
 8837SOL    HW237971   1.679   4.313   0.198  0.9521  0.6796 -1.1250
 8838SOL     OW37972   2.279   4.530   5.852  0.7046  0.2201 -0.4832
 8838SOL    HW137973   2.370   4.555   5.867  0.4025  2.4310 -2.2208
 8838SOL    HW237974   2.275   4.568   5.764 -2.1616  1.2656  0.1046
 8839SOL     OW37975   1.261   1.946   2.571  0.0363 -0.0624  0.7245
 8839SOL    HW137976   1.283   1.858   2.541  1.9646  0.8565 -0.5206
 8839SOL    HW237977   1.319   1.951   2.646  0.3227 -3.9275  0.8036
 8840SOL     OW37978   2.417   4.297   2.021  0.1493  0.2048  0.1759
 8840SOL    HW137979   2.397   4.225   2.081  0.7138 -0.6131 -0.6261
 8840SOL    HW237980   2.511   4.310   2.025  0.3382 -1.3734  0.8547
 8841SOL     OW37981   1.764   4.126   7.423 -0.5895 -0.0251 -0.0820
 8841SOL    HW137982   1.671   4.148   7.432 -0.1912  1.6669  0.0131
 8841SOL    HW237983   1.787   4.178   7.346  0.0024 -0.2069 -0.0329
 8842SOL     OW37984   2.479   2.255  16.977  0.1162  0.3495 -0.6021
 8842SOL    HW137985   2.491   2.258  17.072  1.0812 -1.7672 -0.6708
 8842SOL    HW237986   2.393   2.296  16.983 -0.1604 -0.3803  0.4076
 8843SOL     OW37987   1.193   1.976   5.759 -0.1191  0.4252  0.1775
 8843SOL    HW137988   1.143   2.023   5.826  2.1302 -0.0074  2.1377
 8843SOL    HW237989   1.177   1.891   5.799  2.0484  0.8206  1.8968
 8844SOL     OW37990   4.683   1.483   2.765 -0.2019  0.4732  0.6670
 8844SOL    HW137991   4.605   1.534   2.745 -0.2572 -1.1228 -3.1259
 8844SOL    HW237992   4.680   1.406   2.709  1.8205  1.7458 -1.1800
 8845SOL     OW37993   2.652   3.487   4.019  0.1202 -0.5490 -0.7582
 8845SOL    HW137994   2.586   3.556   4.020  0.7576  0.0663 -1.4220
 8845SOL    HW237995   2.617   3.417   4.074  1.1954 -2.1190 -2.0699
 8846SOL     OW37996   2.012   3.134  15.639 -0.2204 -0.2067  0.1050
 8846SOL    HW137997   1.942   3.083  15.680 -2.4214  0.5720 -2.7074
 8846SOL    HW237998   1.959   3.203  15.598 -1.8614 -0.1006  2.3828
 8847SOL     OW37999   4.283   0.394   3.980 -0.0231 -0.0676 -0.2945
 8847SOL    HW138000   4.378   0.400   3.987  0.0592 -0.7818 -0.8192
 8847SOL    HW238001   4.258   0.485   3.967 -0.3242  0.0552  1.1990
 8848SOL     OW38002   3.723   4.552   9.747  0.3988 -0.3027 -0.9843
 8848SOL    HW138003   3.805   4.523   9.788  1.7995  2.8615 -1.6019
 8848SOL    HW238004   3.727   4.647   9.753  1.6686 -0.4206  0.0416
 8849SOL     OW38005   3.720   3.158   2.965 -0.3142  0.3303 -0.1108
 8849SOL    HW138006   3.791   3.210   2.928 -1.6939  2.1624 -0.1992
 8849SOL    HW238007   3.688   3.116   2.885  0.0161  2.2942 -1.2912
 8850SOL     OW38008   3.788   2.507   3.252 -0.5684 -0.3326 -0.9400
 8850SOL    HW138009   3.700   2.469   3.252 -1.1682  1.0232 -1.5081
 8850SOL    HW238010   3.833   2.453   3.188  0.1097  1.9981 -2.4526
 8851SOL     OW38011   2.608   0.185   5.621  0.3459  0.2269  0.1298
 8851SOL    HW138012   2.547   0.256   5.636  0.6350  0.4699  0.1519
 8851SOL    HW238013   2.600   0.179   5.526 -1.4773 -0.9547  0.3592
 8852SOL     OW38014   2.033   1.338   7.256 -0.6260  0.1240  0.2127
 8852SOL    HW138015   2.050   1.378   7.342  0.0487 -1.2067  0.6899
 8852SOL    HW238016   2.110   1.282   7.249 -0.1846  0.8624 -0.8826
 8853SOL     OW38017   4.196   0.009  10.212 -0.0026  0.6596 -0.5204
 8853SOL    HW138018   4.120   4.689  10.250 -0.6831  2.2639 -0.0310
 8853SOL    HW238019   4.164   0.022  10.122  0.1948 -2.5009 -1.0478
 8854SOL     OW38020   0.320   1.654   3.668 -0.0823 -0.3460 -0.0267
 8854SOL    HW138021   0.388   1.587   3.678  1.7062  1.4045 -0.3612
 8854SOL    HW238022   0.278   1.654   3.754  0.5638  0.6420  0.2757
 8855SOL     OW38023   4.606   4.544   5.749  0.3966 -0.2665  0.2569
 8855SOL    HW138024   4.683   4.525   5.803 -0.3917 -1.2294  1.0706
 8855SOL    HW238025   4.633   4.505   5.666  1.0693  0.4408  0.1439
 8856SOL     OW38026   2.879   0.329   7.925  0.0705 -0.7981 -0.0724
 8856SOL    HW138027   2.948   0.287   7.976  0.2903  1.3712  1.4050
 8856SOL    HW238028   2.920   0.332   7.839 -0.7495 -0.7420 -0.4563
 8857SOL     OW38029   2.791   1.979  12.964  0.0868  0.4343  0.1311
 8857SOL    HW138030   2.711   2.004  13.011  1.6098  3.0592  1.2943
 8857SOL    HW238031   2.846   1.959  13.040 -2.2772 -2.2813  1.1517
 8858SOL     OW38032   2.747   2.702  10.332 -0.4003 -0.4300  0.7160
 8858SOL    HW138033   2.717   2.612  10.339  0.0779 -0.5599  1.1460
 8858SOL    HW238034   2.719   2.737  10.417  1.2945  1.7519  0.3858
 8859SOL     OW38035   3.719   1.237   9.171  0.1988  0.0591 -0.3473
 8859SOL    HW138036   3.783   1.308   9.169  0.3767 -0.0617  0.9358
 8859SOL    HW238037   3.767   1.168   9.216  0.6746  1.1112  0.7483
 8860SOL     OW38038   1.533   1.336   0.809 -0.1300 -0.0383 -0.3099
 8860SOL    HW138039   1.445   1.299   0.815 -1.6329  4.0844  3.1729
 8860SOL    HW238040   1.586   1.260   0.836  0.6213  1.2750  1.9148
 8861SOL     OW38041   0.481   1.822   0.693 -0.8854 -0.1175  0.2010
 8861SOL    HW138042   0.414   1.754   0.681  0.3660 -1.3982  0.4980
 8861SOL    HW238043   0.561   1.772   0.705 -1.3657 -0.7805  0.6165
 8862SOL     OW38044   4.443   1.444   2.447  0.4281  0.5370  0.4619
 8862SOL    HW138045   4.418   1.435   2.355  1.2044  1.2524  0.1775
 8862SOL    HW238046   4.539   1.444   2.448  0.4622  0.1240 -1.4780
 8863SOL     OW38047   3.073   3.648   5.676  0.3268 -0.3233 -0.1598
 8863SOL    HW138048   3.123   3.619   5.599  2.8714  1.3981  0.8419
 8863SOL    HW238049   3.137   3.666   5.744 -0.4298  1.7442  0.0248
 8864SOL     OW38050   2.815   2.029   3.549 -0.2042 -0.0028  0.0175
 8864SOL    HW138051   2.807   2.118   3.583 -2.4599  0.3935 -1.6089
 8864SOL    HW238052   2.778   2.033   3.461 -0.2787 -0.1387  0.0439
 8865SOL     OW38053   4.511   1.126   7.512  0.6250  0.4006  0.2888
 8865SOL    HW138054   4.572   1.053   7.509 -1.4551 -1.3599  0.7084
 8865SOL    HW238055   4.567   1.201   7.491 -0.7698  1.3981  0.1552
 8866SOL     OW38056   2.409   2.721   4.653 -0.4568  0.6316 -0.4703
 8866SOL    HW138057   2.478   2.711   4.719  0.2901  1.0681 -1.1887
 8866SOL    HW238058   2.459   2.769   4.587 -0.3989  1.3764  0.1079
 8867SOL     OW38059   3.711   3.009  13.755 -0.4218 -0.0198 -0.5534
 8867SOL    HW138060   3.675   2.998  13.667  0.8404 -2.1912 -0.8107
 8867SOL    HW238061   3.792   2.956  13.756 -0.6188 -0.3351 -2.5394
 8868SOL     OW38062   1.385   2.467   6.421 -0.4461  0.1952  0.3505
 8868SOL    HW138063   1.383   2.457   6.326  0.8765  0.3939  0.3039
 8868SOL    HW238064   1.305   2.418   6.439 -0.9797  0.8702 -0.1864
 8869SOL     OW38065   0.734   2.639  14.992  0.3162  0.1515  0.1278
 8869SOL    HW138066   0.821   2.612  15.018 -0.6946 -1.6216  1.6573
 8869SOL    HW238067   0.679   2.600  15.060 -1.2431  2.2309  0.0821
 8870SOL     OW38068   0.224   0.283   4.374  0.1556 -0.0383 -0.0524
 8870SOL    HW138069   0.316   0.257   4.378  0.4190  0.7776 -0.7873
 8870SOL    HW238070   0.213   0.270   4.468 -1.8253  0.4990 -0.2249
 8871SOL     OW38071   3.930   1.193   6.762  0.1862  0.1630 -0.2322
 8871SOL    HW138072   3.959   1.227   6.846  0.4334  1.1960 -0.7377
 8871SOL    HW238073   3.919   1.100   6.781 -1.6663  0.0008 -2.1418
 8872SOL     OW38074   2.847   2.167  13.399 -0.0197  0.0669 -0.2944
 8872SOL    HW138075   2.889   2.081  13.410  0.7413  0.3675 -0.8410
 8872SOL    HW238076   2.859   2.201  13.488 -0.2852 -1.2466  0.2382
 8873SOL     OW38077   1.082   1.214   4.027 -0.1519  0.7821 -0.4368
 8873SOL    HW138078   1.149   1.250   4.086  1.3224  0.2108 -1.7666
 8873SOL    HW238079   1.006   1.254   4.070  1.3930  2.4453  0.7804
 8874SOL     OW38080   4.182   2.328   4.434 -0.2000  0.1571 -0.5506
 8874SOL    HW138081   4.239   2.346   4.359  0.0586  1.4087 -0.0591
 8874SOL    HW238082   4.164   2.235   4.425 -0.1475  0.1221 -0.3062
 8875SOL     OW38083   2.519   2.685  15.270  0.1297  0.6356  0.1850
 8875SOL    HW138084   2.430   2.662  15.244 -0.1730  2.1338 -0.0907
 8875SOL    HW238085   2.489   2.684  15.361  1.0533  2.4497  0.5008
 8876SOL     OW38086   4.487   4.528   2.231 -0.8939 -0.4453 -0.6378
 8876SOL    HW138087   4.555   4.568   2.178 -1.8900  1.1898 -0.6909
 8876SOL    HW238088   4.540   4.468   2.284  1.3813  0.9644 -1.3486
 8877SOL     OW38089   2.411   2.442   3.237 -0.3678  0.1430 -0.1707
 8877SOL    HW138090   2.435   2.407   3.323  1.1635 -0.3107 -0.7753
 8877SOL    HW238091   2.483   2.430   3.174 -2.0221 -0.8272 -1.8752
 8878SOL     OW38092   1.790   1.066  10.043  0.3346 -0.6372 -0.8629
 8878SOL    HW138093   1.716   1.068  10.103  0.2686  0.2363 -0.9637
 8878SOL    HW238094   1.822   1.155  10.057 -2.3430  0.1945 -0.1233
 8879SOL     OW38095   4.518   0.557  11.704  0.0864  0.6138  0.0720
 8879SOL    HW138096   4.430   0.541  11.670  1.6072 -2.2847 -2.4869
 8879SOL    HW238097   4.562   0.477  11.731 -0.0265  0.2431 -0.8431
 8880SOL     OW38098   3.437   3.593   0.624 -0.6894  0.2081  0.2548
 8880SOL    HW138099   3.456   3.506   0.660  0.4802  0.6192  0.6371
 8880SOL    HW238100   3.345   3.584   0.599 -0.1061 -3.9262 -0.4160
 8881SOL     OW38101   3.287   1.833   3.337 -0.5060 -0.4413  0.0243
 8881SOL    HW138102   3.214   1.895   3.340  0.3674  0.5372  0.9004
 8881SOL    HW238103   3.235   1.754   3.351 -2.5858  1.3345  2.2909
 8882SOL     OW38104   3.930   1.813  11.505  0.5614  0.5017 -0.0754
 8882SOL    HW138105   3.914   1.904  11.479 -1.4780 -0.3379 -1.7232
 8882SOL    HW238106   4.005   1.787  11.452 -1.3259 -0.5126 -2.2539
 8883SOL     OW38107   2.056   1.437   4.250  0.3599 -0.0248  0.2628
 8883SOL    HW138108   2.043   1.445   4.344 -0.5010  2.5136 -0.0731
 8883SOL    HW238109   2.145   1.401   4.252  0.0876 -0.8016 -1.5265
 8884SOL     OW38110   0.672   2.249  10.219  0.1967  0.1922 -0.6257
 8884SOL    HW138111   0.698   2.195  10.144  1.5727  1.6985 -1.2066
 8884SOL    HW238112   0.751   2.246  10.274  0.2954  1.3955 -0.7195
 8885SOL     OW38113   3.131   1.253  11.816  0.1862  0.0486 -0.2420
 8885SOL    HW138114   3.127   1.341  11.779  3.0195 -0.1526 -1.0665
 8885SOL    HW238115   3.062   1.259  11.882 -1.2664  0.8268 -1.8396
 8886SOL     OW38116   2.847   1.319   5.669 -0.1852 -0.4373  0.3169
 8886SOL    HW138117   2.775   1.364   5.713 -0.5314 -1.0179  0.3481
 8886SOL    HW238118   2.889   1.396   5.631 -0.7591 -1.3639 -2.2254
 8887SOL     OW38119   0.244   0.536   3.127 -0.1601  0.5906  0.3948
 8887SOL    HW138120   0.238   0.441   3.128  0.3901  0.5485 -0.4519
 8887SOL    HW238121   0.177   0.552   3.193 -0.6979  0.1855 -0.0632
 8888SOL     OW38122   3.232   1.587   2.707 -0.3526  0.1296  0.0254
 8888SOL    HW138123   3.208   1.640   2.783 -1.5051 -0.9148  0.3858
 8888SOL    HW238124   3.158   1.597   2.647  0.3156 -2.6175 -1.2281
 8889SOL     OW38125   0.330   1.167   7.361 -0.1384 -0.0337 -0.3548
 8889SOL    HW138126   0.415   1.210   7.362 -1.5114  2.7220 -1.7163
 8889SOL    HW238127   0.310   1.197   7.272 -1.0383 -0.6646 -0.3648
 8890SOL     OW38128   0.867   0.314  16.660 -0.4232  0.4682  0.3877
 8890SOL    HW138129   0.845   0.406  16.642  1.0793  0.4231 -1.6734
 8890SOL    HW238130   0.824   0.300  16.745 -2.0578  4.0695  0.1886
 8891SOL     OW38131   2.940   3.041   4.800  0.0036  0.2425 -0.1333
 8891SOL    HW138132   3.030   3.041   4.831 -0.6172  1.7942  1.6375
 8891SOL    HW238133   2.903   3.127   4.822  0.9698  0.4198  0.7991
 8892SOL     OW38134   0.900   0.893   1.874  0.2702  0.1917  0.3019
 8892SOL    HW138135   0.858   0.971   1.909 -0.0485  0.0572  0.2119
 8892SOL    HW238136   0.823   0.855   1.831 -0.4563 -0.3423  2.1132
 8893SOL     OW38137   1.860   2.434  10.008  0.0722  0.0735  0.3647
 8893SOL    HW138138   1.930   2.432  10.073  1.6301  0.1253 -1.3110
 8893SOL    HW238139   1.783   2.453  10.061  0.1635  0.3393  0.4027
 8894SOL     OW38140   4.597   3.588   4.774  0.1830  0.1530 -0.3659
 8894SOL    HW138141   4.549   3.539   4.839  0.0570  1.5755  0.6192
 8894SOL    HW238142   4.679   3.539   4.764 -0.5121 -1.0471 -0.0863
 8895SOL     OW38143   4.610   3.786   8.931  0.5237  0.3593  0.2060
 8895SOL    HW138144   4.657   3.858   8.887 -0.7784  0.3493 -1.1908
 8895SOL    HW238145   4.535   3.835   8.965  0.9006  1.3090 -0.3157
 8896SOL     OW38146   4.001   1.268  17.568  0.2596  0.0165 -0.7064
 8896SOL    HW138147   3.915   1.276  17.527  0.1888 -0.9267 -0.7306
 8896SOL    HW238148   4.053   1.210  17.513  0.5144 -0.5035  0.0677
 8897SOL     OW38149   2.365   0.849   8.090  0.3965 -0.4232 -0.8133
 8897SOL    HW138150   2.395   0.913   8.155 -0.6126 -1.0677  0.2822
 8897SOL    HW238151   2.360   0.768   8.142 -1.8156  0.7529  0.7660
 8898SOL     OW38152   4.106   2.431   2.105  0.4856  0.6154  0.0360
 8898SOL    HW138153   4.104   2.338   2.085  0.2884  0.5310  0.4608
 8898SOL    HW238154   4.155   2.453   2.025 -0.6051  0.4862 -0.6772
 8899SOL     OW38155   3.116   1.538   3.554 -0.4472  0.0408 -0.4239
 8899SOL    HW138156   3.084   1.496   3.474 -0.2165  0.7943 -0.9116
 8899SOL    HW238157   3.120   1.628   3.522 -0.7533  0.6426  1.2504
 8900SOL     OW38158   3.769   2.942  16.882 -0.2396  0.3443  0.0290
 8900SOL    HW138159   3.736   2.857  16.911  3.7035 -0.9842  0.6402
 8900SOL    HW238160   3.733   2.999  16.950  0.5261  2.0610 -1.0132
 8901SOL     OW38161   0.639   0.691   4.540  0.2584  0.6508  0.2553
 8901SOL    HW138162   0.614   0.610   4.585 -0.6128  0.2788 -0.9083
 8901SOL    HW238163   0.726   0.698   4.579 -0.0549  1.4739  0.8145
 8902SOL     OW38164   0.842   1.075   7.494 -0.1022 -0.1333 -0.3739
 8902SOL    HW138165   0.789   1.143   7.536  0.5829 -0.6041  1.2544
 8902SOL    HW238166   0.931   1.104   7.512  0.0367 -2.5285  2.7824
 8903SOL     OW38167   4.461   2.875   3.524 -0.1799 -0.4337  0.4321
 8903SOL    HW138168   4.539   2.878   3.579 -1.3042  1.9770  1.9342
 8903SOL    HW238169   4.382   2.862   3.577  0.0217 -1.3421  0.4930
 8904SOL     OW38170   0.348   0.651  11.450  0.5548 -0.5741 -0.1574
 8904SOL    HW138171   0.400   0.651  11.530  0.4833  0.4064 -0.1190
 8904SOL    HW238172   0.267   0.621  11.491 -0.4493 -1.1022 -2.5213
 8905SOL     OW38173   0.601   1.036   1.962  0.1932 -0.4185 -0.5513
 8905SOL    HW138174   0.541   1.108   1.979  0.7534 -0.0465 -0.1326
 8905SOL    HW238175   0.564   0.981   1.894  2.0639 -0.4717 -1.5334
 8906SOL     OW38176   4.481   0.902   6.386 -0.3108 -0.0750 -0.1559
 8906SOL    HW138177   4.545   0.864   6.447  1.6844  1.6707 -1.1852
 8906SOL    HW238178   4.492   0.843   6.312  1.3358 -0.5860  0.4726
 8907SOL     OW38179   2.740   4.272   3.574  0.4807  0.1211 -0.1340
 8907SOL    HW138180   2.738   4.191   3.523 -0.4119  0.5894 -0.8304
 8907SOL    HW238181   2.721   4.338   3.507 -2.0169  0.1287  0.5931
 8908SOL     OW38182   4.525   0.573   1.231  0.3472 -0.0655  0.2044
 8908SOL    HW138183   4.532   0.578   1.326 -0.8090  0.0037  0.2811
 8908SOL    HW238184   4.515   0.663   1.201  0.1371 -0.7656 -1.8709
 8909SOL     OW38185   2.223   4.603  11.366 -0.3043  0.0592  0.2746
 8909SOL    HW138186   2.212   4.696  11.387 -0.1181  0.5794 -1.9093
 8909SOL    HW238187   2.158   4.592  11.297  1.4601 -2.0034 -1.0886
 8910SOL     OW38188   3.679   2.288   9.200 -0.0013  0.5965  0.0419
 8910SOL    HW138189   3.719   2.209   9.238 -1.1699  1.3832  2.9023
 8910SOL    HW238190   3.732   2.356   9.241  1.0776  0.4357 -1.0688
 8911SOL     OW38191   4.630   1.367   6.510  0.1945  0.5449  0.4905
 8911SOL    HW138192   4.548   1.399   6.473 -1.4642 -0.3751  3.3900
 8911SOL    HW238193   4.608   1.277   6.533 -1.3214  1.2493  1.7314
 8912SOL     OW38194   0.068   4.486   7.389  0.3554 -0.2795 -0.1476
 8912SOL    HW138195   0.146   4.441   7.422  0.0074 -0.7030  0.1002
 8912SOL    HW238196   0.012   4.488   7.466 -2.0850  0.9078 -1.9631
 8913SOL     OW38197   0.016   0.017   3.337 -0.0676  0.6858  0.3765
 8913SOL    HW138198   0.025   4.714   3.246  0.9034  0.8719  0.4228
 8913SOL    HW238199   0.041   4.659   3.378  1.5518  1.2046  0.4227
 8914SOL     OW38200   4.117   2.173   0.209  0.0847  0.1672  0.4015
 8914SOL    HW138201   4.202   2.142   0.239 -0.3493 -0.1252  1.3531
 8914SOL    HW238202   4.090   2.205   0.295 -1.9402 -0.8766  0.1602
 8915SOL     OW38203   2.698   3.991   3.792 -0.0530  0.1512  0.0216
 8915SOL    HW138204   2.704   3.941   3.872 -0.1252 -0.0821 -0.1200
 8915SOL    HW238205   2.789   3.976   3.767 -0.5883 -0.3004 -1.6698
 8916SOL     OW38206   3.534   3.837  11.912  0.5965 -0.2003 -0.1626
 8916SOL    HW138207   3.490   3.764  11.955  0.2539  1.4895  2.3266
 8916SOL    HW238208   3.516   3.812  11.821  2.2012 -1.1625 -0.2030
 8917SOL     OW38209   0.985   4.266   2.109 -0.0119  0.4028 -0.3151
 8917SOL    HW138210   0.964   4.331   2.041 -2.1996  1.0116  0.9254
 8917SOL    HW238211   1.008   4.194   2.051  0.0152  1.4696 -1.6237
 8918SOL     OW38212   3.303   1.569  16.830 -0.1243 -0.2472 -0.0524
 8918SOL    HW138213   3.251   1.521  16.894 -0.3054  1.7277  1.3067
 8918SOL    HW238214   3.376   1.599  16.886 -1.4042  0.6700  1.1271
 8919SOL     OW38215   3.741   4.394   7.511  0.3282  0.2080 -0.0907
 8919SOL    HW138216   3.756   4.304   7.484 -3.2910  0.1204 -1.8651
 8919SOL    HW238217   3.650   4.389   7.542  0.3728  0.9824  0.1813
 8920SOL     OW38218   1.703   1.126   0.898 -0.1603 -0.5502  0.4138
 8920SOL    HW138219   1.749   1.199   0.941  0.7862  0.3412 -2.1426
 8920SOL    HW238220   1.743   1.054   0.947  2.3935 -0.7293 -1.8992
 8921SOL     OW38221   3.912   2.468  10.477  0.4040 -0.1013  0.5982
 8921SOL    HW138222   3.971   2.538  10.505  1.0337 -0.4049  0.0271
 8921SOL    HW238223   3.836   2.491  10.531 -0.8795 -0.5972 -0.9713
 8922SOL     OW38224   3.087   3.917   3.669  0.4197  0.0305  0.8807
 8922SOL    HW138225   3.142   3.926   3.591 -0.6890 -0.0084  0.0999
 8922SOL    HW238226   3.131   3.843   3.711  0.2789 -0.1224  0.7608
 8923SOL     OW38227   2.728   0.352  14.335 -0.5363  0.5269  0.6935
 8923SOL    HW138228   2.716   0.265  14.297 -1.4461  1.2881 -0.7575
 8923SOL    HW238229   2.742   0.406  14.257 -1.4908 -0.4253 -0.1268
 8924SOL     OW38230   4.355   4.454   6.468 -0.2939 -0.3274 -0.2717
 8924SOL    HW138231   4.349   4.452   6.373 -0.5355 -0.7403 -0.2498
 8924SOL    HW238232   4.434   4.507   6.480  0.2818 -1.2302 -0.0277
 8925SOL     OW38233   2.996   4.178  12.649 -0.3315 -0.3006  0.4387
 8925SOL    HW138234   2.934   4.215  12.586 -0.2025  0.3903  0.7194
 8925SOL    HW238235   3.015   4.094  12.607  0.5777  0.2355 -0.2275
 8926SOL     OW38236   0.555   2.601  13.205  0.0037 -0.3907 -0.4656
 8926SOL    HW138237   0.639   2.569  13.172 -0.7041 -0.6909 -1.9906
 8926SOL    HW238238   0.504   2.521  13.217  2.0190 -1.3091  1.9420
 8927SOL     OW38239   4.207   2.823   6.260  0.5127 -0.4305 -0.3204
 8927SOL    HW138240   4.170   2.900   6.301  1.6352 -0.7261  1.2373
 8927SOL    HW238241   4.215   2.773   6.341  1.9840  2.0995  1.0788
 8928SOL     OW38242   1.832   3.261   6.785 -0.3040  0.1988  0.3279
 8928SOL    HW138243   1.916   3.300   6.810  0.0655 -0.1218 -0.4060
 8928SOL    HW238244   1.772   3.333   6.802 -1.5632 -1.0085  0.9015
 8929SOL     OW38245   2.474   4.446  17.241  0.1105 -0.3721 -0.1757
 8929SOL    HW138246   2.478   4.424  17.148  0.6671 -0.2407 -0.1846
 8929SOL    HW238247   2.514   4.367  17.276  0.7807  0.5329  1.1127
 8930SOL     OW38248   3.972   1.855   1.940 -0.1335  0.0983 -0.4710
 8930SOL    HW138249   3.909   1.783   1.933  1.2230 -1.0225 -1.2853
 8930SOL    HW238250   4.004   1.864   2.030 -2.2326 -0.3434  0.3001
 8931SOL     OW38251   1.571   4.677  17.532 -0.3838  0.4174 -0.7097
 8931SOL    HW138252   1.535   4.593  17.561  0.2604  0.7104  0.9586
 8931SOL    HW238253   1.617   4.659  17.450 -0.5691 -2.5105 -0.1691
 8932SOL     OW38254   3.501   2.326   3.834  0.0609  0.2181 -0.3117
 8932SOL    HW138255   3.460   2.401   3.878 -0.4175  0.3349 -0.9645
 8932SOL    HW238256   3.567   2.315   3.903 -2.1688 -0.2975  1.7546
 8933SOL     OW38257   1.039   2.769  15.281  0.1366 -0.2033  0.3373
 8933SOL    HW138258   1.066   2.755  15.190 -1.5102  0.5836 -0.2721
 8933SOL    HW238259   1.105   2.746  15.346 -0.0558 -1.1211  0.2061
 8934SOL     OW38260   0.349   3.743  11.224  0.4063  0.4671  0.5147
 8934SOL    HW138261   0.323   3.655  11.249 -1.1046  0.7994  0.1417
 8934SOL    HW238262   0.433   3.722  11.183  0.0954 -0.1606  0.2080
 8935SOL     OW38263   1.734   0.483   6.390 -0.2700  0.0018 -0.1028
 8935SOL    HW138264   1.673   0.413   6.411  2.7460 -2.3955  0.5933
 8935SOL    HW238265   1.766   0.460   6.303  1.0272  0.2512  0.3087
 8936SOL     OW38266   1.107   0.663   2.654  0.4210  0.4654  0.3097
 8936SOL    HW138267   1.034   0.710   2.694 -0.6122 -1.3971  0.6082
 8936SOL    HW238268   1.066   0.652   2.568  1.0107  0.0896  0.0804
 8937SOL     OW38269   2.762   1.623   7.712 -0.3104 -0.3612  0.3638
 8937SOL    HW138270   2.835   1.655   7.659  0.0370 -1.7046  0.0471
 8937SOL    HW238271   2.816   1.557   7.755  2.4804  0.9656 -1.0935
 8938SOL     OW38272   2.512   3.936  11.775  0.1980 -0.6628 -0.4534
 8938SOL    HW138273   2.439   3.883  11.804  0.3065 -0.9640 -0.7318
 8938SOL    HW238274   2.474   4.007  11.724  0.1786 -0.4136 -0.0924
 8939SOL     OW38275   2.954   0.452   2.345  0.4374  0.3735  0.3568
 8939SOL    HW138276   2.881   0.399   2.378  1.3076 -0.1484  1.4567
 8939SOL    HW238277   2.924   0.538   2.317  0.3219  0.9196  2.1953
 8940SOL     OW38278   3.564   4.474   8.578 -0.0898 -0.0222 -0.3274
 8940SOL    HW138279   3.548   4.381   8.591  0.3071 -0.4252 -2.6792
 8940SOL    HW238280   3.639   4.493   8.634 -1.4604  2.2983  0.7528
 8941SOL     OW38281   4.293   0.148   9.002 -0.5523 -0.3075  0.0788
 8941SOL    HW138282   4.208   0.185   9.025  0.2034  0.7200  1.1886
 8941SOL    HW238283   4.265   0.068   8.958 -1.3334 -0.8249  1.5387
 8942SOL     OW38284   1.850   3.800  11.659  0.0660  0.5979  0.0767
 8942SOL    HW138285   1.823   3.862  11.591 -3.0478 -2.5201 -1.5246
 8942SOL    HW238286   1.895   3.739  11.600 -1.6639 -1.1218  0.5404
 8943SOL     OW38287   4.705   2.633   8.648  0.0803  0.0066  0.0751
 8943SOL    HW138288   0.064   2.679   8.638  1.2110 -2.0802  0.1159
 8943SOL    HW238289   4.688   2.625   8.554 -1.6198  2.9432  0.1052
 8944SOL     OW38290   0.528   1.214   5.009 -0.4998  0.1084 -0.5822
 8944SOL    HW138291   0.541   1.306   4.985  3.0784 -0.0442  0.8957
 8944SOL    HW238292   0.458   1.189   4.948  1.4443 -2.9037 -1.5280
 8945SOL     OW38293   4.271   0.250   2.542 -0.0693  0.2762  0.2879
 8945SOL    HW138294   4.344   0.209   2.589 -0.5720 -0.8458  0.0803
 8945SOL    HW238295   4.296   0.341   2.528  1.6697  0.1139  2.2263
 8946SOL     OW38296   1.331   3.105  13.658 -0.2845  0.3767 -0.0868
 8946SOL    HW138297   1.268   3.174  13.679 -0.3991  0.3300 -0.2784
 8946SOL    HW238298   1.298   3.079  13.572 -0.4054  0.7344 -0.1492
 8947SOL     OW38299   1.537   3.636  13.871  0.1388  0.0366  0.5130
 8947SOL    HW138300   1.619   3.675  13.841 -1.1770  1.8898 -0.6867
 8947SOL    HW238301   1.563   3.557  13.918 -1.4981 -0.1557  1.0770
 8948SOL     OW38302   3.839   4.429  17.290 -0.1492  0.3153  0.0512
 8948SOL    HW138303   3.886   4.357  17.331 -1.9908 -0.9252 -0.0101
 8948SOL    HW238304   3.797   4.448  17.374  0.7906 -0.8791  0.7950
 8949SOL     OW38305   1.142   0.555   3.171  0.0640  0.0091 -0.2175
 8949SOL    HW138306   1.188   0.573   3.089  1.2182 -1.1204  0.1845
 8949SOL    HW238307   1.055   0.573   3.134  0.2313 -1.1401 -1.1765
 8950SOL     OW38308   2.533   0.448   6.435 -0.5300 -0.3943  0.3046
 8950SOL    HW138309   2.443   0.460   6.404 -0.3381  0.6355  0.1525
 8950SOL    HW238310   2.564   0.538   6.442  1.3582 -0.8793 -1.5879
 8951SOL     OW38311   2.564   2.376   0.322 -0.2806 -0.4756 -0.2350
 8951SOL    HW138312   2.638   2.375   0.383 -1.4940 -0.3115  1.2284
 8951SOL    HW238313   2.546   2.284   0.302 -0.7986 -0.5226  0.4662
 8952SOL     OW38314   1.636   0.586   7.775 -0.3754 -0.2545  0.2023
 8952SOL    HW138315   1.680   0.508   7.809  2.2073  0.4328 -1.5706
 8952SOL    HW238316   1.650   0.575   7.681 -3.0432  0.2631 -0.2487
 8953SOL     OW38317   4.676   4.047   2.055  0.1670  0.0460  0.0086
 8953SOL    HW138318   4.650   4.040   2.147 -1.4036 -0.0210 -0.4514
 8953SOL    HW238319   4.607   3.995   2.014 -0.9642  0.0325  1.8906
 8954SOL     OW38320   2.908   2.568   7.383 -0.2888  0.4928 -0.3801
 8954SOL    HW138321   2.979   2.592   7.443 -1.0414  0.7403  0.4163
 8954SOL    HW238322   2.832   2.582   7.440 -0.5563 -0.0419 -0.6012
 8955SOL     OW38323   1.755   1.185   6.815  0.0271  0.4375  0.7894
 8955SOL    HW138324   1.834   1.238   6.821  0.3468  0.4768 -3.7255
 8955SOL    HW238325   1.799   1.104   6.842 -0.4971  0.0982  0.6203
 8956SOL     OW38326   2.231   2.555   4.503 -0.4126  0.2070  0.1460
 8956SOL    HW138327   2.257   2.478   4.554  1.8145 -0.8490 -2.6093
 8956SOL    HW238328   2.294   2.618   4.538  0.2431 -0.4836  0.2215
 8957SOL     OW38329   3.528   4.084   2.903  0.2449  0.2881  0.2190
 8957SOL    HW138330   3.574   4.154   2.950 -0.7664  1.5168 -0.6166
 8957SOL    HW238331   3.577   4.089   2.821 -0.6744 -0.5595 -0.3802
 8958SOL     OW38332   0.654   2.412   4.801 -0.1819  0.3790  0.0180
 8958SOL    HW138333   0.663   2.317   4.808 -0.3499  0.6267  3.3445
 8958SOL    HW238334   0.668   2.421   4.707  5.1071 -1.8628  0.5859
 8959SOL     OW38335   3.625   1.155  15.383  0.1442 -0.2487  0.7169
 8959SOL    HW138336   3.553   1.174  15.322  1.5012  0.6308 -0.6064
 8959SOL    HW238337   3.699   1.159  15.323 -1.2020 -1.2117 -1.0123
 8960SOL     OW38338   0.891   3.151   7.814 -0.1744  0.1250  0.1946
 8960SOL    HW138339   0.968   3.125   7.764 -0.2317  2.8832 -1.3475
 8960SOL    HW238340   0.929   3.154   7.902 -1.6854  1.0803  0.8106
 8961SOL     OW38341   0.448   0.621   2.017  0.4987  0.1416 -0.0763
 8961SOL    HW138342   0.544   0.620   2.021  0.6157  0.2580 -2.7799
 8961SOL    HW238343   0.417   0.616   2.108 -0.8331 -2.7808 -0.7011
 8962SOL     OW38344   2.535   1.057   4.539 -0.2450 -0.4074  0.2050
 8962SOL    HW138345   2.462   1.119   4.543 -0.0924 -0.1105 -1.5662
 8962SOL    HW238346   2.609   1.101   4.580 -0.6013  0.6738 -0.2930
 8963SOL     OW38347   4.204   4.481   3.892  0.3727  0.0836  0.0954
 8963SOL    HW138348   4.146   4.429   3.836  0.7277  2.3066 -2.3422
 8963SOL    HW238349   4.248   4.530   3.822 -2.1064  1.2594 -0.6650
 8964SOL     OW38350   2.302   0.623   8.239 -0.0687 -0.6151  0.3054
 8964SOL    HW138351   2.228   0.573   8.204  3.0380 -4.0797 -1.2236
 8964SOL    HW238352   2.377   0.565   8.230 -0.3630 -0.8175 -0.7967
 8965SOL     OW38353   4.687   1.835   6.240 -0.0154  0.0463  0.2457
 8965SOL    HW138354   0.038   1.798   6.194  0.0895  1.2737 -0.5638
 8965SOL    HW238355   4.688   1.779   6.318  0.2940 -0.7181 -0.3110
 8966SOL     OW38356   4.550   1.664   5.807 -0.2396 -0.0453  0.2772
 8966SOL    HW138357   4.463   1.639   5.777  0.2171 -0.3693 -0.7852
 8966SOL    HW238358   4.525   1.754   5.827 -2.7152 -0.9068  0.9737
 8967SOL     OW38359   2.784   1.746  12.728 -0.0596 -0.1692 -0.5764
 8967SOL    HW138360   2.690   1.740  12.710 -0.7154 -0.0435  2.8520
 8967SOL    HW238361   2.787   1.824  12.783 -0.9505 -0.0313 -0.7159
 8968SOL     OW38362   3.497   4.386   4.922 -0.3193 -0.3664  0.7555
 8968SOL    HW138363   3.555   4.388   4.998 -0.2363  0.8777  0.6467
 8968SOL    HW238364   3.499   4.477   4.894 -1.4165 -0.1281  1.4604
 8969SOL     OW38365   0.636   3.413   5.853  0.3208  0.4446  0.1670
 8969SOL    HW138366   0.574   3.373   5.913 -0.3606  1.8834  0.4126
 8969SOL    HW238367   0.642   3.348   5.783 -0.4828 -1.0153  1.4619
 8970SOL     OW38368   3.223   3.637   9.707 -0.0342  0.4405 -0.1820
 8970SOL    HW138369   3.128   3.646   9.706 -0.0604  0.1189 -0.5827
 8970SOL    HW238370   3.246   3.730   9.713 -1.1549  0.6591  0.6600
 8971SOL     OW38371   4.556   0.254   1.554  0.1977 -0.1113  0.1955
 8971SOL    HW138372   4.511   0.195   1.615  1.9034 -1.7998 -0.1797
 8971SOL    HW238373   4.509   0.337   1.558 -1.3615 -1.1099  2.1476
 8972SOL     OW38374   1.601   0.243   6.012  0.0556  0.3240  0.2564
 8972SOL    HW138375   1.602   0.155   5.975  0.0547  0.2598  0.4099
 8972SOL    HW238376   1.536   0.291   5.961  0.6482  1.3155  0.4164
 8973SOL     OW38377   0.437   4.379  11.588 -0.6808 -0.2246  0.2289
 8973SOL    HW138378   0.393   4.407  11.668 -0.1590 -1.0188  0.7890
 8973SOL    HW238379   0.527   4.364  11.617  0.3393  2.0609 -1.7430
 8974SOL     OW38380   3.431   1.288  12.276  0.0231 -0.4191 -0.1575
 8974SOL    HW138381   3.401   1.334  12.197 -0.6075  0.0416  0.3483
 8974SOL    HW238382   3.365   1.219  12.281 -0.0492 -0.2767  0.7520
 8975SOL     OW38383   4.131   1.699  15.309  0.1236 -0.1201  0.0017
 8975SOL    HW138384   4.048   1.745  15.315 -0.1174 -0.4583 -0.7049
 8975SOL    HW238385   4.171   1.717  15.394 -0.3810 -0.3094  0.2796
 8976SOL     OW38386   1.073   3.784   8.488  0.0636  0.0757  0.5667
 8976SOL    HW138387   0.990   3.752   8.523  0.3405  0.5824  1.6967
 8976SOL    HW238388   1.128   3.800   8.565  0.1442  0.4214  0.4362
 8977SOL     OW38389   2.445   3.455  10.452 -0.1681  0.0016 -0.2342
 8977SOL    HW138390   2.518   3.397  10.471  0.0458  0.3232 -0.0847
 8977SOL    HW238391   2.364   3.408  10.475  1.2806 -2.0812  0.5324
 8978SOL     OW38392   0.986   2.384   7.276 -0.1116  0.4304 -0.1851
 8978SOL    HW138393   1.013   2.472   7.302 -0.9760  0.9988 -1.2224
 8978SOL    HW238394   1.022   2.344   7.356 -1.1608 -1.3695 -0.6193
 8979SOL     OW38395   0.528   4.722   6.533 -0.0238  0.1041 -0.0796
 8979SOL    HW138396   0.570   4.686   6.454 -1.5176  0.5379 -1.0572
 8979SOL    HW238397   0.605   0.043   6.567  0.5481 -0.2951 -0.8381
 8980SOL     OW38398   0.757   3.836   8.194 -0.1725 -0.0884 -0.5977
 8980SOL    HW138399   0.707   3.891   8.134  0.6459  1.0597 -0.2389
 8980SOL    HW238400   0.804   3.902   8.246 -2.0050  1.7084 -1.2220
 8981SOL     OW38401   3.527   4.228  11.221 -0.4740 -0.3843 -0.4839
 8981SOL    HW138402   3.582   4.151  11.207 -1.9813 -1.8998  1.9422
 8981SOL    HW238403   3.554   4.277  11.144  0.6805  3.7493  2.5549
 8982SOL     OW38404   0.526   4.061  15.187 -0.3949 -0.7246  0.5129
 8982SOL    HW138405   0.498   4.093  15.101 -0.9289  2.3058  1.8335
 8982SOL    HW238406   0.466   3.987  15.196  0.9217 -1.8930 -0.2482
 8983SOL     OW38407   1.717   1.741  14.487  0.2450 -0.3160  0.2115
 8983SOL    HW138408   1.650   1.679  14.517  1.1918 -1.2408  0.3956
 8983SOL    HW238409   1.771   1.734  14.565 -0.6379 -0.4577  0.8132
 8984SOL     OW38410   3.716   0.966   0.646  0.4573 -0.4935 -0.2550
 8984SOL    HW138411   3.686   0.883   0.684 -1.7347 -0.0333 -0.9521
 8984SOL    HW238412   3.715   0.935   0.555 -0.8774 -0.5404 -0.2365
 8985SOL     OW38413   4.428   2.571   2.417  0.0922  0.2409 -0.5692
 8985SOL    HW138414   4.473   2.512   2.478  0.9057  1.8937  0.4273
 8985SOL    HW238415   4.363   2.508   2.384  0.9791 -1.1543  0.3242
 8986SOL     OW38416   0.918   0.319   4.157  0.1964  0.1149  0.2849
 8986SOL    HW138417   0.977   0.244   4.171 -0.8105 -0.5651  0.9404
 8986SOL    HW238418   0.834   0.285   4.188  0.1371 -2.0436 -2.2491
 8987SOL     OW38419   3.991   1.140   6.262  0.0243  0.2920 -0.1051
 8987SOL    HW138420   4.037   1.119   6.181  0.9935 -0.5448  0.6756
 8987SOL    HW238421   4.062   1.130   6.325  0.1096  0.2601 -0.2063
 8988SOL     OW38422   0.789   2.710   1.108 -0.7514 -0.5214  0.5342
 8988SOL    HW138423   0.774   2.632   1.055 -1.0967 -0.1981  0.1585
 8988SOL    HW238424   0.787   2.771   1.034  0.1539  0.4383  1.3041
 8989SOL     OW38425   1.470   1.672   9.900  0.2389  0.1477  0.0017
 8989SOL    HW138426   1.482   1.577   9.910  0.0968  0.0856 -0.4000
 8989SOL    HW238427   1.375   1.684   9.893 -0.0401 -2.1489 -0.2334
 8990SOL     OW38428   3.926   3.527  10.089  0.4826  0.1526  0.0115
 8990SOL    HW138429   3.845   3.491  10.051  0.0871  0.1514  0.8475
 8990SOL    HW238430   3.888   3.566  10.168  0.0485  1.6192 -0.9301
 8991SOL     OW38431   3.172   0.253   3.573  0.2383 -0.3823 -0.0164
 8991SOL    HW138432   3.232   0.281   3.641  3.6764  0.3029 -3.2997
 8991SOL    HW238433   3.235   0.202   3.522  0.9018  2.2202 -1.8042
 8992SOL     OW38434   0.193   0.500  14.848  0.6695 -0.1284  0.4140
 8992SOL    HW138435   0.284   0.527  14.839 -0.2047  1.7666 -2.5657
 8992SOL    HW238436   0.134   0.575  14.839  2.5994  1.3285  0.0908
 8993SOL     OW38437   0.059   4.148  16.702 -0.1070 -0.2931 -1.0308
 8993SOL    HW138438   0.058   4.053  16.707  1.1325 -0.2199  0.7837
 8993SOL    HW238439   0.000   4.171  16.774 -0.7591 -0.8786 -1.3820
 8994SOL     OW38440   2.268   1.589   0.607 -0.5213  0.3134  0.2043
 8994SOL    HW138441   2.306   1.510   0.646 -2.0107 -1.2905 -1.6243
 8994SOL    HW238442   2.252   1.637   0.688  0.3606 -0.3774  0.7911
 8995SOL     OW38443   1.126   2.550   5.388  0.0096 -0.7532  0.0873
 8995SOL    HW138444   1.117   2.532   5.295 -1.1536 -1.0387  0.2571
 8995SOL    HW238445   1.035   2.537   5.414 -0.1292 -0.9813 -0.5212
 8996SOL     OW38446   4.188   4.683   6.162 -0.6056 -0.7085  0.3427
 8996SOL    HW138447   4.192   4.701   6.255  1.3184 -2.1394  0.5381
 8996SOL    HW238448   4.238   4.601   6.154  1.1471  0.3693  0.1871
 8997SOL     OW38449   4.028   1.675   0.810 -0.2100  0.5131 -0.2204
 8997SOL    HW138450   4.053   1.630   0.891 -3.3820  0.1417  0.5529
 8997SOL    HW238451   4.112   1.715   0.786  0.5385 -1.4861 -0.9389
 8998SOL     OW38452   4.533   2.789   3.270 -0.4451 -0.5095 -0.0797
 8998SOL    HW138453   4.564   2.705   3.304  1.6653  0.4883  0.4413
 8998SOL    HW238454   4.531   2.837   3.353  1.2060  1.7510 -1.3449
 8999SOL     OW38455   3.284   2.729  16.279 -0.5122  1.0696  0.0513
 8999SOL    HW138456   3.288   2.701  16.187 -2.4863  2.9511 -0.6209
 8999SOL    HW238457   3.357   2.789  16.289 -0.4919  0.3649  4.0945
 9000SOL     OW38458   3.022   0.255   3.965 -0.3227  0.0992 -0.3537
 9000SOL    HW138459   3.011   0.329   3.907  0.5583  0.1720 -0.4318
 9000SOL    HW238460   3.111   0.274   3.997  0.0426 -1.4058 -0.4430
 9001SOL     OW38461   4.329   1.199   1.274  0.4496 -0.1667 -0.3468
 9001SOL    HW138462   4.423   1.179   1.272  0.5170 -0.0280  1.5302
 9001SOL    HW238463   4.335   1.281   1.324 -2.6583  1.1772 -2.2069
 9002SOL     OW38464   2.087   3.564   4.610 -0.2267  0.2383  0.5285
 9002SOL    HW138465   2.139   3.603   4.681 -1.7363  1.2641  1.0936
 9002SOL    HW238466   2.040   3.503   4.667 -0.5500 -1.4803 -1.6007
 9003SOL     OW38467   2.438   0.151   4.205 -0.5892  0.1819  1.0548
 9003SOL    HW138468   2.471   0.062   4.219 -2.3973 -0.3345  1.9536
 9003SOL    HW238469   2.351   0.125   4.176  0.0502 -1.1061  0.2704
 9004SOL     OW38470   2.273   2.507   2.150  0.3184  0.3625 -0.1913
 9004SOL    HW138471   2.270   2.528   2.057 -2.3642 -1.1991 -0.4874
 9004SOL    HW238472   2.198   2.552   2.189  0.9735  0.4936  0.9175
 9005SOL     OW38473   4.426   0.810  16.458 -0.0068 -0.1042  0.3105
 9005SOL    HW138474   4.496   0.793  16.395 -1.1966 -2.8576 -0.2556
 9005SOL    HW238475   4.473   0.848  16.532  1.6804 -1.4452 -0.0687
 9006SOL     OW38476   2.644   2.063   6.319 -0.4040  0.2697 -0.1287
 9006SOL    HW138477   2.621   1.971   6.308  0.4648 -0.1185  1.2669
 9006SOL    HW238478   2.629   2.099   6.232  1.3604  1.2743 -0.0230
 9007SOL     OW38479   4.141   3.094  15.772 -0.0058 -0.1999  0.5763
 9007SOL    HW138480   4.062   3.047  15.747 -1.3289  2.3824 -0.0906
 9007SOL    HW238481   4.169   3.141  15.694  1.4358 -1.5337  0.2945
 9008SOL     OW38482   4.689   3.216   8.948 -0.3353 -0.4955 -0.8582
 9008SOL    HW138483   4.693   3.307   8.917 -0.2149  0.6077  2.4072
 9008SOL    HW238484   0.039   3.172   8.906  0.7406 -0.1933  0.7195
 9009SOL     OW38485   3.225   4.307   7.005 -0.1745  0.2396  0.1316
 9009SOL    HW138486   3.131   4.293   6.997 -0.5919  3.5517 -0.8635
 9009SOL    HW238487   3.219   4.367   7.080  0.7371  1.6523 -0.9131
 9010SOL     OW38488   2.232   2.885   5.331 -0.0071  0.0979 -0.1453
 9010SOL    HW138489   2.285   2.832   5.271 -0.6045 -1.8168  1.0119
 9010SOL    HW238490   2.269   2.857   5.414 -0.2746  0.0686 -0.0367
 9011SOL     OW38491   1.054   2.877   8.555  0.5554  0.7319  0.0628
 9011SOL    HW138492   1.114   2.924   8.613 -1.1902  1.0746  1.6136
 9011SOL    HW238493   1.004   2.949   8.517 -0.2334  0.1326 -0.0379
 9012SOL     OW38494   3.442   4.454   2.179  0.2773 -1.1234 -0.4517
 9012SOL    HW138495   3.524   4.437   2.133 -0.7800 -1.5286 -2.2377
 9012SOL    HW238496   3.437   4.548   2.165  3.2387 -0.6390  1.7977
 9013SOL     OW38497   4.589   0.298   4.272  0.0289 -0.6283  0.6154
 9013SOL    HW138498   4.497   0.323   4.266 -0.2180 -1.5522  0.6134
 9013SOL    HW238499   4.633   0.370   4.317 -0.5901  0.5561 -0.6584
 9014SOL     OW38500   2.905   0.183  15.037  0.7055  0.5207  0.7024
 9014SOL    HW138501   2.869   0.186  14.949  1.0377 -1.0409  0.5210
 9014SOL    HW238502   2.986   0.132  15.037  1.0701  1.1090 -0.5204
 9015SOL     OW38503   2.777   2.705  12.027 -0.8550  0.7327 -0.3672
 9015SOL    HW138504   2.779   2.789  11.980 -0.5279  0.5426 -0.6907
 9015SOL    HW238505   2.709   2.726  12.091  0.5723  0.8413  1.1008
 9016SOL     OW38506   1.425   0.892   6.289  0.5144 -0.4504  0.1648
 9016SOL    HW138507   1.507   0.846   6.308  1.2847  0.5860 -0.6441
 9016SOL    HW238508   1.399   0.921   6.376 -1.3925  1.1163 -0.9389
 9017SOL     OW38509   1.930   0.102   5.229  0.2284 -0.1274 -0.6748
 9017SOL    HW138510   2.016   0.144   5.224  0.8884 -1.0642  2.4429
 9017SOL    HW238511   1.874   0.174   5.200  1.4551  1.1103  0.0010
 9018SOL     OW38512   3.385   0.998   3.517  0.6733 -0.7327  0.4278
 9018SOL    HW138513   3.301   0.981   3.473  0.4132  2.8169 -0.4784
 9018SOL    HW238514   3.349   1.043   3.593  2.6687 -1.4651  1.7799
 9019SOL     OW38515   2.800   0.305   8.497 -0.0830  0.5312  0.0960
 9019SOL    HW138516   2.863   0.234   8.487 -2.0675 -1.2299  0.1191
 9019SOL    HW238517   2.857   0.377   8.469 -1.1060  0.9616 -0.8978
 9020SOL     OW38518   1.841   1.085   3.449  0.5216  0.1062  0.1454
 9020SOL    HW138519   1.918   1.054   3.497  1.0217  0.5208 -0.3912
 9020SOL    HW238520   1.770   1.047   3.502  0.1254  0.6500  0.0040
 9021SOL     OW38521   2.718   2.577   8.865 -0.2142 -0.5400 -0.0892
 9021SOL    HW138522   2.699   2.563   8.957  0.7113 -2.1491 -0.1416
 9021SOL    HW238523   2.788   2.518   8.837  0.9062  1.1665 -0.9080
 9022SOL     OW38524   4.156   1.143  10.631  0.0877  0.6672 -0.3865
 9022SOL    HW138525   4.070   1.158  10.669 -0.3566  0.1196 -1.1786
 9022SOL    HW238526   4.146   1.183  10.544  1.0551  1.2625 -0.2275
 9023SOL     OW38527   4.626   3.752   6.543  0.0069 -0.5671  0.5167
 9023SOL    HW138528   4.658   3.716   6.626  1.9593 -2.2489 -0.9624
 9023SOL    HW238529   4.534   3.751   6.567  0.2343 -3.0118  1.3173
 9024SOL     OW38530   0.371   0.053   2.331  0.1702 -0.2451 -0.4054
 9024SOL    HW138531   0.288   0.005   2.331 -1.7426  3.0281 -0.1256
 9024SOL    HW238532   0.413   0.001   2.263 -0.3270 -2.1096  0.7220
 9025SOL     OW38533   2.179   1.262   9.825  0.5433  0.3144 -0.0917
 9025SOL    HW138534   2.114   1.295   9.763  0.3396 -0.2139 -0.1604
 9025SOL    HW238535   2.185   1.175   9.784  3.3235  1.2637 -1.6964
 9026SOL     OW38536   0.828   1.010   5.911 -0.7574 -0.0745  0.8871
 9026SOL    HW138537   0.892   1.063   5.958 -0.1889  0.7773 -0.8244
 9026SOL    HW238538   0.750   1.029   5.963 -2.8265 -1.0958 -1.8596
 9027SOL     OW38539   2.337   1.343  13.848 -0.2372  0.6903 -0.0084
 9027SOL    HW138540   2.270   1.404  13.816 -0.2312  0.4007 -0.5641
 9027SOL    HW238541   2.329   1.270  13.787 -0.0339 -0.4789  1.3639
 9028SOL     OW38542   1.761   2.139   8.784  0.0834  0.5602  0.2303
 9028SOL    HW138543   1.856   2.149   8.792  0.3200 -0.8198 -0.9197
 9028SOL    HW238544   1.745   2.233   8.790  0.3858  0.5786  0.8162
 9029SOL     OW38545   1.015   3.076   9.634 -0.3133 -0.2752  0.4325
 9029SOL    HW138546   1.073   3.092   9.708 -0.8894  0.8013  0.6441
 9029SOL    HW238547   0.952   3.013   9.671 -0.5830  1.1887  2.4727
 9030SOL     OW38548   4.521   2.064   0.532 -0.7117  0.0609  0.2402
 9030SOL    HW138549   4.589   2.026   0.588  1.4023  2.4417 -0.7426
 9030SOL    HW238550   4.539   2.026   0.447 -1.0013 -1.4876  0.8671
 9031SOL     OW38551   3.262   3.444   3.403 -0.1475 -0.6718  0.5004
 9031SOL    HW138552   3.342   3.396   3.423  0.9695  0.8535 -0.1942
 9031SOL    HW238553   3.250   3.433   3.309 -0.9944 -0.7014  0.6104
 9032SOL     OW38554   1.304   2.537   1.470 -0.0350  0.1444 -0.2912
 9032SOL    HW138555   1.373   2.592   1.434 -0.0523  1.3033  1.4283
 9032SOL    HW238556   1.349   2.516   1.551  1.2521 -2.0973 -1.5997
 9033SOL     OW38557   2.499   0.458   8.341 -0.6631  0.0031  0.3524
 9033SOL    HW138558   2.514   0.504   8.424  0.8951 -0.3521  0.2566
 9033SOL    HW238559   2.568   0.495   8.287 -4.0612  4.9630 -0.6908
 9034SOL     OW38560   0.026   2.542   3.880  0.1171  0.2699  0.0010
 9034SOL    HW138561   0.099   2.581   3.832 -0.9761  0.5576 -1.4314
 9034SOL    HW238562   0.019   2.602   3.954  0.6253  4.4043 -3.3017
 9035SOL     OW38563   3.773   3.420   4.246 -0.3676  0.3336  0.4941
 9035SOL    HW138564   3.776   3.375   4.162 -1.6296 -0.9965  1.1613
 9035SOL    HW238565   3.867   3.438   4.254 -0.2768 -0.4173  1.1108
 9036SOL     OW38566   3.181   0.517   2.161  0.1152  0.4572 -0.4407
 9036SOL    HW138567   3.271   0.486   2.148  0.6195 -0.0972  4.1589
 9036SOL    HW238568   3.188   0.561   2.246  2.5634  2.2969 -1.5744
 9037SOL     OW38569   4.420   0.760   2.567 -0.1172  0.4052  0.0729
 9037SOL    HW138570   4.425   0.845   2.523 -1.1125  0.5489  0.2209
 9037SOL    HW238571   4.510   0.740   2.589 -0.3287  0.1218  0.6814
 9038SOL     OW38572   0.956   3.550  16.145 -0.1319 -0.2301  0.4216
 9038SOL    HW138573   0.992   3.610  16.211 -0.2483  0.6403 -0.2998
 9038SOL    HW238574   1.019   3.479  16.151 -0.5323 -0.7618 -1.9478
 9039SOL     OW38575   4.383   2.567   6.210  0.4142  0.4323 -0.2493
 9039SOL    HW138576   4.357   2.499   6.272  1.5441 -1.9907 -2.4118
 9039SOL    HW238577   4.352   2.645   6.255 -0.6192  0.2930 -0.7096
 9040SOL     OW38578   2.473   1.012  15.895  0.1873 -0.3513 -0.2757
 9040SOL    HW138579   2.476   1.107  15.901  1.4019 -0.3376 -1.1142
 9040SOL    HW238580   2.491   0.981  15.984  1.7023 -0.7564 -0.7163
 9041SOL     OW38581   2.072   0.360   4.015 -0.5905  0.0070 -1.2794
 9041SOL    HW138582   2.120   0.434   3.979 -2.0406  0.6752 -1.8504
 9041SOL    HW238583   1.979   0.375   3.998 -0.6926  0.1371 -0.6042
 9042SOL     OW38584   4.537   2.822  13.228 -0.0359  0.2286 -0.7556
 9042SOL    HW138585   4.615   2.782  13.188  0.4113  1.9516 -1.5985
 9042SOL    HW238586   4.552   2.916  13.219  0.2348  0.0832 -1.8533
 9043SOL     OW38587   1.108   1.566   7.940  0.0321  0.1955 -1.1426
 9043SOL    HW138588   1.089   1.551   8.033 -0.2708  1.0050 -1.0734
 9043SOL    HW238589   1.149   1.652   7.934 -0.4275  0.6230  1.9662
 9044SOL     OW38590   2.182   0.372   0.592  0.0530  0.4698  0.3148
 9044SOL    HW138591   2.170   0.369   0.687 -1.2838  1.7754  0.1892
 9044SOL    HW238592   2.230   0.452   0.576 -1.7520  1.7772  1.4251
 9045SOL     OW38593   2.204   3.002  15.467 -0.2107 -0.2770  0.2143
 9045SOL    HW138594   2.138   3.037  15.528  2.0113  2.8207  0.8386
 9045SOL    HW238595   2.162   3.008  15.382 -0.6468 -0.0918  0.4404
 9046SOL     OW38596   4.531   2.799   7.752  0.3190 -0.1924  0.4695
 9046SOL    HW138597   4.443   2.768   7.732  0.9652 -2.0790  0.5260
 9046SOL    HW238598   4.575   2.804   7.667 -1.7534  1.3491 -0.5065
 9047SOL     OW38599   2.095   1.123  13.178 -0.4047 -0.0765  0.2137
 9047SOL    HW138600   2.020   1.064  13.181 -0.6938  0.1984 -1.5308
 9047SOL    HW238601   2.090   1.150  13.269 -1.0849 -1.1161  0.4924
 9048SOL     OW38602   0.964   0.960   5.366  0.4184  0.4738  0.0838
 9048SOL    HW138603   0.958   1.054   5.355 -0.6950 -0.0257 -3.4708
 9048SOL    HW238604   0.873   0.944   5.392  0.0616  0.3298 -1.2833
 9049SOL     OW38605   3.314   1.283   5.570 -0.1287  0.6409 -0.4842
 9049SOL    HW138606   3.334   1.338   5.495  0.5411  1.0771  0.0093
 9049SOL    HW238607   3.246   1.229   5.530 -1.6344  1.3988  1.0362
 9050SOL     OW38608   1.976   1.459   8.281  0.1155 -0.0030  0.3538
 9050SOL    HW138609   1.912   1.402   8.323  0.4049  0.6216  1.6645
 9050SOL    HW238610   2.024   1.390   8.234  0.9342 -0.2027  1.4715
 9051SOL     OW38611   3.997   4.420   9.157  0.2843  0.6782 -0.0922
 9051SOL    HW138612   3.967   4.463   9.237  1.2643 -0.9403  1.1273
 9051SOL    HW238613   3.917   4.398   9.109 -0.7966  0.7245  1.7283
 9052SOL     OW38614   4.203   0.562  11.072 -0.4608  0.6506  0.2669
 9052SOL    HW138615   4.129   0.506  11.098 -1.1960  1.3405 -0.3293
 9052SOL    HW238616   4.178   0.652  11.092  0.3850  0.8568  0.3928
 9053SOL     OW38617   4.688   1.786   4.054 -0.1456 -0.4700  0.6220
 9053SOL    HW138618   4.670   1.707   4.003 -2.2240  0.6691 -0.4127
 9053SOL    HW238619   4.625   1.766   4.123  1.7370  3.4246  3.4504
 9054SOL     OW38620   4.723   3.218   3.955  0.6410  0.1652  0.1900
 9054SOL    HW138621   4.683   3.152   4.011 -1.3222  0.3773 -0.9588
 9054SOL    HW238622   4.721   3.291   4.017 -1.0346  1.3013 -1.1909
 9055SOL     OW38623   3.512   4.361   6.977 -0.2781 -0.0222 -0.7667
 9055SOL    HW138624   3.508   4.455   6.958  1.6013  0.2672  0.2888
 9055SOL    HW238625   3.419   4.343   6.990 -0.3516  0.7426 -0.2320
 9056SOL     OW38626   1.947   3.506   5.313 -0.1712 -0.1069 -0.1573
 9056SOL    HW138627   1.859   3.473   5.331 -0.0357 -1.6518 -2.2905
 9056SOL    HW238628   1.948   3.599   5.337 -1.5643 -0.9487  3.1978
 9057SOL     OW38629   4.717   4.148   2.565  0.0295 -1.0557  0.2159
 9057SOL    HW138630   4.672   4.066   2.545 -0.3324 -0.4985 -1.2457
 9057SOL    HW238631   0.088   4.139   2.555  0.1863  0.3319  0.4501
 9058SOL     OW38632   0.720   1.113   2.650  0.1226 -0.0776  0.3502
 9058SOL    HW138633   0.684   1.133   2.564  1.2562 -2.4940 -0.7116
 9058SOL    HW238634   0.779   1.040   2.628  1.8661  1.1426  0.9654
 9059SOL     OW38635   0.825   0.319   3.646 -0.5589  0.2152  0.0431
 9059SOL    HW138636   0.877   0.298   3.723 -0.3610 -0.3182 -0.2374
 9059SOL    HW238637   0.781   0.234   3.634 -3.0255  1.3878  0.6365
 9060SOL     OW38638   0.499   3.720   2.013  0.1367 -0.1240 -0.4511
 9060SOL    HW138639   0.461   3.655   1.953  0.3776 -1.3718  0.7438
 9060SOL    HW238640   0.544   3.776   1.950  0.2462 -1.2546 -1.3839
 9061SOL     OW38641   1.226   1.401  12.711 -0.5122  0.4787  0.5313
 9061SOL    HW138642   1.297   1.346  12.745 -0.3198  0.9788  0.9604
 9061SOL    HW238643   1.254   1.475  12.766  0.4506  0.7692 -0.3536
 9062SOL     OW38644   0.456   1.144   5.943  0.4786 -0.1847  0.1682
 9062SOL    HW138645   0.403   1.203   5.889  1.8955  1.8537  1.0100
 9062SOL    HW238646   0.448   1.060   5.897 -2.3132  1.5467 -2.5759
 9063SOL     OW38647   0.147   2.362   3.491  0.3211  0.3585 -0.2902
 9063SOL    HW138648   0.116   2.425   3.425  0.9063  0.1371 -0.7732
 9063SOL    HW238649   0.172   2.279   3.451  0.6018  1.4200 -2.3632
 9064SOL     OW38650   0.187   1.609  15.870  0.1413  0.1109  0.1888
 9064SOL    HW138651   0.206   1.686  15.924 -1.2444 -0.4399  1.4707
 9064SOL    HW238652   0.093   1.597  15.886 -0.0137  1.9197  0.6246
 9065SOL     OW38653   2.423   3.397   4.562  0.3939  0.2905  0.2236
 9065SOL    HW138654   2.372   3.418   4.484  0.6120  1.9822  0.5337
 9065SOL    HW238655   2.419   3.301   4.562  0.1070  0.3120 -0.9092
 9066SOL     OW38656   3.495   1.384   3.078  0.5447 -0.0573 -0.4822
 9066SOL    HW138657   3.448   1.427   3.006 -1.1961  0.8769  1.1999
 9066SOL    HW238658   3.425   1.366   3.141  0.0648 -1.4567 -1.4174
 9067SOL     OW38659   2.896   2.734  13.893 -0.0137 -0.2583  0.4792
 9067SOL    HW138660   2.819   2.700  13.937  0.3592 -1.5068  0.1546
 9067SOL    HW238661   2.887   2.829  13.882  0.9763 -0.1947  0.1716
 9068SOL     OW38662   2.107   4.380  16.906 -0.0981  0.3631  0.1881
 9068SOL    HW138663   2.085   4.297  16.948  1.2462 -0.2115 -0.2481
 9068SOL    HW238664   2.143   4.421  16.984  0.7519 -0.0519  0.0176
 9069SOL     OW38665   0.017   2.028  12.380  0.0591  0.4248  0.1082
 9069SOL    HW138666   0.016   1.983  12.464 -0.7745  2.1750  1.0339
 9069SOL    HW238667   0.103   2.008  12.345 -0.0066  1.1123 -0.4620
 9070SOL     OW38668   0.012   1.058   4.281 -0.1753 -0.2066  0.1415
 9070SOL    HW138669   4.699   1.000   4.214  0.0397  1.3143 -1.2838
 9070SOL    HW238670   0.060   1.122   4.228 -1.9007  0.6069 -0.4221
 9071SOL     OW38671   2.843   0.421   7.279 -0.2289 -0.3429 -0.4223
 9071SOL    HW138672   2.799   0.421   7.364  0.9095  0.5557  0.1632
 9071SOL    HW238673   2.901   0.496   7.287  0.8129 -1.1827 -0.1529
 9072SOL     OW38674   4.597   2.586   9.453  0.3636 -0.4386  0.1527
 9072SOL    HW138675   4.676   2.639   9.446  1.5376 -2.0895  1.1459
 9072SOL    HW238676   4.542   2.644   9.507  1.3400  0.6873 -0.0706
 9073SOL     OW38677   3.130   2.390   5.390 -0.0018 -0.2709  0.4171
 9073SOL    HW138678   3.212   2.371   5.345 -0.5070  0.4571 -0.8081
 9073SOL    HW238679   3.079   2.444   5.330  0.0712 -0.0939  0.5165
 9074SOL     OW38680   0.994   0.701  11.092 -0.0266  0.0794  0.3276
 9074SOL    HW138681   1.021   0.609  11.086  1.5774  0.7054 -2.2914
 9074SOL    HW238682   0.918   0.687  11.148 -0.0770  1.0331  0.4943
 9075SOL     OW38683   3.679   2.419  15.491  0.2129 -0.0028 -0.8708
 9075SOL    HW138684   3.648   2.503  15.526 -0.0621  0.4344 -2.1529
 9075SOL    HW238685   3.759   2.440  15.442  1.5830  0.3810  1.5509
 9076SOL     OW38686   2.038   1.359   2.439  0.1132  0.3251 -0.6769
 9076SOL    HW138687   2.038   1.427   2.507  1.5604 -0.0732 -0.2804
 9076SOL    HW238688   2.030   1.406   2.356  2.4751 -1.0786 -1.7193
 9077SOL     OW38689   2.169   2.147   7.579 -0.3520 -0.4525 -0.1336
 9077SOL    HW138690   2.129   2.234   7.584 -1.8592 -1.1518 -0.2400
 9077SOL    HW238691   2.182   2.130   7.673 -1.2530  0.4001  0.1441
 9078SOL     OW38692   4.229   3.500   6.711  0.2519 -0.2499 -0.3302
 9078SOL    HW138693   4.154   3.498   6.772  2.1490  1.4000  2.0529
 9078SOL    HW238694   4.273   3.420   6.739 -0.9779 -0.9529 -0.4027
 9079SOL     OW38695   0.253   0.783   1.883 -0.0847 -0.0665 -0.0228
 9079SOL    HW138696   0.281   0.725   1.954 -0.2667  0.3747  0.4101
 9079SOL    HW238697   0.338   0.788   1.840  0.5165 -1.5561  0.9930
 9080SOL     OW38698   4.314   1.628  17.275  0.3112 -0.0930 -0.0533
 9080SOL    HW138699   4.339   1.635  17.183  2.3176  0.7871  0.5408
 9080SOL    HW238700   4.353   1.709  17.311 -0.4367  0.5774 -0.7560
 9081SOL     OW38701   3.255   2.844  12.361  0.0082 -0.2168  0.2205
 9081SOL    HW138702   3.282   2.811  12.446 -1.0059  1.1457  1.0640
 9081SOL    HW238703   3.165   2.811  12.354  0.4584 -0.8907 -2.4469
 9082SOL     OW38704   0.803   2.144   9.986  0.4267 -0.1986  0.1221
 9082SOL    HW138705   0.871   2.110  10.045  0.0309  0.9531  1.2493
 9082SOL    HW238706   0.768   2.058   9.965  1.5574 -0.0727 -2.2774
 9083SOL     OW38707   0.597   0.290   2.521 -0.1435  0.1803  0.2297
 9083SOL    HW138708   0.604   0.291   2.425 -0.2672 -1.6974  0.1932
 9083SOL    HW238709   0.532   0.357   2.541 -0.8233 -0.8608  1.5452
 9084SOL     OW38710   0.667   0.647  17.477 -0.1191  0.0814 -0.1339
 9084SOL    HW138711   0.736   0.676  17.417  2.5105 -2.7982  1.5204
 9084SOL    HW238712   0.710   0.652  17.562  2.1988 -3.5540 -1.0695
 9085SOL     OW38713   0.769   0.152   4.611  0.3044  0.2517  0.2017
 9085SOL    HW138714   0.750   0.067   4.572  1.7125  1.3748 -2.9259
 9085SOL    HW238715   0.687   0.170   4.657 -0.7925  0.7028 -1.9271
 9086SOL     OW38716   3.356   3.022  13.531  0.6457 -0.6456 -0.3461
 9086SOL    HW138717   3.450   3.024  13.548  0.6116 -0.9618 -0.1024
 9086SOL    HW238718   3.317   2.986  13.611  1.4185  0.7052  0.6342
 9087SOL     OW38719   1.884   0.552  14.399  0.9384  0.1732 -0.0711
 9087SOL    HW138720   1.977   0.574  14.391  0.5771  0.6680 -2.8431
 9087SOL    HW238721   1.888   0.460  14.423 -0.5771  0.2084  0.3193
 9088SOL     OW38722   0.243   2.863   3.507  0.6918  0.5228 -0.1881
 9088SOL    HW138723   0.256   2.769   3.517 -1.1957  0.1578 -1.0760
 9088SOL    HW238724   0.306   2.896   3.443  1.9835 -0.6133  0.5013
 9089SOL     OW38725   2.226   2.884  10.734 -0.5974  0.1843  0.5767
 9089SOL    HW138726   2.315   2.868  10.766  0.5953  0.3256 -2.6775
 9089SOL    HW238727   2.181   2.826  10.795 -0.2247  2.1728  2.7321
 9090SOL     OW38728   0.021   0.552   5.610  0.3140  0.7524  0.0890
 9090SOL    HW138729   4.668   0.511   5.571  0.6410 -0.9969  1.2692
 9090SOL    HW238730   4.714   0.577   5.697 -1.8357  0.5505 -0.6357
 9091SOL     OW38731   3.446   3.035  15.426 -0.1095  0.0716  0.3160
 9091SOL    HW138732   3.413   2.990  15.349  1.0893  0.5968 -0.5083
 9091SOL    HW238733   3.430   2.981  15.504  0.6864 -1.2442 -0.4326
 9092SOL     OW38734   2.459   0.717   4.496  0.7284  0.0361 -0.6825
 9092SOL    HW138735   2.495   0.629   4.496  0.2969 -0.1407 -0.1680
 9092SOL    HW238736   2.527   0.765   4.449  1.1947 -1.4746 -1.5434
 9093SOL     OW38737   0.338   3.745  12.020  0.4201 -0.5662 -0.3498
 9093SOL    HW138738   0.362   3.729  12.112  0.2953 -0.1209 -0.2400
 9093SOL    HW238739   0.306   3.835  12.009  1.6509  0.1063  1.4761
 9094SOL     OW38740   2.365   2.812   3.164  0.4771 -0.1751 -0.1983
 9094SOL    HW138741   2.440   2.863   3.193 -1.6048  1.1672  2.8538
 9094SOL    HW238742   2.348   2.768   3.248 -1.4876  0.9252 -0.0058
 9095SOL     OW38743   2.788   4.585   5.284  0.6902  0.4496  0.1775
 9095SOL    HW138744   2.778   4.538   5.201  0.8886  0.9948 -0.1565
 9095SOL    HW238745   2.818   4.671   5.254  1.0176  0.1124 -0.4696
 9096SOL     OW38746   3.845   3.999   6.220 -0.2185  0.1852  1.0087
 9096SOL    HW138747   3.780   4.010   6.150  0.6544  1.4637  0.4113
 9096SOL    HW238748   3.924   4.036   6.181 -0.5641 -0.3250 -0.1896
 9097SOL     OW38749   4.588   4.051  11.717  0.4298  0.3438  0.6295
 9097SOL    HW138750   4.649   4.049  11.644 -1.4827 -0.3120 -0.9694
 9097SOL    HW238751   4.568   3.959  11.735 -1.8629  0.5298 -0.8681
 9098SOL     OW38752   0.054   1.322   3.650  0.3338 -0.1224 -0.4244
 9098SOL    HW138753   0.146   1.322   3.676 -0.4846  1.5983  2.4559
 9098SOL    HW238754   0.068   1.293   3.560  1.5787 -2.6133  0.5799
 9099SOL     OW38755   2.026   1.939  13.014  1.0318  0.1536 -0.2922
 9099SOL    HW138756   2.102   1.885  12.994 -0.1093 -0.9796 -1.6218
 9099SOL    HW238757   2.054   2.028  12.998  4.0917 -0.7608 -0.0555
 9100SOL     OW38758   2.719   3.743   2.689 -0.6233 -0.2216  0.0009
 9100SOL    HW138759   2.798   3.796   2.698 -0.3065 -0.7112  0.0718
 9100SOL    HW238760   2.707   3.748   2.594  2.3872  0.1399 -0.3520
 9101SOL     OW38761   1.268   4.433   7.531  0.4517 -0.9183 -0.4286
 9101SOL    HW138762   1.259   4.394   7.618  0.0733  0.0217 -0.0494
 9101SOL    HW238763   1.243   4.525   7.535  1.9698 -0.3727 -4.2655
 9102SOL     OW38764   1.852   3.612   1.858 -0.4509 -0.3616  0.1544
 9102SOL    HW138765   1.850   3.697   1.814  1.2389  0.0801  0.9272
 9102SOL    HW238766   1.813   3.566   1.784  1.4064  0.0944 -1.1053
 9103SOL     OW38767   1.625   4.512  12.212  0.3972 -0.0075 -0.3020
 9103SOL    HW138768   1.612   4.516  12.307 -2.7059  0.1016 -0.7090
 9103SOL    HW238769   1.538   4.479  12.188  0.1191 -0.5008  1.3379
 9104SOL     OW38770   1.136   0.695   9.803 -0.6168  0.6151 -0.3691
 9104SOL    HW138771   1.105   0.611   9.769  0.8120 -0.2889  0.5679
 9104SOL    HW238772   1.230   0.681   9.807 -0.7551  0.0518  0.8074
 9105SOL     OW38773   1.069   3.829  13.951  0.2671  0.1316  0.3252
 9105SOL    HW138774   1.088   3.921  13.965 -1.6702  0.5940 -0.1436
 9105SOL    HW238775   1.156   3.800  13.923 -0.4228 -1.8500  0.1893
 9106SOL     OW38776   0.617   0.583   6.375  0.4259 -0.2478 -0.2425
 9106SOL    HW138777   0.651   0.633   6.450  0.0038 -1.2414  0.6064
 9106SOL    HW238778   0.528   0.618   6.375  0.9665  1.1591 -1.3895
 9107SOL     OW38779   1.070   3.213   7.483 -0.3362  0.5847  0.0122
 9107SOL    HW138780   1.147   3.189   7.431 -0.3338  0.6299 -0.0051
 9107SOL    HW238781   1.004   3.157   7.442  0.5400 -0.2533 -0.2875
 9108SOL     OW38782   3.607   2.610   9.310 -0.0218  0.4855 -0.0873
 9108SOL    HW138783   3.682   2.584   9.363 -1.0636 -1.8290  0.2647
 9108SOL    HW238784   3.546   2.536   9.312 -1.4346  1.6297 -1.2408
 9109SOL     OW38785   1.819   4.263  15.320  0.2228  0.1927 -0.0462
 9109SOL    HW138786   1.836   4.175  15.353 -1.1061  0.5905  1.7017
 9109SOL    HW238787   1.865   4.257  15.237 -3.4878 -0.6727 -1.9955
 9110SOL     OW38788   2.861   0.176  13.444 -0.2596  0.0511 -0.2590
 9110SOL    HW138789   2.806   0.254  13.456  1.4687  1.0211  1.4097
 9110SOL    HW238790   2.941   0.205  13.488  0.4237 -0.6610 -1.0374
 9111SOL     OW38791   3.989   3.528   4.857 -0.9502  0.1152  0.1678
 9111SOL    HW138792   4.012   3.552   4.947 -1.2782  2.0303 -0.2695
 9111SOL    HW238793   3.973   3.615   4.821  1.4935 -0.5497 -2.5738
 9112SOL     OW38794   4.006   4.267   4.051  0.4585  0.0116  0.2968
 9112SOL    HW138795   4.093   4.271   4.091  0.0513  1.6807  0.9989
 9112SOL    HW238796   4.033   4.254   3.960 -0.5455  0.6533 -0.0940
 9113SOL     OW38797   0.330   2.756   3.906  0.0593  0.5809 -0.1148
 9113SOL    HW138798   0.382   2.825   3.864  0.0054  0.0221 -1.1048
 9113SOL    HW238799   0.238   2.780   3.890 -0.1935 -1.6347 -2.0944
 9114SOL     OW38800   2.093   3.706  10.541  0.5759  0.2865  0.5498
 9114SOL    HW138801   2.003   3.736  10.550 -0.0244 -1.5094  0.6586
 9114SOL    HW238802   2.081   3.615  10.569 -1.1683  1.6849  4.3401
 9115SOL     OW38803   3.001   3.374  16.277  0.4397 -0.7008  0.1570
 9115SOL    HW138804   3.055   3.415  16.345 -0.1348 -2.4495  1.6716
 9115SOL    HW238805   3.019   3.280  16.285 -1.8674 -1.1336  0.2345
 9116SOL     OW38806   3.093   0.761   5.016 -0.4308 -0.6367  0.1147
 9116SOL    HW138807   3.120   0.738   4.927 -0.1264  0.3699 -0.0417
 9116SOL    HW238808   3.145   0.699   5.067 -1.6474 -0.7077  1.2882
 9117SOL     OW38809   2.609   3.275  13.079  0.5566  0.4406  0.0015
 9117SOL    HW138810   2.651   3.272  12.993 -0.1157 -2.8566 -0.2351
 9117SOL    HW238811   2.594   3.369  13.076 -0.8477  0.1358 -1.9396
 9118SOL     OW38812   2.428   4.408  14.535  0.1874 -0.1624 -0.0576
 9118SOL    HW138813   2.387   4.339  14.588  0.5845  0.6612  1.3236
 9118SOL    HW238814   2.512   4.369  14.510 -0.2664 -1.2344  0.0916
 9119SOL     OW38815   2.023   3.510  17.629  0.1885 -0.1812 -0.1907
 9119SOL    HW138816   2.028   3.450  17.555 -1.6405 -0.0613 -0.4032
 9119SOL    HW238817   2.025   3.445   0.001  0.7799 -1.2283 -1.1626
 9120SOL     OW38818   2.051   3.716   1.106 -0.1936  0.1942 -0.1853
 9120SOL    HW138819   2.088   3.760   1.030 -2.9362  2.5841 -0.1591
 9120SOL    HW238820   2.057   3.783   1.173  0.0395 -2.8199  2.8149
 9121SOL     OW38821   2.918   0.878  17.303  0.0097  0.5491 -0.0024
 9121SOL    HW138822   3.003   0.892  17.263 -0.4943  0.0915 -1.2189
 9121SOL    HW238823   2.938   0.834  17.386  1.5416  0.7898 -0.2584
 9122SOL     OW38824   0.740   3.669   2.182 -0.1693 -0.4565  0.4626
 9122SOL    HW138825   0.667   3.716   2.141 -0.0225 -0.9987 -0.4260
 9122SOL    HW238826   0.814   3.729   2.189 -0.9710  0.6367 -0.4524
 9123SOL     OW38827   2.358   2.407  14.489 -0.2619 -0.1924  0.3797
 9123SOL    HW138828   2.335   2.450  14.572 -1.2777 -0.4928  0.2551
 9123SOL    HW238829   2.428   2.465  14.458 -0.4080 -1.5043 -2.3662
 9124SOL     OW38830   1.879   4.326   6.510 -0.2539  0.7397  0.0660
 9124SOL    HW138831   1.847   4.329   6.420  1.4587  1.7371 -0.4985
 9124SOL    HW238832   1.962   4.365   6.486  0.6934 -1.0202  0.4705
 9125SOL     OW38833   0.378   1.904   2.204  0.2137 -0.2156  0.0733
 9125SOL    HW138834   0.299   1.945   2.239  0.7268 -2.1310  3.5167
 9125SOL    HW238835   0.341   1.816   2.190 -1.9775  0.3878  2.0653
 9126SOL     OW38836   1.493   3.891   2.394 -0.0525  0.1613 -0.0823
 9126SOL    HW138837   1.583   3.858   2.403 -0.6883 -1.6676 -0.3914
 9126SOL    HW238838   1.504   3.985   2.378  1.1653 -0.0949 -0.7158
 9127SOL     OW38839   3.318   4.602  10.062 -0.1695 -0.2127  0.1491
 9127SOL    HW138840   3.334   4.636   9.974  3.3223 -0.2227  0.7954
 9127SOL    HW238841   3.371   4.524  10.045  1.0517  0.7511 -0.4423
 9128SOL     OW38842   0.608   2.628   1.313 -0.1698 -0.0344 -0.2102
 9128SOL    HW138843   0.670   2.651   1.243  0.7558 -0.6086  0.4173
 9128SOL    HW238844   0.623   2.712   1.356  1.9283  0.2316 -1.4462
 9129SOL     OW38845   4.440   4.097   1.294  0.0505  0.6242 -0.3733
 9129SOL    HW138846   4.461   4.023   1.236 -0.0415 -0.0023  0.3825
 9129SOL    HW238847   4.421   4.052   1.376 -0.8927 -0.8800 -1.4088
 9130SOL     OW38848   0.692   1.055   8.633 -0.5700 -0.0244  0.2237
 9130SOL    HW138849   0.628   1.048   8.563 -2.0645  1.3338  1.4523
 9130SOL    HW238850   0.650   1.105   8.704 -0.9407  2.7516 -1.9778
 9131SOL     OW38851   3.634   2.992  13.499 -0.6430 -0.8619  0.2769
 9131SOL    HW138852   3.632   3.052  13.424 -2.2952 -0.9291  0.2682
 9131SOL    HW238853   3.663   2.914  13.452 -1.1366  0.7457 -2.7155
 9132SOL     OW38854   4.119   3.319   6.513  0.3209  0.1308  0.5878
 9132SOL    HW138855   4.200   3.328   6.464  0.6471  0.3667  1.1742
 9132SOL    HW238856   4.096   3.409   6.539 -1.4309 -0.2611  0.4438
 9133SOL     OW38857   1.232   3.936   5.182 -0.3418 -0.1560  0.3703
 9133SOL    HW138858   1.272   3.986   5.111 -2.0267  0.6085 -0.0507
 9133SOL    HW238859   1.290   3.860   5.182 -0.5556 -0.3339 -1.3706
 9134SOL     OW38860   3.576   2.981   7.943 -0.2756 -0.1483  0.1762
 9134SOL    HW138861   3.569   3.076   7.947  1.3885 -0.0384  0.4384
 9134SOL    HW238862   3.487   2.958   7.968 -1.3214  0.9182 -2.4988
 9135SOL     OW38863   1.570   2.897   3.209  0.1284  0.0753  0.1873
 9135SOL    HW138864   1.563   2.810   3.249 -0.0137 -0.7967 -1.7678
 9135SOL    HW238865   1.540   2.881   3.120  3.2043 -2.8932 -0.3451
 9136SOL     OW38866   0.796   3.173   2.165  0.0849  0.1172  0.0180
 9136SOL    HW138867   0.726   3.234   2.187 -0.7187  0.6059 -3.8209
 9136SOL    HW238868   0.845   3.171   2.247 -1.3704  0.3954  0.8820
 9137SOL     OW38869   2.691   2.279   7.628  0.1113 -0.1419  0.0079
 9137SOL    HW138870   2.628   2.315   7.565  0.9037  2.5747  0.7677
 9137SOL    HW238871   2.637   2.251   7.702 -1.9953  0.7226 -1.2132
 9138SOL     OW38872   1.517   3.742  10.331  0.7797 -0.2760 -0.0617
 9138SOL    HW138873   1.444   3.795  10.365 -0.7738 -1.4349 -1.5982
 9138SOL    HW238874   1.553   3.707  10.413  0.0664 -1.7214 -0.3509
 9139SOL     OW38875   4.026   1.633   0.049 -0.2140 -0.2816 -0.7161
 9139SOL    HW138876   4.000   1.720   0.019 -0.9308 -0.8457 -1.7166
 9139SOL    HW238877   4.065   1.663   0.131  0.7883 -1.6147 -0.7001
 9140SOL     OW38878   2.664   2.900  13.351 -0.0226  0.4522 -0.3408
 9140SOL    HW138879   2.664   2.844  13.429 -1.1111  0.1024 -0.5922
 9140SOL    HW238880   2.616   2.839  13.295  0.6570  0.1248 -0.5660
 9141SOL     OW38881   1.772   2.679  13.767  0.6767  0.2240  0.0383
 9141SOL    HW138882   1.715   2.642  13.834 -0.2603  1.4548 -0.0782
 9141SOL    HW238883   1.840   2.612  13.778 -0.0233 -0.1639  1.9480
 9142SOL     OW38884   1.784   1.260   2.657 -0.1239  0.6585 -0.2186
 9142SOL    HW138885   1.713   1.197   2.665  0.0274  0.5506  0.2852
 9142SOL    HW238886   1.828   1.224   2.579  0.5911  1.2668 -0.0935
 9143SOL     OW38887   2.700   4.206   7.160 -0.1477 -0.4453  0.1465
 9143SOL    HW138888   2.645   4.270   7.114  0.1756 -2.1614 -2.6140
 9143SOL    HW238889   2.688   4.134   7.098 -0.6963 -1.6324  1.6234
 9144SOL     OW38890   0.367   3.861   0.877 -0.0437  0.3171  0.1325
 9144SOL    HW138891   0.318   3.835   0.799 -1.9822 -0.7432  1.7136
 9144SOL    HW238892   0.455   3.833   0.852 -0.1075  0.2954 -0.0724
 9145SOL     OW38893   2.752   3.039   8.522  0.4864  0.1026  0.1516
 9145SOL    HW138894   2.828   3.087   8.489 -0.3972  1.7767  0.5403
 9145SOL    HW238895   2.799   2.959   8.546 -2.8602 -1.0424  2.8861
 9146SOL     OW38896   3.169   1.266  15.527 -0.2367  0.5461  0.1658
 9146SOL    HW138897   3.081   1.242  15.555  0.3763 -1.7710  0.1077
 9146SOL    HW238898   3.148   1.319  15.450  2.2042  2.4238  0.7792
 9147SOL     OW38899   2.919   2.835   8.511  0.1858 -0.5978  0.0844
 9147SOL    HW138900   2.946   2.800   8.426 -0.9770  1.1664 -1.0012
 9147SOL    HW238901   2.944   2.761   8.567 -0.7247 -1.7155 -0.9683
 9148SOL     OW38902   2.060   1.025   3.816  0.0215  0.3268  0.8370
 9148SOL    HW138903   2.087   1.109   3.855 -0.7789  1.4376 -0.9891
 9148SOL    HW238904   2.137   1.018   3.759 -1.9815 -0.9860 -1.7045
 9149SOL     OW38905   1.941   0.653   0.424  0.3224 -0.2306  0.0026
 9149SOL    HW138906   1.934   0.572   0.374  0.1348  0.4117 -0.9990
 9149SOL    HW238907   2.032   0.649   0.453  0.1611  0.3155  0.5991
 9150SOL     OW38908   4.593   2.067   5.146  0.6768  0.0141 -0.5964
 9150SOL    HW138909   4.639   2.144   5.113  0.6857  1.2810  2.3881
 9150SOL    HW238910   4.614   1.997   5.084  0.3917 -0.5775 -0.0225
 9151SOL     OW38911   0.150   1.612   2.919 -0.1557  0.1112  0.2603
 9151SOL    HW138912   0.072   1.573   2.881  0.1875  0.4869 -0.8415
 9151SOL    HW238913   0.225   1.579   2.869 -0.0919 -0.5054  0.7727
 9152SOL     OW38914   3.313   0.662   7.813  0.6582 -1.0349  0.1619
 9152SOL    HW138915   3.352   0.595   7.869  0.7111  0.2504  1.6533
 9152SOL    HW238916   3.387   0.722   7.814 -0.7515  0.6799  0.7804
 9153SOL     OW38917   1.512   1.101   7.741 -0.3394  0.1146  0.2213
 9153SOL    HW138918   1.455   1.154   7.797  0.7058  0.9484  0.4915
 9153SOL    HW238919   1.537   1.169   7.678 -0.9655  0.2295  0.0899
 9154SOL     OW38920   4.283   0.320   7.535  0.0687 -0.6658  0.0462
 9154SOL    HW138921   4.248   0.409   7.545  1.9046 -0.0571  0.8706
 9154SOL    HW238922   4.346   0.316   7.606 -1.4197 -0.7438  1.3655
 9155SOL     OW38923   1.691   1.471   7.355  0.1041 -0.7838 -0.0162
 9155SOL    HW138924   1.664   1.460   7.264  1.3782 -0.2844 -0.4570
 9155SOL    HW238925   1.629   1.542   7.372  0.2372 -0.5693 -0.4391
 9156SOL     OW38926   0.211   2.439   9.494 -0.3493  0.1442 -0.2293
 9156SOL    HW138927   0.185   2.531   9.484  2.0015  0.8824  0.4596
 9156SOL    HW238928   0.288   2.436   9.551  0.5583  0.0608 -1.4395
 9157SOL     OW38929   4.342   2.790  16.691  0.1130 -0.0445 -0.4417
 9157SOL    HW138930   4.258   2.833  16.678 -0.7331 -1.0671  1.5127
 9157SOL    HW238931   4.334   2.732  16.615 -1.9278 -2.1375  1.3413
 9158SOL     OW38932   4.472   1.784   3.510 -0.1427 -0.4059 -0.1043
 9158SOL    HW138933   4.475   1.791   3.414 -0.2551  0.9085 -0.0153
 9158SOL    HW238934   4.552   1.732   3.516 -2.0475 -3.4468 -1.2385
 9159SOL     OW38935   3.433   0.887  11.443  0.5586 -0.2036  0.3157
 9159SOL    HW138936   3.438   0.956  11.377 -3.5668  0.1871  0.4213
 9159SOL    HW238937   3.342   0.861  11.437  0.2918  1.0265 -0.8605
 9160SOL     OW38938   2.303   2.731   7.215 -0.1309  0.1051  0.4758
 9160SOL    HW138939   2.308   2.638   7.193  0.0365  0.1037  0.5124
 9160SOL    HW238940   2.262   2.733   7.301  0.8132  0.8111  0.9034
 9161SOL     OW38941   1.339   1.013   9.635  0.0711  0.3050  0.7441
 9161SOL    HW138942   1.329   1.046   9.546 -0.1970  0.9033  0.9890
 9161SOL    HW238943   1.252   1.036   9.668  0.1218  0.2911  0.8860
 9162SOL     OW38944   2.524   2.810   8.369  0.3164  0.6054  0.4565
 9162SOL    HW138945   2.523   2.720   8.403 -3.0653 -0.1611 -1.7322
 9162SOL    HW238946   2.526   2.869   8.444  4.4006  1.9616 -0.7356
 9163SOL     OW38947   4.469   1.770   0.336 -0.1678  0.5805 -0.7436
 9163SOL    HW138948   4.505   1.760   0.424 -2.8038 -1.1603  0.1232
 9163SOL    HW238949   4.464   1.682   0.300 -1.0534  1.5289 -2.9212
 9164SOL     OW38950   4.470   2.238   2.840  0.6571  0.0275  0.1302
 9164SOL    HW138951   4.420   2.220   2.760 -0.6543  0.2940  0.8871
 9164SOL    HW238952   4.551   2.203   2.804  0.8502 -0.2694  0.8445
 9165SOL     OW38953   0.444   3.412   4.486 -0.0171 -0.0834 -0.4474
 9165SOL    HW138954   0.481   3.421   4.398  1.9349 -1.1978  0.2571
 9165SOL    HW238955   0.463   3.321   4.509  2.2840  0.1021 -1.5723
 9166SOL     OW38956   3.889   4.687   3.262  0.0655 -0.0648 -0.1680
 9166SOL    HW138957   3.837   4.607   3.275 -1.4758  0.6463 -1.8610
 9166SOL    HW238958   3.969   4.643   3.233 -1.1718 -2.2991 -0.2295
 9167SOL     OW38959   3.760   4.276   8.043 -0.0455  0.1329 -0.4084
 9167SOL    HW138960   3.668   4.282   8.017 -0.1256  0.3553 -0.0864
 9167SOL    HW238961   3.767   4.184   8.019 -1.7662  0.4556 -2.1591
 9168SOL     OW38962   1.579   4.609   8.383 -0.0345  0.0041 -0.0483
 9168SOL    HW138963   1.623   4.546   8.440 -0.6438 -0.7900 -0.4523
 9168SOL    HW238964   1.633   4.618   8.305 -0.3672 -0.1651 -0.2978
 9169SOL     OW38965   3.645   1.905  16.151 -0.0733  0.2590  0.0910
 9169SOL    HW138966   3.695   1.859  16.084  0.1082 -2.2505  1.9238
 9169SOL    HW238967   3.717   1.948  16.197  0.1638 -1.0995  0.9844
 9170SOL     OW38968   4.536   3.680   8.331 -0.2451  0.3820  0.4938
 9170SOL    HW138969   4.490   3.757   8.300 -2.3346 -0.7917  0.6622
 9170SOL    HW238970   4.463   3.632   8.370 -0.1776  0.9388  1.2966
 9171SOL     OW38971   3.717   1.596   8.298 -0.1285 -0.2095  0.2732
 9171SOL    HW138972   3.649   1.572   8.235  1.4365 -1.4651 -0.9329
 9171SOL    HW238973   3.773   1.659   8.252  0.4440 -3.0007 -2.7836
 9172SOL     OW38974   3.707   1.564   1.022 -0.2560  0.0063  1.1471
 9172SOL    HW138975   3.732   1.517   1.101  2.1681  2.6612  1.9509
 9172SOL    HW238976   3.740   1.650   1.049 -1.3652  0.9289 -0.4459
 9173SOL     OW38977   3.749   4.144   2.191 -0.4454 -0.0723  0.4050
 9173SOL    HW138978   3.693   4.099   2.128  0.9884 -0.5995 -0.4817
 9173SOL    HW238979   3.829   4.134   2.140 -0.8180 -2.8079  0.3907
 9174SOL     OW38980   3.489   4.324  10.389  0.4934  0.3276 -0.0471
 9174SOL    HW138981   3.491   4.382  10.465 -2.2006  0.0451  0.2550
 9174SOL    HW238982   3.531   4.248  10.427  1.6841  0.9117 -0.2015
 9175SOL     OW38983   1.208   0.831  11.205  0.5131 -0.5037 -0.0459
 9175SOL    HW138984   1.137   0.785  11.160  2.6326 -2.2476 -1.6518
 9175SOL    HW238985   1.219   0.910  11.152 -1.4914 -0.3203 -0.1665
 9176SOL     OW38986   4.174   0.466   5.477 -0.2087 -0.1612  0.1399
 9176SOL    HW138987   4.211   0.378   5.481 -0.2695 -0.0740  2.6401
 9176SOL    HW238988   4.117   0.454   5.553  1.6399 -1.6587  1.2921
 9177SOL     OW38989   4.404   4.333  10.120  0.5890 -0.0837 -0.4173
 9177SOL    HW138990   4.467   4.305  10.185  0.3105 -0.4478 -0.3034
 9177SOL    HW238991   4.409   4.426  10.140 -0.3683 -0.0942 -0.1370
 9178SOL     OW38992   1.904   0.831   5.007 -0.5693 -0.4120  0.4440
 9178SOL    HW138993   1.933   0.837   5.098 -0.2430 -1.4864  0.4201
 9178SOL    HW238994   1.808   0.837   5.011 -0.5429  0.0132  0.4370
 9179SOL     OW38995   4.199   1.007  13.178  0.0656  0.0992 -0.3275
 9179SOL    HW138996   4.286   1.006  13.219 -0.0693 -0.2794 -0.0595
 9179SOL    HW238997   4.209   0.957  13.097 -0.0082  0.9830 -0.8832
 9180SOL     OW38998   4.096   1.694  10.679  0.6392  0.4748  0.7761
 9180SOL    HW138999   4.188   1.676  10.663  0.6752  0.5765  0.8649
 9180SOL    HW239000   4.065   1.617  10.631 -1.2352  0.7970  1.4429
 9181SOL     OW39001   0.699   0.908   5.358 -0.2012 -0.4514  0.5564
 9181SOL    HW139002   0.659   0.985   5.317 -0.4914 -0.3988  0.9448
 9181SOL    HW239003   0.665   0.904   5.448  1.2466  2.9690  1.2451
 9182SOL     OW39004   1.478   2.129   8.318  0.4739 -0.0819  0.4985
 9182SOL    HW139005   1.452   2.109   8.228  1.8392  0.7788 -0.0797
 9182SOL    HW239006   1.397   2.159   8.360 -0.3694 -2.0677  0.2887
 9183SOL     OW39007   4.253   2.070   0.581 -0.3888 -0.2365  0.1403
 9183SOL    HW139008   4.345   2.068   0.554 -0.8285  0.5689 -1.4178
 9183SOL    HW239009   4.274   2.060   0.674 -2.9669  2.9695  1.0832
 9184SOL     OW39010   3.963   0.346   2.449 -0.3429 -0.5336 -0.0825
 9184SOL    HW139011   4.033   0.345   2.515  0.5703  1.5729 -1.0312
 9184SOL    HW239012   4.003   0.382   2.370  0.9365 -2.1289 -0.1786
 9185SOL     OW39013   2.812   1.086   5.469  0.0736 -0.9989 -0.4870
 9185SOL    HW139014   2.790   1.100   5.377  2.3273  0.0640 -0.8631
 9185SOL    HW239015   2.726   1.079   5.509  0.8250 -1.2925  1.0737
 9186SOL     OW39016   4.592   4.064   4.956 -0.1003  0.7835 -0.0097
 9186SOL    HW139017   4.540   4.045   4.878  0.7028  3.9146 -1.3022
 9186SOL    HW239018   4.681   4.046   4.925 -0.1814  0.4430 -0.0442
 9187SOL     OW39019   3.572   4.209   9.455 -0.2255 -0.6892 -0.0446
 9187SOL    HW139020   3.611   4.288   9.493  2.1778 -1.2840 -1.2991
 9187SOL    HW239021   3.584   4.208   9.360 -2.8875 -2.4348 -0.3500
 9188SOL     OW39022   1.055   4.205   6.209  0.0327 -0.6946 -0.1107
 9188SOL    HW139023   1.085   4.133   6.265  0.5830  0.3292  0.9019
 9188SOL    HW239024   0.977   4.233   6.256 -0.4110 -0.7786 -0.7920
 9189SOL     OW39025   2.237   4.601   8.136  0.2387 -0.1627 -0.1086
 9189SOL    HW139026   2.214   4.693   8.151  0.5439  0.1073 -1.2306
 9189SOL    HW239027   2.333   4.605   8.134  0.1683  1.2101 -1.7179
 9190SOL     OW39028   2.167   2.595   6.253  0.1480  0.0649  0.3381
 9190SOL    HW139029   2.107   2.571   6.182  1.6246  0.1621 -0.9425
 9190SOL    HW239030   2.146   2.688   6.257 -0.3923 -0.0353 -0.0810
 9191SOL     OW39031   0.535   0.416   5.259 -0.0170  0.7420 -0.1183
 9191SOL    HW139032   0.517   0.471   5.336 -0.5207 -0.3612  0.5598
 9191SOL    HW239033   0.451   0.370   5.264  0.0370  0.7806  1.1261
 9192SOL     OW39034   1.560   0.446   2.462  0.1636 -0.1766 -0.0229
 9192SOL    HW139035   1.512   0.394   2.525 -0.2404  1.8065  1.3155
 9192SOL    HW239036   1.625   0.489   2.518 -1.0115  2.3556 -0.6036
 9193SOL     OW39037   3.924   3.808   5.324 -0.5521  0.1452 -0.2593
 9193SOL    HW139038   3.859   3.856   5.273 -0.5575 -1.7367 -2.0084
 9193SOL    HW239039   3.957   3.735   5.271 -0.8760 -2.2737  2.8549
 9194SOL     OW39040   4.723   1.309   5.071  0.0947  0.4575  0.4634
 9194SOL    HW139041   4.636   1.306   5.031 -0.5514  1.2314  1.8002
 9194SOL    HW239042   4.694   1.328   5.160 -1.4866  0.2854 -0.0077
 9195SOL     OW39043   2.988   4.606  12.288 -0.5329 -0.1138  0.5773
 9195SOL    HW139044   3.048   4.540  12.323 -0.6207  0.8412  2.5501
 9195SOL    HW239045   3.040   4.684  12.311  0.7169 -1.1681  1.3398
 9196SOL     OW39046   2.447   0.977   2.674 -0.3147  0.2162  0.0004
 9196SOL    HW139047   2.437   0.913   2.744  0.1015 -1.2017 -1.2573
 9196SOL    HW239048   2.429   0.917   2.602 -2.0219 -0.8380  1.3082
 9197SOL     OW39049   4.460   2.853   4.487  0.1168  0.2524  0.0215
 9197SOL    HW139050   4.421   2.854   4.575 -2.2750  0.8079 -1.0397
 9197SOL    HW239051   4.546   2.815   4.506  1.0293  0.4244 -3.7168
 9198SOL     OW39052   4.640   1.369   3.005 -0.0400 -0.4626 -0.4754
 9198SOL    HW139053   4.702   1.297   3.018  0.3905  0.2103  1.3375
 9198SOL    HW239054   4.663   1.384   2.914 -0.7965  0.3730 -0.5209
 9199SOL     OW39055   4.289   0.200   4.765  0.0973 -0.2986  0.1846
 9199SOL    HW139056   4.197   0.224   4.756  0.3237  0.8851  1.1036
 9199SOL    HW239057   4.294   0.179   4.858  1.1267 -2.6749 -0.3819
 9200SOL     OW39058   1.214   3.268   3.189  0.2607  0.6248 -0.2648
 9200SOL    HW139059   1.275   3.294   3.258 -0.6350  2.6305 -0.2163
 9200SOL    HW239060   1.237   3.326   3.117  0.2711 -0.2054 -0.9317
 9201SOL     OW39061   3.222   0.091  17.421 -0.4463  0.0916  0.0672
 9201SOL    HW139062   3.296   0.078  17.480 -0.3764 -1.5978 -0.3853
 9201SOL    HW239063   3.211   0.186  17.421 -0.8333  0.0501 -0.7735
 9202SOL     OW39064   3.259   0.284   5.815  0.6913 -0.3663  0.2635
 9202SOL    HW139065   3.249   0.220   5.744 -0.3527 -0.0812  0.1526
 9202SOL    HW239066   3.330   0.242   5.862 -0.0543 -0.1872  1.5451
 9203SOL     OW39067   2.553   0.893   3.489  0.4643 -0.2637  0.2313
 9203SOL    HW139068   2.557   0.797   3.485  0.2535 -0.2682  0.1381
 9203SOL    HW239069   2.458   0.894   3.498  0.5621  3.9904  0.9435
 9204SOL     OW39070   0.732   2.064   7.935  0.2126 -0.2303  0.1121
 9204SOL    HW139071   0.759   2.154   7.952 -0.2171 -0.5452  2.5230
 9204SOL    HW239072   0.809   2.008   7.953  2.0140  2.0598 -0.4845
 9205SOL     OW39073   2.010   0.689   8.063  0.0716 -0.2019  0.1830
 9205SOL    HW139074   1.921   0.694   8.026  1.0758  0.6368 -2.1014
 9205SOL    HW239075   2.041   0.773   8.030 -2.2619  1.4114  2.0819
 9206SOL     OW39076   2.131   0.253  17.136  0.1381 -0.3856 -0.2774
 9206SOL    HW139077   2.158   0.337  17.101 -0.9326  0.3296  0.6253
 9206SOL    HW239078   2.192   0.252  17.209 -0.9148 -0.5194  0.5994
 9207SOL     OW39079   1.529   4.495   5.635  0.4065 -0.5402  0.6543
 9207SOL    HW139080   1.485   4.525   5.556  1.4284  0.7194  0.5615
 9207SOL    HW239081   1.493   4.551   5.704  0.5121 -0.7269  0.8621
 9208SOL     OW39082   2.045   0.057  10.683 -0.3522 -0.5428 -0.1818
 9208SOL    HW139083   2.111   0.031  10.746  0.1259 -0.1140 -0.5080
 9208SOL    HW239084   2.020   0.139  10.726 -0.1001 -0.5248 -0.0723
 9209SOL     OW39085   2.753   2.517  13.474  0.7816 -0.2279 -0.0561
 9209SOL    HW139086   2.808   2.439  13.480  0.2506 -0.5993 -0.0421
 9209SOL    HW239087   2.815   2.574  13.428 -1.2806  2.6215  0.7066
 9210SOL     OW39088   3.852   4.557   1.428 -0.2095 -0.3920  0.7205
 9210SOL    HW139089   3.897   4.501   1.492 -0.2223 -0.3427  0.7729
 9210SOL    HW239090   3.757   4.545   1.432 -0.4258  0.2157 -3.2143
 9211SOL     OW39091   2.904   0.217   3.436 -0.3787 -0.1707 -0.6901
 9211SOL    HW139092   2.865   0.130   3.438 -1.1761  0.1764 -0.7034
 9211SOL    HW239093   2.997   0.200   3.445 -0.3766 -0.7071 -1.7125
 9212SOL     OW39094   2.627   0.329  15.621 -0.8124 -0.4517 -0.5334
 9212SOL    HW139095   2.564   0.388  15.662 -0.1170 -0.9009  1.1588
 9212SOL    HW239096   2.688   0.385  15.572  0.2868  0.5542  2.0124
 9213SOL     OW39097   0.363   0.127   8.455  0.0212  0.3721 -0.7988
 9213SOL    HW139098   0.344   0.188   8.526  0.7170 -0.6365  0.2572
 9213SOL    HW239099   0.306   0.050   8.465 -0.6896  1.0486  0.4449
 9214SOL     OW39100   0.027   3.474   1.276  0.0581  0.0597 -0.1250
 9214SOL    HW139101   0.074   3.483   1.193 -0.9833  2.0304 -0.4896
 9214SOL    HW239102   0.071   3.547   1.318  0.3933  0.1274 -0.5955
 9215SOL     OW39103   1.857   2.559   6.959  0.2448  1.0680 -0.3504
 9215SOL    HW139104   1.907   2.640   6.950  1.6602  0.2609  0.3302
 9215SOL    HW239105   1.774   2.571   6.913 -0.6380 -0.7158  0.7669
 9216SOL     OW39106   0.920   4.292   6.703 -0.1792  0.4169 -0.4080
 9216SOL    HW139107   0.965   4.277   6.786 -0.0106 -1.5359 -0.8584
 9216SOL    HW239108   0.977   4.241   6.645 -1.5334  0.1845 -1.5519
 9217SOL     OW39109   2.366   1.028  15.122 -0.4093 -0.3569  0.3479
 9217SOL    HW139110   2.275   1.047  15.101 -0.8093  0.4813  2.9360
 9217SOL    HW239111   2.392   1.119  15.116 -1.4348 -0.0836  0.0463
 9218SOL     OW39112   1.744   3.332   7.734 -0.3544  0.3170  0.1372
 9218SOL    HW139113   1.748   3.375   7.819 -2.3143  0.9205 -0.0821
 9218SOL    HW239114   1.830   3.288   7.733 -0.3062  0.3619  2.0432
 9219SOL     OW39115   3.930   1.018   1.126  0.5615 -0.4804 -0.0314
 9219SOL    HW139116   4.022   0.997   1.115  1.0547  0.5707  2.2224
 9219SOL    HW239117   3.911   1.031   1.033 -1.8621 -3.1686  0.0910
 9220SOL     OW39118   2.580   4.656  11.825  0.3808  0.2228  0.0198
 9220SOL    HW139119   2.644   4.706  11.876 -0.9917  2.2918 -0.2966
 9220SOL    HW239120   2.613   4.675  11.737 -1.7225  1.7900 -0.4269
 9221SOL     OW39121   0.339   2.240  15.733 -0.7267  0.1652  0.0715
 9221SOL    HW139122   0.267   2.227  15.671 -0.9193  2.6947 -0.2469
 9221SOL    HW239123   0.338   2.335  15.739  1.1153  0.2264 -0.5674
 9222SOL     OW39124   2.965   1.553   3.851 -0.3235 -0.2806 -0.8300
 9222SOL    HW139125   2.913   1.475   3.873 -0.6125  0.1223 -0.0591
 9222SOL    HW239126   2.937   1.574   3.762  0.9385 -0.6104 -1.2915
 9223SOL     OW39127   1.748   1.054  13.644 -0.1765 -0.2764 -0.1297
 9223SOL    HW139128   1.810   0.997  13.691  0.2470  0.9169  0.7536
 9223SOL    HW239129   1.800   1.129  13.617  0.3656 -0.9157 -0.8619
 9224SOL     OW39130   3.540   0.335  10.020 -0.2510  0.6917  0.1662
 9224SOL    HW139131   3.533   0.305  10.111  0.2118 -1.0531 -0.3780
 9224SOL    HW239132   3.562   0.424  10.049 -1.8985  0.9499  0.6230
 9225SOL     OW39133   0.573   3.767  17.203 -0.9801  0.4258 -0.1198
 9225SOL    HW139134   0.663   3.771  17.237 -0.4298 -0.6060 -1.4444
 9225SOL    HW239135   0.589   3.716  17.124 -0.5092  1.5556 -0.7469
 9226SOL     OW39136   0.175   4.100   8.543  0.0621 -0.3680 -0.3444
 9226SOL    HW139137   0.184   4.131   8.453 -0.4417  0.8561  0.0371
 9226SOL    HW239138   0.088   4.061   8.534  1.1424 -2.7512 -0.7291
 9227SOL     OW39139   1.761   3.694   0.774 -0.5326 -0.0493 -0.5990
 9227SOL    HW139140   1.795   3.705   0.686 -1.2748  1.5604 -0.6897
 9227SOL    HW239141   1.709   3.773   0.788 -3.1142 -2.0624  1.1259
 9228SOL     OW39142   1.448   4.416   8.020 -0.2892  0.5885 -0.4862
 9228SOL    HW139143   1.457   4.403   8.114  1.7145  0.1590 -0.7402
 9228SOL    HW239144   1.537   4.434   7.991 -1.3855  2.9832 -2.3258
 9229SOL     OW39145   3.253   3.560  17.529 -0.0067 -0.1310  0.1064
 9229SOL    HW139146   3.175   3.514  17.499  1.7359 -3.2179  0.2832
 9229SOL    HW239147   3.316   3.506  17.482  0.5595 -1.0020  1.8758
 9230SOL     OW39148   3.973   2.262   8.394 -0.6028  0.3616  0.2090
 9230SOL    HW139149   3.954   2.169   8.402 -1.9795  0.2823 -3.8494
 9230SOL    HW239150   4.045   2.273   8.456 -0.5516 -0.1638  0.2401
 9231SOL     OW39151   3.638   4.501   4.621  0.5774  0.4018 -0.1627
 9231SOL    HW139152   3.553   4.484   4.581  0.6400  0.7192 -0.4284
 9231SOL    HW239153   3.672   4.413   4.640 -1.3973  0.2376  2.5984
 9232SOL     OW39154   2.113   2.495   8.210  0.1897  0.0380  0.5148
 9232SOL    HW139155   2.105   2.405   8.241  0.6461 -0.0729  0.3099
 9232SOL    HW239156   2.020   2.512   8.193  0.2274  2.7627  3.0484
 9233SOL     OW39157   3.340   2.928   6.568 -0.3953 -0.0166  0.2324
 9233SOL    HW139158   3.270   2.907   6.631  0.1881 -2.4497  0.0883
 9233SOL    HW239159   3.293   2.912   6.487 -0.8385 -1.0160  0.6783
 9234SOL     OW39160   4.543   3.079   7.031  0.3098  0.1615 -0.1843
 9234SOL    HW139161   4.618   3.058   6.975  1.9103  2.4590  1.1258
 9234SOL    HW239162   4.591   3.078   7.113 -1.1534 -1.1258  0.6591
 9235SOL     OW39163   2.387   0.729   8.499  0.0675 -0.2194  0.1270
 9235SOL    HW139164   2.315   0.704   8.441 -1.1638 -2.1825  2.4769
 9235SOL    HW239165   2.462   0.721   8.440  0.0520 -0.3373  0.1224
 9236SOL     OW39166   4.037   0.157  11.716  0.1267 -0.2805  0.3451
 9236SOL    HW139167   4.040   0.181  11.809 -0.6364  1.7416 -0.1711
 9236SOL    HW239168   3.943   0.138  11.711 -0.1293  0.8283  1.1407
 9237SOL     OW39169   0.981   2.833   2.242 -0.3430  0.2433 -0.4744
 9237SOL    HW139170   0.921   2.759   2.252 -1.0216  0.8646  0.0739
 9237SOL    HW239171   0.993   2.826   2.147 -2.7298  0.2146 -0.7647
 9238SOL     OW39172   0.106   2.845   2.764  0.5653  0.2789 -0.0901
 9238SOL    HW139173   0.048   2.896   2.820  0.4771  0.0273  0.0451
 9238SOL    HW239174   0.190   2.858   2.807  0.7664 -0.7660 -0.1857
 9239SOL     OW39175   1.190   3.907  17.406 -0.4414  0.1031 -0.2703
 9239SOL    HW139176   1.203   3.839  17.340  0.5327  0.4075 -0.3892
 9239SOL    HW239177   1.158   3.982  17.356  2.3614  1.2796 -0.2819
 9240SOL     OW39178   4.369   3.158   6.045  0.8602  0.0540  0.1770
 9240SOL    HW139179   4.292   3.118   6.005  2.2150  0.6504 -3.0333
 9240SOL    HW239180   4.325   3.213   6.110  0.5189  0.3918 -0.3411
 9241SOL     OW39181   2.765   3.236   4.831  0.4784 -0.5013  0.0732
 9241SOL    HW139182   2.734   3.258   4.743  0.3096 -0.7095  0.0773
 9241SOL    HW239183   2.728   3.314   4.872 -2.1994 -1.7941  0.1611
 9242SOL     OW39184   4.483   1.636   2.733  0.4638  0.0450  0.4351
 9242SOL    HW139185   4.477   1.732   2.736 -0.8759 -0.0497  0.6199
 9242SOL    HW239186   4.405   1.626   2.787 -2.0615  0.1640 -3.1912
 9243SOL     OW39187   2.751   4.015  13.067  0.1371 -0.0650 -0.2602
 9243SOL    HW139188   2.830   4.026  13.120  0.6404  0.4600 -1.1101
 9243SOL    HW239189   2.741   4.108  13.044 -3.0477 -0.9772 -2.5552
 9244SOL     OW39190   0.704   0.551   6.759 -0.6254 -0.4112  0.1312
 9244SOL    HW139191   0.776   0.612   6.743 -1.0570  0.8639  3.0916
 9244SOL    HW239192   0.747   0.477   6.803 -2.1742 -0.9855  0.6633
 9245SOL     OW39193   3.434   3.323  12.255  0.0273 -0.2272  0.3903
 9245SOL    HW139194   3.428   3.229  12.241 -0.6759 -0.2200  0.6029
 9245SOL    HW239195   3.520   3.349  12.287 -0.5140  0.9491  0.8957
 9246SOL     OW39196   1.805   1.648  15.706  0.2722  0.0134 -0.1599
 9246SOL    HW139197   1.816   1.571  15.650  1.3855 -0.1875  0.3223
 9246SOL    HW239198   1.747   1.612  15.773 -0.5636  3.3767  0.9380
 9247SOL     OW39199   1.593   2.790   0.043 -0.0214 -0.2085 -0.3739
 9247SOL    HW139200   1.634   2.864   0.088 -0.5955 -0.1875  0.1095
 9247SOL    HW239201   1.666   2.729   0.054  0.5718  0.9881  2.4669
 9248SOL     OW39202   2.168   4.318   4.077 -1.4964 -0.5940  0.1370
 9248SOL    HW139203   2.161   4.317   3.981  2.5911 -0.1870 -0.1466
 9248SOL    HW239204   2.130   4.405   4.084  1.7335  0.7346  1.1610
 9249SOL     OW39205   4.101   0.321   0.298  0.2869 -0.5218  0.3603
 9249SOL    HW139206   4.012   0.355   0.311  0.5194  1.1970 -2.4730
 9249SOL    HW239207   4.149   0.404   0.301  0.9296 -0.8961  0.5622
 9250SOL     OW39208   3.306   1.345  10.009  0.3479  0.0044 -0.2500
 9250SOL    HW139209   3.212   1.355  10.020  0.3933  2.0260 -1.6511
 9250SOL    HW239210   3.313   1.372   9.917  2.5348  0.4479  0.0541
 9251SOL     OW39211   3.131   2.183  17.209 -0.3275 -0.0280 -0.0228
 9251SOL    HW139212   3.125   2.111  17.146  0.0240  0.5579 -0.7310
 9251SOL    HW239213   3.203   2.151  17.263  1.6724  0.6365 -2.3120
 9252SOL     OW39214   2.791   1.479  10.028  0.3280  0.4885 -0.0331
 9252SOL    HW139215   2.703   1.506  10.000  1.5818  1.1614 -3.3099
 9252SOL    HW239216   2.771   1.387  10.046 -2.3515  1.0749 -0.0183
 9253SOL     OW39217   0.659   1.511   7.738 -0.0383 -0.4880 -0.6644
 9253SOL    HW139218   0.649   1.594   7.690 -1.4090  0.0987  0.6102
 9253SOL    HW239219   0.602   1.524   7.814  1.4691  1.9456  0.0523
 9254SOL     OW39220   1.845   0.365   1.489 -0.2039  0.2475 -0.5537
 9254SOL    HW139221   1.890   0.389   1.408 -0.4508 -0.5429 -0.9302
 9254SOL    HW239222   1.921   0.356   1.546 -2.2986 -0.6311  2.0689
 9255SOL     OW39223   1.055   1.512   8.356 -0.2132  0.6284  0.4927
 9255SOL    HW139224   1.002   1.590   8.369 -0.6927  0.3386  0.2631
 9255SOL    HW239225   1.019   1.458   8.427  0.4448 -1.5324 -0.8409
 9256SOL     OW39226   0.977   1.940   9.516  0.0971 -0.5112 -1.0643
 9256SOL    HW139227   0.936   1.984   9.590  2.3016 -0.4902  0.1201
 9256SOL    HW239228   1.071   1.946   9.534 -0.0130 -0.1711 -0.6189
 9257SOL     OW39229   4.724   0.872  15.905  0.7633 -0.6485  0.0315
 9257SOL    HW139230   4.707   0.946  15.847 -1.1975 -0.9450  0.2428
 9257SOL    HW239231   4.674   0.797  15.874 -0.5397  0.5809 -0.8332
 9258SOL     OW39232   3.048   0.180   8.052  0.6456 -0.1562 -0.3521
 9258SOL    HW139233   3.141   0.180   8.027  0.9847  0.2413  0.9027
 9258SOL    HW239234   3.066   0.158   8.143  0.0836 -0.1298 -0.2399
 9259SOL     OW39235   0.664   2.160   3.849  0.2385 -0.3623  0.0484
 9259SOL    HW139236   0.651   2.069   3.821 -0.3777 -0.8588  1.9485
 9259SOL    HW239237   0.701   2.203   3.772  2.7261 -2.0377  0.3063
 9260SOL     OW39238   3.915   3.262   6.716  0.0247  0.3646 -0.0282
 9260SOL    HW139239   3.948   3.288   6.630  0.2923  0.9231  0.2455
 9260SOL    HW239240   3.986   3.210   6.754  1.4296  1.5521 -1.0246
 9261SOL     OW39241   0.039   0.051   8.330  0.0521  0.3835 -0.0159
 9261SOL    HW139242   4.716   0.044   8.248 -0.2417 -2.5517  0.4185
 9261SOL    HW239243   0.128   0.044   8.294 -0.1331 -0.2354 -0.3580
 9262SOL     OW39244   1.703   2.469  16.855  0.3985  0.5328  0.4694
 9262SOL    HW139245   1.667   2.505  16.936  1.3986  1.3196  0.5640
 9262SOL    HW239246   1.790   2.459  16.891  1.4627 -0.9439 -2.5128
 9263SOL     OW39247   0.589   0.394   8.663  0.0969  0.9071 -0.0070
 9263SOL    HW139248   0.495   0.375   8.652  0.4368  0.1392 -1.6491
 9263SOL    HW239249   0.613   0.394   8.570  1.5485  1.8791  0.3791
 9264SOL     OW39250   3.436   4.334   6.527 -0.9410 -0.2388  0.1910
 9264SOL    HW139251   3.376   4.401   6.562  0.2638 -0.0816  2.0018
 9264SOL    HW239252   3.472   4.315   6.614  0.7073  2.1235  0.0123
 9265SOL     OW39253   1.705   0.930   4.003  0.2026 -0.7071  1.0160
 9265SOL    HW139254   1.755   1.000   4.043  3.4331 -2.8395  0.7503
 9265SOL    HW239255   1.775   0.864   4.000  2.4537  1.7579 -0.3775
 9266SOL     OW39256   2.479   1.995   9.624  0.0999 -0.0387  0.4990
 9266SOL    HW139257   2.491   1.901   9.638 -1.0873 -0.4132 -1.0536
 9266SOL    HW239258   2.383   1.997   9.623  0.2075  1.9846 -2.5138
 9267SOL     OW39259   0.485   3.158  12.466  0.1936 -0.3608  0.1961
 9267SOL    HW139260   0.523   3.222  12.405  0.7437  0.3425  1.2644
 9267SOL    HW239261   0.392   3.179  12.465 -0.3184 -2.7848 -0.4916
 9268SOL     OW39262   2.817   0.709  15.209  0.0621 -0.2714 -1.0161
 9268SOL    HW139263   2.901   0.739  15.172  0.8464  0.3011  1.2297
 9268SOL    HW239264   2.751   0.737  15.145  1.2636  0.7932 -1.8089
 9269SOL     OW39265   0.110   2.811  11.854  0.2046  0.5386  0.0814
 9269SOL    HW139266   0.071   2.865  11.923 -1.3256  0.4882 -0.7485
 9269SOL    HW239267   0.170   2.882  11.829  1.7476 -1.7429 -2.6935
 9270SOL     OW39268   2.339   3.222   2.856  0.2919  0.3733  0.4223
 9270SOL    HW139269   2.354   3.303   2.906 -0.4687  0.2968  0.7623
 9270SOL    HW239270   2.380   3.156   2.912  0.3635 -0.2603 -0.3942
 9271SOL     OW39271   0.049   2.665  13.160 -0.1065  0.0874  0.1379
 9271SOL    HW139272   0.115   2.604  13.128  0.2752 -0.2804  1.5836
 9271SOL    HW239273   0.070   2.655  13.253 -0.3424 -0.0378  0.1786
 9272SOL     OW39274   2.629   4.659  16.618 -0.5932  0.5927 -0.1364
 9272SOL    HW139275   2.713   4.621  16.594 -0.1552  0.9633  0.8004
 9272SOL    HW239276   2.609   4.620  16.704 -3.0330 -1.1971 -1.5152
 9273SOL     OW39277   0.189   0.293   3.054  0.3834  0.0111  0.1669
 9273SOL    HW139278   0.130   0.259   2.987 -4.1648  2.4819  2.9677
 9273SOL    HW239279   0.267   0.244   3.030 -0.4285 -2.1207  1.9278
 9274SOL     OW39280   1.803   1.707  12.552 -0.0664 -0.3411  0.5688
 9274SOL    HW139281   1.774   1.616  12.542 -0.2340 -0.0882 -1.1810
 9274SOL    HW239282   1.794   1.733  12.461  0.1139  1.2060  0.9981
 9275SOL     OW39283   2.586   3.970   6.627 -0.3413 -0.5159 -0.4207
 9275SOL    HW139284   2.505   3.948   6.580  0.1255 -0.7817 -1.0890
 9275SOL    HW239285   2.577   3.930   6.714 -2.2946 -0.1206 -0.4208
 9276SOL     OW39286   1.432   0.230   5.167  0.5814 -0.7792  0.4644
 9276SOL    HW139287   1.384   0.159   5.209 -2.7483  2.1239  1.5284
 9276SOL    HW239288   1.454   0.197   5.080  2.5841  1.0428  0.2797
 9277SOL     OW39289   4.165   2.656  16.900 -0.2264  0.2455 -0.1941
 9277SOL    HW139290   4.197   2.659  16.990  1.1782 -1.0090 -0.6537
 9277SOL    HW239291   4.070   2.655  16.916  0.3000  1.1762  2.9547
 9278SOL     OW39292   2.655   2.924   4.218 -0.3226  0.2794  0.2262
 9278SOL    HW139293   2.734   2.872   4.235  0.4490  1.8928  1.5704
 9278SOL    HW239294   2.690   3.013   4.222 -0.0648  0.1755  0.3291
 9279SOL     OW39295   2.432   0.138  16.906  0.6180  0.1072  0.5675
 9279SOL    HW139296   2.355   0.124  16.851  1.6567  2.3113 -1.4724
 9279SOL    HW239297   2.394   0.173  16.986  1.1561 -1.0559  1.3252
 9280SOL     OW39298   0.364   3.177   5.993 -0.7104 -0.2294 -0.1523
 9280SOL    HW139299   0.404   3.264   6.005  0.4472 -0.8102  0.1573
 9280SOL    HW239300   0.438   3.137   5.947  1.0001  0.6861  1.7667
 9281SOL     OW39301   2.828   1.665   8.905 -0.0806 -0.2799 -0.7381
 9281SOL    HW139302   2.834   1.583   8.857  1.7245 -1.2943  1.2216
 9281SOL    HW239303   2.839   1.728   8.834  1.4218  0.9222  0.5465
 9282SOL     OW39304   0.512   1.742   4.470 -0.1702  0.1347 -0.1564
 9282SOL    HW139305   0.596   1.789   4.469  0.4414 -0.9428 -0.9941
 9282SOL    HW239306   0.458   1.803   4.420 -1.0262 -0.8852 -0.4933
 9283SOL     OW39307   4.522   3.765   5.725 -0.0413  0.7603 -0.4901
 9283SOL    HW139308   4.556   3.854   5.736 -0.5055  0.8533  0.1694
 9283SOL    HW239309   4.507   3.752   5.818 -0.1047 -1.1195 -0.7714
 9284SOL     OW39310   4.571   4.477   9.093  0.4802 -0.4155  0.5193
 9284SOL    HW139311   4.500   4.446   9.036  2.9270 -1.2126 -2.0702
 9284SOL    HW239312   4.575   4.571   9.075  0.3887 -0.4395  0.3752
 9285SOL     OW39313   0.271   0.904  15.705  0.0000 -0.2817 -0.2878
 9285SOL    HW139314   0.270   0.826  15.761 -1.7842  0.7602  1.1203
 9285SOL    HW239315   0.179   0.929  15.696  0.4098  1.3162  0.0075
 9286SOL     OW39316   4.228   4.659   5.078  0.3625 -0.2753 -0.4092
 9286SOL    HW139317   4.142   4.701   5.079  0.2051 -0.5150 -3.2814
 9286SOL    HW239318   4.207   4.567   5.090  1.4725 -0.6046 -0.9417
 9287SOL     OW39319   3.412   0.388   6.960  0.1418 -0.5389  0.3253
 9287SOL    HW139320   3.363   0.421   7.035  1.0442  0.2487  0.5661
 9287SOL    HW239321   3.385   0.458   6.900  2.6026 -1.1041 -1.4633
 9288SOL     OW39322   3.646   0.343  15.156 -0.2094 -0.6580  0.3741
 9288SOL    HW139323   3.626   0.257  15.193 -3.3220  0.8686  2.2028
 9288SOL    HW239324   3.685   0.317  15.073 -1.9138 -1.3084 -0.2076
 9289SOL     OW39325   3.883   3.339   3.135 -0.0866 -0.3057  0.0495
 9289SOL    HW139326   3.861   3.300   3.050  1.1019 -0.2787 -0.2761
 9289SOL    HW239327   3.817   3.407   3.147  0.2884  0.1247 -0.3113
 9290SOL     OW39328   2.027   3.478   2.170  0.6306  0.5894 -0.3562
 9290SOL    HW139329   1.956   3.423   2.205 -1.4320  1.1753 -3.5693
 9290SOL    HW239330   1.971   3.547   2.134 -1.7533 -1.1067  0.0851
 9291SOL     OW39331   1.445   3.770   6.967 -0.2754  0.6803 -0.0275
 9291SOL    HW139332   1.459   3.677   6.986 -1.9113 -0.0428 -2.4029
 9291SOL    HW239333   1.350   3.775   6.975 -0.2947 -0.3654  0.3716
 9292SOL     OW39334   1.764   1.783  15.493  0.2635 -0.2965 -0.6394
 9292SOL    HW139335   1.754   1.861  15.548  0.7220 -1.3742  0.9736
 9292SOL    HW239336   1.778   1.722  15.565  0.6974  1.0337  0.4195
 9293SOL     OW39337   0.860   0.380   8.966 -0.1639 -0.4868 -0.0176
 9293SOL    HW139338   0.765   0.387   8.974  0.0913  1.6512  1.2952
 9293SOL    HW239339   0.868   0.408   8.875 -0.6525  0.7816  0.3323
 9294SOL     OW39340   3.077   4.209   6.311  0.9097  0.4123 -0.6676
 9294SOL    HW139341   3.063   4.297   6.346 -0.6596 -0.1776  0.1529
 9294SOL    HW239342   3.167   4.196   6.342  0.9024 -3.0382 -2.0247
 9295SOL     OW39343   0.854   0.104   0.926  0.2433  0.1113 -1.0039
 9295SOL    HW139344   0.911   0.035   0.960 -2.3522 -0.5898  1.9514
 9295SOL    HW239345   0.910   0.141   0.858  0.2654 -0.4953 -1.3236
 9296SOL     OW39346   3.931   3.619   7.205  0.1039  0.4405 -0.4767
 9296SOL    HW139347   3.985   3.691   7.238 -2.1413  0.0651  3.8794
 9296SOL    HW239348   3.873   3.665   7.144 -2.1609 -1.7584  0.0132
 9297SOL     OW39349   2.706   0.733   4.169 -0.2449  0.3308 -0.1760
 9297SOL    HW139350   2.758   0.668   4.216 -1.5932 -0.5298  0.1179
 9297SOL    HW239351   2.678   0.777   4.248  0.0278 -0.4130  0.3404
 9298SOL     OW39352   1.666   0.873   5.178  0.5417 -0.3786 -0.1974
 9298SOL    HW139353   1.678   0.863   5.272 -0.0431  0.8410  0.0001
 9298SOL    HW239354   1.576   0.843   5.167  0.6941 -0.6570 -0.7144
 9299SOL     OW39355   3.854   0.768   4.226  0.1256  0.5545 -0.0707
 9299SOL    HW139356   3.826   0.681   4.255  0.5517  0.3258 -0.3493
 9299SOL    HW239357   3.805   0.825   4.286  0.4480  1.5985 -0.8015
 9300SOL     OW39358   2.775   3.842   7.152  0.0111  0.4101 -0.1269
 9300SOL    HW139359   2.700   3.788   7.179 -1.9587  1.5340 -3.3370
 9300SOL    HW239360   2.731   3.901   7.091 -1.7901  0.2496  1.0322
 9301SOL     OW39361   4.198   3.492   7.132 -0.0292 -0.6435 -0.1350
 9301SOL    HW139362   4.275   3.452   7.092 -0.3085 -1.5175  0.2237
 9301SOL    HW239363   4.145   3.491   7.051 -1.0218 -0.4751  0.5128
 9302SOL     OW39364   0.726   1.049   4.353  0.2210 -0.9124  0.2308
 9302SOL    HW139365   0.705   1.135   4.387 -0.5949 -0.9882 -0.0772
 9302SOL    HW239366   0.663   1.000   4.405 -0.3739 -0.5610 -0.1668
 9303SOL     OW39367   0.871   3.955   7.626  0.5690  1.0369 -0.4633
 9303SOL    HW139368   0.829   3.961   7.540  0.2924  1.0803 -0.3234
 9303SOL    HW239369   0.818   3.885   7.664  0.2970  1.9029  0.7384
 9304SOL     OW39370   3.308   2.690  16.008 -0.1973 -0.5662 -0.4703
 9304SOL    HW139371   3.249   2.674  15.935 -0.5287 -0.5006 -0.2219
 9304SOL    HW239372   3.362   2.612  16.005 -2.0700 -1.9250  0.9088
 9305SOL     OW39373   4.682   1.415   4.258 -0.0241  0.1912  0.1763
 9305SOL    HW139374   0.047   1.408   4.293 -0.4710 -0.2527  1.2293
 9305SOL    HW239375   4.684   1.357   4.182 -2.9938 -0.7841  0.8642
 9306SOL     OW39376   2.111   3.698  17.290  0.1425  0.1864  0.3543
 9306SOL    HW139377   2.027   3.694  17.244  0.5909 -1.0244 -0.3755
 9306SOL    HW239378   2.140   3.782  17.256  0.3020  0.4858  1.2302
 9307SOL     OW39379   4.207   0.843   6.187  0.4036 -0.4749  0.3393
 9307SOL    HW139380   4.220   0.755   6.152 -0.1908 -0.1066 -0.8234
 9307SOL    HW239381   4.226   0.827   6.279  4.3467  3.0094  0.1323
 9308SOL     OW39382   2.271   0.845   3.667 -0.0222  0.0977 -0.3988
 9308SOL    HW139383   2.319   0.768   3.634  0.0619  0.0372 -0.1379
 9308SOL    HW239384   2.332   0.865   3.738  0.6768 -2.0672 -0.3682
 9309SOL     OW39385   3.151   1.592   7.146 -0.5771  0.4786  0.5234
 9309SOL    HW139386   3.089   1.529   7.182  1.6919 -1.2834  1.3569
 9309SOL    HW239387   3.176   1.551   7.063  0.1342 -0.6125  1.2756
 9310SOL     OW39388   3.861   0.183   2.760  0.6387  0.2676  0.0930
 9310SOL    HW139389   3.892   0.273   2.747 -1.4022  1.1283  1.2922
 9310SOL    HW239390   3.947   0.143   2.773 -0.3027 -1.4746  0.9895
 9311SOL     OW39391   4.331   1.206   0.482 -0.3611 -0.2667 -0.5680
 9311SOL    HW139392   4.301   1.128   0.436  0.7674 -0.4357 -1.0051
 9311SOL    HW239393   4.344   1.270   0.412 -0.6735 -1.1907 -1.4631
 9312SOL     OW39394   3.850   4.295  15.415 -0.0247 -0.0237  0.8235
 9312SOL    HW139395   3.894   4.211  15.408 -0.0036  0.0548  0.0117
 9312SOL    HW239396   3.844   4.327  15.325  1.4074 -1.8534  0.0942
 9313SOL     OW39397   3.149   3.679   3.780  0.7888  0.0870 -0.5089
 9313SOL    HW139398   3.104   3.610   3.828  0.9782  1.9199  2.2936
 9313SOL    HW239399   3.234   3.636   3.774  0.1484 -1.3592  0.8693
 9314SOL     OW39400   1.852   4.441   3.375 -0.3348  0.3185  0.5231
 9314SOL    HW139401   1.840   4.350   3.401  1.7872  0.4208  1.8838
 9314SOL    HW239402   1.818   4.493   3.448  1.7114  1.2411  0.8358
 9315SOL     OW39403   2.988   3.568   4.265 -0.6382  0.6278 -0.1494
 9315SOL    HW139404   2.947   3.655   4.269  0.0791  0.9154  0.9922
 9315SOL    HW239405   3.070   3.585   4.219  0.6363  1.2405  2.3269
 9316SOL     OW39406   4.703   1.791  15.139  0.5444  0.2327  0.5207
 9316SOL    HW139407   4.723   1.714  15.192 -1.2737 -0.8387 -0.3606
 9316SOL    HW239408   4.641   1.761  15.073  0.6996 -1.8604  1.3208
 9317SOL     OW39409   3.500   2.203   6.954  0.2914 -0.2693 -0.7736
 9317SOL    HW139410   3.595   2.202   6.963  0.4334 -0.6982 -2.3293
 9317SOL    HW239411   3.486   2.148   7.031  1.1540  0.6874  0.0701
 9318SOL     OW39412   3.352   0.731   8.402  0.1463 -0.2645 -0.0696
 9318SOL    HW139413   3.412   0.789   8.449 -1.7300  2.3142 -0.8524
 9318SOL    HW239414   3.359   0.762   8.312  1.3149 -0.0254  0.0976
 9319SOL     OW39415   0.260   1.929  15.695 -0.3148 -0.1993 -0.2367
 9319SOL    HW139416   0.228   2.015  15.723 -0.4320  0.6157 -2.9414
 9319SOL    HW239417   0.355   1.930  15.700 -0.3102 -0.0243 -0.3857
 9320SOL     OW39418   3.220   3.965   9.382 -0.3841 -0.1154 -0.4638
 9320SOL    HW139419   3.307   3.928   9.371 -0.1757  0.5416 -1.0291
 9320SOL    HW239420   3.236   4.059   9.376  2.0518 -0.6441 -1.9916
 9321SOL     OW39421   2.104   0.229   0.028 -0.7367  0.1623  0.5751
 9321SOL    HW139422   2.033   0.272  17.678 -0.3019  1.3588  1.0095
 9321SOL    HW239423   2.134   0.299   0.085 -1.6702  2.1343 -1.3222
 9322SOL     OW39424   3.231   2.636   5.476  0.1438  0.0266  0.6874
 9322SOL    HW139425   3.232   2.547   5.442  1.1482  0.2260  0.1842
 9322SOL    HW239426   3.307   2.679   5.436 -1.1766  1.5665 -0.1886
 9323SOL     OW39427   2.432   1.784   7.420 -0.1636 -1.0688 -0.0043
 9323SOL    HW139428   2.477   1.859   7.379  1.2421 -2.6183 -1.3055
 9323SOL    HW239429   2.341   1.808   7.437  0.1131 -0.7919  1.0956
 9324SOL     OW39430   2.627   0.653  10.554  0.3046  0.4646  0.2571
 9324SOL    HW139431   2.670   0.735  10.530 -1.1057  1.6547  1.7585
 9324SOL    HW239432   2.540   0.673  10.590  0.2623 -2.0980  1.5981
 9325SOL     OW39433   1.490   0.096   4.427  0.4892 -0.1379  0.1177
 9325SOL    HW139434   1.470   0.012   4.468 -2.0824  0.8158  0.8033
 9325SOL    HW239435   1.402   0.127   4.403 -0.0390 -2.0690 -0.4256
 9326SOL     OW39436   0.629   0.495   6.089 -0.1041  0.6935  0.1908
 9326SOL    HW139437   0.566   0.565   6.107 -0.3390  0.2896  0.9416
 9326SOL    HW239438   0.678   0.484   6.171  0.4653  4.7593  0.4275
 9327SOL     OW39439   1.209   2.152   2.397 -0.2295 -0.7255  0.4241
 9327SOL    HW139440   1.214   2.203   2.478 -0.4778  0.4473 -0.3013
 9327SOL    HW239441   1.247   2.074   2.437 -1.3555 -1.6861 -0.3619
 9328SOL     OW39442   1.039   3.814   7.393 -0.1307 -0.1786 -0.2240
 9328SOL    HW139443   1.098   3.865   7.449 -0.1771  1.3437 -1.5612
 9328SOL    HW239444   0.956   3.850   7.424  0.2336  1.6960 -1.4418
 9329SOL     OW39445   4.102   4.286   4.962 -0.1108  0.2930  0.0885
 9329SOL    HW139446   4.062   4.206   4.996 -2.1980  0.8500 -1.0652
 9329SOL    HW239447   4.163   4.306   5.033 -1.2231  1.7563  0.6254
 9330SOL     OW39448   1.960   0.382   1.242  0.4366 -0.3836 -0.0266
 9330SOL    HW139449   1.928   0.451   1.183 -1.1011 -2.3453 -1.4988
 9330SOL    HW239450   1.949   0.297   1.198 -1.8506 -0.9854  1.7102
 9331SOL     OW39451   4.121   2.019   9.289 -0.7588  0.0188 -0.0551
 9331SOL    HW139452   4.113   1.996   9.197  0.9210 -0.9178  0.0119
 9331SOL    HW239453   4.125   2.115   9.288  2.2772 -0.1162 -1.7018
 9332SOL     OW39454   3.881   0.969   2.885  0.5112 -0.0958  0.4717
 9332SOL    HW139455   3.934   1.009   2.817  1.2851 -0.1823  1.0344
 9332SOL    HW239456   3.817   1.040   2.894 -0.3536 -0.8666  0.4960
 9333SOL     OW39457   1.679   1.615   3.985 -0.4632 -0.6739  0.0037
 9333SOL    HW139458   1.758   1.659   3.954 -1.4005  1.2654  0.3207
 9333SOL    HW239459   1.719   1.588   4.068  0.3040 -1.0543 -0.4871
 9334SOL     OW39460   4.098   1.850   7.564 -0.2204  0.6650 -0.0927
 9334SOL    HW139461   4.139   1.849   7.477 -1.1315  0.5922 -0.5173
 9334SOL    HW239462   4.036   1.777   7.565 -1.0602  1.3587 -1.4308
 9335SOL     OW39463   2.697   1.860   5.248 -0.2784 -0.5298  0.6614
 9335SOL    HW139464   2.603   1.875   5.259 -1.0279 -1.9795 -3.8118
 9335SOL    HW239465   2.707   1.776   5.294  3.2380 -0.9457 -0.8725
 9336SOL     OW39466   0.195   1.945   7.951 -0.3106 -0.1549 -0.3513
 9336SOL    HW139467   0.198   1.960   8.046  0.4467  0.0118 -0.4067
 9336SOL    HW239468   0.124   1.881   7.947 -0.5266  0.1742 -1.7355
 9337SOL     OW39469   4.309   0.107   0.443 -0.2209 -0.4261 -0.1375
 9337SOL    HW139470   4.372   0.035   0.447 -2.3926 -2.3940 -0.8267
 9337SOL    HW239471   4.352   0.173   0.497 -0.3339  0.7750 -1.5191
 9338SOL     OW39472   0.145   3.571  12.551  0.2802  0.0725  0.0901
 9338SOL    HW139473   0.207   3.573  12.479 -2.2884  1.2615 -2.0900
 9338SOL    HW239474   0.082   3.640  12.531  1.0693  0.1990 -1.9398
 9339SOL     OW39475   0.736   1.338   5.602 -0.7850 -0.1258 -0.4176
 9339SOL    HW139476   0.802   1.396   5.564  2.0542 -2.8887  0.4003
 9339SOL    HW239477   0.656   1.392   5.597 -0.8515 -0.3145 -1.3318
 9340SOL     OW39478   1.198   3.547   3.608  0.2779  0.1608 -0.0280
 9340SOL    HW139479   1.172   3.455   3.616 -1.1884  0.5540 -0.1560
 9340SOL    HW239480   1.125   3.592   3.651  1.6612 -1.0948  3.5937
 9341SOL     OW39481   4.149   3.879   3.852  0.3070 -0.0045  0.4567
 9341SOL    HW139482   4.199   3.961   3.856  0.0086  0.2099 -0.1574
 9341SOL    HW239483   4.226   3.825   3.834 -0.3347 -0.6740 -0.2716
 9342SOL     OW39484   1.257   1.927   5.333 -0.2504  0.1655  0.3312
 9342SOL    HW139485   1.227   1.962   5.416 -0.3452 -3.2128  1.7125
 9342SOL    HW239486   1.274   1.833   5.343  0.5940  0.2120 -0.5800
 9343SOL     OW39487   4.036   2.058  14.679 -0.6300 -0.4825 -0.0932
 9343SOL    HW139488   4.021   2.145  14.645  0.8687 -0.9117 -1.8245
 9343SOL    HW239489   4.130   2.061  14.693 -0.5781 -1.5158 -0.2171
 9344SOL     OW39490   3.852   2.937   2.684 -0.0486  0.1321 -0.1938
 9344SOL    HW139491   3.782   2.930   2.749  0.3894  0.6907  0.3350
 9344SOL    HW239492   3.836   3.015   2.632 -1.1410 -0.2969 -0.5027
 9345SOL     OW39493   0.931   1.883   7.976 -0.4652  0.0748 -0.2093
 9345SOL    HW139494   0.915   1.863   7.884 -1.1395 -0.6770  0.0744
 9345SOL    HW239495   1.025   1.873   7.984 -0.4587  1.1511  0.9123
 9346SOL     OW39496   0.140   0.839   5.365  0.1231  0.4397 -0.1549
 9346SOL    HW139497   0.197   0.915   5.366 -2.3677  2.2488  3.4948
 9346SOL    HW239498   0.058   0.880   5.394  0.4757  1.1669 -0.1916
 9347SOL     OW39499   2.291   4.080  10.030  0.0770  0.2904  0.0211
 9347SOL    HW139500   2.374   4.081   9.984  0.2060 -1.6897  0.2356
 9347SOL    HW239501   2.250   4.017   9.970 -3.1895  1.1934  1.2819
 9348SOL     OW39502   3.920   1.606   7.896  0.7436 -0.3779  0.1129
 9348SOL    HW139503   3.947   1.591   7.805 -0.3285  0.8694 -0.4030
 9348SOL    HW239504   3.849   1.543   7.902  1.5997 -1.6441 -2.9952
 9349SOL     OW39505   3.954   0.637   8.777 -0.2727  0.6154  0.0718
 9349SOL    HW139506   3.859   0.640   8.763 -0.3435  0.1655  0.4537
 9349SOL    HW239507   3.955   0.576   8.850  3.6296  0.4444 -0.1680
 9350SOL     OW39508   2.031   3.407   1.686 -0.0512 -0.3128  0.0810
 9350SOL    HW139509   1.978   3.328   1.689 -0.2554 -0.1657  0.3780
 9350SOL    HW239510   1.998   3.440   1.770 -0.1749 -2.0609  0.7180
 9351SOL     OW39511   0.243   1.114   6.944 -0.7454  0.7347  0.0977
 9351SOL    HW139512   0.250   1.169   7.023  1.7137  0.6590 -0.0693
 9351SOL    HW239513   0.151   1.136   6.930 -0.4408  2.6448  1.0286
 9352SOL     OW39514   4.659   1.777   8.541  0.2061 -0.5116 -0.1804
 9352SOL    HW139515   4.616   1.835   8.479  1.3636  0.7677  0.1985
 9352SOL    HW239516   4.699   1.848   8.592 -1.8430  0.6860 -0.2496
 9353SOL     OW39517   0.179   0.951   6.178  0.4629 -0.3163 -0.4630
 9353SOL    HW139518   0.197   0.895   6.254  1.3458 -0.2938 -0.6526
 9353SOL    HW239519   0.243   1.019   6.198  0.6813 -1.7766  3.7500
 9354SOL     OW39520   3.621   1.420   4.168  0.0149  0.5193  1.0493
 9354SOL    HW139521   3.533   1.415   4.131 -0.0830 -0.4885  1.4269
 9354SOL    HW239522   3.674   1.452   4.095 -0.5576 -0.4560  0.2087
 9355SOL     OW39523   1.796   0.667   1.682  0.5792 -0.2640  0.1475
 9355SOL    HW139524   1.869   0.703   1.732  0.4592  0.1664  0.0064
 9355SOL    HW239525   1.785   0.576   1.711 -1.6308  0.2465  0.9462
 9356SOL     OW39526   0.788   0.659  11.283 -0.0990  0.2102  0.2412
 9356SOL    HW139527   0.707   0.710  11.280  0.4159  1.0522  0.3998
 9356SOL    HW239528   0.769   0.597  11.353 -1.1500  1.4772  1.0753
 9357SOL     OW39529   2.028   1.503   2.227 -0.2202  0.0872  0.0506
 9357SOL    HW139530   1.964   1.478   2.160  0.7900 -1.2166 -0.4339
 9357SOL    HW239531   2.102   1.532   2.174 -1.3686  2.9712  0.0751
 9358SOL     OW39532   1.335   1.985   9.441  0.2681  0.3743  0.3865
 9358SOL    HW139533   1.370   2.070   9.465 -1.6119  0.9606  1.0445
 9358SOL    HW239534   1.309   1.949   9.526  0.7246  0.8231  0.7113
 9359SOL     OW39535   1.216   0.377   4.830  0.4384  0.3295 -0.6204
 9359SOL    HW139536   1.296   0.373   4.882 -0.1180 -1.7058  0.0947
 9359SOL    HW239537   1.163   0.304   4.864 -0.0022  1.0067  0.1599
 9360SOL     OW39538   2.700   4.639   3.781  0.1573 -0.3366  0.7616
 9360SOL    HW139539   2.650   4.575   3.832 -2.3031  0.7579 -0.3199
 9360SOL    HW239540   2.669   0.001   3.808  0.3545 -0.5158  1.5818
 9361SOL     OW39541   0.117   4.385   5.268 -0.1631  0.4677  0.1432
 9361SOL    HW139542   0.113   4.428   5.182 -0.9728 -2.4240 -1.2600
 9361SOL    HW239543   0.207   4.414   5.287 -0.2982  2.0884 -1.6796
 9362SOL     OW39544   1.550   4.078   7.175 -0.1978  0.0033  0.2220
 9362SOL    HW139545   1.570   4.006   7.116  1.6747  2.2312 -1.8710
 9362SOL    HW239546   1.616   4.145   7.155 -3.2645  2.8033 -0.5562
 9363SOL     OW39547   2.009   2.519   4.251  0.4594  0.3779 -0.4457
 9363SOL    HW139548   1.945   2.448   4.249  0.9290 -0.0733  1.2032
 9363SOL    HW239549   2.089   2.473   4.275  0.3517  0.4199 -0.0169
 9364SOL     OW39550   0.153   4.456   1.135 -0.4931  0.0551 -0.0125
 9364SOL    HW139551   0.181   4.419   1.218 -0.3262  0.2589  0.0209
 9364SOL    HW239552   0.156   4.544   1.171  2.7781 -0.4241  0.9373
 9365SOL     OW39553   4.608   2.496  12.595  0.2473 -0.1353  0.0354
 9365SOL    HW139554   4.703   2.501  12.598  0.2441  0.7040 -1.0062
 9365SOL    HW239555   4.578   2.513  12.684 -0.4594 -3.1014  0.3621
 9366SOL     OW39556   3.264   4.595   1.076 -0.6520 -0.0140 -0.2126
 9366SOL    HW139557   3.217   4.661   1.025  1.2452  1.5953  0.1188
 9366SOL    HW239558   3.205   4.562   1.144 -0.5701 -1.2466 -0.7518
 9367SOL     OW39559   3.422   0.009   8.638 -0.3281 -0.0318 -0.1652
 9367SOL    HW139560   3.444   4.642   8.654 -0.9628 -0.4641 -1.7657
 9367SOL    HW239561   3.507   0.053   8.639 -0.0517 -0.5687 -0.4984
 9368SOL     OW39562   4.287   3.208   8.571 -0.1758 -0.0064  0.0377
 9368SOL    HW139563   4.333   3.125   8.557  0.9934 -0.1056  4.4463
 9368SOL    HW239564   4.203   3.167   8.590  0.5300  0.5252  4.3200
 9369SOL     OW39565   1.609   0.239  10.994 -0.0488 -0.4581  0.0549
 9369SOL    HW139566   1.542   0.248  11.062  1.3951  0.0991  1.4048
 9369SOL    HW239567   1.571   0.172  10.937  0.9513  0.0318 -1.1853
 9370SOL     OW39568   3.512   3.115   1.579 -0.0158  0.3608  0.2158
 9370SOL    HW139569   3.491   3.047   1.643 -0.1820  1.1435  0.9875
 9370SOL    HW239570   3.588   3.153   1.624  0.3990  0.4853 -0.5918
 9371SOL     OW39571   3.809   0.887   2.068 -0.5364  0.9653 -0.4728
 9371SOL    HW139572   3.749   0.955   2.038 -1.8896  0.5161  1.2510
 9371SOL    HW239573   3.885   0.945   2.075  0.6673 -0.7483  0.5393
 9372SOL     OW39574   2.762   2.853   7.739  0.4802  0.4418 -0.0055
 9372SOL    HW139575   2.707   2.775   7.743  0.3304  0.5091 -0.8891
 9372SOL    HW239576   2.834   2.825   7.684 -1.6899 -2.0612 -1.5759
 9373SOL     OW39577   2.728   2.450  15.627  0.2135  0.4129 -0.4809
 9373SOL    HW139578   2.758   2.536  15.654  2.5733 -0.9627  1.2621
 9373SOL    HW239579   2.742   2.474  15.536  0.3901  0.7109 -0.3751
 9374SOL     OW39580   2.470   1.571   7.191 -0.0468 -0.2533  0.0034
 9374SOL    HW139581   2.463   1.635   7.261 -0.2474  0.1438 -0.3787
 9374SOL    HW239582   2.377   1.573   7.168  0.1839 -2.1218 -1.1250
 9375SOL     OW39583   2.677   2.936  10.859 -0.2710 -0.1415  0.0265
 9375SOL    HW139584   2.709   2.904  10.943  0.3832 -1.0821 -0.5729
 9375SOL    HW239585   2.752   2.929  10.800 -0.3543  4.0158 -0.5849
 9376SOL     OW39586   2.617   4.703  15.430 -0.7086 -0.2896 -0.2847
 9376SOL    HW139587   2.598   0.054  15.373  0.8193  0.7222  0.5357
 9376SOL    HW239588   2.684   4.658  15.380 -0.2187 -0.2860  0.3682
 9377SOL     OW39589   1.123   4.557  10.251 -0.2859 -0.4077  0.1248
 9377SOL    HW139590   1.045   4.530  10.300 -0.2781 -0.9060 -0.1333
 9377SOL    HW239591   1.190   4.490  10.262 -0.4234 -1.2124 -3.8103
 9378SOL     OW39592   1.263   0.715  17.625 -0.3098 -0.1058  0.6015
 9378SOL    HW139593   1.252   0.758  17.540  1.0994 -0.6260  0.1604
 9378SOL    HW239594   1.195   0.649  17.609 -2.7791  2.5693 -0.0207
 9379SOL     OW39595   1.684   2.868   2.019  0.3783 -0.1584 -0.7831
 9379SOL    HW139596   1.677   2.850   2.113  2.5288  2.0302 -0.1984
 9379SOL    HW239597   1.747   2.940   2.024  0.1138 -0.1627  2.7021
 9380SOL     OW39598   2.011   4.399   7.688 -0.2251 -0.0508 -0.4103
 9380SOL    HW139599   2.085   4.437   7.735 -0.6119 -1.2321  1.1498
 9380SOL    HW239600   2.004   4.311   7.725 -1.5401  0.9158  1.6603
 9381SOL     OW39601   1.660   3.346  13.944  0.3210  0.1615  0.2100
 9381SOL    HW139602   1.712   3.422  13.916  1.1453 -0.4589  0.0564
 9381SOL    HW239603   1.652   3.303  13.859 -0.3128 -0.4134  0.5647
 9382SOL     OW39604   1.324   4.163   7.299  0.7972 -0.6490  0.2088
 9382SOL    HW139605   1.399   4.132   7.248  1.8435  1.6052  0.3821
 9382SOL    HW239606   1.375   4.209   7.366 -1.2458  4.3466 -1.6741
 9383SOL     OW39607   3.458   4.047  10.490  0.7678  0.1709 -0.0762
 9383SOL    HW139608   3.370   4.012  10.501  0.4821  0.5925 -1.0534
 9383SOL    HW239609   3.502   4.018  10.570  0.4560  1.5300  0.5868
 9384SOL     OW39610   0.620   4.539   2.663  0.2699 -0.0964 -0.6250
 9384SOL    HW139611   0.671   4.521   2.584 -0.2127 -0.0719 -0.9373
 9384SOL    HW239612   0.576   4.618   2.633  0.7080 -0.0656 -1.1929
 9385SOL     OW39613   3.359   2.710   2.452  0.2043  0.5072 -0.1454
 9385SOL    HW139614   3.396   2.780   2.398 -0.0755 -0.0980 -1.1067
 9385SOL    HW239615   3.317   2.766   2.518 -0.0959  0.6873 -0.4883
 9386SOL     OW39616   2.150   3.079  12.178 -0.0252 -0.0699  0.3895
 9386SOL    HW139617   2.187   3.129  12.104  0.6743  1.9214  2.0725
 9386SOL    HW239618   2.058   3.083  12.153  0.4616 -0.2518 -1.4508
 9387SOL     OW39619   1.249   3.980   5.466  0.4711  0.4010  0.3978
 9387SOL    HW139620   1.182   4.034   5.509 -0.4746 -1.5364  1.3294
 9387SOL    HW239621   1.233   3.991   5.372  2.0683  1.1642  0.2278
 9388SOL     OW39622   2.873   4.502   4.509 -0.4590 -0.4225  0.1633
 9388SOL    HW139623   2.901   4.430   4.454  0.0560  1.5261 -2.1125
 9388SOL    HW239624   2.807   4.539   4.451 -0.6318  0.3915  0.8768
 9389SOL     OW39625   2.048   2.113   6.091  0.2754 -0.7223  0.3494
 9389SOL    HW139626   2.137   2.093   6.122  0.2158  0.1229  1.0689
 9389SOL    HW239627   2.038   2.027   6.051 -0.3303 -0.2390 -0.5187
 9390SOL     OW39628   4.267   1.326   8.024 -0.7351  0.4579 -0.5664
 9390SOL    HW139629   4.261   1.420   8.008  1.1625  0.7135  0.2408
 9390SOL    HW239630   4.319   1.292   7.952  0.2374  2.6501 -0.8691
 9391SOL     OW39631   3.214   0.868   7.049  0.7016 -0.1521 -0.9146
 9391SOL    HW139632   3.287   0.806   7.053 -0.8784 -2.0217 -0.9170
 9391SOL    HW239633   3.174   0.868   7.136  0.7864  0.4243 -0.8796
 9392SOL     OW39634   1.217   3.109   4.510  0.1245 -1.3210 -0.5519
 9392SOL    HW139635   1.214   3.181   4.574  0.9944 -0.6569 -1.2643
 9392SOL    HW239636   1.292   3.059   4.541  1.0724 -0.2211 -1.0986
 9393SOL     OW39637   0.311   3.463   3.176  0.6101  0.5400  0.2421
 9393SOL    HW139638   0.336   3.386   3.125 -0.8216  0.2927 -0.0893
 9393SOL    HW239639   0.227   3.490   3.140 -1.0863 -0.1172  3.7346
 9394SOL     OW39640   2.685   3.719   3.338 -0.6803  0.2773 -0.1451
 9394SOL    HW139641   2.596   3.740   3.309 -0.8085 -0.6082 -0.3665
 9394SOL    HW239642   2.675   3.726   3.432  0.6800 -3.5661  0.2621
 9395SOL     OW39643   2.432   0.794   2.468 -0.1105  0.2827 -0.2414
 9395SOL    HW139644   2.340   0.812   2.449 -0.2383 -0.0788  0.0405
 9395SOL    HW239645   2.461   0.736   2.398 -1.4465  1.7417 -2.0183
 9396SOL     OW39646   2.149   2.744   8.891 -0.1825 -0.5836  0.0333
 9396SOL    HW139647   2.155   2.784   8.804 -2.7262  0.6414  0.4168
 9396SOL    HW239648   2.242   2.746   8.913 -0.4885  1.6908  1.0951
 9397SOL     OW39649   0.395   4.636   6.038 -0.1463 -0.3774 -0.7188
 9397SOL    HW139650   0.486   4.615   6.019 -0.2067  1.1263 -2.6649
 9397SOL    HW239651   0.378   4.567   6.102 -1.7512 -0.7394 -1.5234
 9398SOL     OW39652   0.083   2.399   4.178  0.5992  0.3475 -0.2586
 9398SOL    HW139653   0.150   2.459   4.145  0.2333  0.9981  0.1729
 9398SOL    HW239654   0.076   2.353   4.095  0.8847  1.1969 -0.7570
 9399SOL     OW39655   0.812   2.412   2.137  0.3110  0.1611  0.3900
 9399SOL    HW139656   0.756   2.411   2.059 -0.6817  1.5019  1.0891
 9399SOL    HW239657   0.787   2.334   2.186 -0.8108 -1.6854 -3.1312
 9400SOL     OW39658   0.144   4.653   2.477  0.7936 -0.5143 -0.4079
 9400SOL    HW139659   0.095   4.705   2.541 -1.9332 -2.9735 -0.5084
 9400SOL    HW239660   0.178   4.586   2.536  1.8652  1.3038  1.0578
 9401SOL     OW39661   1.075   3.844   4.672 -0.5027 -0.0393  0.1693
 9401SOL    HW139662   1.156   3.883   4.639  2.2117 -4.7314  1.2318
 9401SOL    HW239663   1.007   3.874   4.612 -1.3177 -1.6054  0.3004
 9402SOL     OW39664   3.001   0.463  15.980 -0.5394  0.0463  0.2758
 9402SOL    HW139665   3.066   0.534  15.984 -0.0040 -0.4791  0.8041
 9402SOL    HW239666   2.997   0.442  15.887 -0.8131 -1.3620  0.6054
 9403SOL     OW39667   1.104   3.247  13.705  0.7224 -0.3278 -0.5389
 9403SOL    HW139668   1.053   3.316  13.748  0.5259  0.1441 -1.5405
 9403SOL    HW239669   1.054   3.249  13.624  0.8067 -1.5129 -0.6170
 9404SOL     OW39670   0.708   1.151   4.088  0.3474 -0.0544 -0.1437
 9404SOL    HW139671   0.735   1.074   4.038 -1.4908 -2.0898  2.0302
 9404SOL    HW239672   0.686   1.109   4.171 -0.0151  0.2495 -0.0883
 9405SOL     OW39673   1.157   1.769   5.923 -0.5245  0.5992  0.6963
 9405SOL    HW139674   1.105   1.763   6.003 -1.1886 -1.3753  0.1351
 9405SOL    HW239675   1.159   1.676   5.899 -1.2389  0.0937  2.5652
 9406SOL     OW39676   0.956   0.655   6.799  0.1682 -0.4315 -0.7801
 9406SOL    HW139677   0.931   0.742   6.830 -3.2284 -1.4475 -0.6546
 9406SOL    HW239678   0.935   0.602   6.875 -3.6694  2.0936 -0.0452
 9407SOL     OW39679   0.458   4.084   1.347  0.0229 -0.3319  0.1301
 9407SOL    HW139680   0.423   3.995   1.358 -2.2591  0.5346 -0.1206
 9407SOL    HW239681   0.485   4.088   1.256 -1.0018 -1.4312 -0.2252
 9408SOL     OW39682   2.786   4.432   7.306 -0.4646 -0.3560  0.0996
 9408SOL    HW139683   2.820   4.346   7.333  3.0182  0.6417 -1.0940
 9408SOL    HW239684   2.704   4.397   7.272 -0.8369 -0.2583  0.9061
 9409SOL     OW39685   1.728   2.172   9.347 -0.3900 -0.2266 -0.1429
 9409SOL    HW139686   1.716   2.098   9.287 -0.0315 -0.4866  0.1108
 9409SOL    HW239687   1.659   2.159   9.412 -0.2232 -2.9902 -0.5134
 9410SOL     OW39688   0.258   2.790   3.007  0.1820 -0.3305 -0.5055
 9410SOL    HW139689   0.316   2.718   2.984  0.9090  0.7681 -2.0917
 9410SOL    HW239690   0.205   2.741   3.070  0.8879  1.3002  1.3708
 9411SOL     OW39691   2.831   3.989  15.170  0.0964 -0.3688 -0.4443
 9411SOL    HW139692   2.870   4.048  15.234  0.5897 -1.5686  0.3753
 9411SOL    HW239693   2.838   4.039  15.089 -0.3799 -1.1593 -0.9778
 9412SOL     OW39694   3.763   0.692   3.176 -0.7291 -0.2099 -0.7730
 9412SOL    HW139695   3.826   0.691   3.104  0.3099  0.0134  0.1417
 9412SOL    HW239696   3.822   0.654   3.241 -0.4144 -0.1670 -1.0364
 9413SOL     OW39697   2.597   0.035   6.030  0.3141 -0.6934 -0.1700
 9413SOL    HW139698   2.685   0.054   6.064 -0.8200  0.2534  2.1844
 9413SOL    HW239699   2.591   4.666   6.011  1.6051 -0.8843  0.3409
 9414SOL     OW39700   3.298   3.136  13.963 -0.3572  0.6295  0.1104
 9414SOL    HW139701   3.362   3.163  14.029  0.3223 -0.6919 -0.0151
 9414SOL    HW239702   3.294   3.041  13.968  0.6420  0.4832 -1.8860
 9415SOL     OW39703   1.272   0.397   4.549 -0.4717 -0.1325  0.1856
 9415SOL    HW139704   1.348   0.438   4.591 -0.3253 -0.7760  0.5552
 9415SOL    HW239705   1.209   0.391   4.621  0.1735  0.5080  0.8022
 9416SOL     OW39706   1.216   1.936   6.810  0.3140  0.6357  0.1633
 9416SOL    HW139707   1.309   1.933   6.786 -0.2332 -0.2777 -1.8645
 9416SOL    HW239708   1.187   1.849   6.782  0.3917  0.4395  0.6942
 9417SOL     OW39709   4.172   3.703   3.330  0.6246 -0.0446  0.5950
 9417SOL    HW139710   4.155   3.721   3.423 -1.8403  0.2708  0.0865
 9417SOL    HW239711   4.155   3.609   3.323  1.6504 -0.3360  1.9118
 9418SOL     OW39712   0.009   1.837  13.603  0.2337  0.2669 -0.1578
 9418SOL    HW139713   0.075   1.792  13.550 -0.0571 -0.4531  0.0984
 9418SOL    HW239714   4.697   1.891  13.533  1.5566  1.3473 -0.0108
 9419SOL     OW39715   1.266   2.010   1.800 -0.7274 -1.1349  0.3839
 9419SOL    HW139716   1.199   2.060   1.846 -1.0628 -0.7938 -0.4774
 9419SOL    HW239717   1.335   1.992   1.864 -1.3004 -1.9004  0.7784
 9420SOL     OW39718   0.218   4.609  16.473 -0.2902 -0.1170 -0.1905
 9420SOL    HW139719   0.249   4.687  16.427 -0.2113 -0.1764 -0.2373
 9420SOL    HW239720   0.164   4.572  16.403 -0.6702 -1.8481  1.0383
 9421SOL     OW39721   2.049   2.851   8.424 -0.0041  0.0948  0.1933
 9421SOL    HW139722   2.037   2.933   8.377 -1.2216 -1.5765 -2.4636
 9421SOL    HW239723   2.078   2.778   8.368 -2.1206 -1.0765  0.6153
 9422SOL     OW39724   4.554   0.965   4.477  0.1465 -0.2129  0.0301
 9422SOL    HW139725   4.625   0.980   4.415  1.9656  0.8836  2.3755
 9422SOL    HW239726   4.581   1.019   4.552 -0.0689 -1.6338  1.1426
 9423SOL     OW39727   4.428   2.532   6.591 -0.1784  0.3178 -1.0505
 9423SOL    HW139728   4.501   2.567   6.642 -0.8005  1.4587 -0.9334
 9423SOL    HW239729   4.373   2.498   6.661  2.7850 -0.9050  0.6942
 9424SOL     OW39730   0.970   4.162  10.685 -0.2874 -0.0807 -0.1304
 9424SOL    HW139731   0.954   4.072  10.657 -1.2051  0.2390 -0.6609
 9424SOL    HW239732   0.947   4.155  10.777  0.2680  1.1207  0.1001
 9425SOL     OW39733   0.581   1.930   8.828  0.2322 -0.4986 -0.2127
 9425SOL    HW139734   0.502   1.953   8.878 -0.1062 -0.5776 -0.7161
 9425SOL    HW239735   0.618   2.018   8.821 -0.1602 -0.3149  0.0066
 9426SOL     OW39736   0.568   2.462   8.929 -0.4696 -0.4333  0.4050
 9426SOL    HW139737   0.474   2.445   8.925 -0.4061 -0.4929 -0.7928
 9426SOL    HW239738   0.595   2.453   9.021 -0.2081  1.3861  0.4899
 9427SOL     OW39739   1.718   2.139   5.009 -0.0060 -0.1943 -0.0683
 9427SOL    HW139740   1.668   2.218   5.027  1.5598  0.8881 -0.4219
 9427SOL    HW239741   1.801   2.181   4.985  0.0059 -0.3964 -0.3908
 9428SOL     OW39742   4.446   3.605   3.526 -0.4375 -0.3066  0.3629
 9428SOL    HW139743   4.447   3.678   3.465  0.9508  0.1864  0.9763
 9428SOL    HW239744   4.392   3.543   3.477 -0.5448  0.0234  0.0679
 9429SOL     OW39745   1.904   2.948   0.260 -0.0748 -0.5201  0.7986
 9429SOL    HW139746   1.906   2.852   0.265  0.7555 -0.5214  0.3381
 9429SOL    HW239747   1.871   2.969   0.173  2.4546 -1.1564 -0.2960
 9430SOL     OW39748   3.775   4.382   5.584  0.5500  0.1869  0.3624
 9430SOL    HW139749   3.818   4.465   5.601  3.2594 -0.8757 -1.2605
 9430SOL    HW239750   3.762   4.388   5.489 -1.7600  0.0567  0.6701
 9431SOL     OW39751   4.307   2.660  14.750  0.5751 -0.3934 -0.1242
 9431SOL    HW139752   4.307   2.564  14.747  2.3809 -0.3968  0.4181
 9431SOL    HW239753   4.283   2.675  14.658 -2.7568  2.4500  1.1979
 9432SOL     OW39754   3.515   2.971   2.237  0.2209 -0.1700 -0.4003
 9432SOL    HW139755   3.561   3.053   2.222  2.1518 -1.2292 -0.2398
 9432SOL    HW239756   3.578   2.905   2.207  1.3876  1.3757 -1.3322
 9433SOL     OW39757   1.498   3.645  16.557  0.0633  0.4958 -0.6459
 9433SOL    HW139758   1.486   3.566  16.503  1.1995  0.1438 -0.3811
 9433SOL    HW239759   1.495   3.716  16.493  1.0548 -0.1640 -1.4214
 9434SOL     OW39760   1.972   4.214   3.197 -0.2649 -0.2992 -0.2065
 9434SOL    HW139761   1.953   4.184   3.109 -2.3597 -1.2220  0.5748
 9434SOL    HW239762   2.067   4.229   3.195 -0.0395 -1.4627  1.7980
 9435SOL     OW39763   0.299   4.447  10.762 -0.5968 -0.3028 -0.0266
 9435SOL    HW139764   0.295   4.529  10.810  2.3393  0.1291 -0.4976
 9435SOL    HW239765   0.393   4.429  10.753 -0.7775 -1.2579 -0.0035
 9436SOL     OW39766   2.135   1.348   3.934 -0.0751 -0.0605  0.4025
 9436SOL    HW139767   2.099   1.349   4.023 -2.5611 -1.1505 -0.5926
 9436SOL    HW239768   2.230   1.362   3.941 -0.4506  2.5033  0.4105
 9437SOL     OW39769   0.046   0.654   3.612 -0.5869 -0.3462  0.1104
 9437SOL    HW139770   4.678   0.649   3.639  0.1132 -2.1432  2.1196
 9437SOL    HW239771   0.071   0.723   3.674 -1.6098  0.5333 -0.4637
 9438SOL     OW39772   0.343   3.579   5.221 -0.0577  0.0637 -0.0206
 9438SOL    HW139773   0.325   3.669   5.248  1.9469  1.1919 -2.4799
 9438SOL    HW239774   0.254   3.553   5.196 -0.4467  1.3518  0.0426
 9439SOL     OW39775   1.763   4.592   8.169 -0.4476 -0.7642  0.3420
 9439SOL    HW139776   1.842   4.551   8.204  1.2356  1.9542 -0.3404
 9439SOL    HW239777   1.779   4.555   8.082  1.2326  1.3705 -0.2417
 9440SOL     OW39778   4.663   4.081   9.144  0.3633 -0.5111  0.2759
 9440SOL    HW139779   4.683   4.151   9.206 -2.1593 -0.5898  1.1994
 9440SOL    HW239780   0.018   4.031   9.164 -0.0643 -0.6883  1.5217
 9441SOL     OW39781   0.879   2.498   5.360  0.5711 -0.1889 -0.4900
 9441SOL    HW139782   0.886   2.417   5.310 -2.0651 -1.7686  1.7196
 9441SOL    HW239783   0.816   2.542   5.304  0.5198 -0.6347 -0.7759
 9442SOL     OW39784   3.639   2.420   2.871 -0.1150 -0.1474 -0.2113
 9442SOL    HW139785   3.555   2.376   2.874 -0.3752  0.4573  1.6339
 9442SOL    HW239786   3.635   2.471   2.790 -2.7727 -0.5877 -0.3306
 9443SOL     OW39787   4.329   4.392   6.849  0.1670 -0.3138  0.5619
 9443SOL    HW139788   4.409   4.376   6.899  0.0816 -0.1489  0.7496
 9443SOL    HW239789   4.270   4.338   6.902  0.3810 -3.0671 -2.0192
 9444SOL     OW39790   3.829   0.799   5.357 -0.1720 -0.4853 -0.1829
 9444SOL    HW139791   3.782   0.715   5.352  0.7020 -1.0398  0.9709
 9444SOL    HW239792   3.760   0.853   5.396 -0.2333  0.7931 -2.0814
 9445SOL     OW39793   4.057   2.952  15.459 -0.0504  0.5338 -0.5916
 9445SOL    HW139794   4.146   2.917  15.468  0.5507  2.2071 -0.0104
 9445SOL    HW239795   4.037   2.954  15.366 -2.2256  0.1542 -0.1420
 9446SOL     OW39796   2.188   2.869   8.663  0.0269 -0.3814 -0.0398
 9446SOL    HW139797   2.172   2.869   8.568  1.3207 -1.2848 -0.2657
 9446SOL    HW239798   2.234   2.951   8.682  0.9411 -0.6145 -1.2065
 9447SOL     OW39799   3.605   0.970   2.656 -0.3214 -0.3786 -0.1292
 9447SOL    HW139800   3.649   1.042   2.610 -1.3019 -1.0420 -2.0696
 9447SOL    HW239801   3.612   1.005   2.745 -2.3565 -0.4070  0.0373
 9448SOL     OW39802   3.157   3.172   6.861  0.3986 -0.8114  0.0773
 9448SOL    HW139803   3.114   3.130   6.787 -0.2155  0.6071 -0.3828
 9448SOL    HW239804   3.146   3.260   6.825 -1.8171 -0.7198  0.9917
 9449SOL     OW39805   0.682   1.583   5.044  0.7169 -0.7706  0.0069
 9449SOL    HW139806   0.669   1.676   5.025  1.3203 -1.0048 -1.4805
 9449SOL    HW239807   0.616   1.529   5.002 -1.3478  0.9826  0.9642
 9450SOL     OW39808   3.420   4.201  14.318  0.0228 -0.0286  0.1703
 9450SOL    HW139809   3.408   4.206  14.412  0.6027  1.1700  0.1772
 9450SOL    HW239810   3.480   4.127  14.309 -0.6353 -0.4974 -0.4067
 9451SOL     OW39811   3.111   3.670   4.731  0.2150 -0.3763  0.3263
 9451SOL    HW139812   3.087   3.579   4.712  0.3631  0.0538 -1.8269
 9451SOL    HW239813   3.029   3.715   4.754  0.6275  0.0396  0.9846
 9452SOL     OW39814   3.412   1.680   8.735 -0.2621  0.6219  0.4614
 9452SOL    HW139815   3.396   1.592   8.768 -2.7262  0.8630 -0.1399
 9452SOL    HW239816   3.473   1.660   8.665 -1.0275  0.4879 -0.1609
 9453SOL     OW39817   2.468   2.383   7.496  0.1932 -0.6146  0.3304
 9453SOL    HW139818   2.481   2.477   7.487  2.1311 -0.7098  2.0806
 9453SOL    HW239819   2.413   2.371   7.419  0.9874  1.9262 -0.6230
 9454SOL     OW39820   4.672   3.268  11.029 -0.2477  0.3725  0.5641
 9454SOL    HW139821   4.634   3.288  11.114 -0.2024  0.5123  0.5503
 9454SOL    HW239822   4.596   3.289  10.974  0.1872 -1.8610 -0.9208
 9455SOL     OW39823   2.490   0.486   7.878  0.0885 -0.1982 -0.0256
 9455SOL    HW139824   2.517   0.514   7.966 -1.3902 -2.0650  1.0427
 9455SOL    HW239825   2.520   0.395   7.884  3.0361  0.7107 -1.1218
 9456SOL     OW39826   4.307   1.022   4.869 -0.2416 -0.0332 -0.3120
 9456SOL    HW139827   4.301   1.017   4.964 -0.4840 -2.3464 -0.4381
 9456SOL    HW239828   4.236   1.080   4.840 -0.0583  1.3258  2.0013
 9457SOL     OW39829   3.389   0.635   9.521 -0.4755  0.1694 -0.2849
 9457SOL    HW139830   3.463   0.686   9.489  0.4453 -1.6845 -1.1040
 9457SOL    HW239831   3.325   0.657   9.453  0.1777 -0.5217 -1.1072
 9458SOL     OW39832   3.984   2.695  15.607  0.1199 -0.1426  0.0477
 9458SOL    HW139833   4.028   2.619  15.645 -1.1651 -1.6482 -1.4830
 9458SOL    HW239834   4.030   2.693  15.523  2.6966 -1.4709  1.4607
 9459SOL     OW39835   2.436   4.432   8.394  0.4707 -0.0003 -0.1310
 9459SOL    HW139836   2.373   4.503   8.392  1.0810  0.5342 -0.6280
 9459SOL    HW239837   2.403   4.382   8.319  0.9265 -0.2688 -0.1567
 9460SOL     OW39838   2.924   0.784  15.505 -0.2264 -0.2589 -0.4315
 9460SOL    HW139839   2.920   0.694  15.472  1.7083 -0.1643 -0.9360
 9460SOL    HW239840   3.015   0.811  15.495 -0.1966  0.2414  1.1992
 9461SOL     OW39841   1.002   3.386   6.081 -0.6081  0.0340  0.3456
 9461SOL    HW139842   0.932   3.450   6.095  0.0632  0.8794 -0.1966
 9461SOL    HW239843   1.067   3.412   6.146  1.4540 -1.8458 -0.9267
 9462SOL     OW39844   4.352   2.437   9.218  0.6087  0.0917 -0.3613
 9462SOL    HW139845   4.357   2.454   9.124 -0.6122  0.7130 -0.3084
 9462SOL    HW239846   4.338   2.524   9.255 -0.9536 -0.7169  0.9060
 9463SOL     OW39847   3.145   3.833   6.805  0.1685 -0.0372  0.0318
 9463SOL    HW139848   3.120   3.920   6.837  2.1737  1.0673 -1.4503
 9463SOL    HW239849   3.101   3.831   6.720  0.0987  0.4996  0.0545
 9464SOL     OW39850   0.873   3.129   6.800 -0.2540  0.4234 -0.7459
 9464SOL    HW139851   0.923   3.138   6.720  0.8361  0.2720 -0.0786
 9464SOL    HW239852   0.936   3.164   6.863 -0.4200  0.2107 -0.4578
 9465SOL     OW39853   1.630   0.623   8.269 -0.3596  0.2279  0.3150
 9465SOL    HW139854   1.566   0.693   8.252 -0.2538 -0.0965 -1.4870
 9465SOL    HW239855   1.572   0.569   8.323  0.9220 -1.7369 -0.2941
 9466SOL     OW39856   1.331   4.054   3.261 -0.0571  0.1742  0.0996
 9466SOL    HW139857   1.369   3.966   3.264  1.6296  0.8751 -1.1102
 9466SOL    HW239858   1.270   4.052   3.186  1.6301  1.3730 -1.3006
 9467SOL     OW39859   4.596   1.731   0.572 -0.1257  0.1268 -0.1643
 9467SOL    HW139860   4.584   1.784   0.651  1.1022 -0.8213  0.6428
 9467SOL    HW239861   4.687   1.749   0.552  0.1385 -0.4279  0.5470
 9468SOL     OW39862   1.107   4.272  17.662  0.2454 -0.2855 -0.1467
 9468SOL    HW139863   1.131   4.202   0.025  2.2924  0.1260 -0.4738
 9468SOL    HW239864   1.175   4.268  17.595  2.2678  0.9132  1.8394
 9469SOL     OW39865   3.189   3.377  12.803  0.8405  0.0291 -0.0374
 9469SOL    HW139866   3.196   3.431  12.725  1.8243 -0.3894 -0.2297
 9469SOL    HW239867   3.242   3.429  12.863  0.0859  0.1521  0.5228
 9470SOL     OW39868   2.212   4.577   1.704  0.0084  0.3045  0.8056
 9470SOL    HW139869   2.253   4.537   1.627 -1.1628 -0.2108  0.4500
 9470SOL    HW239870   2.188   4.499   1.755 -0.9772 -1.0947 -1.7951
 9471SOL     OW39871   1.123   1.891   2.278  0.9000  0.2362 -0.1346
 9471SOL    HW139872   1.063   1.873   2.206  0.2052  1.6640  0.0795
 9471SOL    HW239873   1.210   1.874   2.243  1.2989  0.0368  0.9470
 9472SOL     OW39874   1.057   1.593   4.462  0.6449  0.1598  0.2155
 9472SOL    HW139875   1.038   1.499   4.458 -0.4460  0.4476 -1.5107
 9472SOL    HW239876   1.031   1.622   4.374 -0.3686 -2.2373 -0.2760
 9473SOL     OW39877   2.939   3.423   4.664  0.3731 -0.4039 -0.0975
 9473SOL    HW139878   2.845   3.436   4.652  0.6840  1.6083 -0.4225
 9473SOL    HW239879   2.951   3.343   4.613  2.2103  0.2078 -0.6578
 9474SOL     OW39880   3.234   1.833   7.227  0.3669 -0.2434 -0.0071
 9474SOL    HW139881   3.291   1.806   7.300 -0.4930  1.4836  1.3027
 9474SOL    HW239882   3.217   1.750   7.183 -0.8478 -0.7361  1.3749
 9475SOL     OW39883   2.910   3.835   4.780  0.1704  0.0811  0.0575
 9475SOL    HW139884   2.816   3.853   4.772 -0.2297 -0.5364  3.4571
 9475SOL    HW239885   2.940   3.871   4.863 -0.8685 -1.0592  0.9279
 9476SOL     OW39886   1.550   2.452   8.634 -0.0337  0.5165 -0.0210
 9476SOL    HW139887   1.614   2.462   8.564 -0.4977 -0.2108 -0.5433
 9476SOL    HW239888   1.494   2.526   8.611 -1.5519 -0.8092 -0.5972
 9477SOL     OW39889   1.466   3.569   3.656  0.5329  0.3343 -0.0576
 9477SOL    HW139890   1.493   3.477   3.663  2.1159  0.8930  1.2975
 9477SOL    HW239891   1.372   3.558   3.646  0.9596 -1.5253 -2.1612
 9478SOL     OW39892   4.207   4.162   7.855 -0.5663  0.5344 -0.1287
 9478SOL    HW139893   4.153   4.096   7.810  0.1408 -0.8584  1.0883
 9478SOL    HW239894   4.293   4.151   7.814  0.3726 -1.5965  2.4363
 9479SOL     OW39895   3.286   0.252   9.712  0.1153 -0.2537  0.5285
 9479SOL    HW139896   3.353   0.314   9.740  0.5047 -0.6109  0.3807
 9479SOL    HW239897   3.293   0.250   9.617 -1.1176  1.1980  0.4134
 9480SOL     OW39898   1.712   1.670   8.736 -0.1216 -0.3703  0.0187
 9480SOL    HW139899   1.638   1.715   8.694  0.1372  1.3735  1.4438
 9480SOL    HW239900   1.777   1.737   8.757  1.2507 -1.8558  0.4286
 9481SOL     OW39901   3.301   1.896   6.949 -0.0977  0.2770 -0.4415
 9481SOL    HW139902   3.270   1.912   7.038  1.5286  1.4850 -0.0946
 9481SOL    HW239903   3.218   1.883   6.903 -0.7228 -2.1162  1.3640
 9482SOL     OW39904   1.267   0.204   8.249 -0.4465 -0.2302 -0.5520
 9482SOL    HW139905   1.185   0.220   8.296  0.3132 -0.1443  0.7193
 9482SOL    HW239906   1.290   0.119   8.286  1.7412  0.4538 -0.3094
 9483SOL     OW39907   0.128   0.862   2.408  0.2269 -0.3127 -0.4073
 9483SOL    HW139908   0.155   0.950   2.435  1.4313 -1.4304  1.9970
 9483SOL    HW239909   0.043   0.885   2.370  0.5817 -0.1361 -1.1132
 9484SOL     OW39910   3.171   3.820   6.254 -0.4249 -0.3473  0.2227
 9484SOL    HW139911   3.249   3.872   6.272 -1.0065 -0.7392  3.9111
 9484SOL    HW239912   3.104   3.885   6.233 -1.1484 -1.4099 -0.7659
 9485SOL     OW39913   1.742   3.241   3.689 -0.0147  0.9631 -0.3538
 9485SOL    HW139914   1.671   3.206   3.636 -0.1818  0.7924 -0.0131
 9485SOL    HW239915   1.720   3.218   3.779  0.7814 -2.6052 -1.0885
 9486SOL     OW39916   2.046   3.116   9.642  0.1271 -0.3041  0.4258
 9486SOL    HW139917   1.971   3.175   9.652 -1.2607 -1.4731 -2.9892
 9486SOL    HW239918   1.993   3.038   9.629  1.9868 -1.0756 -2.4801
 9487SOL     OW39919   1.879   2.274   3.918  0.9993  0.0287  0.5631
 9487SOL    HW139920   1.950   2.275   3.854 -0.4658 -1.2370 -1.0694
 9487SOL    HW239921   1.925   2.266   4.002 -2.4631  2.1920  2.6646
 9488SOL     OW39922   1.976   4.600   1.232  0.1413  0.1164  0.5503
 9488SOL    HW139923   2.053   4.582   1.178  0.7862 -1.0787  1.8674
 9488SOL    HW239924   1.928   4.519   1.217 -0.0215  0.7047 -2.0356
 9489SOL     OW39925   4.646   0.279  11.627  0.0971  0.1472 -0.2453
 9489SOL    HW139926   4.646   0.220  11.702  1.8497  0.8538  0.3121
 9489SOL    HW239927   4.691   0.226  11.561 -0.2581 -1.1232  0.5454
 9490SOL     OW39928   1.942   2.932   5.296 -0.4150  0.1698 -0.6531
 9490SOL    HW139929   2.031   2.909   5.321  0.1090  0.1435 -2.5526
 9490SOL    HW239930   1.943   2.920   5.201 -1.7633 -0.9761 -0.5292
 9491SOL     OW39931   4.119   1.714  13.399 -0.1768  0.3472 -0.7315
 9491SOL    HW139932   4.156   1.758  13.322  1.9377 -0.0721  0.0359
 9491SOL    HW239933   4.092   1.634  13.353 -0.7609  0.4454 -0.5544
 9492SOL     OW39934   0.462   1.069  12.639 -0.5322 -0.2184 -0.3313
 9492SOL    HW139935   0.404   1.138  12.606 -0.3678  0.0919  0.0246
 9492SOL    HW239936   0.553   1.100  12.633 -0.5194 -0.1005  0.5488
 9493SOL     OW39937   4.454   4.357  11.428 -1.0456 -0.3819 -0.3829
 9493SOL    HW139938   4.524   4.303  11.389 -2.0315 -2.1203  0.2345
 9493SOL    HW239939   4.512   4.433  11.437 -2.0272  0.7441 -3.6366
 9494SOL     OW39940   4.578   4.079   2.900  0.1963 -0.3189 -0.0476
 9494SOL    HW139941   4.512   4.023   2.941 -1.6483  1.9405  0.0644
 9494SOL    HW239942   4.533   4.107   2.820 -0.4830  0.6869  0.6860
 9495SOL     OW39943   3.016   3.360   1.080 -0.1787 -0.0180  0.1210
 9495SOL    HW139944   3.030   3.439   1.131  1.2657 -1.3645  1.8137
 9495SOL    HW239945   3.054   3.291   1.134 -0.1425 -0.0073  0.1089
 9496SOL     OW39946   3.395   0.178   7.627  0.3271 -0.2405 -0.4323
 9496SOL    HW139947   3.371   0.189   7.719  1.2419 -0.2714 -0.1817
 9496SOL    HW239948   3.448   0.256   7.612 -2.5438  1.6709 -0.5145
 9497SOL     OW39949   1.376   0.018  12.444 -0.0464  0.2768  0.0403
 9497SOL    HW139950   1.402   0.106  12.472 -0.7213  0.1982  0.8898
 9497SOL    HW239951   1.459   4.696  12.454 -0.4225 -0.5952 -0.9266
 9498SOL     OW39952   3.897   3.531   1.750 -0.3281  0.0421 -0.7505
 9498SOL    HW139953   3.873   3.503   1.662 -1.1082  0.5970 -0.7121
 9498SOL    HW239954   3.963   3.467   1.776  0.4343  1.6061  1.1624
 9499SOL     OW39955   2.389   2.523   6.781  0.2956 -0.0687  0.2325
 9499SOL    HW139956   2.415   2.502   6.691  0.9665  2.6701 -0.2129
 9499SOL    HW239957   2.317   2.460   6.793 -0.1547  0.9370  2.7651
 9500SOL     OW39958   0.448   3.013   7.629  0.2949 -0.5639  0.0396
 9500SOL    HW139959   0.534   3.056   7.631  0.4562 -0.8652 -0.4642
 9500SOL    HW239960   0.392   3.047   7.559  0.9954  1.3326  0.3946
 9501SOL     OW39961   0.977   2.602   3.244  0.2198  1.0636 -0.1093
 9501SOL    HW139962   0.904   2.571   3.191  0.4804 -1.2600  0.8728
 9501SOL    HW239963   0.945   2.686   3.274 -1.6821  0.4884 -0.5462
 9502SOL     OW39964   4.293   0.084   7.910  0.0005 -0.2771  0.5372
 9502SOL    HW139965   4.217   0.131   7.941  0.0626  0.4560 -0.4191
 9502SOL    HW239966   4.364   0.146   7.895  0.6501 -1.1450 -0.0173
 9503SOL     OW39967   1.291   3.147  17.153 -0.1050  0.0684 -0.0919
 9503SOL    HW139968   1.265   3.086  17.222 -1.3522 -0.6786 -1.2208
 9503SOL    HW239969   1.293   3.228  17.203 -0.6086  0.8975 -1.4098
 9504SOL     OW39970   2.547   0.967  12.683 -0.0791 -0.1654 -0.0258
 9504SOL    HW139971   2.544   0.993  12.591 -1.2786  1.5444  0.5230
 9504SOL    HW239972   2.569   1.046  12.732 -2.6422 -0.0581  0.9160
 9505SOL     OW39973   3.082   0.702   8.943  0.0463 -0.0168 -0.5625
 9505SOL    HW139974   3.082   0.764   9.016 -2.6703  1.4739 -1.8488
 9505SOL    HW239975   3.173   0.673   8.945  0.0828  0.0461 -1.3059
 9506SOL     OW39976   2.587   1.327  13.620 -0.0942 -0.2164 -0.2109
 9506SOL    HW139977   2.571   1.314  13.527  1.0308 -0.3867 -0.3711
 9506SOL    HW239978   2.526   1.259  13.646  0.6031 -1.0367 -0.7391
 9507SOL     OW39979   2.408   4.040   7.478 -0.5346 -0.0675 -0.2045
 9507SOL    HW139980   2.354   4.119   7.488 -1.4614 -0.8905  1.1953
 9507SOL    HW239981   2.486   4.075   7.522 -1.2975  1.4721 -0.0589
 9508SOL     OW39982   1.105   0.123   5.024 -0.4224  0.4529 -0.3743
 9508SOL    HW139983   1.045   0.137   4.951 -0.5286 -1.9400 -0.7670
 9508SOL    HW239984   1.152   0.047   4.988 -1.1656  0.7053 -1.8623
 9509SOL     OW39985   3.949   0.496  16.656 -0.3200  0.7868  0.0974
 9509SOL    HW139986   3.984   0.407  16.660 -1.1298  0.4205 -0.7355
 9509SOL    HW239987   4.029   0.549  16.652  0.0599  0.1372 -0.8276
 9510SOL     OW39988   4.296   2.969   7.393 -0.6318  0.4327 -0.4142
 9510SOL    HW139989   4.271   3.046   7.343  1.3251  2.0087  1.0271
 9510SOL    HW239990   4.261   2.896   7.342 -1.2856 -0.1813  0.8999
 9511SOL     OW39991   1.291   0.727   6.051  0.1846  0.1914  0.1634
 9511SOL    HW139992   1.217   0.688   6.005  1.8832 -3.1905  0.2846
 9511SOL    HW239993   1.238   0.762   6.122  1.5732  2.4549  0.1024
 9512SOL     OW39994   0.072   1.037  15.501 -0.1383  0.0768 -0.3851
 9512SOL    HW139995   0.163   1.015  15.522 -0.2233  0.1597  0.0756
 9512SOL    HW239996   0.057   1.091  15.579  1.8356  0.0477  0.0131
 9513SOL     OW39997   1.599   0.053   0.848  0.5084  0.1130 -0.5028
 9513SOL    HW139998   1.560   0.092   0.926  0.8970  0.9139 -0.7051
 9513SOL    HW239999   1.667   4.719   0.882 -2.3518 -2.2194  1.2000
 9514SOL     OW40000   1.936   1.770   3.142 -0.4976 -0.1971 -0.4928
 9514SOL    HW140001   2.015   1.733   3.103  0.5171 -0.4859  1.8715
 9514SOL    HW240002   1.902   1.821   3.068 -0.5182 -0.7220 -0.8388
 9515SOL     OW40003   0.958   1.660  12.281  0.0282  0.1228 -0.1767
 9515SOL    HW140004   1.044   1.620  12.296  0.9085  2.2193  0.3453
 9515SOL    HW240005   0.950   1.668  12.186 -0.1832 -0.0526 -0.1752
 9516SOL     OW40006   2.977   1.706   7.533 -0.6008  0.5288 -0.6512
 9516SOL    HW140007   2.974   1.772   7.464  3.0267 -0.6690 -1.9669
 9516SOL    HW240008   3.030   1.635   7.498 -0.8167 -0.2417  0.5941
 9517SOL     OW40009   0.953   3.743  10.780  0.3429 -0.0796 -0.5181
 9517SOL    HW140010   1.046   3.754  10.802  0.2696  2.0552 -1.2444
 9517SOL    HW240011   0.933   3.819  10.725  2.4865  0.1468 -1.0004
 9518SOL     OW40012   1.221   2.477  15.185  0.1105 -0.7703 -0.3489
 9518SOL    HW140013   1.272   2.401  15.213  1.2310  0.0315 -0.2621
 9518SOL    HW240014   1.286   2.542  15.211  2.8786 -3.6685 -0.0433
 9519SOL     OW40015   4.227   3.458   5.632  0.1279 -0.3689  0.2311
 9519SOL    HW140016   4.146   3.425   5.671  0.5154 -0.4386  0.9816
 9519SOL    HW240017   4.189   3.535   5.592  3.0561 -0.6454 -3.0141
 9520SOL     OW40018   1.894   2.095  16.756 -0.1338 -0.7392 -0.1091
 9520SOL    HW140019   1.910   2.005  16.785  0.6533 -1.0173 -1.4228
 9520SOL    HW240020   1.958   2.136  16.814  0.9213 -1.1323 -0.9939
 9521SOL     OW40021   2.256   3.065   3.233  0.0823 -0.4969  0.6382
 9521SOL    HW140022   2.169   3.057   3.194 -0.1338 -0.6599  1.1649
 9521SOL    HW240023   2.293   2.986   3.193 -0.2642  0.4051 -1.4689
 9522SOL     OW40024   2.160   2.836   4.807 -0.0183  0.0550  0.0861
 9522SOL    HW140025   2.233   2.821   4.748 -1.8721  0.1382 -2.2209
 9522SOL    HW240026   2.092   2.863   4.745  0.9156  3.8430  0.7037
 9523SOL     OW40027   3.879   4.666   3.605  0.1459 -0.0185 -0.3028
 9523SOL    HW140028   3.828   0.003   3.553  0.3428 -0.1882 -0.6966
 9523SOL    HW240029   3.827   4.588   3.626  0.2263  0.3348  1.1975
 9524SOL     OW40030   4.666   2.936  10.048 -0.5936 -0.1298 -0.3637
 9524SOL    HW140031   0.020   2.881  10.047  0.0263  0.6738  3.7118
 9524SOL    HW240032   4.649   2.914  10.140 -0.9824  0.0636 -0.3885
 9525SOL     OW40033   0.413   1.426   5.326  0.2543  0.4726  0.1241
 9525SOL    HW140034   0.493   1.432   5.273  1.8572 -0.0922  2.4944
 9525SOL    HW240035   0.375   1.353   5.276  1.4311 -1.0311  1.4467
 9526SOL     OW40036   4.043   3.818   1.443  0.0921 -0.4906  0.2111
 9526SOL    HW140037   3.998   3.738   1.468 -0.0104 -1.5032 -3.1254
 9526SOL    HW240038   4.029   3.823   1.348 -1.7831 -0.4498  0.4937
 9527SOL     OW40039   1.881   0.088  13.953 -0.1365 -0.4799 -0.3311
 9527SOL    HW140040   1.854   0.056  13.867  0.7697 -0.8924 -0.4687
 9527SOL    HW240041   1.963   0.135  13.938 -1.5718  1.9395 -0.5161
 9528SOL     OW40042   4.030   0.243  16.670 -0.5498  0.0340 -0.4863
 9528SOL    HW140043   4.121   0.219  16.656 -0.3438  0.9407 -0.7279
 9528SOL    HW240044   3.996   0.209  16.587 -0.2121  2.3558 -1.5830
 9529SOL     OW40045   1.583   0.919   5.450  0.0831 -0.0122 -0.2783
 9529SOL    HW140046   1.677   0.929   5.467 -0.5535  2.4891  1.6728
 9529SOL    HW240047   1.559   1.010   5.434  1.3152  0.2717 -0.5270
 9530SOL     OW40048   0.965   3.431   2.977 -0.5356 -0.6830  0.0670
 9530SOL    HW140049   1.052   3.422   3.018 -0.7832 -1.9999  0.2874
 9530SOL    HW240050   0.924   3.345   2.987  0.3839 -1.2146 -0.6409
 9531SOL     OW40051   4.483   3.147  13.452  0.9358 -0.0490 -0.1966
 9531SOL    HW140052   4.539   3.182  13.522 -0.0365  1.2599 -0.0782
 9531SOL    HW240053   4.468   3.056  13.478  1.4315 -1.1142 -3.7717
 9532SOL     OW40054   1.639   3.619   4.087 -0.6238  0.0283  0.2345
 9532SOL    HW140055   1.604   3.697   4.043 -1.0429 -0.0893  0.3623
 9532SOL    HW240056   1.732   3.634   4.106 -1.1823  0.4240  2.6429
 9533SOL     OW40057   0.746   3.196   0.136 -0.4752 -0.1198 -0.2519
 9533SOL    HW140058   0.717   3.198   0.227  2.0281  0.0247  0.5518
 9533SOL    HW240059   0.665   3.170   0.093 -0.2302  0.2845 -0.9602
 9534SOL     OW40060   4.710   2.590   0.093 -0.1405 -0.2075 -0.3628
 9534SOL    HW140061   0.020   2.543   0.169  0.9875  0.1283 -0.6742
 9534SOL    HW240062   4.621   2.555   0.083  0.2210 -0.5312 -2.3059
 9535SOL     OW40063   2.217   0.675   6.098 -0.5696  0.4208 -0.0974
 9535SOL    HW140064   2.134   0.647   6.059 -0.2809  0.2665 -0.5912
 9535SOL    HW240065   2.195   0.762   6.133  0.1709  0.0506  1.2932
 9536SOL     OW40066   3.324   0.155  12.491 -0.0581 -0.1042  0.3817
 9536SOL    HW140067   3.396   0.114  12.540 -1.0371 -2.1565  0.1295
 9536SOL    HW240068   3.347   0.247  12.501  0.2202 -0.0514 -0.7865
 9537SOL     OW40069   0.756   2.407   1.306 -0.0634 -0.4207  0.1333
 9537SOL    HW140070   0.727   2.494   1.335 -1.2432  0.0084 -2.2897
 9537SOL    HW240071   0.848   2.430   1.293  0.0882 -0.9612  0.2697
 9538SOL     OW40072   0.299   3.514   4.142 -0.3423 -0.2005 -0.1040
 9538SOL    HW140073   0.392   3.494   4.158 -0.0565  2.2202  1.1895
 9538SOL    HW240074   0.299   3.608   4.122  0.4102  0.2087  1.8641
 9539SOL     OW40075   2.545   0.121  14.278  0.5133 -0.5623  0.2013
 9539SOL    HW140076   2.504   0.035  14.277  1.1271 -0.8813  1.5164
 9539SOL    HW240077   2.573   0.129  14.187  1.6920  0.1898  0.6340
 9540SOL     OW40078   3.244   1.806   8.125  0.3119 -0.6041 -0.6965
 9540SOL    HW140079   3.308   1.817   8.195 -0.4618 -0.1449 -0.0590
 9540SOL    HW240080   3.192   1.737   8.166  0.1148  0.9472  1.7149
 9541SOL     OW40081   3.660   3.749  11.148  0.4772 -0.6232  0.0933
 9541SOL    HW140082   3.673   3.806  11.072  2.9192 -1.5536 -0.1841
 9541SOL    HW240083   3.702   3.799  11.219  1.6073 -0.6961 -0.5200
 9542SOL     OW40084   1.991   1.436   4.505  0.0902  0.0421 -0.4137
 9542SOL    HW140085   2.023   1.386   4.580 -0.3636 -0.8948 -0.8503
 9542SOL    HW240086   1.903   1.398   4.507  0.3105 -0.4031  0.9310
 9543SOL     OW40087   0.908   1.645   6.691 -0.1354  0.2408 -0.2641
 9543SOL    HW140088   0.991   1.689   6.708 -0.0382 -0.5304  1.3264
 9543SOL    HW240089   0.916   1.617   6.600 -1.2101 -4.2359  1.0156
 9544SOL     OW40090   4.236   4.137  16.362  0.3112 -0.0106 -0.1142
 9544SOL    HW140091   4.312   4.143  16.419  1.1638 -0.8223 -1.1692
 9544SOL    HW240092   4.225   4.231  16.346  0.2377  0.1823  1.1119
 9545SOL     OW40093   2.506   3.085   2.679 -0.4509 -0.0461  0.1617
 9545SOL    HW140094   2.564   3.161   2.673 -0.7774  0.4485  3.4454
 9545SOL    HW240095   2.455   3.128   2.747  0.0265  0.1690  0.3860
 9546SOL     OW40096   2.617   3.072   7.194  0.2258  0.0253 -0.0805
 9546SOL    HW140097   2.677   3.103   7.126 -0.1236  0.3306 -0.2501
 9546SOL    HW240098   2.530   3.100   7.165  1.2554  2.5281 -0.7160
 9547SOL     OW40099   0.251   2.874   1.458  0.5318 -0.4016  0.4203
 9547SOL    HW140100   0.336   2.858   1.498 -0.1682 -2.9061  0.9167
 9547SOL    HW240101   0.200   2.934   1.512  0.1564  0.8382 -1.3015
 9548SOL     OW40102   4.287   4.690   4.515  0.1214  0.3453 -0.4331
 9548SOL    HW140103   4.362   0.022   4.534  0.0322  0.7098 -1.1396
 9548SOL    HW240104   4.253   0.007   4.435  0.8512  0.9999 -0.4066
 9549SOL     OW40105   1.312   3.867   1.621 -0.0711  0.2594 -0.1556
 9549SOL    HW140106   1.396   3.904   1.595 -1.5390  2.5903 -1.6254
 9549SOL    HW240107   1.329   3.803   1.690 -0.5034  1.7578  1.3271
 9550SOL     OW40108   1.241   0.598   2.226 -0.0436  0.3787 -0.2390
 9550SOL    HW140109   1.183   0.662   2.186  0.4738  0.7689 -0.3702
 9550SOL    HW240110   1.326   0.643   2.221 -0.5081  0.9135 -3.1480
 9551SOL     OW40111   2.863   4.301   6.092 -0.0709  0.4432 -0.2971
 9551SOL    HW140112   2.862   4.347   6.176  1.2290 -0.2384  0.0794
 9551SOL    HW240113   2.956   4.281   6.085  0.2546  1.9791 -0.4824
 9552SOL     OW40114   2.932   0.998   6.206 -0.1013  0.2692 -0.3073
 9552SOL    HW140115   2.892   1.007   6.292 -0.5605 -1.4776 -0.3398
 9552SOL    HW240116   2.961   1.085   6.179 -0.7890  0.6514  0.1796
 9553SOL     OW40117   2.841   0.445   5.776 -0.2730 -0.2953  0.2880
 9553SOL    HW140118   2.914   0.490   5.734  0.6401 -0.2566  1.8991
 9553SOL    HW240119   2.885   0.405   5.852  0.3471 -0.4454 -0.1478
 9554SOL     OW40120   2.280   0.295  14.526  0.3441 -0.1520  0.5720
 9554SOL    HW140121   2.369   0.272  14.554  0.8173  0.2888 -0.5814
 9554SOL    HW240122   2.294   0.312  14.433  1.6702  0.0314  0.8054
 9555SOL     OW40123   1.829   4.356   6.250  0.1849 -0.1638  0.5960
 9555SOL    HW140124   1.755   4.415   6.234  0.5922  0.3611  0.6194
 9555SOL    HW240125   1.901   4.412   6.221  0.8341  0.0243  2.5603
 9556SOL     OW40126   3.264   3.520  14.014  0.0146  0.4565  0.3942
 9556SOL    HW140127   3.333   3.505  14.079 -1.6818  0.9107  2.3110
 9556SOL    HW240128   3.313   3.555  13.940 -1.2725 -1.2093 -1.2235
 9557SOL     OW40129   0.584   3.624   9.037  0.3359  0.3008  0.1375
 9557SOL    HW140130   0.533   3.700   9.010 -0.6956 -0.8503 -1.1711
 9557SOL    HW240131   0.561   3.554   8.975  1.2993  0.5404 -0.4896
 9558SOL     OW40132   4.225   0.287  15.291 -0.3533  0.1754  0.1505
 9558SOL    HW140133   4.215   0.208  15.343 -0.6694 -0.9807 -1.6452
 9558SOL    HW240134   4.281   0.255  15.220 -0.7933  1.1477 -0.6361
 9559SOL     OW40135   3.152   2.410  13.473  0.0759 -0.4937 -0.1437
 9559SOL    HW140136   3.069   2.400  13.520  1.5665 -0.4359  2.4980
 9559SOL    HW240137   3.129   2.366  13.392 -0.7931  0.2958 -0.3201
 9560SOL     OW40138   1.801   0.189   2.930 -0.0810 -0.4269  0.3947
 9560SOL    HW140139   1.767   0.166   3.017 -0.9944 -1.8522 -0.3372
 9560SOL    HW240140   1.885   0.220   2.966 -0.2492 -0.2926  0.6680
 9561SOL     OW40141   0.933   2.225   8.027 -0.2070  0.4306 -0.0831
 9561SOL    HW140142   1.027   2.210   8.041 -0.8025  1.4051  5.1630
 9561SOL    HW240143   0.926   2.308   7.979  1.5879 -0.5207 -1.9957
 9562SOL     OW40144   2.466   0.311   7.642 -0.7602 -0.6571 -0.2194
 9562SOL    HW140145   2.382   0.324   7.686  0.4361  0.7561  1.6114
 9562SOL    HW240146   2.516   0.267   7.710  0.2121  0.0749 -0.4644
 9563SOL     OW40147   4.253   4.296   2.535 -0.7841  0.1911  0.0260
 9563SOL    HW140148   4.265   4.208   2.498 -1.0444  0.6461 -1.1468
 9563SOL    HW240149   4.187   4.316   2.468 -1.6909  1.4788  1.3127
 9564SOL     OW40150   4.381   3.658  10.302  0.4342  0.0148  0.2870
 9564SOL    HW140151   4.315   3.609  10.252 -0.0184  0.9548 -0.0207
 9564SOL    HW240152   4.421   3.708  10.231  1.7782  0.7008  1.5338
 9565SOL     OW40153   4.572   2.297  14.951  0.2937 -0.6439 -0.1229
 9565SOL    HW140154   4.612   2.375  14.912  1.1952  0.2518  2.5873
 9565SOL    HW240155   4.590   2.309  15.045  0.3050 -1.0069 -0.0779
   4.72420   4.72420  17.69842
